<event>
12    1  0.3166324E-008  0.4984307E+03  0.7818608E-02  0.1014189E+00
         -2   -1    0    0    0  501 -0.00000000000E+00  0.00000000000E+00  0.26096300889E+03  0.26096300889E+03  0.00000000000E+00 0. -1.
          2   -1    0    0  501    0  0.00000000000E+00 -0.00000000000E+00 -0.11574179513E+04  0.11574179513E+04  0.00000000000E+00 0.  1.
         23    2    1    2    0    0 -0.80938523664E+02  0.35974738432E+03 -0.20700941338E+03  0.43282506036E+03  0.92278981950E+02 0.  0.
    5000000    2    1    2    0    0  0.80938523664E+02 -0.35974738432E+03 -0.68944552901E+03  0.98555589982E+03  0.60001339072E+03 0.  0.
         23    2    4    4    0    0 -0.19466052336E+03 -0.66595902564E+02 -0.46317044531E+03  0.51511363879E+03  0.92127443592E+02 0.  0.
         23    2    4    4    0    0  0.27559904702E+03 -0.29315148176E+03 -0.22627508370E+03  0.47044226103E+03  0.90680105201E+02 0.  0.
          2    1    3    3  502    0 -0.65943948154E+02  0.22055402506E+03 -0.79731761234E+02  0.24361821774E+03  0.00000000000E+00 0. -1.
         -2    1    3    3    0  502 -0.14994575510E+02  0.13919335927E+03 -0.12727765214E+03  0.18920684262E+03  0.00000000000E+00 0.  1.
         11    1    5    5    0    0 -0.15196274352E+03 -0.87956923150E+01 -0.28740368885E+03  0.32522441481E+03  0.00000000000E+00 0. -1.
        -11    1    5    5    0    0 -0.42697779846E+02 -0.57800210249E+02 -0.17576675646E+03  0.18988922398E+03  0.00000000000E+00 0.  1.
          5    1    6    6  503    0  0.23645065780E+03 -0.25137783384E+03 -0.22681336410E+03  0.41299651458E+03  0.47000000000E+01 0. -1.
         -5    1    6    6    0  503  0.39148389223E+02 -0.41773647917E+02  0.53828039946E+00  0.57445746447E+02  0.47000000000E+01 0.  1.
<mgrwt>
<rscale>  0 0.49843070E+03</rscale>
<asrwt>0</asrwt>
<pdfrwt beam="1">  1        2 0.17806430E+00 0.49843070E+03</pdfrwt>
<pdfrwt beam="2">  1       -2 0.40148156E-01 0.49843070E+03</pdfrwt>
<totfact> 0.12239159E+02</totfact>
</mgrwt>
</event>
<event>
12    1  0.3166324E-008  0.8776068E+03  0.7818608E-02  0.9454015E-01
         -2   -1    0    0    0  501 -0.00000000000E+00  0.00000000000E+00  0.33268913860E+03  0.33268913860E+03  0.00000000000E+00 0. -1.
          2   -1    0    0  501    0  0.00000000000E+00 -0.00000000000E+00 -0.37777475696E+04  0.37777475696E+04  0.00000000000E+00 0.  1.
         23    2    1    2    0    0 -0.27154265685E+03 -0.75492815015E+03 -0.39279819835E+03  0.89796083324E+03  0.91604077615E+02 0.  0.
    5000000    2    1    2    0    0  0.27154265685E+03  0.75492815015E+03 -0.30522602327E+04  0.32124758750E+04  0.60004732563E+03 0.  0.
         23    2    4    4    0    0  0.38964839854E+03  0.32953109149E+03 -0.12224440806E+04  0.13279042285E+04  0.92431028367E+02 0.  0.
         23    2    4    4    0    0 -0.11810574169E+03  0.42539705866E+03 -0.18298161520E+04  0.18845716465E+04  0.92040843009E+02 0.  0.
          1    1    3    3  502    0 -0.20550735838E+03 -0.59595790395E+03 -0.34806678502E+03  0.72010387061E+03  0.00000000000E+00 0. -1.
         -1    1    3    3    0  502 -0.66035298467E+02 -0.15897024620E+03 -0.44731413339E+02  0.17785696264E+03  0.00000000000E+00 0.  1.
         13    1    5    5    0    0  0.23446694466E+03  0.18054839093E+03 -0.59344878191E+03  0.66313944714E+03  0.00000000000E+00 0. -1.
        -13    1    5    5    0    0  0.15518145388E+03  0.14898270056E+03 -0.62899529873E+03  0.66476478134E+03  0.00000000000E+00 0.  1.
          5    1    6    6  503    0 -0.34330789706E+02  0.13171125842E+03 -0.40174807974E+03  0.42420521954E+03  0.47000000000E+01 0.  1.
         -5    1    6    6    0  503 -0.83774951986E+02  0.29368580024E+03 -0.14280680723E+04  0.14603664270E+04  0.47000000000E+01 0. -1.
<mgrwt>
<rscale>  0 0.87760681E+03</rscale>
<asrwt>0</asrwt>
<pdfrwt beam="1">  1        2 0.58119190E+00 0.87760681E+03</pdfrwt>
<pdfrwt beam="2">  1       -2 0.51182947E-01 0.87760681E+03</pdfrwt>
<totfact> 0.19707027E+00</totfact>
</mgrwt>
</event>
<event>
12    1  0.3166324E-008  0.5014283E+03  0.7818608E-02  0.1013407E+00
         -2   -1    0    0    0  501 -0.00000000000E+00  0.00000000000E+00  0.22370137487E+03  0.22370137487E+03  0.00000000000E+00 0.  1.
          2   -1    0    0  501    0  0.00000000000E+00 -0.00000000000E+00 -0.11857283976E+04  0.11857283976E+04  0.00000000000E+00 0. -1.
         23    2    1    2    0    0 -0.30035430710E+03  0.14006751328E+03 -0.35137139814E+03  0.49134372552E+03  0.90139775371E+02 0.  0.
    5000000    2    1    2    0    0  0.30035430710E+03 -0.14006751328E+03 -0.61065562458E+03  0.91808604694E+03  0.60012505337E+03 0.  0.
         23    2    4    4    0    0  0.44212207131E+03 -0.20800501484E+03 -0.50080586471E+03  0.70565792464E+03  0.91698311569E+02 0.  0.
         23    2    4    4    0    0 -0.14176776421E+03  0.67937501558E+02 -0.10984975987E+03  0.21242812230E+03  0.91351706684E+02 0.  0.
          3    1    3    3  502    0 -0.33635272705E+02  0.21596581977E+02 -0.94300604338E+02  0.10242239941E+03  0.00000000000E+00 0. -1.
         -3    1    3    3    0  502 -0.26671903439E+03  0.11847093131E+03 -0.25707079381E+03  0.38892132611E+03  0.00000000000E+00 0.  1.
         13    1    5    5    0    0  0.29729005862E+03 -0.16140762061E+03 -0.28930339285E+03  0.44511824503E+03  0.00000000000E+00 0.  1.
        -13    1    5    5    0    0  0.14483201268E+03 -0.46597394229E+02 -0.21150247186E+03  0.26053967960E+03  0.00000000000E+00 0. -1.
          5    1    6    6  503    0 -0.12029919515E+03  0.12571100566E+02 -0.61876949990E+02  0.13594401739E+03  0.47000000000E+01 0. -1.
         -5    1    6    6    0  503 -0.21468569052E+02  0.55366400992E+02 -0.47972809881E+02  0.76484104910E+02  0.47000000000E+01 0.  1.
<mgrwt>
<rscale>  0 0.50142832E+03</rscale>
<asrwt>0</asrwt>
<pdfrwt beam="1">  1        2 0.18241976E+00 0.50142832E+03</pdfrwt>
<pdfrwt beam="2">  1       -2 0.34415595E-01 0.50142832E+03</pdfrwt>
<totfact> 0.15808667E+02</totfact>
</mgrwt>
</event>
<event>
12    1  0.3166324E-008  0.5528266E+03  0.7818608E-02  0.1000842E+00
         -2   -1    0    0    0  501 -0.00000000000E+00  0.00000000000E+00  0.40863034978E+03  0.40863034978E+03  0.00000000000E+00 0.  1.
          2   -1    0    0  501    0  0.00000000000E+00 -0.00000000000E+00 -0.80118098442E+03  0.80118098442E+03  0.00000000000E+00 0. -1.
         23    2    1    2    0    0 -0.17695118583E+03 -0.36412350207E+03 -0.86651132333E+02  0.42396298589E+03  0.91315648964E+02 0.  0.
    5000000    2    1    2    0    0  0.17695118583E+03  0.36412350207E+03 -0.30589950231E+03  0.78584834831E+03  0.60007122419E+03 0.  0.
         23    2    4    4    0    0  0.13635592002E+03  0.51159819097E+03 -0.17893157663E+03  0.56621706527E+03  0.90882396321E+02 0.  0.
         23    2    4    4    0    0  0.40595265819E+02 -0.14747468890E+03 -0.12696792568E+03  0.21963128304E+03  0.93382476203E+02 0.  0.
          3    1    3    3  502    0  0.41047666164E+01 -0.66229141869E+02 -0.16434896575E+02  0.68361203669E+02  0.00000000000E+00 0. -1.
         -3    1    3    3    0  502 -0.18105595245E+03 -0.29789436020E+03 -0.70216235758E+02  0.35560178222E+03  0.00000000000E+00 0.  1.
         11    1    5    5    0    0  0.82465525414E+02  0.40165515778E+03 -0.10528662760E+03  0.42333521305E+03  0.00000000000E+00 0.  1.
        -11    1    5    5    0    0  0.53890394601E+02  0.10994303319E+03 -0.73644949031E+02  0.14288185222E+03  0.00000000000E+00 0. -1.
          5    1    6    6  503    0  0.43265626761E+02 -0.84802481773E+02 -0.12434026611E+03  0.15667152629E+03  0.47000000000E+01 0. -1.
         -5    1    6    6    0  503 -0.26703609427E+01 -0.62672207132E+02 -0.26276595680E+01  0.62959756743E+02  0.47000000000E+01 0.  1.
<mgrwt>
<rscale>  0 0.55282658E+03</rscale>
<asrwt>0</asrwt>
<pdfrwt beam="1">  1        2 0.12325861E+00 0.55282658E+03</pdfrwt>
<pdfrwt beam="2">  1       -2 0.62866208E-01 0.55282658E+03</pdfrwt>
<totfact> 0.82967561E+01</totfact>
</mgrwt>
</event>
<event>
12    1  0.3166324E-008  0.4662505E+03  0.7818608E-02  0.1022984E+00
         -1   -1    0    0    0  501 -0.00000000000E+00  0.00000000000E+00  0.47684073304E+03  0.47684073304E+03  0.00000000000E+00 0.  1.
          1   -1    0    0  501    0  0.00000000000E+00 -0.00000000000E+00 -0.57994956135E+03  0.57994956135E+03  0.00000000000E+00 0. -1.
         23    2    1    2    0    0 -0.43348901253E+02 -0.29766179219E+03 -0.20919283572E+03  0.37743200989E+03  0.90617933146E+02 0.  0.
    5000000    2    1    2    0    0  0.43348901253E+02  0.29766179219E+03  0.10608400742E+03  0.67935828450E+03  0.59982680193E+03 0.  0.
         23    2    4    4    0    0  0.23208585349E+03  0.35134809547E+03 -0.14388729974E+02  0.43169855559E+03  0.94059979647E+02 0.  0.
         23    2    4    4    0    0 -0.18873695223E+03 -0.53686303281E+02  0.12047273739E+03  0.24765972891E+03  0.91201998715E+02 0.  0.
          2    1    3    3  502    0  0.12188921615E+02 -0.14482824710E+03 -0.61699769136E+02  0.15789443460E+03  0.00000000000E+00 0. -1.
         -2    1    3    3    0  502 -0.55537822869E+02 -0.15283354509E+03 -0.14749306658E+03  0.21953757529E+03  0.00000000000E+00 0.  1.
         11    1    5    5    0    0  0.11770869247E+03  0.11172698798E+03 -0.32686914639E+02  0.16554966178E+03  0.00000000000E+00 0.  1.
        -11    1    5    5    0    0  0.11437716102E+03  0.23962110749E+03  0.18298184665E+02  0.26614889381E+03  0.00000000000E+00 0. -1.
          5    1    6    6  503    0 -0.42747862523E+02 -0.16058162409E+02 -0.11407776764E+02  0.47301920690E+02  0.47000000000E+01 0. -1.
         -5    1    6    6    0  503 -0.14598908971E+03 -0.37628140872E+02  0.13188051416E+03  0.20035780822E+03  0.47000000000E+01 0.  1.
<mgrwt>
<rscale>  0 0.46625050E+03</rscale>
<asrwt>0</asrwt>
<pdfrwt beam="1">  1        1 0.89223009E-01 0.46625050E+03</pdfrwt>
<pdfrwt beam="2">  1       -1 0.73360113E-01 0.46625050E+03</pdfrwt>
<totfact> 0.70646047E+01</totfact>
</mgrwt>
</event>
<event>
12    1  0.3166324E-008  0.1309955E+04  0.7818608E-02  0.9021707E-01
          1   -1    0    0  501    0  0.00000000000E+00  0.00000000000E+00  0.29558743075E+04  0.29558743075E+04  0.00000000000E+00 0. -1.
         -1   -1    0    0    0  501 -0.00000000000E+00 -0.00000000000E+00 -0.11489283646E+04  0.11489283646E+04  0.00000000000E+00 0.  1.
         23    2    1    2    0    0 -0.25428266555E+02  0.12877929148E+04 -0.50877199168E+03  0.13878761005E+04  0.91071085636E+02 0.  0.
    5000000    2    1    2    0    0  0.25428266555E+02 -0.12877929148E+04  0.23157179345E+04  0.27169265716E+04  0.60006937515E+03 0.  0.
         23    2    4    4    0    0  0.39220111380E+01 -0.12303074881E+04  0.17494995222E+04  0.21407311985E+04  0.91156945512E+02 0.  0.
         23    2    4    4    0    0  0.21506255417E+02 -0.57485426686E+02  0.56621841232E+03  0.57619537306E+03  0.87354016371E+02 0.  0.
          2    1    3    3  502    0 -0.42925688791E+02  0.94696698431E+03 -0.33924793414E+03  0.10068158943E+04  0.00000000000E+00 0. -1.
         -2    1    3    3    0  502  0.17497422236E+02  0.34082593049E+03 -0.16952405755E+03  0.38106020622E+03  0.00000000000E+00 0.  1.
         11    1    5    5    0    0  0.17111970349E+02 -0.11079549371E+04  0.15304365826E+04  0.18894689983E+04  0.00000000000E+00 0. -1.
        -11    1    5    5    0    0 -0.13189959211E+02 -0.12235255106E+03  0.21906293957E+03  0.25126220023E+03  0.00000000000E+00 0.  1.
          5    1    6    6  503    0  0.46312316526E+02 -0.57906563244E+02  0.49684382243E+03  0.50236826593E+03  0.47000000000E+01 0. -1.
         -5    1    6    6    0  503 -0.24806061109E+02  0.42113655766E+00  0.69374589894E+02  0.73827107127E+02  0.47000000000E+01 0.  1.
<mgrwt>
<rscale>  0 0.13099555E+04</rscale>
<asrwt>0</asrwt>
<pdfrwt beam="1">  1        1 0.45474989E+00 0.13099555E+04</pdfrwt>
<pdfrwt beam="2">  1       -1 0.17675821E+00 0.13099555E+04</pdfrwt>
<totfact> 0.13774476E-01</totfact>
</mgrwt>
</event>
<event>
12    1  0.3166324E-008  0.1144627E+04  0.7818608E-02  0.9162755E-01
          1   -1    0    0  501    0  0.00000000000E+00  0.00000000000E+00  0.26973216304E+04  0.26973216304E+04  0.00000000000E+00 0. -1.
         -1   -1    0    0    0  501 -0.00000000000E+00 -0.00000000000E+00 -0.58164364391E+03  0.58164364391E+03  0.00000000000E+00 0.  1.
         23    2    1    2    0    0 -0.70332287165E+03 -0.88732213678E+03  0.56738581954E+03  0.12692055080E+04  0.83380556622E+02 0.  0.
    5000000    2    1    2    0    0  0.70332287165E+03  0.88732213678E+03  0.15482921670E+04  0.20097597663E+04  0.59993503620E+03 0.  0.
         23    2    4    4    0    0  0.21882705314E+03  0.43040548706E+03  0.10897419170E+04  0.11959279389E+04  0.97836736258E+02 0.  0.
         23    2    4    4    0    0  0.48449581851E+03  0.45691664972E+03  0.45855024997E+03  0.81383182736E+03  0.92438566214E+02 0.  0.
          1    1    3    3  502    0 -0.16534356388E+03 -0.25636104308E+03  0.17750188381E+03  0.35293965104E+03  0.00000000000E+00 0. -1.
         -1    1    3    3    0  502 -0.53797930778E+03 -0.63096109370E+03  0.38988393573E+03  0.91626585700E+03  0.00000000000E+00 0.  1.
         13    1    5    5    0    0  0.44039510491E+02  0.50837447597E+02  0.23608530565E+03  0.24547952278E+03  0.00000000000E+00 0.  1.
        -13    1    5    5    0    0  0.17478754265E+03  0.37956803946E+03  0.85365661135E+03  0.95044841615E+03  0.00000000000E+00 0. -1.
          5    1    6    6  503    0  0.16358996555E+03  0.10949441175E+03  0.16723532662E+03  0.25834172622E+03  0.47000000000E+01 0. -1.
         -5    1    6    6    0  503  0.32090585296E+03  0.34742223797E+03  0.29131492335E+03  0.55549010114E+03  0.47000000000E+01 0.  1.
<mgrwt>
<rscale>  0 0.11446272E+04</rscale>
<asrwt>0</asrwt>
<pdfrwt beam="1">  1        1 0.41497255E+00 0.11446272E+04</pdfrwt>
<pdfrwt beam="2">  1       -1 0.89483639E-01 0.11446272E+04</pdfrwt>
<totfact> 0.12066349E+00</totfact>
</mgrwt>
</event>
<event>
12    1  0.3166324E-008  0.4448069E+03  0.7818608E-02  0.1029282E+00
         -2   -1    0    0    0  501 -0.00000000000E+00  0.00000000000E+00  0.19805730946E+03  0.19805730946E+03  0.00000000000E+00 0.  1.
          2   -1    0    0  501    0  0.00000000000E+00 -0.00000000000E+00 -0.10197053992E+04  0.10197053992E+04  0.00000000000E+00 0. -1.
         23    2    1    2    0    0 -0.17308924305E+03 -0.16537723015E+03 -0.19579331201E+03  0.31822531676E+03  0.74985444519E+02 0.  0.
    5000000    2    1    2    0    0  0.17308924305E+03  0.16537723015E+03 -0.62585477771E+03  0.89953739188E+03  0.60013648639E+03 0.  0.
         23    2    4    4    0    0 -0.20578168423E+03  0.10113806714E+03 -0.27433921963E+03  0.37079333656E+03  0.98237878738E+02 0.  0.
         23    2    4    4    0    0  0.37887092728E+03  0.64239163018E+02 -0.35151555808E+03  0.52874405532E+03  0.91308481883E+02 0.  0.
          2    1    3    3  502    0 -0.14112717350E+03 -0.86277985377E+02 -0.13416481167E+03  0.21298114130E+03  0.00000000000E+00 0.  1.
         -2    1    3    3    0  502 -0.31962069547E+02 -0.79099244777E+02 -0.61628500338E+02  0.10524417546E+03  0.00000000000E+00 0. -1.
         11    1    5    5    0    0 -0.60980176552E+02 -0.10463132331E+02 -0.40401593690E+02  0.73894166503E+02  0.00000000000E+00 0. -1.
        -11    1    5    5    0    0 -0.14480150768E+03  0.11160119947E+03 -0.23393762594E+03  0.29689917005E+03  0.00000000000E+00 0.  1.
          5    1    6    6  503    0  0.16078902391E+03 -0.16285995055E+02 -0.16059293299E+03  0.22788269783E+03  0.47000000000E+01 0. -1.
         -5    1    6    6    0  503  0.21808190337E+03  0.80525158073E+02 -0.19092262510E+03  0.30086135750E+03  0.47000000000E+01 0.  1.
<mgrwt>
<rscale>  0 0.44480694E+03</rscale>
<asrwt>0</asrwt>
<pdfrwt beam="1">  1        2 0.15687775E+00 0.44480694E+03</pdfrwt>
<pdfrwt beam="2">  1       -2 0.30470355E-01 0.44480694E+03</pdfrwt>
<totfact> 0.25112447E+02</totfact>
</mgrwt>
</event>
<event>
12    1  0.3166324E-008  0.9109494E+03  0.7818608E-02  0.9411997E-01
         -1   -1    0    0    0  501 -0.00000000000E+00  0.00000000000E+00  0.93047125240E+03  0.93047125240E+03  0.00000000000E+00 0.  1.
          1   -1    0    0  501    0  0.00000000000E+00 -0.00000000000E+00 -0.93740956219E+03  0.93740956219E+03  0.00000000000E+00 0. -1.
         23    2    1    2    0    0  0.61612797495E+02  0.82354313094E+03  0.11819895818E+03  0.83920478487E+03  0.90962914980E+02 0.  0.
    5000000    2    1    2    0    0 -0.61612797495E+02 -0.82354313094E+03 -0.12513726797E+03  0.10286760297E+04  0.60041286874E+03 0.  0.
         23    2    4    4    0    0 -0.27462806967E+02  0.56580919629E+02 -0.88886293756E+02  0.14249040945E+03  0.91908309397E+02 0.  0.
         23    2    4    4    0    0 -0.34149990528E+02 -0.88012405057E+03 -0.36250974219E+02  0.88618562026E+03  0.90698700046E+02 0.  0.
          1    1    3    3  502    0  0.61918217305E+01  0.52074099805E+03  0.10389706939E+03  0.53104060743E+03  0.00000000000E+00 0. -1.
         -1    1    3    3    0  502  0.55420975765E+02  0.30280213289E+03  0.14301888784E+02  0.30816417744E+03  0.00000000000E+00 0.  1.
         11    1    5    5    0    0 -0.53101814661E+02  0.62007765263E+02 -0.81282682965E+02  0.11520260511E+03  0.00000000000E+00 0.  1.
        -11    1    5    5    0    0  0.25639007694E+02 -0.54268456341E+01 -0.76036107915E+01  0.27287804348E+02  0.00000000000E+00 0. -1.
          5    1    6    6  503    0  0.30932190912E+02 -0.24996363616E+03 -0.10217813485E+02  0.25212122788E+03  0.47000000000E+01 0. -1.
         -5    1    6    6    0  503 -0.65082181440E+02 -0.63016041441E+03 -0.26033160734E+02  0.63406439238E+03  0.47000000000E+01 0.  1.
<mgrwt>
<rscale>  0 0.91094941E+03</rscale>
<asrwt>0</asrwt>
<pdfrwt beam="1">  1        1 0.14421686E+00 0.91094941E+03</pdfrwt>
<pdfrwt beam="2">  1       -1 0.14314942E+00 0.91094941E+03</pdfrwt>
<totfact> 0.67907149E+00</totfact>
</mgrwt>
</event>
<event>
12    1  0.3166324E-008  0.3130501E+03  0.7818608E-02  0.1078893E+00
         -2   -1    0    0    0  501 -0.00000000000E+00  0.00000000000E+00  0.16999353742E+03  0.16999353742E+03  0.00000000000E+00 0.  1.
          2   -1    0    0  501    0  0.00000000000E+00 -0.00000000000E+00 -0.19388348843E+04  0.19388348843E+04  0.00000000000E+00 0. -1.
         23    2    1    2    0    0 -0.14893011250E+02  0.28469108741E+03 -0.11924574237E+04  0.12293612072E+04  0.90019182908E+02 0.  0.
    5000000    2    1    2    0    0  0.14893011250E+02 -0.28469108741E+03 -0.57638392310E+03  0.87946721450E+03  0.59997778086E+03 0.  0.
         23    2    4    4    0    0 -0.71213606775E+02 -0.18695383818E+03 -0.66252923842E+03  0.69802802911E+03  0.90967149354E+02 0.  0.
         23    2    4    4    0    0  0.86106618025E+02 -0.97737249232E+02  0.86145315317E+02  0.18143918539E+03  0.92370141751E+02 0.  0.
          3    1    3    3  502    0 -0.32191078451E+02  0.10413437361E+03 -0.31418501547E+03  0.33255444253E+03  0.00000000000E+00 0. -1.
         -3    1    3    3    0  502  0.17298067201E+02  0.18055671380E+03 -0.87827240826E+03  0.89680676466E+03  0.00000000000E+00 0.  1.
         11    1    5    5    0    0 -0.47203745996E+02 -0.63496779984E+02 -0.38906323305E+03  0.39702674219E+03  0.00000000000E+00 0.  1.
        -11    1    5    5    0    0 -0.24009860779E+02 -0.12345705820E+03 -0.27346600537E+03  0.30100128692E+03  0.00000000000E+00 0. -1.
          5    1    6    6  503    0  0.67737382790E+02 -0.73621935299E+02  0.11592600252E+02  0.10082172764E+03  0.47000000000E+01 0. -1.
         -5    1    6    6    0  503  0.18369235236E+02 -0.24115313933E+02  0.74552715065E+02  0.80617457742E+02  0.47000000000E+01 0.  1.
<mgrwt>
<rscale>  0 0.31305013E+03</rscale>
<asrwt>0</asrwt>
<pdfrwt beam="1">  1        2 0.29828229E+00 0.31305013E+03</pdfrwt>
<pdfrwt beam="2">  1       -2 0.26152852E-01 0.31305013E+03</pdfrwt>
<totfact> 0.10473023E+02</totfact>
</mgrwt>
</event>
<event>
12    1  0.3166324E-008  0.5559017E+03  0.7818608E-02  0.1000137E+00
          2   -1    0    0  501    0  0.00000000000E+00  0.00000000000E+00  0.18272480028E+04  0.18272480028E+04  0.00000000000E+00 0. -1.
         -2   -1    0    0    0  501 -0.00000000000E+00 -0.00000000000E+00 -0.26089010008E+03  0.26089010008E+03  0.00000000000E+00 0.  1.
         23    2    1    2    0    0 -0.34295608184E+03  0.30609678410E+03  0.11110647929E+04  0.12057852516E+04  0.90216316154E+02 0.  0.
    5000000    2    1    2    0    0  0.34295608184E+03 -0.30609678410E+03  0.45529310981E+03  0.88235285126E+03  0.59995051710E+03 0.  0.
         23    2    4    4    0    0  0.43369521129E+03 -0.27842553791E+03  0.14123272345E+03  0.54217032525E+03  0.91595103313E+02 0.  0.
         23    2    4    4    0    0 -0.90739129447E+02 -0.27671246190E+02  0.31406038637E+03  0.34018252601E+03  0.89949637241E+02 0.  0.
          2    1    3    3  502    0 -0.93989642407E+02  0.48283982030E+02  0.18929566154E+03  0.21679078227E+03  0.00000000000E+00 0.  1.
         -2    1    3    3    0  502 -0.24896643943E+03  0.25781280207E+03  0.92176913139E+03  0.98899446938E+03  0.00000000000E+00 0. -1.
         11    1    5    5    0    0  0.34976913997E+03 -0.19533447968E+03  0.77760093683E+02  0.40809391370E+03  0.00000000000E+00 0. -1.
        -11    1    5    5    0    0  0.83926071316E+02 -0.83091058233E+02  0.63472629763E+02  0.13407641155E+03  0.00000000000E+00 0.  1.
          5    1    6    6  503    0 -0.10796905842E+03 -0.22081107589E+02  0.24603083499E+03  0.26962595323E+03  0.47000000000E+01 0. -1.
         -5    1    6    6    0  503  0.17229928976E+02 -0.55901386005E+01  0.68029551379E+02  0.70556572783E+02  0.47000000000E+01 0.  1.
<mgrwt>
<rscale>  0 0.55590174E+03</rscale>
<asrwt>0</asrwt>
<pdfrwt beam="1">  1        2 0.28111507E+00 0.55590174E+03</pdfrwt>
<pdfrwt beam="2">  1       -2 0.40136940E-01 0.55590174E+03</pdfrwt>
<totfact> 0.51587199E+01</totfact>
</mgrwt>
</event>
<event>
12    1  0.3166324E-008  0.1327630E+04  0.7818608E-02  0.9007937E-01
         -1   -1    0    0    0  501 -0.00000000000E+00  0.00000000000E+00  0.17437362869E+04  0.17437362869E+04  0.00000000000E+00 0.  1.
          1   -1    0    0  501    0  0.00000000000E+00 -0.00000000000E+00 -0.11027976972E+04  0.11027976972E+04  0.00000000000E+00 0. -1.
         23    2    1    2    0    0 -0.74147809404E+02  0.13117696576E+04  0.43918792442E+03  0.13880370957E+04  0.86737615807E+02 0.  0.
    5000000    2    1    2    0    0  0.74147809404E+02 -0.13117696576E+04  0.20175066521E+03  0.14584968884E+04  0.60022688245E+03 0.  0.
         23    2    4    4    0    0 -0.53374830609E+02 -0.22849391106E+03 -0.16851086440E+03  0.30295909135E+03  0.91268612754E+02 0.  0.
         23    2    4    4    0    0  0.12752264001E+03 -0.10832757465E+04  0.37026152962E+03  0.11555377970E+04  0.91791249191E+02 0.  0.
          2    1    3    3  502    0 -0.42898511268E+02  0.84454584388E+03  0.23889114932E+03  0.87873030328E+03  0.00000000000E+00 0. -1.
         -2    1    3    3    0  502 -0.31249298136E+02  0.46722381368E+03  0.20029677510E+03  0.50930679243E+03  0.00000000000E+00 0.  1.
         11    1    5    5    0    0 -0.62283497695E+02 -0.88459044823E+02 -0.49519981237E+02  0.11898094485E+03  0.00000000000E+00 0. -1.
        -11    1    5    5    0    0  0.89086670854E+01 -0.14003486624E+03 -0.11899088317E+03  0.18397814650E+03  0.00000000000E+00 0.  1.
          5    1    6    6  503    0 -0.27481350918E+01 -0.19383199741E+03  0.91114871369E+02  0.21424846615E+03  0.47000000000E+01 0. -1.
         -5    1    6    6    0  503  0.13027077510E+03 -0.88944374909E+03  0.27914665825E+03  0.94128933089E+03  0.47000000000E+01 0.  1.
<mgrwt>
<rscale>  0 0.13276301E+04</rscale>
<asrwt>0</asrwt>
<pdfrwt beam="1">  1        1 0.16966118E+00 0.13276301E+04</pdfrwt>
<pdfrwt beam="2">  1       -1 0.26826712E+00 0.13276301E+04</pdfrwt>
<totfact> 0.64735322E-01</totfact>
</mgrwt>
</event>
<event>
12    1  0.3166324E-008  0.1406361E+04  0.7818608E-02  0.8949227E-01
         -2   -1    0    0    0  501 -0.00000000000E+00  0.00000000000E+00  0.26108974231E+04  0.26108974231E+04  0.00000000000E+00 0.  1.
          2   -1    0    0  501    0  0.00000000000E+00 -0.00000000000E+00 -0.12629658359E+04  0.12629658359E+04  0.00000000000E+00 0. -1.
         23    2    1    2    0    0  0.43439398050E+03  0.12728744192E+04 -0.56325817582E+03  0.14610788598E+04  0.92651197880E+02 0.  0.
    5000000    2    1    2    0    0 -0.43439398050E+03 -0.12728744192E+04  0.19111897630E+04  0.24127843991E+04  0.59997902372E+03 0.  0.
         23    2    4    4    0    0 -0.37650299492E+01 -0.87164380541E+03  0.11490936131E+04  0.14455613953E+04  0.97234339403E+02 0.  0.
         23    2    4    4    0    0 -0.43062895055E+03 -0.40123061384E+03  0.76209614989E+03  0.96722300386E+03  0.91118049780E+02 0.  0.
          1    1    3    3  502    0  0.29304176576E+03  0.96451083401E+03 -0.39832558260E+03  0.10838901675E+04  0.00000000000E+00 0. -1.
         -1    1    3    3    0  502  0.14135221474E+03  0.30836358524E+03 -0.16493259322E+03  0.37718869233E+03  0.00000000000E+00 0.  1.
         11    1    5    5    0    0 -0.40294850123E+02 -0.21694909966E+03  0.31459102338E+03  0.38426305935E+03  0.00000000000E+00 0. -1.
        -11    1    5    5    0    0  0.36529820174E+02 -0.65469470575E+03  0.83450258977E+03  0.10612983359E+04  0.00000000000E+00 0.  1.
          5    1    6    6  503    0 -0.12725425140E+03 -0.10503007422E+03  0.28137530249E+03  0.32621942284E+03  0.47000000000E+01 0. -1.
         -5    1    6    6    0  503 -0.30337469915E+03 -0.29620053962E+03  0.48072084740E+03  0.64100358102E+03  0.47000000000E+01 0.  1.
<mgrwt>
<rscale>  0 0.14063610E+04</rscale>
<asrwt>0</asrwt>
<pdfrwt beam="1">  1        2 0.19430244E+00 0.14063610E+04</pdfrwt>
<pdfrwt beam="2">  1       -2 0.40167653E+00 0.14063610E+04</pdfrwt>
<totfact> 0.12029764E-01</totfact>
</mgrwt>
</event>
<event>
12    1  0.3166324E-008  0.2104389E+04  0.7818608E-02  0.8559312E-01
         -1   -1    0    0    0  501 -0.00000000000E+00  0.00000000000E+00  0.11504852870E+04  0.11504852870E+04  0.00000000000E+00 0.  1.
          1   -1    0    0  501    0  0.00000000000E+00 -0.00000000000E+00 -0.39862103788E+04  0.39862103788E+04  0.00000000000E+00 0. -1.
         23    2    1    2    0    0 -0.18886222820E+04  0.90166716517E+03 -0.15768966281E+04  0.26218047136E+04  0.85785661889E+02 0.  0.
    5000000    2    1    2    0    0  0.18886222820E+04 -0.90166716517E+03 -0.12588284638E+04  0.25148909521E+04  0.60010798959E+03 0.  0.
         23    2    4    4    0    0  0.12911665653E+04 -0.75010962504E+03 -0.61013994434E+03  0.16155785858E+04  0.89709899423E+02 0.  0.
         23    2    4    4    0    0  0.59745571668E+03 -0.15155754013E+03 -0.64868851941E+03  0.89931236639E+03  0.89682304620E+02 0.  0.
          3    1    3    3  502    0 -0.12146037164E+04  0.61730745562E+03 -0.10547423434E+04  0.17230241129E+04  0.00000000000E+00 0. -1.
         -3    1    3    3    0  502 -0.67401856565E+03  0.28435970956E+03 -0.52215428468E+03  0.89878060074E+03  0.00000000000E+00 0.  1.
         11    1    5    5    0    0  0.87748596708E+03 -0.51278435304E+03 -0.45997210020E+03  0.11155732823E+04  0.00000000000E+00 0. -1.
        -11    1    5    5    0    0  0.41368059826E+03 -0.23732527200E+03 -0.15016784414E+03  0.50000530349E+03  0.00000000000E+00 0.  1.
          5    1    6    6  503    0  0.51922082764E+03 -0.10316039047E+03 -0.53036601111E+03  0.74936141465E+03  0.47000000000E+01 0. -1.
         -5    1    6    6    0  503  0.78234889031E+02 -0.48397149659E+02 -0.11832250830E+03  0.14995095174E+03  0.47000000000E+01 0.  1.
<mgrwt>
<rscale>  0 0.21043892E+04</rscale>
<asrwt>0</asrwt>
<pdfrwt beam="1">  1        1 0.61326313E+00 0.21043892E+04</pdfrwt>
<pdfrwt beam="2">  1       -1 0.17699774E+00 0.21043892E+04</pdfrwt>
<totfact> 0.19187855E-02</totfact>
</mgrwt>
</event>
<event>
12    1  0.3166324E-008  0.8856790E+03  0.7818608E-02  0.9443663E-01
         -2   -1    0    0    0  501 -0.00000000000E+00  0.00000000000E+00  0.53074076682E+03  0.53074076682E+03  0.00000000000E+00 0. -1.
          2   -1    0    0  501    0  0.00000000000E+00 -0.00000000000E+00 -0.17844850108E+04  0.17844850108E+04  0.00000000000E+00 0.  1.
         23    2    1    2    0    0 -0.40209577142E+03 -0.77804615439E+03 -0.49181736278E+03  0.10085048462E+04  0.90337582302E+02 0.  0.
    5000000    2    1    2    0    0  0.40209577142E+03  0.77804615439E+03 -0.76192688115E+03  0.13067209313E+04  0.59995849227E+03 0.  0.
         23    2    4    4    0    0  0.73287998759E+02  0.25999147146E+03 -0.60041045653E+03  0.66424521463E+03  0.88103875405E+02 0.  0.
         23    2    4    4    0    0  0.32880777266E+03  0.51805468293E+03 -0.16151642463E+03  0.64247571672E+03  0.10095684859E+03 0.  0.
          1    1    3    3  502    0 -0.22788838851E+03 -0.34995298810E+03 -0.25294897630E+03  0.48824522129E+03  0.00000000000E+00 0. -1.
         -1    1    3    3    0  502 -0.17420738291E+03 -0.42809316629E+03 -0.23886838649E+03  0.52025962494E+03  0.00000000000E+00 0.  1.
         11    1    5    5    0    0  0.40614682038E+02  0.17568827060E+03 -0.29513305087E+03  0.34586043216E+03  0.00000000000E+00 0. -1.
        -11    1    5    5    0    0  0.32673316722E+02  0.84303200862E+02 -0.30527740566E+03  0.31838478247E+03  0.00000000000E+00 0.  1.
          5    1    6    6  503    0 -0.23901828992E+01  0.33307291166E+02 -0.17369116143E+02  0.37932371594E+02  0.47000000000E+01 0. -1.
         -5    1    6    6    0  503  0.33119795556E+03  0.48474739176E+03 -0.14414730848E+03  0.60454334512E+03  0.47000000000E+01 0.  1.
<mgrwt>
<rscale>  0 0.88567903E+03</rscale>
<asrwt>0</asrwt>
<pdfrwt beam="1">  1        2 0.27453616E+00 0.88567903E+03</pdfrwt>
<pdfrwt beam="2">  1       -2 0.81652425E-01 0.88567903E+03</pdfrwt>
<totfact> 0.11760507E+01</totfact>
</mgrwt>
</event>
<event>
12    1  0.3166324E-008  0.8326709E+03  0.7818608E-02  0.9513895E-01
          1   -1    0    0  501    0  0.00000000000E+00  0.00000000000E+00  0.73919589867E+03  0.73919589867E+03  0.00000000000E+00 0. -1.
         -1   -1    0    0    0  501 -0.00000000000E+00 -0.00000000000E+00 -0.10705010549E+04  0.10705010549E+04  0.00000000000E+00 0.  1.
         23    2    1    2    0    0 -0.54250579528E+03  0.54796501707E+03  0.57343822611E+01  0.77611553919E+03  0.88001415810E+02 0.  0.
    5000000    2    1    2    0    0  0.54250579528E+03 -0.54796501707E+03 -0.33703953847E+03  0.10335814144E+04  0.60009723527E+03 0.  0.
         23    2    4    4    0    0  0.34278856507E+02 -0.34508887890E+03  0.43300849292E+02  0.36091344323E+03  0.90123113626E+02 0.  0.
         23    2    4    4    0    0  0.50822693878E+03 -0.20287613817E+03 -0.38034038776E+03  0.67266797113E+03  0.91487923179E+02 0.  0.
          3    1    3    3  502    0 -0.27636921843E+03  0.28371820887E+03  0.46812578720E+02  0.39883252685E+03  0.00000000000E+00 0. -1.
         -3    1    3    3    0  502 -0.26613657685E+03  0.26424680819E+03 -0.41078196459E+02  0.37728301234E+03  0.00000000000E+00 0.  1.
         13    1    5    5    0    0  0.30384581487E+02 -0.27246035360E+03 -0.39537096281E+01  0.27417785996E+03  0.00000000000E+00 0. -1.
        -13    1    5    5    0    0  0.38942750206E+01 -0.72628525304E+02  0.47254558920E+02  0.86735583266E+02  0.00000000000E+00 0.  1.
          5    1    6    6  503    0  0.39616905850E+03 -0.15892917437E+03 -0.33965490108E+03  0.54552355330E+03  0.47000000000E+01 0. -1.
         -5    1    6    6    0  503  0.11205788028E+03 -0.43946963798E+02 -0.40685486687E+02  0.12714441784E+03  0.47000000000E+01 0.  1.
<mgrwt>
<rscale>  0 0.83267086E+03</rscale>
<asrwt>0</asrwt>
<pdfrwt beam="1">  1        1 0.11372245E+00 0.83267086E+03</pdfrwt>
<pdfrwt beam="2">  1       -1 0.16469247E+00 0.83267086E+03</pdfrwt>
<totfact> 0.68978471E+00</totfact>
</mgrwt>
</event>
<event>
12    1  0.3166324E-008  0.7935428E+03  0.7818608E-02  0.9569411E-01
         -2   -1    0    0    0  501 -0.00000000000E+00  0.00000000000E+00  0.36445976228E+03  0.36445976228E+03  0.00000000000E+00 0. -1.
          2   -1    0    0  501    0  0.00000000000E+00 -0.00000000000E+00 -0.24920625904E+04  0.24920625904E+04  0.00000000000E+00 0.  1.
         23    2    1    2    0    0 -0.48206705887E+03  0.51423906849E+03 -0.23325726719E+03  0.74811365513E+03  0.91840184525E+02 0.  0.
    5000000    2    1    2    0    0  0.48206705887E+03 -0.51423906849E+03 -0.18943455609E+04  0.21084086975E+04  0.60000971895E+03 0.  0.
         23    2    4    4    0    0  0.52368242735E+03 -0.19565163890E+03 -0.14056120716E+04  0.15156811576E+04  0.94980140778E+02 0.  0.
         23    2    4    4    0    0 -0.41615368485E+02 -0.31858742959E+03 -0.48873348931E+03  0.59272753992E+03  0.96102673353E+02 0.  0.
          3    1    3    3  502    0 -0.41308225903E+03  0.45801080519E+03 -0.23241837610E+03  0.65911239705E+03  0.00000000000E+00 0. -1.
         -3    1    3    3    0  502 -0.68984799836E+02  0.56228263294E+02 -0.83889109434E+00  0.89001258080E+02  0.00000000000E+00 0.  1.
         13    1    5    5    0    0  0.27168599377E+03 -0.11500735386E+03 -0.86219976595E+03  0.91127844650E+03  0.00000000000E+00 0. -1.
        -13    1    5    5    0    0  0.25199643358E+03 -0.80644285035E+02 -0.54341230564E+03  0.60440271108E+03  0.00000000000E+00 0.  1.
          5    1    6    6  503    0 -0.34037958171E+01 -0.57443152327E+02 -0.34199461364E+02  0.67104357033E+02  0.47000000000E+01 0. -1.
         -5    1    6    6    0  503 -0.38211572668E+02 -0.26114427726E+03 -0.45453402794E+03  0.52562318289E+03  0.47000000000E+01 0.  1.
<mgrwt>
<rscale>  0 0.79354281E+03</rscale>
<asrwt>0</asrwt>
<pdfrwt beam="1">  1        2 0.38339425E+00 0.79354281E+03</pdfrwt>
<pdfrwt beam="2">  1       -2 0.56070731E-01 0.79354281E+03</pdfrwt>
<totfact> 0.10935687E+01</totfact>
</mgrwt>
</event>
<event>
12    1  0.3166324E-008  0.1178562E+04  0.7818608E-02  0.9131831E-01
         -2   -1    0    0    0  501 -0.00000000000E+00  0.00000000000E+00  0.52816797222E+03  0.52816797222E+03  0.00000000000E+00 0.  1.
          2   -1    0    0  501    0  0.00000000000E+00 -0.00000000000E+00 -0.36775938379E+04  0.36775938379E+04  0.00000000000E+00 0. -1.
         23    2    1    2    0    0 -0.29554943078E+03 -0.10662716508E+04 -0.26099261360E+04  0.28363257511E+04  0.93512737470E+02 0.  0.
    5000000    2    1    2    0    0  0.29554943078E+03  0.10662716508E+04 -0.53949972971E+03  0.13694360590E+04  0.60000871828E+03 0.  0.
         23    2    4    4    0    0  0.27819136260E+03  0.11170789469E+04 -0.49075971408E+03  0.12548760794E+04  0.92806627296E+02 0.  0.
         23    2    4    4    0    0  0.17358068181E+02 -0.50807296081E+02 -0.48740015629E+02  0.11455997954E+03  0.88688871470E+02 0.  0.
          3    1    3    3  502    0 -0.18523776008E+03 -0.49376706040E+03 -0.12325874220E+04  0.13406680016E+04  0.00000000000E+00 0.  1.
         -3    1    3    3    0  502 -0.11031167070E+03 -0.57250459038E+03 -0.13773387140E+04  0.14956577496E+04  0.00000000000E+00 0. -1.
         11    1    5    5    0    0  0.26481492901E+03  0.98241380796E+03 -0.45701646623E+03  0.11154048086E+04  0.00000000000E+00 0. -1.
        -11    1    5    5    0    0  0.13376433587E+02  0.13466513890E+03 -0.33743247854E+02  0.13947127082E+03  0.00000000000E+00 0.  1.
          5    1    6    6  503    0  0.34158530862E+02 -0.63554969963E+02 -0.13999698733E+02  0.73648632046E+02  0.47000000000E+01 0. -1.
         -5    1    6    6    0  503 -0.16800462681E+02  0.12747673882E+02 -0.34740316895E+02  0.40911347493E+02  0.47000000000E+01 0.  1.
<mgrwt>
<rscale>  0 0.11785623E+04</rscale>
<asrwt>0</asrwt>
<pdfrwt beam="1">  1        2 0.56578366E+00 0.11785623E+04</pdfrwt>
<pdfrwt beam="2">  1       -2 0.81256612E-01 0.11785623E+04</pdfrwt>
<totfact> 0.81791253E-01</totfact>
</mgrwt>
</event>
<event>
12    1  0.3166324E-008  0.6069257E+03  0.7818608E-02  0.9891141E-01
         -1   -1    0    0    0  501 -0.00000000000E+00  0.00000000000E+00  0.26079410799E+03  0.26079410799E+03  0.00000000000E+00 0.  1.
          1   -1    0    0  501    0  0.00000000000E+00 -0.00000000000E+00 -0.19830384400E+04  0.19830384400E+04  0.00000000000E+00 0. -1.
         23    2    1    2    0    0  0.37745394323E+03  0.31947999324E+03 -0.21559520954E+03  0.54842389574E+03  0.98734642863E+02 0.  0.
    5000000    2    1    2    0    0 -0.37745394323E+03 -0.31947999324E+03 -0.15066491224E+04  0.16954086522E+04  0.59989997042E+03 0.  0.
         23    2    4    4    0    0  0.10738596500E+03 -0.16048904008E+03 -0.21482255213E+03  0.30343206155E+03  0.92918295345E+02 0.  0.
         23    2    4    4    0    0 -0.48483990823E+03 -0.15899095316E+03 -0.12918265703E+04  0.13919765907E+04  0.91842699207E+02 0.  0.
          3    1    3    3  502    0  0.84526209922E+02  0.25380549140E+02 -0.50686412991E+02  0.10177408757E+03  0.00000000000E+00 0. -1.
         -3    1    3    3    0  502  0.29292773331E+03  0.29409944410E+03 -0.16490879655E+03  0.44664980817E+03  0.00000000000E+00 0.  1.
         13    1    5    5    0    0  0.18309235824E+02 -0.58170583666E+02 -0.16547702190E+02  0.63189171289E+02  0.00000000000E+00 0. -1.
        -13    1    5    5    0    0  0.89076729172E+02 -0.10231845641E+03 -0.19827484994E+03  0.24024289026E+03  0.00000000000E+00 0.  1.
          5    1    6    6  503    0 -0.13555756953E+03 -0.73350880888E+02 -0.30743585609E+03  0.34394055009E+03  0.47000000000E+01 0. -1.
         -5    1    6    6    0  503 -0.34928233870E+03 -0.85640072271E+02 -0.98439071421E+03  0.10480360406E+04  0.47000000000E+01 0.  1.
<mgrwt>
<rscale>  0 0.60692573E+03</rscale>
<asrwt>0</asrwt>
<pdfrwt beam="1">  1        1 0.30508283E+00 0.60692573E+03</pdfrwt>
<pdfrwt beam="2">  1       -1 0.40122171E-01 0.60692573E+03</pdfrwt>
<totfact> 0.19730864E+01</totfact>
</mgrwt>
</event>
<event>
12    1  0.3166324E-008  0.1182915E+04  0.7818608E-02  0.9127944E-01
          1   -1    0    0  501    0  0.00000000000E+00  0.00000000000E+00  0.30339504039E+04  0.30339504039E+04  0.00000000000E+00 0. -1.
         -1   -1    0    0    0  501 -0.00000000000E+00 -0.00000000000E+00 -0.53559665662E+03  0.53559665662E+03  0.00000000000E+00 0.  1.
         23    2    1    2    0    0  0.58670668402E+03 -0.96534844367E+03  0.17584195596E+04  0.20918816011E+04  0.88356859143E+02 0.  0.
    5000000    2    1    2    0    0 -0.58670668402E+03  0.96534844367E+03  0.73993418772E+03  0.14776654595E+04  0.59989187131E+03 0.  0.
         23    2    4    4    0    0 -0.66072692936E+03  0.87163181347E+03  0.74833095289E+03  0.13284528636E+04  0.92117871479E+02 0.  0.
         23    2    4    4    0    0  0.74020245339E+02  0.93716630192E+02 -0.83967651752E+01  0.14921259592E+03  0.89062279448E+02 0.  0.
          1    1    3    3  502    0  0.27857687817E+03 -0.52711584995E+03  0.97391605262E+03  0.11419144775E+04  0.00000000000E+00 0. -1.
         -1    1    3    3    0  502  0.30812980585E+03 -0.43823259372E+03  0.78450350699E+03  0.94996712360E+03  0.00000000000E+00 0.  1.
         11    1    5    5    0    0 -0.24277806902E+03  0.39152553659E+03  0.33194452146E+03  0.56782092417E+03  0.00000000000E+00 0.  1.
        -11    1    5    5    0    0 -0.41794886034E+03  0.48010627689E+03  0.41638643144E+03  0.76063193941E+03  0.00000000000E+00 0. -1.
          5    1    6    6  503    0 -0.23185217047E+00 -0.88208267044E+01 -0.19630100799E+02  0.22029334910E+02  0.47000000000E+01 0. -1.
         -5    1    6    6    0  503  0.74252097509E+02  0.10253745690E+03  0.11233335624E+02  0.12718326101E+03  0.47000000000E+01 0.  1.
<mgrwt>
<rscale>  0 0.11829147E+04</rscale>
<asrwt>0</asrwt>
<pdfrwt beam="1">  1        1 0.46676159E+00 0.11829147E+04</pdfrwt>
<pdfrwt beam="2">  1       -1 0.82399487E-01 0.11829147E+04</pdfrwt>
<totfact> 0.82703296E-01</totfact>
</mgrwt>
</event>
<event>
12    1  0.3166324E-008  0.5711111E+03  0.7818608E-02  0.9967223E-01
         -2   -1    0    0    0  501 -0.00000000000E+00  0.00000000000E+00  0.47615341724E+03  0.47615341724E+03  0.00000000000E+00 0.  1.
          2   -1    0    0  501    0  0.00000000000E+00 -0.00000000000E+00 -0.10352656411E+04  0.10352656411E+04  0.00000000000E+00 0. -1.
         23    2    1    2    0    0 -0.20039125354E+03 -0.39153060502E+03  0.15992996722E+03  0.47680432342E+03  0.91169618050E+02 0.  0.
    5000000    2    1    2    0    0  0.20039125354E+03  0.39153060502E+03 -0.71904219104E+03  0.10346147349E+04  0.59996092203E+03 0.  0.
         23    2    4    4    0    0  0.25040936445E+03  0.49658558163E+03 -0.43058522037E+03  0.70949512885E+03  0.93153723386E+02 0.  0.
         23    2    4    4    0    0 -0.50018110917E+02 -0.10505497661E+03 -0.28845697067E+03  0.32511960602E+03  0.94641295211E+02 0.  0.
          2    1    3    3  502    0 -0.10467023266E+03 -0.15341240471E+03  0.26644837060E+02  0.18761975073E+03  0.00000000000E+00 0. -1.
         -2    1    3    3    0  502 -0.95721020874E+02 -0.23811820032E+03  0.13328513016E+03  0.28918457269E+03  0.00000000000E+00 0.  1.
         13    1    5    5    0    0  0.76055343470E+02  0.18442969409E+03 -0.10275605648E+03  0.22440484504E+03  0.00000000000E+00 0.  1.
        -13    1    5    5    0    0  0.17435402098E+03  0.31215588754E+03 -0.32782916389E+03  0.48509028382E+03  0.00000000000E+00 0. -1.
          5    1    6    6  503    0  0.36546198467E+01 -0.85191566506E+02 -0.12108394758E+03  0.14817007664E+03  0.47000000000E+01 0. -1.
         -5    1    6    6    0  503 -0.53672730763E+02 -0.19863410101E+02 -0.16737302309E+03  0.17694952938E+03  0.47000000000E+01 0.  1.
<mgrwt>
<rscale>  0 0.57111113E+03</rscale>
<asrwt>0</asrwt>
<pdfrwt beam="1">  1        2 0.15927164E+00 0.57111113E+03</pdfrwt>
<pdfrwt beam="2">  1       -2 0.73254372E-01 0.57111113E+03</pdfrwt>
<totfact> 0.41660013E+01</totfact>
</mgrwt>
</event>
<event>
12    1  0.3166324E-008  0.1282720E+04  0.7818608E-02  0.9043381E-01
         -1   -1    0    0    0  501 -0.00000000000E+00  0.00000000000E+00  0.25649991030E+04  0.25649991030E+04  0.00000000000E+00 0.  1.
          1   -1    0    0  501    0  0.00000000000E+00 -0.00000000000E+00 -0.16023178706E+04  0.16023178706E+04  0.00000000000E+00 0. -1.
         23    2    1    2    0    0 -0.88078673131E+03  0.92801867286E+03  0.20266212240E+04  0.23984393163E+04  0.91179192917E+02 0.  0.
    5000000    2    1    2    0    0  0.88078673131E+03 -0.92801867286E+03 -0.10639399916E+04  0.17688776572E+04  0.59996327994E+03 0.  0.
         23    2    4    4    0    0  0.57524417639E+03 -0.62207085634E+03 -0.10137449719E+04  0.13241546867E+04  0.88480244497E+02 0.  0.
         23    2    4    4    0    0  0.30554255492E+03 -0.30594781652E+03 -0.50195019771E+02  0.44472297050E+03  0.91096987783E+02 0.  0.
          1    1    3    3  502    0 -0.73915774658E+03  0.82184062027E+03  0.17271594378E+04  0.20505745300E+04  0.00000000000E+00 0. -1.
         -1    1    3    3    0  502 -0.14162898474E+03  0.10617805259E+03  0.29946178624E+03  0.34786478636E+03  0.00000000000E+00 0.  1.
         11    1    5    5    0    0  0.57996076342E+02 -0.81536531916E+02 -0.83031612154E+02  0.13002307305E+03  0.00000000000E+00 0.  1.
        -11    1    5    5    0    0  0.51724810005E+03 -0.54053432442E+03 -0.93071335971E+03  0.11941316137E+04  0.00000000000E+00 0. -1.
          5    1    6    6  503    0  0.23698560374E+03 -0.26203008239E+03 -0.92156174828E+01  0.35345290784E+03  0.47000000000E+01 0. -1.
         -5    1    6    6    0  503  0.68556951177E+02 -0.43917734131E+02 -0.40979402288E+02  0.91270062659E+02  0.47000000000E+01 0.  1.
<mgrwt>
<rscale>  0 0.12827204E+04</rscale>
<asrwt>0</asrwt>
<pdfrwt beam="1">  1        1 0.24651044E+00 0.12827204E+04</pdfrwt>
<pdfrwt beam="2">  1       -1 0.39461525E+00 0.12827204E+04</pdfrwt>
<totfact> 0.42293318E-02</totfact>
</mgrwt>
</event>
<event>
12    1  0.3166324E-008  0.6186939E+03  0.7818608E-02  0.9867364E-01
          2   -1    0    0  501    0  0.00000000000E+00  0.00000000000E+00  0.26832571800E+04  0.26832571800E+04  0.00000000000E+00 0. -1.
         -2   -1    0    0    0  501 -0.00000000000E+00 -0.00000000000E+00 -0.17309045673E+03  0.17309045673E+03  0.00000000000E+00 0.  1.
         23    2    1    2    0    0 -0.39302028433E+03  0.30818635071E+03  0.55976630500E+03  0.75552074980E+03  0.89607569461E+02 0.  0.
    5000000    2    1    2    0    0  0.39302028433E+03 -0.30818635071E+03  0.19504004183E+04  0.21008268869E+04  0.59997337161E+03 0.  0.
         23    2    4    4    0    0  0.60665962580E+01 -0.32751620590E+03  0.12559066135E+04  0.13011525739E+04  0.91612935330E+02 0.  0.
         23    2    4    4    0    0  0.38695368807E+03  0.19329855195E+02  0.69449380475E+03  0.79967431306E+03  0.83967625381E+02 0.  0.
          4    1    3    3  502    0 -0.15377722604E+03  0.68364588615E+02  0.19968166876E+03  0.26113965816E+03  0.00000000000E+00 0. -1.
         -4    1    3    3    0  502 -0.23924305829E+03  0.23982176209E+03  0.36008463624E+03  0.49438109164E+03  0.00000000000E+00 0.  1.
         13    1    5    5    0    0  0.45972284496E+02 -0.11579265660E+03  0.47588104824E+03  0.49191885747E+03  0.00000000000E+00 0.  1.
        -13    1    5    5    0    0 -0.39905688238E+02 -0.21172354930E+03  0.78002556527E+03  0.80923371640E+03  0.00000000000E+00 0. -1.
          5    1    6    6  503    0  0.11169296230E+03  0.26610398250E+02  0.14485886875E+03  0.18490433466E+03  0.47000000000E+01 0. -1.
         -5    1    6    6    0  503  0.27526072578E+03 -0.72805430546E+01  0.54963493601E+03  0.61476997840E+03  0.47000000000E+01 0.  1.
<mgrwt>
<rscale>  0 0.61869391E+03</rscale>
<asrwt>0</asrwt>
<pdfrwt beam="1">  1        2 0.41280877E+00 0.61869391E+03</pdfrwt>
<pdfrwt beam="2">  1       -2 0.26629303E-01 0.61869391E+03</pdfrwt>
<totfact> 0.37122949E+01</totfact>
</mgrwt>
</event>
<event>
12    1  0.3166324E-008  0.3001440E+03  0.7818608E-02  0.1085169E+00
          2   -1    0    0  501    0  0.00000000000E+00  0.00000000000E+00  0.17784603167E+04  0.17784603167E+04  0.00000000000E+00 0. -1.
         -2   -1    0    0    0  501 -0.00000000000E+00 -0.00000000000E+00 -0.25297099108E+03  0.25297099108E+03  0.00000000000E+00 0.  1.
         23    2    1    2    0    0 -0.36746139984E+02  0.18237500188E+03  0.13679073431E+04  0.13837286973E+04  0.94465276020E+02 0.  0.
    5000000    2    1    2    0    0  0.36746139984E+02 -0.18237500188E+03  0.15758198260E+03  0.64770261053E+03  0.60006305530E+03 0.  0.
         23    2    4    4    0    0 -0.12043333119E+03 -0.17186750071E+03  0.32820638005E+03  0.39985096080E+03  0.90104039248E+02 0.  0.
         23    2    4    4    0    0  0.15717947117E+03 -0.10507501168E+02 -0.17062439745E+03  0.24785164973E+03  0.86613864529E+02 0.  0.
          3    1    3    3  502    0  0.15250968039E+02  0.13879744088E+03  0.84915662997E+03  0.86056045914E+03  0.00000000000E+00 0. -1.
         -3    1    3    3    0  502 -0.51997108023E+02  0.43577560993E+02  0.51875071310E+03  0.52316823814E+03  0.00000000000E+00 0.  1.
         13    1    5    5    0    0 -0.70661420624E+02 -0.57574154991E+02  0.76618646374E+02  0.11907240092E+03  0.00000000000E+00 0. -1.
        -13    1    5    5    0    0 -0.49771910563E+02 -0.11429334572E+03  0.25158773368E+03  0.28077855989E+03  0.00000000000E+00 0.  1.
          5    1    6    6  503    0  0.48896683144E+01  0.20435582653E+02 -0.37174435473E+02  0.42959871360E+02  0.47000000000E+01 0. -1.
         -5    1    6    6    0  503  0.15228980286E+03 -0.30943083821E+02 -0.13344996198E+03  0.20489177837E+03  0.47000000000E+01 0.  1.
<mgrwt>
<rscale>  0 0.30014399E+03</rscale>
<asrwt>0</asrwt>
<pdfrwt beam="1">  1        2 0.27360927E+00 0.30014399E+03</pdfrwt>
<pdfrwt beam="2">  1       -2 0.38918615E-01 0.30014399E+03</pdfrwt>
<totfact> 0.61275862E+01</totfact>
</mgrwt>
</event>
<event>
12    1  0.3166324E-008  0.6754454E+03  0.7818608E-02  0.9760170E-01
          2   -1    0    0  501    0  0.00000000000E+00  0.00000000000E+00  0.26771722402E+04  0.26771722402E+04  0.00000000000E+00 0. -1.
         -2   -1    0    0    0  501 -0.00000000000E+00 -0.00000000000E+00 -0.31485870292E+03  0.31485870292E+03  0.00000000000E+00 0.  1.
         23    2    1    2    0    0 -0.99981255982E+02  0.54236651191E+03  0.76841696749E+02  0.56561343430E+03  0.99278526930E+02 0.  0.
    5000000    2    1    2    0    0  0.99981255982E+02 -0.54236651191E+03  0.22854718406E+04  0.24264175089E+04  0.59996892298E+03 0.  0.
         23    2    4    4    0    0  0.22171064643E+03  0.24928449306E+01  0.52240569998E+03  0.57483062015E+03  0.91436871511E+02 0.  0.
         23    2    4    4    0    0 -0.12172939045E+03 -0.54485935684E+03  0.17630661406E+04  0.18515868887E+04  0.91005643629E+02 0.  0.
          4    1    3    3  502    0 -0.10433507626E+03  0.33870186729E+03  0.73100019884E+02  0.36186789848E+03  0.00000000000E+00 0. -1.
         -4    1    3    3    0  502  0.43538202808E+01  0.20366464462E+03  0.37416768649E+01  0.20374553581E+03  0.00000000000E+00 0.  1.
         13    1    5    5    0    0  0.15331951897E+03  0.24719281349E+02  0.43352381304E+03  0.46050061264E+03  0.00000000000E+00 0.  1.
        -13    1    5    5    0    0  0.68391127463E+02 -0.22226436418E+02  0.88881886945E+02  0.11433000751E+03  0.00000000000E+00 0. -1.
          5    1    6    6  503    0  0.10191800635E+02 -0.11346785052E+02  0.55821892570E+02  0.58058556831E+02  0.47000000000E+01 0. -1.
         -5    1    6    6    0  503 -0.13192119108E+03 -0.53351257179E+03  0.17072442480E+04  0.17935283319E+04  0.47000000000E+01 0.  1.
<mgrwt>
<rscale>  0 0.67544543E+03</rscale>
<asrwt>0</asrwt>
<pdfrwt beam="1">  1        2 0.41187264E+00 0.67544543E+03</pdfrwt>
<pdfrwt beam="2">  1       -2 0.48439802E-01 0.67544543E+03</pdfrwt>
<totfact> 0.11801850E+01</totfact>
</mgrwt>
</event>
<event>
12    1  0.3166324E-008  0.7212190E+03  0.7818608E-02  0.9681618E-01
          2   -1    0    0  501    0  0.00000000000E+00  0.00000000000E+00  0.19597124382E+04  0.19597124382E+04  0.00000000000E+00 0. -1.
         -2   -1    0    0    0  501 -0.00000000000E+00 -0.00000000000E+00 -0.28493940671E+03  0.28493940671E+03  0.00000000000E+00 0.  1.
         23    2    1    2    0    0  0.31898400045E+03  0.50901516331E+03  0.95179316825E+03  0.11293479659E+04  0.93109419002E+02 0.  0.
    5000000    2    1    2    0    0 -0.31898400045E+03 -0.50901516331E+03  0.72297986329E+03  0.11153038791E+04  0.60029628593E+03 0.  0.
         23    2    4    4    0    0 -0.45501860264E+03 -0.23947752365E+03  0.35795439159E+03  0.63296752512E+03  0.90139493608E+02 0.  0.
         23    2    4    4    0    0  0.13603460220E+03 -0.26953763966E+03  0.36502547169E+03  0.48233635394E+03  0.90822966011E+02 0.  0.
          1    1    3    3  502    0  0.30915674756E+03  0.44171630599E+03  0.82709737628E+03  0.98731011308E+03  0.00000000000E+00 0.  1.
         -1    1    3    3    0  502  0.98272528926E+01  0.67298857323E+02  0.12469579196E+03  0.14203785280E+03  0.00000000000E+00 0. -1.
         13    1    5    5    0    0 -0.21478844481E+02  0.78162883911E+01  0.13682881739E+02  0.26639376441E+02  0.00000000000E+00 0.  1.
        -13    1    5    5    0    0 -0.43353975816E+03 -0.24729381204E+03  0.34427150985E+03  0.60632814868E+03  0.00000000000E+00 0. -1.
          5    1    6    6  503    0  0.33194572825E+02 -0.15798962324E+03  0.21510516228E+03  0.26898870154E+03  0.47000000000E+01 0. -1.
         -5    1    6    6    0  503  0.10284002937E+03 -0.11154801642E+03  0.14992030941E+03  0.21334765240E+03  0.47000000000E+01 0.  1.
<mgrwt>
<rscale>  0 0.72121901E+03</rscale>
<asrwt>0</asrwt>
<pdfrwt beam="1">  1        2 0.30149421E+00 0.72121901E+03</pdfrwt>
<pdfrwt beam="2">  1       -2 0.43836833E-01 0.72121901E+03</pdfrwt>
<totfact> 0.35921138E+01</totfact>
</mgrwt>
</event>
<event>
12    1  0.3166324E-008  0.2951609E+03  0.7818608E-02  0.1087685E+00
         -2   -1    0    0    0  501 -0.00000000000E+00  0.00000000000E+00  0.17223228010E+03  0.17223228010E+03  0.00000000000E+00 0.  1.
          2   -1    0    0  501    0  0.00000000000E+00 -0.00000000000E+00 -0.11183753888E+04  0.11183753888E+04  0.00000000000E+00 0. -1.
         23    2    1    2    0    0  0.78628987599E+02  0.19660706650E+03 -0.34402596929E+03  0.41463415914E+03  0.93438547148E+02 0.  0.
    5000000    2    1    2    0    0 -0.78628987599E+02 -0.19660706650E+03 -0.60211713945E+03  0.87597350978E+03  0.59995640170E+03 0.  0.
         23    2    4    4    0    0  0.87411180935E+02 -0.46617627875E+02 -0.61796862534E+03  0.63243897474E+03  0.90994049733E+02 0.  0.
         23    2    4    4    0    0 -0.16604016853E+03 -0.14998943863E+03  0.15851485896E+02  0.24353453504E+03  0.94824210442E+02 0.  0.
          3    1    3    3  502    0 -0.11576544889E+02  0.47124889517E+02 -0.12791804993E+03  0.13681300779E+03  0.00000000000E+00 0. -1.
         -3    1    3    3    0  502  0.90205532488E+02  0.14948217698E+03 -0.21610791936E+03  0.27782115135E+03  0.00000000000E+00 0.  1.
         13    1    5    5    0    0  0.40517384098E+02  0.23969329892E+02 -0.16375321774E+03  0.17038574914E+03  0.00000000000E+00 0.  1.
        -13    1    5    5    0    0  0.46893796838E+02 -0.70586957767E+02 -0.45421540760E+03  0.46205322560E+03  0.00000000000E+00 0. -1.
          5    1    6    6  503    0 -0.65034316611E+02 -0.10744830423E+03  0.38644837157E+02  0.13149187754E+03  0.47000000000E+01 0. -1.
         -5    1    6    6    0  503 -0.10100585192E+03 -0.42541134392E+02 -0.22793351261E+02  0.11204265750E+03  0.47000000000E+01 0.  1.
<mgrwt>
<rscale>  0 0.29516090E+03</rscale>
<asrwt>0</asrwt>
<pdfrwt beam="1">  1        2 0.17205775E+00 0.29516090E+03</pdfrwt>
<pdfrwt beam="2">  1       -2 0.26497274E-01 0.29516090E+03</pdfrwt>
<totfact> 0.28679819E+02</totfact>
</mgrwt>
</event>
<event>
12    1  0.3166324E-008  0.1039883E+04  0.7818608E-02  0.9265852E-01
         -1   -1    0    0    0  501 -0.00000000000E+00  0.00000000000E+00  0.58029528024E+03  0.58029528024E+03  0.00000000000E+00 0.  1.
          1   -1    0    0  501    0  0.00000000000E+00 -0.00000000000E+00 -0.23688127141E+04  0.23688127141E+04  0.00000000000E+00 0. -1.
         23    2    1    2    0    0 -0.56421859514E+02 -0.10157526829E+04 -0.13410650552E+04  0.16859850722E+04  0.95672579019E+02 0.  0.
    5000000    2    1    2    0    0  0.56421859514E+02  0.10157526829E+04 -0.44745237865E+03  0.12631229222E+04  0.60027405936E+03 0.  0.
         23    2    4    4    0    0  0.11280106749E+03  0.89107390361E+03 -0.13890189804E+03  0.91356222542E+03  0.92549553870E+02 0.  0.
         23    2    4    4    0    0 -0.56379207980E+02  0.12467877926E+03 -0.30855048061E+03  0.34956069673E+03  0.90916822026E+02 0.  0.
          1    1    3    3  502    0 -0.28264765800E+02 -0.70082672054E+03 -0.85131180387E+03  0.11030361629E+04  0.00000000000E+00 0. -1.
         -1    1    3    3    0  502 -0.28157093714E+02 -0.31492596232E+03 -0.48975325136E+03  0.58294890933E+03  0.00000000000E+00 0.  1.
         11    1    5    5    0    0  0.66902985092E+02  0.35093159116E+03 -0.95176143636E+02  0.36971271199E+03  0.00000000000E+00 0. -1.
        -11    1    5    5    0    0  0.45898082402E+02  0.54014231245E+03 -0.43725754403E+02  0.54384951343E+03  0.00000000000E+00 0.  1.
          5    1    6    6  503    0 -0.68720212825E+02  0.45448818434E+02 -0.13325474748E+03  0.15673857367E+03  0.47000000000E+01 0. -1.
         -5    1    6    6    0  503  0.12341004845E+02  0.79229960822E+02 -0.17529573313E+03  0.19282212307E+03  0.47000000000E+01 0.  1.
<mgrwt>
<rscale>  0 0.10398831E+04</rscale>
<asrwt>0</asrwt>
<pdfrwt beam="1">  1        1 0.36443272E+00 0.10398831E+04</pdfrwt>
<pdfrwt beam="2">  1       -1 0.89276199E-01 0.10398831E+04</pdfrwt>
<totfact> 0.20746547E+00</totfact>
</mgrwt>
</event>
<event>
12    1  0.3166324E-008  0.6911396E+03  0.7818608E-02  0.9732506E-01
         -1   -1    0    0    0  501 -0.00000000000E+00  0.00000000000E+00  0.36551378319E+03  0.36551378319E+03  0.00000000000E+00 0.  1.
          1   -1    0    0  501    0  0.00000000000E+00 -0.00000000000E+00 -0.17624958553E+04  0.17624958553E+04  0.00000000000E+00 0. -1.
         23    2    1    2    0    0  0.17002176396E+03  0.63671513910E+03 -0.34580124055E+03  0.74988550543E+03  0.91848814451E+02 0.  0.
    5000000    2    1    2    0    0 -0.17002176396E+03 -0.63671513910E+03 -0.10511808315E+04  0.13781241330E+04  0.59994284466E+03 0.  0.
         23    2    4    4    0    0 -0.10789748575E+03 -0.81557735522E+02 -0.68555164003E+03  0.70441765772E+03  0.89048603080E+02 0.  0.
         23    2    4    4    0    0 -0.62124278202E+02 -0.55515740358E+03 -0.36562919151E+03  0.67370647531E+03  0.90202774326E+02 0.  0.
          2    1    3    3  502    0  0.13997262048E+03  0.36866134556E+03 -0.18200695179E+03  0.43431561416E+03  0.00000000000E+00 0. -1.
         -2    1    3    3    0  502  0.30049143474E+02  0.26805379354E+03 -0.16379428876E+03  0.31556989128E+03  0.00000000000E+00 0.  1.
         13    1    5    5    0    0 -0.30160745672E+02 -0.69067090001E+02 -0.44420731112E+03  0.45055528934E+03  0.00000000000E+00 0. -1.
        -13    1    5    5    0    0 -0.77736740082E+02 -0.12490645522E+02 -0.24134432891E+03  0.25386236838E+03  0.00000000000E+00 0.  1.
          5    1    6    6  503    0 -0.64183232996E+02 -0.22795222295E+03 -0.17984077524E+03  0.29739955915E+03  0.47000000000E+01 0. -1.
         -5    1    6    6    0  503  0.20589547938E+01 -0.32720518063E+03 -0.18578841627E+03  0.37630691616E+03  0.47000000000E+01 0.  1.
<mgrwt>
<rscale>  0 0.69113957E+03</rscale>
<asrwt>0</asrwt>
<pdfrwt beam="1">  1        1 0.27115321E+00 0.69113957E+03</pdfrwt>
<pdfrwt beam="2">  1       -1 0.56232890E-01 0.69113957E+03</pdfrwt>
<totfact> 0.14507843E+01</totfact>
</mgrwt>
</event>
<event>
12    1  0.3166324E-008  0.5220820E+03  0.7818608E-02  0.1008171E+00
         -1   -1    0    0    0  501 -0.00000000000E+00  0.00000000000E+00  0.81576014273E+03  0.81576014273E+03  0.00000000000E+00 0.  1.
          1   -1    0    0  501    0  0.00000000000E+00 -0.00000000000E+00 -0.95408904693E+03  0.95408904693E+03  0.00000000000E+00 0. -1.
         23    2    1    2    0    0 -0.25256778963E+03  0.41251567718E+03  0.54893869331E+03  0.73715500305E+03  0.90022981671E+02 0.  0.
    5000000    2    1    2    0    0  0.25256778963E+03 -0.41251567718E+03 -0.68726759752E+03  0.10326941866E+04  0.60013403518E+03 0.  0.
         23    2    4    4    0    0  0.87725095806E+01 -0.21849743093E+03 -0.66712836811E+03  0.70751291953E+03  0.87727917500E+02 0.  0.
         23    2    4    4    0    0  0.24379528005E+03 -0.19401824625E+03 -0.20139229406E+02  0.32518126709E+03  0.90873810585E+02 0.  0.
          3    1    3    3  502    0 -0.21799572206E+03  0.38866173776E+03  0.46959239312E+03  0.64737709020E+03  0.00000000000E+00 0. -1.
         -3    1    3    3    0  502 -0.34572067569E+02  0.23853939415E+02  0.79346300191E+02  0.89777912850E+02  0.00000000000E+00 0.  1.
         13    1    5    5    0    0 -0.27428939981E+02 -0.16710868364E+03 -0.42864020355E+03  0.46087968386E+03  0.00000000000E+00 0. -1.
        -13    1    5    5    0    0  0.36201449561E+02 -0.51388747290E+02 -0.23848816457E+03  0.24663323567E+03  0.00000000000E+00 0.  1.
          5    1    6    6  503    0  0.21956982258E+03 -0.12880000057E+03 -0.10840219332E+02  0.25483317580E+03  0.47000000000E+01 0.  1.
         -5    1    6    6    0  503  0.24225457472E+02 -0.65218245677E+02 -0.92990100745E+01  0.70348091284E+02  0.47000000000E+01 0. -1.
<mgrwt>
<rscale>  0 0.52208196E+03</rscale>
<asrwt>0</asrwt>
<pdfrwt beam="1">  1        1 0.14678293E+00 0.52208196E+03</pdfrwt>
<pdfrwt beam="2">  1       -1 0.12550156E+00 0.52208196E+03</pdfrwt>
<totfact> 0.97750881E+00</totfact>
</mgrwt>
</event>
<event>
12    1  0.3166324E-008  0.3608344E+03  0.7818608E-02  0.1058254E+00
          2   -1    0    0  501    0  0.00000000000E+00  0.00000000000E+00  0.58661539320E+03  0.58661539320E+03  0.00000000000E+00 0. -1.
         -2   -1    0    0    0  501 -0.00000000000E+00 -0.00000000000E+00 -0.39201626300E+03  0.39201626300E+03  0.00000000000E+00 0.  1.
         23    2    1    2    0    0 -0.19163540447E+03  0.13293323827E+03 -0.10026416554E+03  0.27055996913E+03  0.93565057155E+02 0.  0.
    5000000    2    1    2    0    0  0.19163540447E+03 -0.13293323827E+03  0.29486329574E+03  0.70807168708E+03  0.60002148027E+03 0.  0.
         23    2    4    4    0    0 -0.11418506484E+03  0.11883263162E+02 -0.10155509948E+03  0.17890457525E+03  0.92271164729E+02 0.  0.
         23    2    4    4    0    0  0.30582046931E+03 -0.14481650143E+03  0.39641839522E+03  0.52916711183E+03  0.91500325912E+02 0.  0.
          2    1    3    3  502    0 -0.25314784864E+02  0.78799474799E+01 -0.49833729747E+02  0.56447608679E+02  0.00000000000E+00 0.  1.
         -2    1    3    3    0  502 -0.16632061961E+03  0.12505329079E+03 -0.50430435795E+02  0.21411236045E+03  0.00000000000E+00 0. -1.
         11    1    5    5    0    0 -0.12961908400E+03  0.12010632093E+02 -0.81441982656E+02  0.15355181132E+03  0.00000000000E+00 0.  1.
        -11    1    5    5    0    0  0.15434019168E+02 -0.12736893028E+00 -0.20113116819E+02  0.25352763926E+02  0.00000000000E+00 0. -1.
          5    1    6    6  503    0  0.16674460244E+03 -0.54181616983E+02  0.14356519814E+03  0.22665494961E+03  0.47000000000E+01 0. -1.
         -5    1    6    6    0  503  0.13907586686E+03 -0.90634884448E+02  0.25285319707E+03  0.30251216222E+03  0.47000000000E+01 0.  1.
<mgrwt>
<rscale>  0 0.36083441E+03</rscale>
<asrwt>0</asrwt>
<pdfrwt beam="1">  1        2 0.90248522E-01 0.36083441E+03</pdfrwt>
<pdfrwt beam="2">  1       -2 0.60310194E-01 0.36083441E+03</pdfrwt>
<totfact> 0.13564636E+02</totfact>
</mgrwt>
</event>
<event>
12    1  0.3166324E-008  0.6786993E+03  0.7818608E-02  0.9754369E-01
          2   -1    0    0  501    0  0.00000000000E+00  0.00000000000E+00  0.91709443918E+03  0.91709443918E+03  0.00000000000E+00 0.  1.
         -2   -1    0    0    0  501 -0.00000000000E+00 -0.00000000000E+00 -0.61483216187E+03  0.61483216187E+03  0.00000000000E+00 0. -1.
         23    2    1    2    0    0  0.54881381465E+03  0.28097326545E+03  0.24452991409E+03  0.66966873589E+03  0.92297117497E+02 0.  0.
    5000000    2    1    2    0    0 -0.54881381465E+03 -0.28097326545E+03  0.57732363216E+02  0.86225786516E+03  0.60001085091E+03 0.  0.
         23    2    4    4    0    0 -0.70083338542E+02  0.77439006924E+02  0.19880555122E+03  0.24073227902E+03  0.86717407884E+02 0.  0.
         23    2    4    4    0    0 -0.47873047611E+03 -0.35841227237E+03 -0.14107318801E+03  0.62152558614E+03  0.93542418763E+02 0.  0.
          4    1    3    3  502    0  0.39438949660E+03  0.15622639041E+03  0.18132750970E+03  0.46133439701E+03  0.00000000000E+00 0. -1.
         -4    1    3    3    0  502  0.15442431805E+03  0.12474687504E+03  0.63202404385E+02  0.20833433888E+03  0.00000000000E+00 0.  1.
         13    1    5    5    0    0 -0.68813929969E+02  0.92003571644E+02  0.14513342945E+03  0.18510463661E+03  0.00000000000E+00 0. -1.
        -13    1    5    5    0    0 -0.12694085734E+01 -0.14564564720E+02  0.53672121777E+02  0.55627642406E+02  0.00000000000E+00 0.  1.
          5    1    6    6  503    0 -0.76833138448E+02 -0.19460541269E+02 -0.23000297990E+02  0.82662854644E+02  0.47000000000E+01 0. -1.
         -5    1    6    6    0  503 -0.40189733766E+03 -0.33895173110E+03 -0.11807289002E+03  0.53886273149E+03  0.47000000000E+01 0.  1.
<mgrwt>
<rscale>  0 0.67869925E+03</rscale>
<asrwt>0</asrwt>
<pdfrwt beam="1">  1        2 0.14109145E+00 0.67869925E+03</pdfrwt>
<pdfrwt beam="2">  1       -2 0.94589563E-01 0.67869925E+03</pdfrwt>
<totfact> 0.27490970E+01</totfact>
</mgrwt>
</event>
<event>
12    1  0.3166324E-008  0.5246632E+03  0.7818608E-02  0.1007535E+00
          2   -1    0    0  501    0  0.00000000000E+00  0.00000000000E+00  0.14460252925E+04  0.14460252925E+04  0.00000000000E+00 0. -1.
         -2   -1    0    0    0  501 -0.00000000000E+00 -0.00000000000E+00 -0.35906880509E+03  0.35906880509E+03  0.00000000000E+00 0.  1.
         23    2    1    2    0    0  0.18330180542E+03  0.34004428269E+03  0.10120977219E+04  0.10876797489E+04  0.97343573562E+02 0.  0.
    5000000    2    1    2    0    0 -0.18330180542E+03 -0.34004428269E+03  0.74858765516E+02  0.71741434875E+03  0.59987485942E+03 0.  0.
         23    2    4    4    0    0 -0.17342236840E+03  0.10415489424E+03  0.13378466078E+03  0.25912688700E+03  0.91240606366E+02 0.  0.
         23    2    4    4    0    0 -0.98794370167E+01 -0.44419917693E+03 -0.58925895265E+02  0.45828746175E+03  0.95627529546E+02 0.  0.
          2    1    3    3  502    0  0.11561744498E+03  0.11720950478E+03  0.45459912145E+03  0.48349335344E+03  0.00000000000E+00 0. -1.
         -2    1    3    3    0  502  0.67684360442E+02  0.22283477791E+03  0.55749860048E+03  0.60418639543E+03  0.00000000000E+00 0.  1.
         11    1    5    5    0    0 -0.11445889210E+03  0.42832356721E+02  0.31725467785E+02  0.12626145124E+03  0.00000000000E+00 0.  1.
        -11    1    5    5    0    0 -0.58963476306E+02  0.61322537517E+02  0.10205919300E+03  0.13286543576E+03  0.00000000000E+00 0. -1.
          5    1    6    6  503    0 -0.84454332577E+01 -0.16875407819E+03  0.23677704592E+02  0.17068095366E+03  0.47000000000E+01 0.  1.
         -5    1    6    6    0  503 -0.14340037590E+01 -0.27544509874E+03 -0.82603599857E+02  0.28760650809E+03  0.47000000000E+01 0. -1.
<mgrwt>
<rscale>  0 0.52466317E+03</rscale>
<asrwt>0</asrwt>
<pdfrwt beam="1">  1        2 0.22246543E+00 0.52466317E+03</pdfrwt>
<pdfrwt beam="2">  1       -2 0.55241355E-01 0.52466317E+03</pdfrwt>
<totfact> 0.44099752E+01</totfact>
</mgrwt>
</event>
<event>
12    1  0.3166324E-008  0.6099356E+03  0.7818608E-02  0.9885004E-01
         -2   -1    0    0    0  501 -0.00000000000E+00  0.00000000000E+00  0.65678156020E+03  0.65678156020E+03  0.00000000000E+00 0. -1.
          2   -1    0    0  501    0  0.00000000000E+00 -0.00000000000E+00 -0.11539461986E+04  0.11539461986E+04  0.00000000000E+00 0.  1.
         23    2    1    2    0    0 -0.40473380083E+02  0.54096149654E+03  0.33985243176E+03  0.64670697024E+03  0.91939081717E+02 0.  0.
    5000000    2    1    2    0    0  0.40473380083E+02 -0.54096149654E+03 -0.83701707012E+03  0.11640207885E+04  0.60005781822E+03 0.  0.
         23    2    4    4    0    0 -0.43384696693E+01  0.20560348075E+02 -0.48073116708E+03  0.49122021877E+03  0.98758787407E+02 0.  0.
         23    2    4    4    0    0  0.44811849753E+02 -0.56152184462E+03 -0.35628590303E+03  0.67280056975E+03  0.91684666640E+02 0.  0.
          1    1    3    3  502    0 -0.62072451030E+02  0.29751064472E+03  0.21482916567E+03  0.37217891305E+03  0.00000000000E+00 0. -1.
         -1    1    3    3    0  502  0.21599070947E+02  0.24345085183E+03  0.12502326609E+03  0.27452805719E+03  0.00000000000E+00 0.  1.
         13    1    5    5    0    0  0.43360646491E+01  0.60183100555E+02 -0.29633500775E+03  0.30241568059E+03  0.00000000000E+00 0.  1.
        -13    1    5    5    0    0 -0.86745343184E+01 -0.39622752480E+02 -0.18439615933E+03  0.18880453818E+03  0.00000000000E+00 0. -1.
          5    1    6    6  503    0  0.71810271246E+02 -0.34715956832E+03 -0.21613330562E+03  0.41522545289E+03  0.47000000000E+01 0. -1.
         -5    1    6    6    0  503 -0.26998421494E+02 -0.21436227630E+03 -0.14015259741E+03  0.25757511686E+03  0.47000000000E+01 0.  1.
<mgrwt>
<rscale>  0 0.60993565E+03</rscale>
<asrwt>0</asrwt>
<pdfrwt beam="1">  1        2 0.17753018E+00 0.60993565E+03</pdfrwt>
<pdfrwt beam="2">  1       -2 0.10104332E+00 0.60993565E+03</pdfrwt>
<totfact> 0.16870095E+01</totfact>
</mgrwt>
</event>
<event>
12    1  0.3166324E-008  0.4774268E+03  0.7818608E-02  0.1019845E+00
          2   -1    0    0  501    0  0.00000000000E+00  0.00000000000E+00  0.38293166265E+03  0.38293166265E+03  0.00000000000E+00 0. -1.
         -2   -1    0    0    0  501 -0.00000000000E+00 -0.00000000000E+00 -0.65089520491E+03  0.65089520491E+03  0.00000000000E+00 0.  1.
         23    2    1    2    0    0  0.24928377250E+03 -0.17889683092E+03 -0.12337144976E+03  0.34466183253E+03  0.97081351685E+02 0.  0.
    5000000    2    1    2    0    0 -0.24928377250E+03  0.17889683092E+03 -0.14459209251E+03  0.68916503503E+03  0.59991257442E+03 0.  0.
         23    2    4    4    0    0  0.30608458567E+02  0.32053378339E+03 -0.73221246869E+01  0.33466513438E+03  0.90930493383E+02 0.  0.
         23    2    4    4    0    0 -0.27989223106E+03 -0.14163695248E+03 -0.13726996782E+03  0.35449990065E+03  0.91795687160E+02 0.  0.
          3    1    3    3  502    0  0.11503734679E+03 -0.69732964022E+02 -0.10502199815E+03  0.17066311120E+03  0.00000000000E+00 0. -1.
         -3    1    3    3    0  502  0.13424642570E+03 -0.10916386689E+03 -0.18349451601E+02  0.17399872133E+03  0.00000000000E+00 0.  1.
         11    1    5    5    0    0 -0.28964645718E+01  0.27983045846E+03  0.73504567630E+01  0.27994196578E+03  0.00000000000E+00 0. -1.
        -11    1    5    5    0    0  0.33504923139E+02  0.40703324927E+02 -0.14672581450E+02  0.54723168595E+02  0.00000000000E+00 0.  1.
          5    1    6    6  503    0 -0.20359068910E+03 -0.91069564713E+02 -0.51450289202E+02  0.22893679600E+03  0.47000000000E+01 0. -1.
         -5    1    6    6    0  503 -0.76301541963E+02 -0.50567387763E+02 -0.85819678617E+02  0.12556310465E+03  0.47000000000E+01 0.  1.
<mgrwt>
<rscale>  0 0.47742685E+03</rscale>
<asrwt>0</asrwt>
<pdfrwt beam="1">  1        2 0.58912564E-01 0.47742685E+03</pdfrwt>
<pdfrwt beam="2">  1       -2 0.10013772E+00 0.47742685E+03</pdfrwt>
<totfact> 0.70796118E+01</totfact>
</mgrwt>
</event>
<event>
12    1  0.3166324E-008  0.1305571E+04  0.7818608E-02  0.9025159E-01
         -1   -1    0    0    0  501 -0.00000000000E+00  0.00000000000E+00  0.90874279946E+03  0.90874279946E+03  0.00000000000E+00 0.  1.
          1   -1    0    0  501    0  0.00000000000E+00 -0.00000000000E+00 -0.23869882235E+04  0.23869882235E+04  0.00000000000E+00 0. -1.
         23    2    1    2    0    0 -0.12739749404E+04 -0.21892306818E+03 -0.78543462833E+02  0.12982142695E+04  0.90839172160E+02 0.  0.
    5000000    2    1    2    0    0  0.12739749404E+04  0.21892306818E+03 -0.13997019612E+04  0.19975167535E+04  0.59997345071E+03 0.  0.
         23    2    4    4    0    0  0.70340859757E+03  0.10052287302E+02 -0.37162637018E+03  0.79983910850E+03  0.82168953142E+02 0.  0.
         23    2    4    4    0    0  0.57056634288E+03  0.20887078088E+03 -0.10280755910E+04  0.11976776450E+04  0.91210556937E+02 0.  0.
          3    1    3    3  502    0 -0.79303324750E+03 -0.18080802714E+03 -0.50560738178E+02  0.81495377941E+03  0.00000000000E+00 0. -1.
         -3    1    3    3    0  502 -0.48094169295E+03 -0.38115041047E+02 -0.27982724655E+02  0.48326049005E+03  0.00000000000E+00 0.  1.
         13    1    5    5    0    0  0.43833130196E+03  0.28721047856E+02 -0.26827736662E+03  0.51471543042E+03  0.00000000000E+00 0. -1.
        -13    1    5    5    0    0  0.26507729560E+03 -0.18668760554E+02 -0.10334900356E+03  0.28512367808E+03  0.00000000000E+00 0.  1.
          5    1    6    6  503    0  0.24457999254E+03  0.59858777465E+02 -0.49346226020E+03  0.55401221849E+03  0.47000000000E+01 0. -1.
         -5    1    6    6    0  503  0.32598635034E+03  0.14901200342E+03 -0.53461333080E+03  0.64366542647E+03  0.47000000000E+01 0.  1.
<mgrwt>
<rscale>  0 0.13055706E+04</rscale>
<asrwt>0</asrwt>
<pdfrwt beam="1">  1        1 0.36722896E+00 0.13055706E+04</pdfrwt>
<pdfrwt beam="2">  1       -1 0.13980658E+00 0.13055706E+04</pdfrwt>
<totfact> 0.66365784E-01</totfact>
</mgrwt>
</event>
<event>
12    1  0.3166324E-008  0.3888895E+03  0.7818608E-02  0.1047696E+00
          2   -1    0    0  501    0  0.00000000000E+00  0.00000000000E+00  0.76866236969E+02  0.76866236969E+02  0.00000000000E+00 0. -1.
         -2   -1    0    0    0  501 -0.00000000000E+00 -0.00000000000E+00 -0.26530584378E+04  0.26530584378E+04  0.00000000000E+00 0.  1.
         23    2    1    2    0    0 -0.70295965940E+02 -0.17664668266E+03 -0.29028976114E+03  0.35897163332E+03  0.91907098650E+02 0.  0.
    5000000    2    1    2    0    0  0.70295965940E+02  0.17664668266E+03 -0.22859024397E+04  0.23709530415E+04  0.59993565293E+03 0.  0.
         23    2    4    4    0    0  0.13920077469E+03  0.34572019370E+03 -0.10443658618E+04  0.11126069845E+04  0.91076564301E+02 0.  0.
         23    2    4    4    0    0 -0.68904808745E+02 -0.16907351104E+03 -0.12415365779E+04  0.12583460570E+04  0.93209442161E+02 0.  0.
          4    1    3    3  502    0  0.21793667543E+02 -0.50332893174E+02 -0.74780816713E+02  0.92739067434E+02  0.00000000000E+00 0.  1.
         -4    1    3    3    0  502 -0.92089633483E+02 -0.12631378949E+03 -0.21550894443E+03  0.26623256589E+03  0.00000000000E+00 0. -1.
         13    1    5    5    0    0  0.83740752037E+02  0.13208933434E+03 -0.33523782064E+03  0.36992499535E+03  0.00000000000E+00 0.  1.
        -13    1    5    5    0    0  0.55460022649E+02  0.21363085936E+03 -0.70912804117E+03  0.74268198912E+03  0.00000000000E+00 0. -1.
          5    1    6    6  503    0 -0.61163799886E+02 -0.16967697450E+03 -0.12321467918E+04  0.12452867511E+04  0.47000000000E+01 0. -1.
         -5    1    6    6    0  503 -0.77410088591E+01  0.60346346718E+00 -0.93897861643E+01  0.13059305897E+02  0.47000000000E+01 0.  1.
<mgrwt>
<rscale>  0 0.38888955E+03</rscale>
<asrwt>0</asrwt>
<pdfrwt beam="1">  1        2 0.11825575E-01 0.38888955E+03</pdfrwt>
<pdfrwt beam="2">  1       -2 0.40816284E+00 0.38888955E+03</pdfrwt>
<totfact> 0.40093993E+00</totfact>
</mgrwt>
</event>
<event>
12    1  0.3166324E-008  0.1716432E+04  0.7818608E-02  0.8752048E-01
         -2   -1    0    0    0  501 -0.00000000000E+00  0.00000000000E+00  0.14037693179E+04  0.14037693179E+04  0.00000000000E+00 0.  1.
          2   -1    0    0  501    0  0.00000000000E+00 -0.00000000000E+00 -0.25535970238E+04  0.25535970238E+04  0.00000000000E+00 0. -1.
         23    2    1    2    0    0  0.14522536915E+04  0.89832687600E+03 -0.12894648923E+04  0.21419553183E+04  0.96025602782E+02 0.  0.
    5000000    2    1    2    0    0 -0.14522536915E+04 -0.89832687600E+03  0.13963718645E+03  0.18154110234E+04  0.60015554602E+03 0.  0.
         23    2    4    4    0    0 -0.91583732334E+03 -0.64617504933E+03  0.35268463912E+03  0.11789615174E+04  0.96247637495E+02 0.  0.
         23    2    4    4    0    0 -0.53641636820E+03 -0.25215182667E+03 -0.21304745267E+03  0.63644950600E+03  0.91409478854E+02 0.  0.
          3    1    3    3  502    0  0.98545406737E+03  0.56511919683E+03 -0.82532940310E+03  0.14041538552E+04  0.00000000000E+00 0. -1.
         -3    1    3    3    0  502  0.46679962418E+03  0.33320767917E+03 -0.46413548920E+03  0.73780146308E+03  0.00000000000E+00 0.  1.
         13    1    5    5    0    0 -0.66105849165E+03 -0.51739231427E+03  0.25909905197E+03  0.87853597250E+03  0.00000000000E+00 0.  1.
        -13    1    5    5    0    0 -0.25477883169E+03 -0.12878273506E+03  0.93585587154E+02  0.30042554494E+03  0.00000000000E+00 0. -1.
          5    1    6    6  503    0 -0.12460734450E+03 -0.21981304407E+02 -0.62620216100E+02  0.14125703349E+03  0.47000000000E+01 0. -1.
         -5    1    6    6    0  503 -0.41180902371E+03 -0.23017052226E+03 -0.15042723657E+03  0.49519247251E+03  0.47000000000E+01 0.  1.
<mgrwt>
<rscale>  0 0.17164318E+04</rscale>
<asrwt>0</asrwt>
<pdfrwt beam="1">  1        2 0.39286107E+00 0.17164318E+04</pdfrwt>
<pdfrwt beam="2">  1       -2 0.21596451E+00 0.17164318E+04</pdfrwt>
<totfact> 0.31159565E-01</totfact>
</mgrwt>
</event>
<event>
12    1  0.3166324E-008  0.5710278E+03  0.7818608E-02  0.9967407E-01
         -2   -1    0    0    0  501 -0.00000000000E+00  0.00000000000E+00  0.92052691931E+03  0.92052691931E+03  0.00000000000E+00 0.  1.
          2   -1    0    0  501    0  0.00000000000E+00 -0.00000000000E+00 -0.55262263491E+03  0.55262263491E+03  0.00000000000E+00 0. -1.
         23    2    1    2    0    0 -0.20087988140E+03  0.52379019261E+03 -0.11930502070E+02  0.56802123688E+03  0.88300034229E+02 0.  0.
    5000000    2    1    2    0    0  0.20087988140E+03 -0.52379019261E+03  0.37983478647E+03  0.90512831734E+03  0.60022821762E+03 0.  0.
         23    2    4    4    0    0  0.14054402880E+03 -0.23699330792E+03 -0.12575240715E+03  0.31403471964E+03  0.82980028973E+02 0.  0.
         23    2    4    4    0    0  0.60335852603E+02 -0.28679688469E+03  0.50558719362E+03  0.59109359770E+03  0.88771407099E+02 0.  0.
          2    1    3    3  502    0  0.27775638048E+01  0.36276487695E+01  0.78256144320E+01  0.90617292789E+01  0.00000000000E+00 0.  1.
         -2    1    3    3    0  502 -0.20365744521E+03  0.52016254384E+03 -0.19756116502E+02  0.55895950760E+03  0.00000000000E+00 0. -1.
         11    1    5    5    0    0  0.48438780162E+02 -0.76876380327E+02 -0.85954592486E+02  0.12507791670E+03  0.00000000000E+00 0.  1.
        -11    1    5    5    0    0  0.92105248637E+02 -0.16011692759E+03 -0.39797814664E+02  0.18895680295E+03  0.00000000000E+00 0. -1.
          5    1    6    6  503    0  0.68217144052E+02 -0.28602547317E+03  0.47075264712E+03  0.55506242425E+03  0.47000000000E+01 0. -1.
         -5    1    6    6    0  503 -0.78812914490E+01 -0.77141151986E+00  0.34834546501E+02  0.36031173455E+02  0.47000000000E+01 0.  1.
<mgrwt>
<rscale>  0 0.57102780E+03</rscale>
<asrwt>0</asrwt>
<pdfrwt beam="1">  1        2 0.85018867E-01 0.57102780E+03</pdfrwt>
<pdfrwt beam="2">  1       -2 0.14161953E+00 0.57102780E+03</pdfrwt>
<totfact> 0.19694514E+01</totfact>
</mgrwt>
</event>
<event>
12    1  0.3166324E-008  0.5953582E+03  0.7818608E-02  0.9915083E-01
          2   -1    0    0  501    0  0.00000000000E+00  0.00000000000E+00  0.18860607095E+04  0.18860607095E+04  0.00000000000E+00 0. -1.
         -2   -1    0    0    0  501 -0.00000000000E+00 -0.00000000000E+00 -0.21808936799E+03  0.21808936799E+03  0.00000000000E+00 0.  1.
         23    2    1    2    0    0 -0.17244195933E+03 -0.44813189960E+03  0.44919082348E+03  0.66361005030E+03  0.89707715271E+02 0.  0.
    5000000    2    1    2    0    0  0.17244195933E+03  0.44813189960E+03  0.12187805180E+04  0.14405400272E+04  0.59930892704E+03 0.  0.
         23    2    4    4    0    0  0.60580295884E+02 -0.11796769977E+03  0.13762929032E+03  0.21156497970E+03  0.90727992604E+02 0.  0.
         23    2    4    4    0    0  0.11186166344E+03  0.56609959938E+03  0.10811512277E+04  0.12289750475E+04  0.92249130162E+02 0.  0.
          1    1    3    3  502    0 -0.88979380382E+02 -0.19921884141E+03  0.26316768479E+03  0.34185187907E+03  0.00000000000E+00 0. -1.
         -1    1    3    3    0  502 -0.83462578943E+02 -0.24891305819E+03  0.18602313868E+03  0.32175817122E+03  0.00000000000E+00 0.  1.
         13    1    5    5    0    0  0.20940210295E+02 -0.47397472866E+02 -0.94567952512E-01  0.51817195836E+02  0.00000000000E+00 0. -1.
        -13    1    5    5    0    0  0.39640085590E+02 -0.70570226907E+02  0.13772385828E+03  0.15974778386E+03  0.00000000000E+00 0.  1.
          5    1    6    6  503    0  0.32981640545E+02  0.14376416656E+03  0.19897558222E+03  0.24772827154E+03  0.47000000000E+01 0. -1.
         -5    1    6    6    0  503  0.78880022896E+02  0.42233543282E+03  0.88217564547E+03  0.98124677594E+03  0.47000000000E+01 0.  1.
<mgrwt>
<rscale>  0 0.59535823E+03</rscale>
<asrwt>0</asrwt>
<pdfrwt beam="1">  1        2 0.29016318E+00 0.59535823E+03</pdfrwt>
<pdfrwt beam="2">  1       -2 0.33552212E-01 0.59535823E+03</pdfrwt>
<totfact> 0.67151284E+01</totfact>
</mgrwt>
</event>
<event>
12    1  0.3166324E-008  0.9763716E+03  0.7818608E-02  0.9334847E-01
         -1   -1    0    0    0  501 -0.00000000000E+00  0.00000000000E+00  0.10062450069E+04  0.10062450069E+04  0.00000000000E+00 0.  1.
          1   -1    0    0  501    0  0.00000000000E+00 -0.00000000000E+00 -0.13655367549E+04  0.13655367549E+04  0.00000000000E+00 0. -1.
         23    2    1    2    0    0 -0.88663908649E+03 -0.11162011789E+03 -0.80524912473E+03  0.12066947247E+04  0.95383883906E+02 0.  0.
    5000000    2    1    2    0    0  0.88663908649E+03  0.11162011789E+03  0.44595737677E+03  0.11650870371E+04  0.59996825066E+03 0.  0.
         23    2    4    4    0    0  0.48941113345E+03  0.33285631110E+03  0.15763626637E+03  0.61922695255E+03  0.90973869340E+02 0.  0.
         23    2    4    4    0    0  0.39722795304E+03 -0.22123619321E+03  0.28832111040E+03  0.54586008459E+03  0.89992607387E+02 0.  0.
          2    1    3    3  502    0 -0.58769849011E+03 -0.93895560798E+02 -0.58882312266E+03  0.83720879200E+03  0.00000000000E+00 0. -1.
         -2    1    3    3    0  502 -0.29894059638E+03 -0.17724557095E+02 -0.21642600207E+03  0.36948593269E+03  0.00000000000E+00 0.  1.
         11    1    5    5    0    0  0.21856407371E+03  0.10963721189E+03  0.96961696690E+02  0.26304399475E+03  0.00000000000E+00 0. -1.
        -11    1    5    5    0    0  0.27084705975E+03  0.22321909921E+03  0.60674569677E+02  0.35618295780E+03  0.00000000000E+00 0.  1.
          5    1    6    6  503    0  0.32262530817E+03 -0.13851273355E+03  0.23289962459E+03  0.42135162509E+03  0.47000000000E+01 0. -1.
         -5    1    6    6    0  503  0.74602644870E+02 -0.82723459653E+02  0.55421485812E+02  0.12450845950E+03  0.47000000000E+01 0.  1.
<mgrwt>
<rscale>  0 0.97637157E+03</rscale>
<asrwt>0</asrwt>
<pdfrwt beam="1">  1        1 0.21008258E+00 0.97637157E+03</pdfrwt>
<pdfrwt beam="2">  1       -1 0.15480693E+00 0.97637157E+03</pdfrwt>
<totfact> 0.26218607E+00</totfact>
</mgrwt>
</event>
<event>
12    1  0.3166324E-008  0.4780098E+03  0.7818608E-02  0.1019684E+00
          2   -1    0    0  501    0  0.00000000000E+00  0.00000000000E+00  0.12747300140E+04  0.12747300140E+04  0.00000000000E+00 0. -1.
         -2   -1    0    0    0  501 -0.00000000000E+00 -0.00000000000E+00 -0.41484706096E+03  0.41484706096E+03  0.00000000000E+00 0.  1.
         23    2    1    2    0    0  0.29671562292E+03 -0.32849164210E+03  0.82784969016E+03  0.94322701498E+03  0.91625173855E+02 0.  0.
    5000000    2    1    2    0    0 -0.29671562292E+03  0.32849164210E+03  0.32033262884E+02  0.74635005997E+03  0.60005446609E+03 0.  0.
         23    2    4    4    0    0 -0.11778406173E+03  0.27899653686E+03  0.28029271114E+03  0.42249399994E+03  0.90691914106E+02 0.  0.
         23    2    4    4    0    0 -0.17893156119E+03  0.49495105240E+02 -0.24825944826E+03  0.32385606004E+03  0.93721528694E+02 0.  0.
          1    1    3    3  502    0  0.23577526992E+03 -0.29772748202E+03  0.65129333689E+03  0.75393278356E+03  0.00000000000E+00 0. -1.
         -1    1    3    3    0  502  0.60940353003E+02 -0.30764160084E+02  0.17655635327E+03  0.18929423142E+03  0.00000000000E+00 0.  1.
         13    1    5    5    0    0 -0.11207063629E+03  0.23609595478E+03  0.27418530680E+03  0.37878583638E+03  0.00000000000E+00 0. -1.
        -13    1    5    5    0    0 -0.57134254448E+01  0.42900582086E+02  0.61074043460E+01  0.43708163557E+02  0.00000000000E+00 0.  1.
          5    1    6    6  503    0 -0.88388333612E+02 -0.17996141505E+02 -0.77159728740E+02  0.11879424383E+03  0.47000000000E+01 0. -1.
         -5    1    6    6    0  503 -0.90543227580E+02  0.67491246745E+02 -0.17109971952E+03  0.20506181621E+03  0.47000000000E+01 0.  1.
<mgrwt>
<rscale>  0 0.47800984E+03</rscale>
<asrwt>0</asrwt>
<pdfrwt beam="1">  1        2 0.19611231E+00 0.47800984E+03</pdfrwt>
<pdfrwt beam="2">  1       -2 0.63822626E-01 0.47800984E+03</pdfrwt>
<totfact> 0.40967629E+01</totfact>
</mgrwt>
</event>
<event>
12    1  0.3166324E-008  0.8329649E+03  0.7818608E-02  0.9513490E-01
         -1   -1    0    0    0  501 -0.00000000000E+00  0.00000000000E+00  0.19054204179E+04  0.19054204179E+04  0.00000000000E+00 0.  1.
          1   -1    0    0  501    0  0.00000000000E+00 -0.00000000000E+00 -0.43015932462E+03  0.43015932462E+03  0.00000000000E+00 0. -1.
         23    2    1    2    0    0 -0.72685935819E+03  0.34173302390E+03  0.68354855624E+03  0.10580919034E+04  0.84934451248E+02 0.  0.
    5000000    2    1    2    0    0  0.72685935819E+03 -0.34173302390E+03  0.79171253706E+03  0.12774878392E+04  0.60005037430E+03 0.  0.
         23    2    4    4    0    0 -0.19271564890E+02  0.88218128544E+01  0.29821739913E+03  0.31249617303E+03  0.90945167111E+02 0.  0.
         23    2    4    4    0    0  0.74613092308E+03 -0.35055483676E+03  0.49349513793E+03  0.96499166614E+03  0.89841063076E+02 0.  0.
          3    1    3    3  502    0 -0.28670152815E+03  0.89451950519E+02  0.25444625274E+03  0.39362712461E+03  0.00000000000E+00 0. -1.
         -3    1    3    3    0  502 -0.44015783004E+03  0.25228107339E+03  0.42910230351E+03  0.66446477876E+03  0.00000000000E+00 0.  1.
         13    1    5    5    0    0 -0.25268352545E+01 -0.70173911521E+01  0.28657760936E+03  0.28667464984E+03  0.00000000000E+00 0.  1.
        -13    1    5    5    0    0 -0.16744729636E+02  0.15839204007E+02  0.11639789773E+02  0.25821523195E+02  0.00000000000E+00 0. -1.
          5    1    6    6  503    0  0.24005230835E+03 -0.15161863155E+03  0.19712659077E+03  0.34567948010E+03  0.47000000000E+01 0. -1.
         -5    1    6    6    0  503  0.50607861473E+03 -0.19893620521E+03  0.29636854716E+03  0.61931218604E+03  0.47000000000E+01 0.  1.
<mgrwt>
<rscale>  0 0.83296488E+03</rscale>
<asrwt>0</asrwt>
<pdfrwt beam="1">  1        1 0.66178359E-01 0.83296488E+03</pdfrwt>
<pdfrwt beam="2">  1       -1 0.29314160E+00 0.83296488E+03</pdfrwt>
<totfact> 0.20642786E+00</totfact>
</mgrwt>
</event>
<event>
12    1  0.3166324E-008  0.6085655E+03  0.7818608E-02  0.9887793E-01
          3   -1    0    0  501    0  0.00000000000E+00  0.00000000000E+00  0.10959652400E+04  0.10959652400E+04  0.00000000000E+00 0. -1.
         -3   -1    0    0    0  501 -0.00000000000E+00 -0.00000000000E+00 -0.47871556834E+03  0.47871556834E+03  0.00000000000E+00 0.  1.
         23    2    1    2    0    0 -0.53277897788E+02  0.48516372438E+03 -0.11513340197E+03  0.50949607152E+03  0.90045393013E+02 0.  0.
    5000000    2    1    2    0    0  0.53277897788E+02 -0.48516372438E+03  0.73238307359E+03  0.10651847368E+04  0.60000931923E+03 0.  0.
         23    2    4    4    0    0  0.20100784516E+03 -0.53011854016E+03  0.65517406793E+03  0.87100486433E+03  0.89255778333E+02 0.  0.
         23    2    4    4    0    0 -0.14772994737E+03  0.44954815783E+02  0.77209005665E+02  0.19417987246E+03  0.88879241109E+02 0.  0.
          3    1    3    3  502    0 -0.18168793363E+02  0.36804835225E+03 -0.52804470361E+02  0.37226067042E+03  0.00000000000E+00 0. -1.
         -3    1    3    3    0  502 -0.35109104425E+02  0.11711537212E+03 -0.62328931606E+02  0.13723540110E+03  0.00000000000E+00 0.  1.
         11    1    5    5    0    0  0.15580405090E+03 -0.33077113567E+03  0.37038133820E+03  0.52044863546E+03  0.00000000000E+00 0.  1.
        -11    1    5    5    0    0  0.45203794262E+02 -0.19934740449E+03  0.28479272972E+03  0.35055622887E+03  0.00000000000E+00 0. -1.
          5    1    6    6  503    0 -0.11232020444E+03  0.24109369624E+02  0.95012511802E+02  0.14915279893E+03  0.47000000000E+01 0. -1.
         -5    1    6    6    0  503 -0.35409742930E+02  0.20845446159E+02 -0.17803506137E+02  0.45027073530E+02  0.47000000000E+01 0.  1.
<mgrwt>
<rscale>  0 0.60856549E+03</rscale>
<asrwt>0</asrwt>
<pdfrwt beam="1">  1        3 0.16861004E+00 0.60856549E+03</pdfrwt>
<pdfrwt beam="2">  1       -3 0.73648549E-01 0.60856549E+03</pdfrwt>
<totfact> 0.10867722E+00</totfact>
</mgrwt>
</event>
<event>
12    1  0.3166324E-008  0.7369288E+03  0.7818608E-02  0.9656083E-01
         -2   -1    0    0    0  501 -0.00000000000E+00  0.00000000000E+00  0.51249093997E+03  0.51249093997E+03  0.00000000000E+00 0.  1.
          2   -1    0    0  501    0  0.00000000000E+00 -0.00000000000E+00 -0.11262219732E+04  0.11262219732E+04  0.00000000000E+00 0. -1.
         23    2    1    2    0    0  0.62723454052E+03  0.53070554177E+02 -0.14986904510E+03  0.65318953273E+03  0.89197435236E+02 0.  0.
    5000000    2    1    2    0    0 -0.62723454052E+03 -0.53070554177E+02 -0.46386198813E+03  0.98552338043E+03  0.59987393410E+03 0.  0.
         23    2    4    4    0    0 -0.71350407286E+03 -0.76204746108E+02 -0.31353421448E+03  0.78837709385E+03  0.91320934874E+02 0.  0.
         23    2    4    4    0    0  0.86269532342E+02  0.23134191931E+02 -0.15032777365E+03  0.19714628658E+03  0.91052708559E+02 0.  0.
          4    1    3    3  502    0  0.43674943135E+03  0.28866981100E+02 -0.14505675416E+03  0.46111260047E+03  0.00000000000E+00 0. -1.
         -4    1    3    3    0  502  0.19048510917E+03  0.24203573077E+02 -0.48122909409E+01  0.19207693226E+03  0.00000000000E+00 0.  1.
         11    1    5    5    0    0 -0.35676250686E+03 -0.26839256846E+02 -0.10801278135E+03  0.37371993918E+03  0.00000000000E+00 0. -1.
        -11    1    5    5    0    0 -0.35674156600E+03 -0.49365489263E+02 -0.20552143313E+03  0.41465715467E+03  0.00000000000E+00 0.  1.
          5    1    6    6  503    0  0.79249079542E+01 -0.30042340374E+02 -0.25925965952E+02  0.40738091410E+02  0.47000000000E+01 0. -1.
         -5    1    6    6    0  503  0.78344624387E+02  0.53176532305E+02 -0.12440180770E+03  0.15640819517E+03  0.47000000000E+01 0.  1.
<mgrwt>
<rscale>  0 0.73692882E+03</rscale>
<asrwt>0</asrwt>
<pdfrwt beam="1">  1        2 0.17326492E+00 0.73692882E+03</pdfrwt>
<pdfrwt beam="2">  1       -2 0.78844760E-01 0.73692882E+03</pdfrwt>
<totfact> 0.30551251E+01</totfact>
</mgrwt>
</event>
<event>
12    1  0.3166324E-008  0.9702355E+03  0.7818608E-02  0.9341806E-01
         -2   -1    0    0    0  501 -0.00000000000E+00  0.00000000000E+00  0.41874834231E+03  0.41874834231E+03  0.00000000000E+00 0.  1.
          2   -1    0    0  501    0  0.00000000000E+00 -0.00000000000E+00 -0.24119085213E+04  0.24119085213E+04  0.00000000000E+00 0. -1.
         23    2    1    2    0    0  0.80153793523E+03 -0.38321277317E+03 -0.61376938136E+03  0.10836195280E+04  0.90572273787E+02 0.  0.
    5000000    2    1    2    0    0 -0.80153793523E+03  0.38321277317E+03 -0.13793907976E+04  0.17470373356E+04  0.60008781724E+03 0.  0.
         23    2    4    4    0    0  0.62295352870E+02  0.17356567496E+02 -0.26477119674E+03  0.28736462689E+03  0.91064157266E+02 0.  0.
         23    2    4    4    0    0 -0.86383328810E+03  0.36585620568E+03 -0.11146196009E+04  0.14596727088E+04  0.90602699360E+02 0.  0.
          2    1    3    3  502    0  0.10038866066E+03 -0.69259222445E+02 -0.11534286652E+03  0.16786512425E+03  0.00000000000E+00 0. -1.
         -2    1    3    3    0  502  0.70114927457E+03 -0.31395355073E+03 -0.49842651484E+03  0.91575440372E+03  0.00000000000E+00 0.  1.
         13    1    5    5    0    0  0.37841523792E+02  0.53437630125E+02 -0.18808288016E+03  0.19915504273E+03  0.00000000000E+00 0. -1.
        -13    1    5    5    0    0  0.24453829078E+02 -0.36081062629E+02 -0.76688316576E+02  0.88209584152E+02  0.00000000000E+00 0.  1.
          5    1    6    6  503    0 -0.13133859032E+03  0.86016430374E+02 -0.21524529620E+03  0.26646065214E+03  0.47000000000E+01 0. -1.
         -5    1    6    6    0  503 -0.73249469778E+03  0.27983977530E+03 -0.89937430470E+03  0.11932120566E+04  0.47000000000E+01 0.  1.
<mgrwt>
<rscale>  0 0.97023551E+03</rscale>
<asrwt>0</asrwt>
<pdfrwt beam="1">  1        2 0.37106284E+00 0.97023551E+03</pdfrwt>
<pdfrwt beam="2">  1       -2 0.64422823E-01 0.97023551E+03</pdfrwt>
<totfact> 0.88275365E+00</totfact>
</mgrwt>
</event>
<event>
12    1  0.3166324E-008  0.5273530E+03  0.7818608E-02  0.1006876E+00
         -2   -1    0    0    0  501 -0.00000000000E+00  0.00000000000E+00  0.85342762153E+03  0.85342762153E+03  0.00000000000E+00 0.  1.
          2   -1    0    0  501    0  0.00000000000E+00 -0.00000000000E+00 -0.78879812237E+03  0.78879812237E+03  0.00000000000E+00 0. -1.
         23    2    1    2    0    0 -0.17127595614E+03 -0.36886609255E+03  0.60740198671E+03  0.73672901023E+03  0.91841241649E+02 0.  0.
    5000000    2    1    2    0    0  0.17127595614E+03  0.36886609255E+03 -0.54277248755E+03  0.90549673367E+03  0.59993725844E+03 0.  0.
         23    2    4    4    0    0  0.10387330874E+03  0.47443328235E+03 -0.20555831182E+03  0.53505447946E+03  0.90291044731E+02 0.  0.
         23    2    4    4    0    0  0.67402647394E+02 -0.10556718980E+03 -0.33721417573E+03  0.37044225421E+03  0.88467592683E+02 0.  0.
          1    1    3    3  502    0 -0.22990661120E+02 -0.15155150614E+03  0.24225495641E+03  0.28667733328E+03  0.00000000000E+00 0. -1.
         -1    1    3    3    0  502 -0.14828529502E+03 -0.21731458641E+03  0.36514703030E+03  0.45005167695E+03  0.00000000000E+00 0.  1.
         13    1    5    5    0    0  0.72303417415E+02  0.31115611030E+03 -0.18038785865E+03  0.36685922191E+03  0.00000000000E+00 0.  1.
        -13    1    5    5    0    0  0.31569891329E+02  0.16327717205E+03 -0.25170453171E+02  0.16819525756E+03  0.00000000000E+00 0. -1.
          5    1    6    6  503    0  0.86353729090E+02 -0.10015546928E+03 -0.27868404014E+03  0.30850440643E+03  0.47000000000E+01 0. -1.
         -5    1    6    6    0  503 -0.18951081697E+02 -0.54117205192E+01 -0.58530135586E+02  0.61937847785E+02  0.47000000000E+01 0.  1.
<mgrwt>
<rscale>  0 0.52735303E+03</rscale>
<asrwt>0</asrwt>
<pdfrwt beam="1">  1        2 0.12135356E+00 0.52735303E+03</pdfrwt>
<pdfrwt beam="2">  1       -2 0.13129656E+00 0.52735303E+03</pdfrwt>
<totfact> 0.15504379E+01</totfact>
</mgrwt>
</event>
<event>
12    1  0.3166324E-008  0.8405312E+03  0.7818608E-02  0.9503135E-01
          1   -1    0    0  501    0  0.00000000000E+00  0.00000000000E+00  0.14588097005E+04  0.14588097005E+04  0.00000000000E+00 0. -1.
         -1   -1    0    0    0  501 -0.00000000000E+00 -0.00000000000E+00 -0.61906724099E+03  0.61906724099E+03  0.00000000000E+00 0.  1.
         23    2    1    2    0    0  0.68809949243E+03 -0.33756665753E+03 -0.28888731321E+02  0.77328422370E+03  0.98497573899E+02 0.  0.
    5000000    2    1    2    0    0 -0.68809949243E+03  0.33756665753E+03  0.86863119087E+03  0.13045927178E+04  0.60000821152E+03 0.  0.
         23    2    4    4    0    0 -0.10034993270E+03 -0.12778899011E+03  0.55090615463E+02  0.19451305226E+03  0.91652695555E+02 0.  0.
         23    2    4    4    0    0 -0.58774955973E+03  0.46535564764E+03  0.81354057541E+03  0.11100796656E+04  0.91777842117E+02 0.  0.
          2    1    3    3  502    0  0.29371095899E+03 -0.11893185150E+03  0.30995200520E+02  0.31838909401E+03  0.00000000000E+00 0. -1.
         -2    1    3    3    0  502  0.39438853344E+03 -0.21863480603E+03 -0.59883931841E+02  0.45489512969E+03  0.00000000000E+00 0.  1.
         11    1    5    5    0    0 -0.73699702088E+02 -0.10125066936E+03  0.80726434062E+02  0.14899698416E+03  0.00000000000E+00 0. -1.
        -11    1    5    5    0    0 -0.26650230613E+02 -0.26538320750E+02 -0.25635818600E+02  0.45516068099E+02  0.00000000000E+00 0.  1.
          5    1    6    6  503    0 -0.47195635129E+03  0.35746640316E+03  0.58739549144E+03  0.83401473624E+03  0.47000000000E+01 0. -1.
         -5    1    6    6    0  503 -0.11579320845E+03  0.10788924448E+03  0.22614508397E+03  0.27606492932E+03  0.47000000000E+01 0.  1.
<mgrwt>
<rscale>  0 0.84053117E+03</rscale>
<asrwt>0</asrwt>
<pdfrwt beam="1">  1        1 0.22443226E+00 0.84053117E+03</pdfrwt>
<pdfrwt beam="2">  1       -1 0.95241114E-01 0.84053117E+03</pdfrwt>
<totfact> 0.76298558E+00</totfact>
</mgrwt>
</event>
<event>
12    1  0.3166324E-008  0.1186061E+04  0.7818608E-02  0.9125145E-01
         -2   -1    0    0    0  501 -0.00000000000E+00  0.00000000000E+00  0.12142772176E+04  0.12142772176E+04  0.00000000000E+00 0.  1.
          2   -1    0    0  501    0  0.00000000000E+00 -0.00000000000E+00 -0.11975345253E+04  0.11975345253E+04  0.00000000000E+00 0. -1.
         23    2    1    2    0    0  0.10916776525E+04 -0.28859712753E+03  0.27439542578E+02  0.11331137737E+04  0.90252406056E+02 0.  0.
    5000000    2    1    2    0    0 -0.10916776525E+04  0.28859712753E+03 -0.10696850280E+02  0.12786979692E+04  0.59992139069E+03 0.  0.
         23    2    4    4    0    0 -0.70178682029E+03 -0.68058983769E+02  0.13460083180E+03  0.72349893583E+03  0.90534854191E+02 0.  0.
         23    2    4    4    0    0 -0.38989083218E+03  0.35665611130E+03 -0.14529768208E+03  0.55519903341E+03  0.88972510006E+02 0.  0.
          1    1    3    3  502    0  0.47802054324E+03 -0.98944187851E+02  0.47860873981E+02  0.49049388919E+03  0.00000000000E+00 0. -1.
         -1    1    3    3    0  502  0.61365710923E+03 -0.18965293968E+03 -0.20421331403E+02  0.64261988455E+03  0.00000000000E+00 0.  1.
         13    1    5    5    0    0 -0.62740713810E+02 -0.31408562491E+02  0.22332460098E+02  0.73631744113E+02  0.00000000000E+00 0. -1.
        -13    1    5    5    0    0 -0.63904610648E+03 -0.36650421278E+02  0.11226837170E+03  0.64986719172E+03  0.00000000000E+00 0.  1.
          5    1    6    6  503    0 -0.14602962900E+03  0.17080835738E+03 -0.26417135348E+02  0.22631858637E+03  0.47000000000E+01 0. -1.
         -5    1    6    6    0  503 -0.24386120319E+03  0.18584775391E+03 -0.11888054673E+03  0.32888044704E+03  0.47000000000E+01 0.  1.
<mgrwt>
<rscale>  0 0.11860612E+04</rscale>
<asrwt>0</asrwt>
<pdfrwt beam="1">  1        2 0.18423608E+00 0.11860612E+04</pdfrwt>
<pdfrwt beam="2">  1       -2 0.18681188E+00 0.11860612E+04</pdfrwt>
<totfact> 0.30103810E+00</totfact>
</mgrwt>
</event>
<event>
12    1  0.3166324E-008  0.4947489E+03  0.7818608E-02  0.1015159E+00
          2   -1    0    0  501    0  0.00000000000E+00  0.00000000000E+00  0.23136515369E+04  0.23136515369E+04  0.00000000000E+00 0. -1.
         -2   -1    0    0    0  501 -0.00000000000E+00 -0.00000000000E+00 -0.18335739977E+03  0.18335739977E+03  0.00000000000E+00 0.  1.
         23    2    1    2    0    0 -0.73017286992E+01 -0.31649467119E+03  0.81772189040E+02  0.33915401421E+03  0.90091965938E+02 0.  0.
    5000000    2    1    2    0    0  0.73017286992E+01  0.31649467119E+03  0.20485219481E+04  0.21578549225E+04  0.59972785699E+03 0.  0.
         23    2    4    4    0    0 -0.24359659555E+03 -0.21914983350E+00  0.90040828801E+03  0.93728960473E+03  0.91855150289E+02 0.  0.
         23    2    4    4    0    0  0.25089832425E+03  0.31671382102E+03  0.11481136601E+04  0.12205653178E+04  0.91417202080E+02 0.  0.
          2    1    3    3  502    0 -0.25835223675E+02 -0.27983748527E+03  0.46167094938E+02  0.28479444798E+03  0.00000000000E+00 0.  1.
         -2    1    3    3    0  502  0.18533494976E+02 -0.36657185914E+02  0.35605094102E+02  0.54359566235E+02  0.00000000000E+00 0. -1.
         13    1    5    5    0    0 -0.48204599856E+01  0.13145370813E+02  0.12651649199E+03  0.12728888543E+03  0.00000000000E+00 0. -1.
        -13    1    5    5    0    0 -0.23877613557E+03 -0.13364520646E+02  0.77389179602E+03  0.81000071930E+03  0.00000000000E+00 0.  1.
          5    1    6    6  503    0  0.10948085452E+03  0.21051186738E+03  0.66383226303E+03  0.70497990557E+03  0.47000000000E+01 0. -1.
         -5    1    6    6    0  503  0.14141746973E+03  0.10620195364E+03  0.48428139708E+03  0.51558541219E+03  0.47000000000E+01 0.  1.
<mgrwt>
<rscale>  0 0.49474894E+03</rscale>
<asrwt>0</asrwt>
<pdfrwt beam="1">  1        2 0.35594637E+00 0.49474894E+03</pdfrwt>
<pdfrwt beam="2">  1       -2 0.28208832E-01 0.49474894E+03</pdfrwt>
<totfact> 0.55180530E+01</totfact>
</mgrwt>
</event>
<event>
12    1  0.3166324E-008  0.1149753E+04  0.7818608E-02  0.9158012E-01
          1   -1    0    0  501    0  0.00000000000E+00  0.00000000000E+00  0.32260372032E+04  0.32260372032E+04  0.00000000000E+00 0. -1.
         -1   -1    0    0    0  501 -0.00000000000E+00 -0.00000000000E+00 -0.73525374715E+03  0.73525374715E+03  0.00000000000E+00 0.  1.
         23    2    1    2    0    0 -0.84267163362E+03 -0.77579429488E+03 -0.68284040757E+01  0.11488315864E+04  0.88403149509E+02 0.  0.
    5000000    2    1    2    0    0  0.84267163362E+03  0.77579429488E+03  0.24976118601E+04  0.28124593639E+04  0.59992532842E+03 0.  0.
         23    2    4    4    0    0  0.47038958434E+03  0.41918993494E+03  0.72798088715E+03  0.96703323748E+03  0.90612072654E+02 0.  0.
         23    2    4    4    0    0  0.37228204928E+03  0.35660435993E+03  0.17696309729E+04  0.18454261264E+04  0.90792146424E+02 0.  0.
          1    1    3    3  502    0 -0.13022395225E+03 -0.87302113970E+02  0.17650557785E+02  0.15777033636E+03  0.00000000000E+00 0. -1.
         -1    1    3    3    0  502 -0.71244768137E+03 -0.68849218091E+03 -0.24478961861E+02  0.99106125009E+03  0.00000000000E+00 0.  1.
         11    1    5    5    0    0  0.27127971568E+03  0.29602320006E+03  0.48437840613E+03  0.62916202956E+03  0.00000000000E+00 0.  1.
        -11    1    5    5    0    0  0.19910986866E+03  0.12316673489E+03  0.24360248103E+03  0.33787120792E+03  0.00000000000E+00 0. -1.
          5    1    6    6  503    0  0.78333626941E+02  0.90457219473E+02  0.55218273715E+03  0.56501905355E+03  0.47000000000E+01 0. -1.
         -5    1    6    6    0  503  0.29394842233E+03  0.26614714046E+03  0.12174482358E+04  0.12804070728E+04  0.47000000000E+01 0.  1.
<mgrwt>
<rscale>  0 0.11497526E+04</rscale>
<asrwt>0</asrwt>
<pdfrwt beam="1">  1        1 0.49631341E+00 0.11497526E+04</pdfrwt>
<pdfrwt beam="2">  1       -1 0.11311596E+00 0.11497526E+04</pdfrwt>
<totfact> 0.29202845E-01</totfact>
</mgrwt>
</event>
<event>
12    1  0.3166324E-008  0.1391745E+04  0.7818608E-02  0.8959815E-01
          2   -1    0    0  501    0  0.00000000000E+00  0.00000000000E+00  0.18910183392E+04  0.18910183392E+04  0.00000000000E+00 0. -1.
         -2   -1    0    0    0  501 -0.00000000000E+00 -0.00000000000E+00 -0.11423794616E+04  0.11423794616E+04  0.00000000000E+00 0.  1.
         23    2    1    2    0    0 -0.11417766670E+04 -0.75043471001E+03  0.70583548298E+03  0.15404829037E+04  0.89875670846E+02 0.  0.
    5000000    2    1    2    0    0  0.11417766670E+04  0.75043471001E+03  0.42803394607E+02  0.14929148972E+04  0.60013044289E+03 0.  0.
         23    2    4    4    0    0  0.47659025479E+03  0.12623858669E+03 -0.20782981552E+03  0.54273732585E+03  0.91083044107E+02 0.  0.
         23    2    4    4    0    0  0.66518641218E+03  0.62419612332E+03  0.25063321013E+03  0.95017757135E+03  0.89031723378E+02 0.  0.
          4    1    3    3  502    0 -0.91385268465E+03 -0.57547321108E+03  0.52316691089E+03  0.11999999011E+04  0.00000000000E+00 0. -1.
         -4    1    3    3    0  502 -0.22792398232E+03 -0.17496149893E+03  0.18266857209E+03  0.34048300259E+03  0.00000000000E+00 0.  1.
         13    1    5    5    0    0  0.27231520059E+03  0.11628828774E+03 -0.10832208978E+03  0.31529701786E+03  0.00000000000E+00 0.  1.
        -13    1    5    5    0    0  0.20427505420E+03  0.99502989526E+01 -0.99507725737E+02  0.22744030799E+03  0.00000000000E+00 0. -1.
          5    1    6    6  503    0  0.31413871871E+03  0.24168845658E+03  0.12990849155E+03  0.41712678026E+03  0.47000000000E+01 0. -1.
         -5    1    6    6    0  503  0.35104769347E+03  0.38250766674E+03  0.12072471858E+03  0.53305079109E+03  0.47000000000E+01 0.  1.
<mgrwt>
<rscale>  0 0.13917454E+04</rscale>
<asrwt>0</asrwt>
<pdfrwt beam="1">  1        2 0.29092590E+00 0.13917454E+04</pdfrwt>
<pdfrwt beam="2">  1       -2 0.17575069E+00 0.13917454E+04</pdfrwt>
<totfact> 0.14188281E+00</totfact>
</mgrwt>
</event>
<event>
12    1  0.3400104E-008  0.1464282E+04  0.7818608E-02  0.8908558E-01
         -2   -1    0    0    0  501 -0.00000000000E+00  0.00000000000E+00  0.98371832354E+03  0.98371832354E+03  0.00000000000E+00 0.  1.
          2   -1    0    0  501    0  0.00000000000E+00 -0.00000000000E+00 -0.23820144717E+04  0.23820144717E+04  0.00000000000E+00 0. -1.
         23    2    1    2    0    0 -0.16829479335E+03  0.14179810789E+04 -0.10590582238E+04  0.17802103437E+04  0.92471989640E+02 0.  0.
    5000000    2    1    2    0    0  0.16829479335E+03 -0.14179810789E+04 -0.33923792429E+03  0.15855224515E+04  0.59983797585E+03 0.  0.
         23    2    4    4    0    0  0.25799108623E+03 -0.47120036693E+03 -0.31490063430E+03  0.62933977710E+03  0.91197363942E+02 0.  0.
         23    2    4    4    0    0 -0.89696292880E+02 -0.94678071197E+03 -0.24337289991E+02  0.95618267437E+03  0.96196993567E+02 0.  0.
          1    1    3    3  502    0 -0.23078132010E+02  0.57216066106E+03 -0.43430557613E+03  0.71869448008E+03  0.00000000000E+00 0. -1.
         -1    1    3    3    0  502 -0.14521666134E+03  0.84582041784E+03 -0.62475264771E+03  0.10615158637E+04  0.00000000000E+00 0.  1.
         11    1    5    5    0    0  0.14411382896E+03 -0.34061580792E+03 -0.19037657124E+03  0.41597014698E+03  0.00000000000E+00 0. -1.
        -11    1    5    5    0    0  0.11387725728E+03 -0.13058455900E+03 -0.12452406307E+03  0.21336963012E+03  0.00000000000E+00 0.  1.
          5    1    6    6  503    0 -0.31129471343E+02 -0.70899207678E+03  0.32145462411E+01  0.70969798663E+03  0.47000000000E+01 0. -1.
         -5    1    6    6    0  503 -0.58566821538E+02 -0.23778863519E+03 -0.27551836232E+02  0.24648468774E+03  0.47000000000E+01 0.  1.
<mgrwt>
<rscale>  0 0.14642824E+04</rscale>
<asrwt>0</asrwt>
<pdfrwt beam="1">  1        2 0.36646376E+00 0.14642824E+04</pdfrwt>
<pdfrwt beam="2">  1       -2 0.15134128E+00 0.14642824E+04</pdfrwt>
<totfact> 0.11289989E+00</totfact>
</mgrwt>
</event>
<event>
12    1  0.3166324E-008  0.7974297E+03  0.7818608E-02  0.9563745E-01
          1   -1    0    0  501    0  0.00000000000E+00  0.00000000000E+00  0.10087599773E+04  0.10087599773E+04  0.00000000000E+00 0. -1.
         -1   -1    0    0    0  501 -0.00000000000E+00 -0.00000000000E+00 -0.13989563009E+04  0.13989563009E+04  0.00000000000E+00 0.  1.
         23    2    1    2    0    0  0.66782284253E+03  0.42234716172E+03  0.60751896763E+03  0.10008520150E+04  0.90889966160E+02 0.  0.
    5000000    2    1    2    0    0 -0.66782284253E+03 -0.42234716172E+03 -0.99771529123E+03  0.14068642632E+04  0.59955548419E+03 0.  0.
         23    2    4    4    0    0 -0.48312911728E+03 -0.23501163159E+03 -0.23339097159E+03  0.59330999137E+03  0.94346114372E+02 0.  0.
         23    2    4    4    0    0 -0.18469372525E+03 -0.18733553013E+03 -0.76432431964E+03  0.81355427180E+03  0.92046263291E+02 0.  0.
          3    1    3    3  502    0  0.35705443883E+03  0.26324477798E+03  0.29924032464E+03  0.53509854915E+03  0.00000000000E+00 0. -1.
         -3    1    3    3    0  502  0.31076840370E+03  0.15910238374E+03  0.30827864299E+03  0.46575346588E+03  0.00000000000E+00 0.  1.
         11    1    5    5    0    0 -0.16961444130E+03 -0.88718870030E+02 -0.13295211004E+03  0.23305870539E+03  0.00000000000E+00 0. -1.
        -11    1    5    5    0    0 -0.31351467598E+03 -0.14629276156E+03 -0.10043886156E+03  0.36025128598E+03  0.00000000000E+00 0.  1.
          5    1    6    6  503    0 -0.11911432168E+03 -0.13914511113E+03 -0.39625078229E+03  0.43656197274E+03  0.47000000000E+01 0.  1.
         -5    1    6    6    0  503 -0.65579403577E+02 -0.48190419003E+02 -0.36807353735E+03  0.37699229906E+03  0.47000000000E+01 0. -1.
<mgrwt>
<rscale>  0 0.79742973E+03</rscale>
<asrwt>0</asrwt>
<pdfrwt beam="1">  1        1 0.15519384E+00 0.79742973E+03</pdfrwt>
<pdfrwt beam="2">  1       -1 0.21522404E+00 0.79742973E+03</pdfrwt>
<totfact> 0.18294228E+00</totfact>
</mgrwt>
</event>
<event>
12    1  0.3166324E-008  0.8314650E+03  0.7818608E-02  0.9515557E-01
         -2   -1    0    0    0  501 -0.00000000000E+00  0.00000000000E+00  0.46930787288E+03  0.46930787288E+03  0.00000000000E+00 0.  1.
          2   -1    0    0  501    0  0.00000000000E+00 -0.00000000000E+00 -0.19691337069E+04  0.19691337069E+04  0.00000000000E+00 0. -1.
         23    2    1    2    0    0 -0.67323987903E+03  0.27638077379E+03 -0.86996363689E+02  0.73971316468E+03  0.99844538471E+02 0.  0.
    5000000    2    1    2    0    0  0.67323987903E+03 -0.27638077379E+03 -0.14128294703E+04  0.16987284151E+04  0.59996070638E+03 0.  0.
         23    2    4    4    0    0  0.70664634195E+03 -0.36152267787E+03 -0.13007666426E+04  0.15267296586E+04  0.94137626099E+02 0.  0.
         23    2    4    4    0    0 -0.33406462914E+02  0.85141904082E+02 -0.11206282769E+03  0.17199875650E+03  0.93061051423E+02 0.  0.
          4    1    3    3  502    0 -0.20608442416E+03  0.13143397572E+03 -0.47442823843E+02  0.24899096648E+03  0.00000000000E+00 0. -1.
         -4    1    3    3    0  502 -0.46715545488E+03  0.14494679807E+03 -0.39553539845E+02  0.49072219820E+03  0.00000000000E+00 0.  1.
         11    1    5    5    0    0  0.23501124435E+03 -0.72080838305E+02 -0.38731416968E+03  0.45873543384E+03  0.00000000000E+00 0. -1.
        -11    1    5    5    0    0  0.47163509759E+03 -0.28944183957E+03 -0.91345247294E+03  0.10679942247E+04  0.00000000000E+00 0.  1.
          5    1    6    6  503    0  0.11637198807E+01  0.94056530034E+02 -0.86099054297E+02  0.12760533781E+03  0.47000000000E+01 0. -1.
         -5    1    6    6    0  503 -0.34570182795E+02 -0.89146259519E+01 -0.25963773394E+02  0.44393418692E+02  0.47000000000E+01 0.  1.
<mgrwt>
<rscale>  0 0.83146500E+03</rscale>
<asrwt>0</asrwt>
<pdfrwt beam="1">  1        2 0.30294364E+00 0.83146500E+03</pdfrwt>
<pdfrwt beam="2">  1       -2 0.72201212E-01 0.83146500E+03</pdfrwt>
<totfact> 0.12346704E+01</totfact>
</mgrwt>
</event>
<event>
12    1  0.3166324E-008  0.9932475E+03  0.7818608E-02  0.9315982E-01
          2   -1    0    0  501    0  0.00000000000E+00  0.00000000000E+00  0.13187710518E+04  0.13187710518E+04  0.00000000000E+00 0. -1.
         -2   -1    0    0    0  501 -0.00000000000E+00 -0.00000000000E+00 -0.89410568727E+03  0.89410568727E+03  0.00000000000E+00 0.  1.
         23    2    1    2    0    0  0.48423879567E+03  0.78040236116E+03 -0.20702317067E+03  0.94690360488E+03  0.10125604781E+03 0.  0.
    5000000    2    1    2    0    0 -0.48423879567E+03 -0.78040236116E+03  0.63168853522E+03  0.12659731342E+04  0.60011875030E+03 0.  0.
         23    2    4    4    0    0 -0.46797852440E+03 -0.26496580447E+03  0.18103512916E+03  0.57451627302E+03  0.89913587101E+02 0.  0.
         23    2    4    4    0    0 -0.16260271270E+02 -0.51543655669E+03  0.45065340607E+03  0.69145686118E+03  0.95314521887E+02 0.  0.
          1    1    3    3  502    0  0.24851470273E+03  0.48854825188E+03 -0.14113952224E+03  0.56600292987E+03  0.00000000000E+00 0. -1.
         -1    1    3    3    0  502  0.23572409293E+03  0.29185410928E+03 -0.65883648425E+02  0.38090067501E+03  0.00000000000E+00 0.  1.
         13    1    5    5    0    0 -0.34258800555E+03 -0.22018300430E+03  0.16868652617E+03  0.44079727885E+03  0.00000000000E+00 0.  1.
        -13    1    5    5    0    0 -0.12539051885E+03 -0.44782800175E+02  0.12348602988E+02  0.13371899418E+03  0.00000000000E+00 0. -1.
          5    1    6    6  503    0  0.34817204946E+02 -0.16949386551E+03  0.17512503428E+03  0.24623418901E+03  0.47000000000E+01 0. -1.
         -5    1    6    6    0  503 -0.51077476216E+02 -0.34594269118E+03  0.27552837179E+03  0.44522267217E+03  0.47000000000E+01 0.  1.
<mgrwt>
<rscale>  0 0.99324749E+03</rscale>
<asrwt>0</asrwt>
<pdfrwt beam="1">  1        2 0.20288785E+00 0.99324749E+03</pdfrwt>
<pdfrwt beam="2">  1       -2 0.13755472E+00 0.99324749E+03</pdfrwt>
<totfact> 0.60171032E+00</totfact>
</mgrwt>
</event>
<event>
12    1  0.3166324E-008  0.9307759E+03  0.7818608E-02  0.9387907E-01
         -1   -1    0    0    0  501 -0.00000000000E+00  0.00000000000E+00  0.54434878758E+03  0.54434878758E+03  0.00000000000E+00 0.  1.
          1   -1    0    0  501    0  0.00000000000E+00 -0.00000000000E+00 -0.16241457823E+04  0.16241457823E+04  0.00000000000E+00 0. -1.
         23    2    1    2    0    0  0.67396671769E+03 -0.50379441589E+03 -0.51624398816E+03  0.99132236018E+03  0.90400312221E+02 0.  0.
    5000000    2    1    2    0    0 -0.67396671769E+03  0.50379441589E+03 -0.56355300651E+03  0.11771722096E+04  0.60008538557E+03 0.  0.
         23    2    4    4    0    0  0.17990398148E+02  0.28633431012E+03 -0.14255912511E+03  0.33363204352E+03  0.93146361918E+02 0.  0.
         23    2    4    4    0    0 -0.69195711584E+03  0.21746010577E+03 -0.42099388140E+03  0.84354016612E+03  0.90722742006E+02 0.  0.
          3    1    3    3  502    0  0.18933524999E+03 -0.14424180080E+03 -0.99614315144E+02  0.25802431236E+03  0.00000000000E+00 0. -1.
         -3    1    3    3    0  502  0.48463146770E+03 -0.35955261508E+03 -0.41662967302E+03  0.73329804782E+03  0.00000000000E+00 0.  1.
         13    1    5    5    0    0  0.38246277714E+02  0.18079365292E+03 -0.12888021923E+03  0.22529809943E+03  0.00000000000E+00 0.  1.
        -13    1    5    5    0    0 -0.20255879565E+02  0.10554065719E+03 -0.13678905880E+02  0.10833394410E+03  0.00000000000E+00 0. -1.
          5    1    6    6  503    0 -0.35995699798E+03  0.81909823980E+02 -0.17441529946E+03  0.40831488627E+03  0.47000000000E+01 0. -1.
         -5    1    6    6    0  503 -0.33200011786E+03  0.13555028179E+03 -0.24657858194E+03  0.43522527985E+03  0.47000000000E+01 0.  1.
<mgrwt>
<rscale>  0 0.93077588E+03</rscale>
<asrwt>0</asrwt>
<pdfrwt beam="1">  1        1 0.24986858E+00 0.93077588E+03</pdfrwt>
<pdfrwt beam="2">  1       -1 0.83745968E-01 0.93077588E+03</pdfrwt>
<totfact> 0.77112968E+00</totfact>
</mgrwt>
</event>
<event>
12    1  0.3166324E-008  0.4974024E+03  0.7818608E-02  0.1014459E+00
          2   -1    0    0  501    0  0.00000000000E+00  0.00000000000E+00  0.98600373553E+03  0.98600373553E+03  0.00000000000E+00 0. -1.
         -2   -1    0    0    0  501 -0.00000000000E+00 -0.00000000000E+00 -0.38384351256E+03  0.38384351256E+03  0.00000000000E+00 0.  1.
         23    2    1    2    0    0  0.15065064530E+02  0.45754185295E+03  0.15121844493E+03  0.49064798637E+03  0.91087458347E+02 0.  0.
    5000000    2    1    2    0    0 -0.15065064530E+02 -0.45754185295E+03  0.45094177805E+03  0.87919926173E+03  0.60005945644E+03 0.  0.
         23    2    4    4    0    0 -0.10566665954E+03 -0.39331876738E+03  0.12150496837E+02  0.41754156726E+03  0.91259137086E+02 0.  0.
         23    2    4    4    0    0  0.90601595014E+02 -0.64223085573E+02  0.43879128121E+03  0.46165769447E+03  0.90866851259E+02 0.  0.
          2    1    3    3  502    0  0.49305329515E+02  0.26408422600E+03  0.10763352259E+03  0.28940709930E+03  0.00000000000E+00 0. -1.
         -2    1    3    3    0  502 -0.34240264985E+02  0.19345762695E+03  0.43584922336E+02  0.20124088707E+03  0.00000000000E+00 0.  1.
         13    1    5    5    0    0 -0.17435806641E+02 -0.22071715950E+03 -0.14469108964E+02  0.22187705372E+03  0.00000000000E+00 0. -1.
        -13    1    5    5    0    0 -0.88230852903E+02 -0.17260160788E+03  0.26619605800E+02  0.19566451354E+03  0.00000000000E+00 0.  1.
          5    1    6    6  503    0  0.65663478324E+02 -0.31352705474E+02  0.12179889740E+03  0.14195684532E+03  0.47000000000E+01 0. -1.
         -5    1    6    6    0  503  0.24938116690E+02 -0.32870380100E+02  0.31699238381E+03  0.31970084915E+03  0.47000000000E+01 0.  1.
<mgrwt>
<rscale>  0 0.49740241E+03</rscale>
<asrwt>0</asrwt>
<pdfrwt beam="1">  1        2 0.15169288E+00 0.49740241E+03</pdfrwt>
<pdfrwt beam="2">  1       -2 0.59052849E-01 0.49740241E+03</pdfrwt>
<totfact> 0.71628738E+01</totfact>
</mgrwt>
</event>
<event>
12    1  0.3166324E-008  0.1658953E+04  0.7818608E-02  0.8785128E-01
         -2   -1    0    0    0  501 -0.00000000000E+00  0.00000000000E+00  0.76101944626E+03  0.76101944626E+03  0.00000000000E+00 0. -1.
          2   -1    0    0  501    0  0.00000000000E+00 -0.00000000000E+00 -0.40968844333E+04  0.40968844333E+04  0.00000000000E+00 0.  1.
         23    2    1    2    0    0  0.16357492384E+04 -0.24383012838E+03 -0.22370005930E+04  0.27836774571E+04  0.97774382827E+02 0.  0.
    5000000    2    1    2    0    0 -0.16357492384E+04  0.24383012838E+03 -0.10988643941E+04  0.20742264224E+04  0.59981963322E+03 0.  0.
         23    2    4    4    0    0 -0.66114845150E+03  0.48261160652E+02 -0.77627022185E+03  0.10249739773E+04  0.92356819922E+02 0.  0.
         23    2    4    4    0    0 -0.97460078693E+03  0.19556896773E+03 -0.32259417224E+03  0.10492524452E+04  0.93647096672E+02 0.  0.
          1    1    3    3  502    0  0.12473123470E+04 -0.16007742299E+03 -0.17541043837E+04  0.21583083795E+04  0.00000000000E+00 0. -1.
         -1    1    3    3    0  502  0.38843689142E+03 -0.83752705390E+02 -0.48289620930E+03  0.62536907761E+03  0.00000000000E+00 0.  1.
         13    1    5    5    0    0 -0.36014243772E+03  0.70666413024E+02 -0.44484066699E+03  0.57669709240E+03  0.00000000000E+00 0.  1.
        -13    1    5    5    0    0 -0.30100601379E+03 -0.22405252372E+02 -0.33142955486E+03  0.44827688486E+03  0.00000000000E+00 0. -1.
          5    1    6    6  503    0 -0.15159948737E+03  0.33626389222E+02 -0.15987707559E+02  0.15617565564E+03  0.47000000000E+01 0. -1.
         -5    1    6    6    0  503 -0.82300129956E+03  0.16194257851E+03 -0.30660646468E+03  0.89307678953E+03  0.47000000000E+01 0.  1.
<mgrwt>
<rscale>  0 0.16589528E+04</rscale>
<asrwt>0</asrwt>
<pdfrwt beam="1">  1        2 0.63028992E+00 0.16589528E+04</pdfrwt>
<pdfrwt beam="2">  1       -2 0.11707991E+00 0.16589528E+04</pdfrwt>
<totfact> 0.15244729E-01</totfact>
</mgrwt>
</event>
<event>
12    1  0.3166324E-008  0.1337520E+04  0.7818608E-02  0.9000330E-01
          1   -1    0    0  501    0  0.00000000000E+00  0.00000000000E+00  0.46746468215E+04  0.46746468215E+04  0.00000000000E+00 0. -1.
         -1   -1    0    0    0  501 -0.00000000000E+00 -0.00000000000E+00 -0.40092855719E+03  0.40092855719E+03  0.00000000000E+00 0.  1.
         23    2    1    2    0    0  0.12409892543E+04  0.38630308590E+03  0.21670542464E+04  0.25285521906E+04  0.90375161144E+02 0.  0.
    5000000    2    1    2    0    0 -0.12409892543E+04 -0.38630308590E+03  0.21066640179E+04  0.25470231882E+04  0.60000786097E+03 0.  0.
         23    2    4    4    0    0  0.11141825585E+02 -0.68836449010E+02  0.31900295592E+03  0.33958901245E+03  0.93248134062E+02 0.  0.
         23    2    4    4    0    0 -0.12521310799E+04 -0.31746663689E+03  0.17876610620E+04  0.22074341757E+04  0.91740180743E+02 0.  0.
          1    1    3    3  502    0  0.10280055250E+04  0.28719294920E+03  0.17465117852E+04  0.20468460043E+04  0.00000000000E+00 0. -1.
         -1    1    3    3    0  502  0.21298372936E+03  0.99110136701E+02  0.42054246121E+03  0.48170618623E+03  0.00000000000E+00 0.  1.
         11    1    5    5    0    0 -0.77478100774E+01 -0.59098033088E+02  0.31134544466E+03  0.31699935644E+03  0.00000000000E+00 0.  1.
        -11    1    5    5    0    0  0.18889635662E+02 -0.97384159225E+01  0.76575112625E+01  0.22589656015E+02  0.00000000000E+00 0. -1.
          5    1    6    6  503    0 -0.76716794416E+03 -0.18585185292E+03  0.10168781252E+04  0.12873036850E+04  0.47000000000E+01 0. -1.
         -5    1    6    6    0  503 -0.48496313577E+03 -0.13161478397E+03  0.77078293677E+03  0.92013049076E+03  0.47000000000E+01 0.  1.
<mgrwt>
<rscale>  0 0.13375196E+04</rscale>
<asrwt>0</asrwt>
<pdfrwt beam="1">  1        1 0.71917640E+00 0.13375196E+04</pdfrwt>
<pdfrwt beam="2">  1       -1 0.61681320E-01 0.13375196E+04</pdfrwt>
<totfact> 0.56836327E-02</totfact>
</mgrwt>
</event>
<event>
12    1  0.3166324E-008  0.5076216E+03  0.7818608E-02  0.1011808E+00
          1   -1    0    0  501    0  0.00000000000E+00  0.00000000000E+00  0.12882912887E+04  0.12882912887E+04  0.00000000000E+00 0. -1.
         -1   -1    0    0    0  501 -0.00000000000E+00 -0.00000000000E+00 -0.30389484576E+03  0.30389484576E+03  0.00000000000E+00 0.  1.
         23    2    1    2    0    0  0.45427831043E+03 -0.25403228891E+02  0.56152745591E+03  0.72851428016E+03  0.91683506083E+02 0.  0.
    5000000    2    1    2    0    0 -0.45427831043E+03  0.25403228891E+02  0.42286898702E+03  0.86367185430E+03  0.60008064821E+03 0.  0.
         23    2    4    4    0    0 -0.44332171072E+03 -0.42926490508E+02  0.53624530989E+03  0.70313558003E+03  0.91998851854E+02 0.  0.
         23    2    4    4    0    0 -0.10956599710E+02  0.68329719399E+02 -0.11337632287E+03  0.16053627427E+03  0.90159343037E+02 0.  0.
          1    1    3    3  502    0  0.13264308069E+03  0.28778621538E+02  0.13354128167E+03  0.19040921675E+03  0.00000000000E+00 0.  1.
         -1    1    3    3    0  502  0.32163522973E+03 -0.54181850429E+02  0.42798617424E+03  0.53810506341E+03  0.00000000000E+00 0. -1.
         11    1    5    5    0    0 -0.44266209260E+03 -0.36267562889E+02  0.53643770868E+03  0.69644129662E+03  0.00000000000E+00 0. -1.
        -11    1    5    5    0    0 -0.65961811854E+00 -0.66589276193E+01 -0.19239878788E+00  0.66942834116E+01  0.00000000000E+00 0.  1.
          5    1    6    6  503    0  0.13087875599E+02 -0.12099105696E+02  0.11414490900E+01  0.18468182162E+02  0.47000000000E+01 0.  1.
         -5    1    6    6    0  503 -0.24044475308E+02  0.80428825095E+02 -0.11451777196E+03  0.14206809211E+03  0.47000000000E+01 0. -1.
<mgrwt>
<rscale>  0 0.50762165E+03</rscale>
<asrwt>0</asrwt>
<pdfrwt beam="1">  1        1 0.19819866E+00 0.50762165E+03</pdfrwt>
<pdfrwt beam="2">  1       -1 0.46753054E-01 0.50762165E+03</pdfrwt>
<totfact> 0.44583494E+01</totfact>
</mgrwt>
</event>
<event>
12    1  0.3166324E-008  0.1268549E+04  0.7818608E-02  0.9054885E-01
          2   -1    0    0  501    0  0.00000000000E+00  0.00000000000E+00  0.10409851365E+04  0.10409851365E+04  0.00000000000E+00 0.  1.
         -2   -1    0    0    0  501 -0.00000000000E+00 -0.00000000000E+00 -0.18040561341E+04  0.18040561341E+04  0.00000000000E+00 0. -1.
         23    2    1    2    0    0  0.10831147283E+04  0.54741239547E+03  0.12814726301E+03  0.12241973158E+04  0.97157098178E+02 0.  0.
    5000000    2    1    2    0    0 -0.10831147283E+04 -0.54741239547E+03 -0.89121826057E+03  0.16208439548E+04  0.60005607451E+03 0.  0.
         23    2    4    4    0    0 -0.10953806586E+04 -0.44535695890E+03 -0.68704152913E+03  0.13705047388E+04  0.89752817465E+02 0.  0.
         23    2    4    4    0    0  0.12265930316E+02 -0.10205543657E+03 -0.20417673144E+03  0.25033921602E+03  0.10205792589E+03 0.  0.
          1    1    3    3  502    0  0.58902111884E+03  0.31520376380E+03  0.24491911401E+02  0.66850515696E+03  0.00000000000E+00 0. -1.
         -1    1    3    3    0  502  0.49409360942E+03  0.23220863167E+03  0.10365535161E+03  0.55569215885E+03  0.00000000000E+00 0.  1.
         11    1    5    5    0    0 -0.33350452232E+02  0.11756750448E+01 -0.13648185216E+02  0.36054234642E+02  0.00000000000E+00 0.  1.
        -11    1    5    5    0    0 -0.10620302063E+04 -0.44653263394E+03 -0.67339334392E+03  0.13344505041E+04  0.00000000000E+00 0. -1.
          5    1    6    6  503    0  0.42716071505E+02 -0.97434689064E+02 -0.11924687012E+03  0.15987522457E+03  0.47000000000E+01 0. -1.
         -5    1    6    6    0  503 -0.30450141189E+02 -0.46207475048E+01 -0.84929861316E+02  0.90463991450E+02  0.47000000000E+01 0.  1.
<mgrwt>
<rscale>  0 0.12685487E+04</rscale>
<asrwt>0</asrwt>
<pdfrwt beam="1">  1        2 0.16015156E+00 0.12685487E+04</pdfrwt>
<pdfrwt beam="2">  1       -2 0.27754710E+00 0.12685487E+04</pdfrwt>
<totfact> 0.10011706E+00</totfact>
</mgrwt>
</event>
<event>
12    1  0.3166324E-008  0.1192517E+04  0.7818608E-02  0.9119432E-01
          2   -1    0    0  501    0  0.00000000000E+00  0.00000000000E+00  0.20077283750E+04  0.20077283750E+04  0.00000000000E+00 0.  1.
         -2   -1    0    0    0  501 -0.00000000000E+00 -0.00000000000E+00 -0.72155624409E+03  0.72155624409E+03  0.00000000000E+00 0. -1.
         23    2    1    2    0    0  0.11177179640E+04  0.11402821954E+03  0.70163959129E+03  0.13277519842E+04  0.91276138188E+02 0.  0.
    5000000    2    1    2    0    0 -0.11177179640E+04 -0.11402821954E+03  0.58453253962E+03  0.14015326349E+04  0.60026623673E+03 0.  0.
         23    2    4    4    0    0 -0.75798672660E+03 -0.33680355044E+03  0.45025095758E+03  0.94828773080E+03  0.92429358400E+02 0.  0.
         23    2    4    4    0    0 -0.35973123743E+03  0.22277533090E+03  0.13428158203E+03  0.45324490413E+03  0.91454844663E+02 0.  0.
          1    1    3    3  502    0  0.95532089306E+03  0.85793317430E+02  0.56173940269E+03  0.11115528141E+04  0.00000000000E+00 0. -1.
         -1    1    3    3    0  502  0.16239707097E+03  0.28234902112E+02  0.13990018860E+03  0.21619917004E+03  0.00000000000E+00 0.  1.
         11    1    5    5    0    0 -0.43018460503E+03 -0.14311394987E+03  0.26047149049E+03  0.52286307424E+03  0.00000000000E+00 0. -1.
        -11    1    5    5    0    0 -0.32780212157E+03 -0.19368960057E+03  0.18977946709E+03  0.42542465656E+03  0.00000000000E+00 0.  1.
          5    1    6    6  503    0 -0.33594764560E+03  0.18945854529E+03  0.14255811102E+03  0.41121802731E+03  0.47000000000E+01 0. -1.
         -5    1    6    6    0  503 -0.23783591830E+02  0.33316785608E+02 -0.82765289880E+01  0.42026876825E+02  0.47000000000E+01 0.  1.
<mgrwt>
<rscale>  0 0.11925171E+04</rscale>
<asrwt>0</asrwt>
<pdfrwt beam="1">  1        2 0.30888129E+00 0.11925171E+04</pdfrwt>
<pdfrwt beam="2">  1       -2 0.11100865E+00 0.11925171E+04</pdfrwt>
<totfact> 0.41587972E+00</totfact>
</mgrwt>
</event>
<event>
12    1  0.3166324E-008  0.8038346E+03  0.7818608E-02  0.9554483E-01
         -2   -1    0    0    0  501 -0.00000000000E+00  0.00000000000E+00  0.38848102472E+03  0.38848102472E+03  0.00000000000E+00 0.  1.
          2   -1    0    0  501    0  0.00000000000E+00 -0.00000000000E+00 -0.20473578619E+04  0.20473578619E+04  0.00000000000E+00 0. -1.
         23    2    1    2    0    0  0.68979339359E+03  0.18345180121E+03 -0.11933368934E+04  0.13935196602E+04  0.91512910972E+02 0.  0.
    5000000    2    1    2    0    0 -0.68979339359E+03 -0.18345180121E+03 -0.46553994376E+03  0.10423192264E+04  0.60019366989E+03 0.  0.
         23    2    4    4    0    0 -0.21825267413E+03  0.18485296048E+03 -0.41330089704E+02  0.30312550006E+03  0.91498883674E+02 0.  0.
         23    2    4    4    0    0 -0.47154071946E+03 -0.36830476168E+03 -0.42420985406E+03  0.73919372638E+03  0.91947361329E+02 0.  0.
          1    1    3    3  502    0  0.15702562740E+03  0.32545540191E+02 -0.20086335508E+03  0.25702596612E+03  0.00000000000E+00 0. -1.
         -1    1    3    3    0  502  0.53276776619E+03  0.15090626101E+03 -0.99247353834E+03  0.11364936940E+04  0.00000000000E+00 0.  1.
         13    1    5    5    0    0 -0.20373249579E+03  0.14599310660E+03 -0.94718114718E+01  0.25081991992E+03  0.00000000000E+00 0.  1.
        -13    1    5    5    0    0 -0.14520178334E+02  0.38859853873E+02 -0.31858278232E+02  0.52305580140E+02  0.00000000000E+00 0. -1.
          5    1    6    6  503    0 -0.15131723470E+03 -0.15498151666E+03 -0.19380757941E+03  0.29068822450E+03  0.47000000000E+01 0. -1.
         -5    1    6    6    0  503 -0.32022348476E+03 -0.21332324502E+03 -0.23040227464E+03  0.44850550188E+03  0.47000000000E+01 0.  1.
<mgrwt>
<rscale>  0 0.80383455E+03</rscale>
<asrwt>0</asrwt>
<pdfrwt beam="1">  1        2 0.31497814E+00 0.80383455E+03</pdfrwt>
<pdfrwt beam="2">  1       -2 0.59766311E-01 0.80383455E+03</pdfrwt>
<totfact> 0.16877124E+01</totfact>
</mgrwt>
</event>
<event>
12    1  0.3166324E-008  0.8618909E+03  0.7818608E-02  0.9474515E-01
          1   -1    0    0  501    0  0.00000000000E+00  0.00000000000E+00  0.34471634495E+04  0.34471634495E+04  0.00000000000E+00 0. -1.
         -1   -1    0    0    0  501 -0.00000000000E+00 -0.00000000000E+00 -0.28412667793E+03  0.28412667793E+03  0.00000000000E+00 0.  1.
         23    2    1    2    0    0  0.73971350232E+03  0.30394093394E+03  0.67687881858E+03  0.10516146181E+04  0.90400293255E+02 0.  0.
    5000000    2    1    2    0    0 -0.73971350232E+03 -0.30394093394E+03  0.24861579529E+04  0.26796755093E+04  0.60010275078E+03 0.  0.
         23    2    4    4    0    0  0.30573110818E+02 -0.10666506780E+03  0.13857707465E+03  0.19969407191E+03  0.91443780223E+02 0.  0.
         23    2    4    4    0    0 -0.77028661314E+03 -0.19727586614E+03  0.23475808783E+04  0.24799814374E+04  0.83142745506E+02 0.  0.
          1    1    3    3  502    0  0.39928102674E+03  0.17023123426E+03  0.30861119238E+03  0.53258321368E+03  0.00000000000E+00 0. -1.
         -1    1    3    3    0  502  0.34043247559E+03  0.13370969968E+03  0.36826762620E+03  0.51903140437E+03  0.00000000000E+00 0.  1.
         13    1    5    5    0    0 -0.68770725203E+01 -0.76962740475E+02  0.12985542656E+03  0.15110588789E+03  0.00000000000E+00 0. -1.
        -13    1    5    5    0    0  0.37450183338E+02 -0.29702327322E+02  0.87216480924E+01  0.48588184015E+02  0.00000000000E+00 0.  1.
          5    1    6    6  503    0 -0.40025453936E+03 -0.14209734211E+03  0.12011658268E+04  0.12740552517E+04  0.47000000000E+01 0. -1.
         -5    1    6    6    0  503 -0.37003207378E+03 -0.55178524033E+02  0.11464150515E+04  0.12059261858E+04  0.47000000000E+01 0.  1.
<mgrwt>
<rscale>  0 0.86189089E+03</rscale>
<asrwt>0</asrwt>
<pdfrwt beam="1">  1        1 0.53033281E+00 0.86189089E+03</pdfrwt>
<pdfrwt beam="2">  1       -1 0.43711799E-01 0.86189089E+03</pdfrwt>
<totfact> 0.15104533E+00</totfact>
</mgrwt>
</event>
<event>
12    1  0.3166324E-008  0.1433581E+04  0.7818608E-02  0.8929863E-01
         -3   -1    0    0    0  501 -0.00000000000E+00  0.00000000000E+00  0.24748893570E+04  0.24748893570E+04  0.00000000000E+00 0.  1.
          3   -1    0    0  501    0  0.00000000000E+00 -0.00000000000E+00 -0.86117412460E+03  0.86117412460E+03  0.00000000000E+00 0. -1.
         23    2    1    2    0    0  0.85331373147E+02  0.13732778984E+04  0.10481681409E+04  0.17320872013E+04  0.91082335864E+02 0.  0.
    5000000    2    1    2    0    0 -0.85331373147E+02 -0.13732778984E+04  0.56554709148E+03  0.16039762803E+04  0.59976892687E+03 0.  0.
         23    2    4    4    0    0 -0.27897155888E+03 -0.11388417428E+04  0.50429093020E+03  0.12795959511E+04  0.90943992895E+02 0.  0.
         23    2    4    4    0    0  0.19364018573E+03 -0.23443615555E+03  0.61256161284E+02  0.32438032922E+03  0.94939181225E+02 0.  0.
          3    1    3    3  502    0 -0.57525984711E+01  0.42636585605E+03  0.29067880310E+03  0.51605726637E+03  0.00000000000E+00 0. -1.
         -3    1    3    3    0  502  0.91083971618E+02  0.94691204232E+03  0.75748933780E+03  0.12160299349E+04  0.00000000000E+00 0.  1.
         11    1    5    5    0    0 -0.21453282278E+03 -0.99988390281E+03  0.44690683743E+03  0.11160277203E+04  0.00000000000E+00 0.  1.
        -11    1    5    5    0    0 -0.64438736100E+02 -0.13895784001E+03  0.57384092773E+02  0.16356823076E+03  0.00000000000E+00 0. -1.
          5    1    6    6  503    0  0.27691677569E+02 -0.87723930130E+02 -0.74698201644E+01  0.92413230315E+02  0.47000000000E+01 0. -1.
         -5    1    6    6    0  503  0.16594850816E+03 -0.14671222542E+03  0.68725981448E+02  0.23196709890E+03  0.47000000000E+01 0.  1.
<mgrwt>
<rscale>  0 0.14335811E+04</rscale>
<asrwt>0</asrwt>
<pdfrwt beam="1">  1        3 0.13248833E+00 0.14335811E+04</pdfrwt>
<pdfrwt beam="2">  1       -3 0.38075220E+00 0.14335811E+04</pdfrwt>
<totfact> 0.14689139E-02</totfact>
</mgrwt>
</event>
<event>
12    1  0.3166324E-008  0.2021382E+04  0.7818608E-02  0.8596689E-01
         -2   -1    0    0    0  501 -0.00000000000E+00  0.00000000000E+00  0.23639721335E+04  0.23639721335E+04  0.00000000000E+00 0.  1.
          2   -1    0    0  501    0  0.00000000000E+00 -0.00000000000E+00 -0.17620040230E+04  0.17620040230E+04  0.00000000000E+00 0. -1.
         23    2    1    2    0    0 -0.18578255789E+04  0.72895163380E+03  0.27464022812E+03  0.20164723537E+04  0.88584039557E+02 0.  0.
    5000000    2    1    2    0    0  0.18578255789E+04 -0.72895163380E+03  0.32732788236E+03  0.21095038029E+04  0.59998032099E+03 0.  0.
         23    2    4    4    0    0  0.15969222312E+04 -0.45813257519E+03  0.11340362000E+03  0.16674466014E+04  0.86439101427E+02 0.  0.
         23    2    4    4    0    0  0.26090334769E+03 -0.27081905861E+03  0.21392426236E+03  0.44205720151E+03  0.90760454159E+02 0.  0.
          1    1    3    3  502    0 -0.67223531785E+03  0.29284266474E+03  0.67571035959E+02  0.73635792503E+03  0.00000000000E+00 0. -1.
         -1    1    3    3    0  502 -0.11855902611E+04  0.43610896905E+03  0.20706919216E+03  0.12801144286E+04  0.00000000000E+00 0.  1.
         13    1    5    5    0    0  0.24677855510E+03 -0.88515541942E+02 -0.86242166262E+01  0.26231476043E+03  0.00000000000E+00 0.  1.
        -13    1    5    5    0    0  0.13501436761E+04 -0.36961703325E+03  0.12202783663E+03  0.14051318409E+04  0.00000000000E+00 0. -1.
          5    1    6    6  503    0  0.24117716918E+03 -0.20889586733E+03  0.19595668698E+03  0.37446631824E+03  0.47000000000E+01 0. -1.
         -5    1    6    6    0  503  0.19726178512E+02 -0.61923191280E+02  0.17967575380E+02  0.67590883276E+02  0.47000000000E+01 0.  1.
<mgrwt>
<rscale>  0 0.20213819E+04</rscale>
<asrwt>0</asrwt>
<pdfrwt beam="1">  1        2 0.27107754E+00 0.20213819E+04</pdfrwt>
<pdfrwt beam="2">  1       -2 0.36368802E+00 0.20213819E+04</pdfrwt>
<totfact> 0.10264778E-01</totfact>
</mgrwt>
</event>
<event>
12    1  0.3166324E-008  0.3393285E+03  0.7818608E-02  0.1067082E+00
         -1   -1    0    0    0  501 -0.00000000000E+00  0.00000000000E+00  0.16130737838E+03  0.16130737838E+03  0.00000000000E+00 0.  1.
          1   -1    0    0  501    0  0.00000000000E+00 -0.00000000000E+00 -0.19622537822E+04  0.19622537822E+04  0.00000000000E+00 0. -1.
         23    2    1    2    0    0 -0.65185883152E+02 -0.28873325831E+03 -0.15479884826E+03  0.34638734106E+03  0.91681038435E+02 0.  0.
    5000000    2    1    2    0    0  0.65185883152E+02  0.28873325831E+03 -0.16461475555E+04  0.17771738195E+04  0.60077359820E+03 0.  0.
         23    2    4    4    0    0  0.13259720011E+03  0.17838902234E+03 -0.15924945737E+04  0.16103216346E+04  0.87704838689E+02 0.  0.
         23    2    4    4    0    0 -0.67411316959E+02  0.11034423597E+03 -0.53652981801E+02  0.16685218489E+03  0.90779254692E+02 0.  0.
          3    1    3    3  502    0 -0.65416218265E+02 -0.10496883754E+03 -0.83723923538E+02  0.14935673349E+03  0.00000000000E+00 0. -1.
         -3    1    3    3    0  502  0.23033511264E+00 -0.18376442077E+03 -0.71074924719E+02  0.19703060757E+03  0.00000000000E+00 0.  1.
         11    1    5    5    0    0  0.81370962758E+02  0.49832390493E+02 -0.49267069004E+03  0.50182557682E+03  0.00000000000E+00 0. -1.
        -11    1    5    5    0    0  0.51226237353E+02  0.12855663185E+03 -0.10998238837E+04  0.11084960578E+04  0.00000000000E+00 0.  1.
          5    1    6    6  503    0 -0.43197410581E+02  0.10280626797E+03 -0.74072977719E+02  0.13395536959E+03  0.47000000000E+01 0. -1.
         -5    1    6    6    0  503 -0.24213906378E+02  0.75379679962E+01  0.20419995918E+02  0.32896815300E+02  0.47000000000E+01 0.  1.
<mgrwt>
<rscale>  0 0.33932846E+03</rscale>
<asrwt>0</asrwt>
<pdfrwt beam="1">  1        1 0.30188520E+00 0.33932846E+03</pdfrwt>
<pdfrwt beam="2">  1       -1 0.24816519E-01 0.33932846E+03</pdfrwt>
<totfact> 0.49769439E+01</totfact>
</mgrwt>
</event>
<event>
12    1  0.3166324E-008  0.1044364E+04  0.7818608E-02  0.9261182E-01
          2   -1    0    0  501    0  0.00000000000E+00  0.00000000000E+00  0.39682108296E+03  0.39682108296E+03  0.00000000000E+00 0.  1.
         -2   -1    0    0    0  501 -0.00000000000E+00 -0.00000000000E+00 -0.53693164724E+04  0.53693164724E+04  0.00000000000E+00 0. -1.
         23    2    1    2    0    0  0.94050751054E+03  0.39607354969E+03 -0.42664222832E+04  0.43877440509E+04  0.92250329915E+02 0.  0.
    5000000    2    1    2    0    0 -0.94050751054E+03 -0.39607354969E+03 -0.70607310622E+03  0.13783935045E+04  0.60000065637E+03 0.  0.
         23    2    4    4    0    0 -0.13762781097E+03 -0.10447748128E+01  0.78278840860E+02  0.18506096007E+03  0.95799144615E+02 0.  0.
         23    2    4    4    0    0 -0.80287969956E+03 -0.39502877488E+03 -0.78435194708E+03  0.11933325444E+04  0.90393803030E+02 0.  0.
          4    1    3    3  502    0  0.14231580652E+03  0.39164670162E+02 -0.73652886792E+03  0.75117403673E+03  0.00000000000E+00 0. -1.
         -4    1    3    3    0  502  0.79819170401E+03  0.35690887953E+03 -0.35298934153E+04  0.36365700142E+04  0.00000000000E+00 0.  1.
         13    1    5    5    0    0 -0.81342428287E+01  0.32660037367E+02  0.11957778712E+02  0.35718796437E+02  0.00000000000E+00 0.  1.
        -13    1    5    5    0    0 -0.12949356815E+03 -0.33704812179E+02  0.66321062148E+02  0.14934216364E+03  0.00000000000E+00 0. -1.
          5    1    6    6  503    0 -0.69587203118E+03 -0.37443763111E+03 -0.69330325252E+03  0.10512530206E+04  0.47000000000E+01 0. -1.
         -5    1    6    6    0  503 -0.10700766839E+03 -0.20591143764E+02 -0.91048694566E+02  0.14207952378E+03  0.47000000000E+01 0.  1.
<mgrwt>
<rscale>  0 0.10443639E+04</rscale>
<asrwt>0</asrwt>
<pdfrwt beam="1">  1        2 0.61049400E-01 0.10443639E+04</pdfrwt>
<pdfrwt beam="2">  1       -2 0.82604866E+00 0.10443639E+04</pdfrwt>
<totfact> 0.45229412E-03</totfact>
</mgrwt>
</event>
<event>
12    1  0.3166324E-008  0.5998750E+03  0.7818608E-02  0.9905665E-01
          1   -1    0    0  501    0  0.00000000000E+00  0.00000000000E+00  0.62631313235E+03  0.62631313235E+03  0.00000000000E+00 0. -1.
         -1   -1    0    0    0  501 -0.00000000000E+00 -0.00000000000E+00 -0.74514481048E+03  0.74514481048E+03  0.00000000000E+00 0.  1.
         23    2    1    2    0    0 -0.41686132769E+03  0.29908517025E+03  0.14163271531E+03  0.54014021018E+03  0.92012580790E+02 0.  0.
    5000000    2    1    2    0    0  0.41686132769E+03 -0.29908517025E+03 -0.26046439344E+03  0.83131773264E+03  0.60001847203E+03 0.  0.
         23    2    4    4    0    0 -0.69487234643E+02 -0.30882017817E+02 -0.24006464253E+03  0.26784551990E+03  0.91257959288E+02 0.  0.
         23    2    4    4    0    0  0.48634856233E+03 -0.26820315243E+03 -0.20399750910E+02  0.56347221275E+03  0.92827418621E+02 0.  0.
          4    1    3    3  502    0 -0.13194725349E+03  0.47767191497E+02  0.23505351809E+02  0.14228240879E+03  0.00000000000E+00 0. -1.
         -4    1    3    3    0  502 -0.28491407419E+03  0.25131797875E+03  0.11812736350E+03  0.39785780139E+03  0.00000000000E+00 0.  1.
         13    1    5    5    0    0 -0.89912892637E+02 -0.33864577064E+02 -0.17572812606E+03  0.20027858630E+03  0.00000000000E+00 0. -1.
        -13    1    5    5    0    0  0.20425657994E+02  0.29825592474E+01 -0.64336516473E+02  0.67566933599E+02  0.00000000000E+00 0.  1.
          5    1    6    6  503    0  0.36204087215E+03 -0.24245235918E+03 -0.23707516090E+02  0.43639532066E+03  0.47000000000E+01 0. -1.
         -5    1    6    6    0  503  0.12430769018E+03 -0.25750793250E+02  0.33077651798E+01  0.12707689208E+03  0.47000000000E+01 0.  1.
<mgrwt>
<rscale>  0 0.59987499E+03</rscale>
<asrwt>0</asrwt>
<pdfrwt beam="1">  1        1 0.96355867E-01 0.59987499E+03</pdfrwt>
<pdfrwt beam="2">  1       -1 0.11463766E+00 0.59987499E+03</pdfrwt>
<totfact> 0.23240544E+01</totfact>
</mgrwt>
</event>
<event>
12    1  0.3166324E-008  0.1107460E+04  0.7818608E-02  0.9197951E-01
          1   -1    0    0  501    0  0.00000000000E+00  0.00000000000E+00  0.76853453712E+03  0.76853453712E+03  0.00000000000E+00 0. -1.
         -1   -1    0    0    0  501 -0.00000000000E+00 -0.00000000000E+00 -0.17694460554E+04  0.17694460554E+04  0.00000000000E+00 0.  1.
         23    2    1    2    0    0 -0.80415127445E+03 -0.65645575946E+03 -0.11843407168E+03  0.10492090202E+04  0.96018239880E+02 0.  0.
    5000000    2    1    2    0    0  0.80415127445E+03  0.65645575946E+03 -0.88247744662E+03  0.14887715723E+04  0.60006742494E+03 0.  0.
         23    2    4    4    0    0 -0.72109906996E+02  0.37156915474E+02 -0.96425002611E+02  0.15577619377E+03  0.91585841501E+02 0.  0.
         23    2    4    4    0    0  0.87626118145E+03  0.61929884399E+03 -0.78605244401E+03  0.13329953786E+04  0.87370007809E+02 0.  0.
          2    1    3    3  502    0 -0.36013586475E+03 -0.32632266865E+03 -0.96508677203E+02  0.49547779963E+03  0.00000000000E+00 0. -1.
         -2    1    3    3    0  502 -0.44401540970E+03 -0.33013309082E+03 -0.21925394476E+02  0.55373122056E+03  0.00000000000E+00 0.  1.
         11    1    5    5    0    0  0.52005058288E+01 -0.92990645310E+01 -0.55881628579E+02  0.56888261308E+02  0.00000000000E+00 0. -1.
        -11    1    5    5    0    0 -0.77310412825E+02  0.46455980005E+02 -0.40543374032E+02  0.98887932466E+02  0.00000000000E+00 0.  1.
          5    1    6    6  503    0  0.63747763969E+03  0.41673257754E+03 -0.59131806296E+03  0.96422140812E+03  0.47000000000E+01 0. -1.
         -5    1    6    6    0  503  0.23878354175E+03  0.20256626645E+03 -0.19473438105E+03  0.36877397045E+03  0.47000000000E+01 0.  1.
<mgrwt>
<rscale>  0 0.11074601E+04</rscale>
<asrwt>0</asrwt>
<pdfrwt beam="1">  1        1 0.11823608E+00 0.11074601E+04</pdfrwt>
<pdfrwt beam="2">  1       -1 0.27222247E+00 0.11074601E+04</pdfrwt>
<totfact> 0.11737430E+00</totfact>
</mgrwt>
</event>
<event>
12    1  0.3166324E-008  0.6991837E+03  0.7818608E-02  0.9718629E-01
         -1   -1    0    0    0  501 -0.00000000000E+00  0.00000000000E+00  0.98490774242E+03  0.98490774242E+03  0.00000000000E+00 0.  1.
          1   -1    0    0  501    0  0.00000000000E+00 -0.00000000000E+00 -0.14328041827E+04  0.14328041827E+04  0.00000000000E+00 0. -1.
         23    2    1    2    0    0  0.62405362996E+03 -0.26856376187E+03  0.68340918012E+03  0.96806032693E+03  0.92321513424E+02 0.  0.
    5000000    2    1    2    0    0 -0.62405362996E+03  0.26856376187E+03 -0.11313056204E+04  0.14496515982E+04  0.60005659912E+03 0.  0.
         23    2    4    4    0    0 -0.20824405036E+03  0.18761361644E+03 -0.69633908479E+02  0.30291854709E+03  0.91358148950E+02 0.  0.
         23    2    4    4    0    0 -0.41580957960E+03  0.80950145431E+02 -0.10616717119E+04  0.11467330511E+04  0.91647880839E+02 0.  0.
          4    1    3    3  502    0  0.10664351410E+03 -0.10407298321E+02  0.97590124245E+02  0.14493096049E+03  0.00000000000E+00 0. -1.
         -4    1    3    3    0  502  0.51741011585E+03 -0.25815646355E+03  0.58581905588E+03  0.82312936644E+03  0.00000000000E+00 0.  1.
         11    1    5    5    0    0 -0.97424974015E+02  0.10200139269E+03 -0.80593035938E+02  0.16245352293E+03  0.00000000000E+00 0.  1.
        -11    1    5    5    0    0 -0.11081907634E+03  0.85612223758E+02  0.10959127459E+02  0.14046502416E+03  0.00000000000E+00 0. -1.
          5    1    6    6  503    0 -0.18297368423E+03 -0.64478158825E+01 -0.49829732609E+03  0.53088912085E+03  0.47000000000E+01 0. -1.
         -5    1    6    6    0  503 -0.23283589537E+03  0.87397961314E+02 -0.56337438583E+03  0.61584393025E+03  0.47000000000E+01 0.  1.
<mgrwt>
<rscale>  0 0.69918366E+03</rscale>
<asrwt>0</asrwt>
<pdfrwt beam="1">  1        1 0.22043141E+00 0.69918366E+03</pdfrwt>
<pdfrwt beam="2">  1       -1 0.15152427E+00 0.69918366E+03</pdfrwt>
<totfact> 0.26092780E+00</totfact>
</mgrwt>
</event>
<event>
12    1  0.3166324E-008  0.1132702E+04  0.7818608E-02  0.9173892E-01
         -2   -1    0    0    0  501 -0.00000000000E+00  0.00000000000E+00  0.11241151941E+04  0.11241151941E+04  0.00000000000E+00 0.  1.
          2   -1    0    0  501    0  0.00000000000E+00 -0.00000000000E+00 -0.12108731401E+04  0.12108731401E+04  0.00000000000E+00 0. -1.
         23    2    1    2    0    0 -0.71735637461E+03 -0.81712752431E+03 -0.17505852635E+02  0.10912644371E+04  0.90851844484E+02 0.  0.
    5000000    2    1    2    0    0  0.71735637461E+03  0.81712752431E+03 -0.69252093306E+02  0.12437238971E+04  0.59979639932E+03 0.  0.
         23    2    4    4    0    0  0.49110675947E+03  0.23288889869E+03  0.15409536372E+03  0.57222639561E+03  0.90964709571E+02 0.  0.
         23    2    4    4    0    0  0.22624961514E+03  0.58423862562E+03 -0.22334745703E+03  0.67149750150E+03  0.92201669943E+02 0.  0.
          2    1    3    3  502    0 -0.68697764353E+03 -0.77591450488E+03 -0.35653424764E+02  0.10369439562E+04  0.00000000000E+00 0. -1.
         -2    1    3    3    0  502 -0.30378731077E+02 -0.41213019427E+02  0.18147572129E+02  0.54320480910E+02  0.00000000000E+00 0.  1.
         13    1    5    5    0    0  0.18147255014E+03  0.10670628109E+03  0.10166439226E+03  0.23378230372E+03  0.00000000000E+00 0. -1.
        -13    1    5    5    0    0  0.30963420933E+03  0.12618261760E+03  0.52430971465E+02  0.33844409189E+03  0.00000000000E+00 0.  1.
          5    1    6    6  503    0 -0.74217733181E+01  0.35248479225E+02 -0.17459633540E+02  0.40304674793E+02  0.47000000000E+01 0.  1.
         -5    1    6    6    0  503  0.23367138846E+03  0.54899014640E+03 -0.20588782349E+03  0.63119282671E+03  0.47000000000E+01 0. -1.
<mgrwt>
<rscale>  0 0.11327022E+04</rscale>
<asrwt>0</asrwt>
<pdfrwt beam="1">  1        2 0.18628818E+00 0.11327022E+04</pdfrwt>
<pdfrwt beam="2">  1       -2 0.17294080E+00 0.11327022E+04</pdfrwt>
<totfact> 0.37065089E+00</totfact>
</mgrwt>
</event>
<event>
12    1  0.3166324E-008  0.5273434E+03  0.7818608E-02  0.1006878E+00
          1   -1    0    0  501    0  0.00000000000E+00  0.00000000000E+00  0.58545317666E+03  0.58545317666E+03  0.00000000000E+00 0. -1.
         -1   -1    0    0    0  501 -0.00000000000E+00 -0.00000000000E+00 -0.55813978807E+03  0.55813978807E+03  0.00000000000E+00 0.  1.
         23    2    1    2    0    0 -0.26816408580E+03 -0.30632100056E+03  0.32794671919E+02  0.41826538579E+03  0.90143830359E+02 0.  0.
    5000000    2    1    2    0    0  0.26816408580E+03  0.30632100056E+03 -0.54812833358E+01  0.72532757894E+03  0.60027120537E+03 0.  0.
         23    2    4    4    0    0  0.60381099716E+02 -0.13245139862E+03  0.12698745924E+03  0.21379595021E+03  0.91616828825E+02 0.  0.
         23    2    4    4    0    0  0.20778298608E+03  0.43877239918E+03 -0.13246874257E+03  0.51153162872E+03  0.91769558349E+02 0.  0.
          3    1    3    3  502    0 -0.20197039711E+03 -0.22277890464E+03 -0.15810536649E+02  0.30111867217E+03  0.00000000000E+00 0. -1.
         -3    1    3    3    0  502 -0.66193688689E+02 -0.83542095918E+02  0.48605208567E+02  0.11714671362E+03  0.00000000000E+00 0.  1.
         13    1    5    5    0    0  0.35731432461E+02 -0.18778651019E+02  0.77518882463E+02  0.87398799409E+02  0.00000000000E+00 0.  1.
        -13    1    5    5    0    0  0.24649667254E+02 -0.11367274760E+03  0.49468576775E+02  0.12639715080E+03  0.00000000000E+00 0. -1.
          5    1    6    6  503    0  0.96042166697E+02  0.28346381846E+03 -0.51522823445E+02  0.30373100845E+03  0.47000000000E+01 0. -1.
         -5    1    6    6    0  503  0.11174081938E+03  0.15530858072E+03 -0.80945919129E+02  0.20780062027E+03  0.47000000000E+01 0.  1.
<mgrwt>
<rscale>  0 0.52734335E+03</rscale>
<asrwt>0</asrwt>
<pdfrwt beam="1">  1        1 0.90069720E-01 0.52734335E+03</pdfrwt>
<pdfrwt beam="2">  1       -1 0.85867659E-01 0.52734335E+03</pdfrwt>
<totfact> 0.49693169E+01</totfact>
</mgrwt>
</event>
<event>
12    1  0.3166324E-008  0.7730618E+03  0.7818608E-02  0.9599849E-01
         -1   -1    0    0    0  501 -0.00000000000E+00  0.00000000000E+00  0.59921617871E+03  0.59921617871E+03  0.00000000000E+00 0. -1.
          1   -1    0    0  501    0  0.00000000000E+00 -0.00000000000E+00 -0.12115384366E+04  0.12115384366E+04  0.00000000000E+00 0.  1.
         23    2    1    2    0    0 -0.52211075836E+03 -0.52917149382E+03 -0.26540918875E+03  0.79447275639E+03  0.90126629316E+02 0.  0.
    5000000    2    1    2    0    0  0.52211075836E+03  0.52917149382E+03 -0.34691306919E+03  0.10162818590E+04  0.59988167618E+03 0.  0.
         23    2    4    4    0    0  0.51317641111E+03  0.42944501760E+03 -0.47899414090E+03  0.82770815065E+03  0.88838862910E+02 0.  0.
         23    2    4    4    0    0  0.89343472413E+01  0.99726476220E+02  0.13208107171E+03  0.18857370831E+03  0.89941321659E+02 0.  0.
          1    1    3    3  502    0 -0.21505945127E+03 -0.23381775052E+03 -0.67823324047E+02  0.32484043979E+03  0.00000000000E+00 0. -1.
         -1    1    3    3    0  502 -0.30705130709E+03 -0.29535374329E+03 -0.19758586470E+03  0.46963231660E+03  0.00000000000E+00 0.  1.
         13    1    5    5    0    0  0.76791695971E+02  0.96855183136E+02 -0.60316860046E+02  0.13753550333E+03  0.00000000000E+00 0.  1.
        -13    1    5    5    0    0  0.43638471514E+03  0.33258983446E+03 -0.41867728086E+03  0.69017264732E+03  0.00000000000E+00 0. -1.
          5    1    6    6  503    0  0.23940656502E+02  0.10910947673E+03  0.93045527465E+02  0.14545649909E+03  0.47000000000E+01 0. -1.
         -5    1    6    6    0  503 -0.15006309261E+02 -0.93830005126E+01  0.39035544248E+02  0.43117209221E+02  0.47000000000E+01 0.  1.
<mgrwt>
<rscale>  0 0.77306183E+03</rscale>
<asrwt>0</asrwt>
<pdfrwt beam="1">  1        1 0.18639053E+00 0.77306183E+03</pdfrwt>
<pdfrwt beam="2">  1       -1 0.92187104E-01 0.77306183E+03</pdfrwt>
<totfact> 0.12368413E+01</totfact>
</mgrwt>
</event>
<event>
12    1  0.3166324E-008  0.1229126E+04  0.7818608E-02  0.9087738E-01
         -1   -1    0    0    0  501 -0.00000000000E+00  0.00000000000E+00  0.11333913825E+04  0.11333913825E+04  0.00000000000E+00 0.  1.
          1   -1    0    0  501    0  0.00000000000E+00 -0.00000000000E+00 -0.16473624768E+04  0.16473624768E+04  0.00000000000E+00 0. -1.
         23    2    1    2    0    0  0.41166081687E+03  0.10908689395E+04  0.33758305479E+03  0.12173072751E+04  0.91733374230E+02 0.  0.
    5000000    2    1    2    0    0 -0.41166081687E+03 -0.10908689395E+04 -0.85155414908E+03  0.15634465841E+04  0.59980086809E+03 0.  0.
         23    2    4    4    0    0 -0.35280507352E+03 -0.11225559563E+04 -0.69220925477E+03  0.13684513026E+04  0.94350517862E+02 0.  0.
         23    2    4    4    0    0 -0.58855743347E+02  0.31687016798E+02 -0.15934489431E+03  0.19499528157E+03  0.90356510193E+02 0.  0.
          4    1    3    3  502    0  0.15434109627E+03  0.30138130822E+03  0.80242680918E+02  0.34798096900E+03  0.00000000000E+00 0. -1.
         -4    1    3    3    0  502  0.25731972060E+03  0.78948763127E+03  0.25734037388E+03  0.86932630615E+03  0.00000000000E+00 0.  1.
         11    1    5    5    0    0 -0.14163129009E+02 -0.12850716939E+03 -0.94271591852E+02  0.16000568690E+03  0.00000000000E+00 0.  1.
        -11    1    5    5    0    0 -0.33864194451E+03 -0.99404878690E+03 -0.59793766292E+03  0.12084456157E+04  0.00000000000E+00 0. -1.
          5    1    6    6  503    0  0.18332263917E+02  0.26208674791E+02 -0.29481234663E+02  0.43751568337E+02  0.47000000000E+01 0. -1.
         -5    1    6    6    0  503 -0.77188007264E+02  0.54783420066E+01 -0.12986365964E+03  0.15124371323E+03  0.47000000000E+01 0.  1.
<mgrwt>
<rscale>  0 0.12291262E+04</rscale>
<asrwt>0</asrwt>
<pdfrwt beam="1">  1        1 0.25344038E+00 0.12291262E+04</pdfrwt>
<pdfrwt beam="2">  1       -1 0.17436791E+00 0.12291262E+04</pdfrwt>
<totfact> 0.11563688E+00</totfact>
</mgrwt>
</event>
<event>
12    1  0.3166324E-008  0.2424813E+04  0.7818608E-02  0.8430272E-01
         -2   -1    0    0    0  501 -0.00000000000E+00  0.00000000000E+00  0.21308848284E+04  0.21308848284E+04  0.00000000000E+00 0. -1.
          2   -1    0    0  501    0  0.00000000000E+00 -0.00000000000E+00 -0.28548510296E+04  0.28548510296E+04  0.00000000000E+00 0.  1.
         23    2    1    2    0    0  0.22305524581E+04  0.90966043427E+03 -0.40547404617E+02  0.24109594921E+04  0.90748036953E+02 0.  0.
    5000000    2    1    2    0    0 -0.22305524581E+04 -0.90966043427E+03 -0.68341879656E+03  0.25747763660E+04  0.59963798181E+03 0.  0.
         23    2    4    4    0    0 -0.18479598721E+04 -0.60995584003E+03 -0.35237412730E+03  0.19797976283E+04  0.91811261465E+02 0.  0.
         23    2    4    4    0    0 -0.38259258601E+03 -0.29970459425E+03 -0.33104466926E+03  0.59497873768E+03  0.90604605652E+02 0.  0.
          2    1    3    3  502    0  0.11308944232E+04  0.41294605820E+03 -0.28152885917E+02  0.12042587879E+04  0.00000000000E+00 0. -1.
         -2    1    3    3    0  502  0.10996580350E+04  0.49671437607E+03 -0.12394518700E+02  0.12067007041E+04  0.00000000000E+00 0.  1.
         13    1    5    5    0    0 -0.89252627623E+03 -0.32799533416E+03 -0.20580253674E+03  0.97290224438E+03  0.00000000000E+00 0. -1.
        -13    1    5    5    0    0 -0.95543359588E+03 -0.28196050586E+03 -0.14657159056E+03  0.10068953839E+04  0.00000000000E+00 0.  1.
          5    1    6    6  503    0 -0.14460808969E+03 -0.16120475118E+03 -0.17484684554E+03  0.27837381487E+03  0.47000000000E+01 0. -1.
         -5    1    6    6    0  503 -0.23798449632E+03 -0.13849984307E+03 -0.15619782372E+03  0.31660492282E+03  0.47000000000E+01 0.  1.
<mgrwt>
<rscale>  0 0.24248134E+04</rscale>
<asrwt>0</asrwt>
<pdfrwt beam="1">  1        2 0.43920785E+00 0.24248134E+04</pdfrwt>
<pdfrwt beam="2">  1       -2 0.32782844E+00 0.24248134E+04</pdfrwt>
<totfact> 0.38877211E-02</totfact>
</mgrwt>
</event>
<event>
12    1  0.3166324E-008  0.1002019E+04  0.7818608E-02  0.9306333E-01
          2   -1    0    0  501    0  0.00000000000E+00  0.00000000000E+00  0.91516659934E+03  0.91516659934E+03  0.00000000000E+00 0. -1.
         -2   -1    0    0    0  501 -0.00000000000E+00 -0.00000000000E+00 -0.18040877296E+04  0.18040877296E+04  0.00000000000E+00 0.  1.
         23    2    1    2    0    0 -0.98815000682E+03  0.11561842829E+03 -0.11551007793E+04  0.15273579440E+04  0.93575754164E+02 0.  0.
    5000000    2    1    2    0    0  0.98815000682E+03 -0.11561842829E+03  0.26617964900E+03  0.11918963850E+04  0.59996444069E+03 0.  0.
         23    2    4    4    0    0  0.52634918843E+03 -0.37932524074E+02 -0.15169581725E+03  0.55654941416E+03  0.90847591526E+02 0.  0.
         23    2    4    4    0    0  0.46180081839E+03 -0.77685904221E+02  0.41787546625E+03  0.63534697084E+03  0.98745999847E+02 0.  0.
          3    1    3    3  502    0 -0.26851881609E+03  0.60269310054E+02 -0.36664236961E+03  0.45843360645E+03  0.00000000000E+00 0. -1.
         -3    1    3    3    0  502 -0.71963119073E+03  0.55349118240E+02 -0.78845840970E+03  0.10689243375E+04  0.00000000000E+00 0.  1.
         13    1    5    5    0    0  0.53268119802E+02  0.22156362146E+02 -0.26622195331E+02  0.63538478539E+02  0.00000000000E+00 0.  1.
        -13    1    5    5    0    0  0.47308106863E+03 -0.60088886219E+02 -0.12507362191E+03  0.49301093562E+03  0.00000000000E+00 0. -1.
          5    1    6    6  503    0  0.16688310460E+03 -0.58600525449E+02  0.20670319828E+03  0.27208876192E+03  0.47000000000E+01 0. -1.
         -5    1    6    6    0  503  0.29491771379E+03 -0.19085378771E+02  0.21117226796E+03  0.36325820892E+03  0.47000000000E+01 0.  1.
<mgrwt>
<rscale>  0 0.10020187E+04</rscale>
<asrwt>0</asrwt>
<pdfrwt beam="1">  1        2 0.14079486E+00 0.10020187E+04</pdfrwt>
<pdfrwt beam="2">  1       -2 0.27755195E+00 0.10020187E+04</pdfrwt>
<totfact> 0.12488089E+00</totfact>
</mgrwt>
</event>
<event>
12    1  0.3166324E-008  0.2712102E+03  0.7818608E-02  0.1100589E+00
          2   -1    0    0  501    0  0.00000000000E+00  0.00000000000E+00  0.93128488750E+03  0.93128488750E+03  0.00000000000E+00 0.  1.
         -2   -1    0    0    0  501 -0.00000000000E+00 -0.00000000000E+00 -0.21540373004E+03  0.21540373004E+03  0.00000000000E+00 0. -1.
         23    2    1    2    0    0  0.98963042174E+02 -0.10651478550E+03  0.43600252009E+03  0.46884612822E+03  0.92625110949E+02 0.  0.
    5000000    2    1    2    0    0 -0.98963042174E+02  0.10651478550E+03  0.27987863737E+03  0.67784248932E+03  0.59999942119E+03 0.  0.
         23    2    4    4    0    0 -0.20307036587E+03  0.95390164661E+02  0.41705262040E+03  0.48278976328E+03  0.93894676849E+02 0.  0.
         23    2    4    4    0    0  0.10410732369E+03  0.11124620837E+02 -0.13717398303E+03  0.19505272604E+03  0.90921792108E+02 0.  0.
          2    1    3    3  502    0  0.21939340502E+02 -0.83418748710E+02  0.16527864291E+03  0.18643243307E+03  0.00000000000E+00 0. -1.
         -2    1    3    3    0  502  0.77023701672E+02 -0.23096036788E+02  0.27072387718E+03  0.28241369516E+03  0.00000000000E+00 0.  1.
         11    1    5    5    0    0 -0.11665358648E+03  0.34093836141E+01  0.18834785625E+03  0.22157300848E+03  0.00000000000E+00 0. -1.
        -11    1    5    5    0    0 -0.86416779384E+02  0.91980781047E+02  0.22870476415E+03  0.26121675480E+03  0.00000000000E+00 0.  1.
          5    1    6    6  503    0  0.61908421346E+02  0.46506010754E+02 -0.10676333102E+03  0.13196954391E+03  0.47000000000E+01 0. -1.
         -5    1    6    6    0  503  0.42198902347E+02 -0.35381389916E+02 -0.30410652008E+02  0.63083182127E+02  0.47000000000E+01 0.  1.
<mgrwt>
<rscale>  0 0.27121019E+03</rscale>
<asrwt>0</asrwt>
<pdfrwt beam="1">  1        2 0.14327460E+00 0.27121019E+03</pdfrwt>
<pdfrwt beam="2">  1       -2 0.33139036E-01 0.27121019E+03</pdfrwt>
<totfact> 0.24895917E+02</totfact>
</mgrwt>
</event>
<event>
12    1  0.3166324E-008  0.6787440E+03  0.7818608E-02  0.9754290E-01
         -2   -1    0    0    0  501 -0.00000000000E+00  0.00000000000E+00  0.41929105513E+03  0.41929105513E+03  0.00000000000E+00 0.  1.
          2   -1    0    0  501    0  0.00000000000E+00 -0.00000000000E+00 -0.16230097290E+04  0.16230097290E+04  0.00000000000E+00 0. -1.
         23    2    1    2    0    0 -0.64838289058E+03 -0.90049398710E+02 -0.87264255412E+03  0.10945794619E+04  0.89943894651E+02 0.  0.
    5000000    2    1    2    0    0  0.64838289058E+03  0.90049398710E+02 -0.33107611980E+03  0.94772132225E+03  0.60004586536E+03 0.  0.
         23    2    4    4    0    0  0.13330633625E+03  0.87870318786E+02  0.14982048225E+03  0.23729704461E+03  0.91498296547E+02 0.  0.
         23    2    4    4    0    0  0.51507655433E+03  0.21790799237E+01 -0.48089660205E+03  0.71042427764E+03  0.90180414640E+02 0.  0.
          1    1    3    3  502    0 -0.15116839386E+03  0.17049114622E+02 -0.19818349174E+03  0.24983845182E+03  0.00000000000E+00 0. -1.
         -1    1    3    3    0  502 -0.49721449672E+03 -0.10709851333E+03 -0.67445906239E+03  0.84474101010E+03  0.00000000000E+00 0.  1.
         13    1    5    5    0    0  0.13041456921E+03  0.56126131663E+02  0.86093664789E+02  0.16604283073E+03  0.00000000000E+00 0.  1.
        -13    1    5    5    0    0  0.28917670386E+01  0.31744187124E+02  0.63726817462E+02  0.71254213886E+02  0.00000000000E+00 0. -1.
          5    1    6    6  503    0  0.12538565994E+03  0.39098060401E+02 -0.12405816582E+03  0.18072836123E+03  0.47000000000E+01 0. -1.
         -5    1    6    6    0  503  0.38969089439E+03 -0.36918980478E+02 -0.35683843622E+03  0.52969591640E+03  0.47000000000E+01 0.  1.
<mgrwt>
<rscale>  0 0.67874396E+03</rscale>
<asrwt>0</asrwt>
<pdfrwt beam="1">  1        2 0.24969381E+00 0.67874396E+03</pdfrwt>
<pdfrwt beam="2">  1       -2 0.64506315E-01 0.67874396E+03</pdfrwt>
<totfact> 0.24874688E+01</totfact>
</mgrwt>
</event>
<event>
12    1  0.3166324E-008  0.9671395E+03  0.7818608E-02  0.9345338E-01
          2   -1    0    0  501    0  0.00000000000E+00  0.00000000000E+00  0.36851538402E+04  0.36851538402E+04  0.00000000000E+00 0. -1.
         -2   -1    0    0    0  501 -0.00000000000E+00 -0.00000000000E+00 -0.41505696630E+03  0.41505696630E+03  0.00000000000E+00 0.  1.
         23    2    1    2    0    0 -0.91801544025E+03  0.65550636890E+02  0.36525423478E+03  0.99448960388E+03  0.92464488645E+02 0.  0.
    5000000    2    1    2    0    0  0.91801544025E+03 -0.65550636890E+02  0.29048426391E+04  0.31057212026E+04  0.60028676137E+03 0.  0.
         23    2    4    4    0    0  0.53235366478E+03  0.15962455382E+03  0.10073676082E+04  0.11542829023E+04  0.93268955477E+02 0.  0.
         23    2    4    4    0    0  0.38566177548E+03 -0.22517519071E+03  0.18974750310E+04  0.19514383003E+04  0.90890457095E+02 0.  0.
          2    1    3    3  502    0 -0.31029449272E+03  0.47112795223E+02  0.85969387715E+02  0.32541208231E+03  0.00000000000E+00 0.  1.
         -2    1    3    3    0  502 -0.60772094753E+03  0.18437841667E+02  0.27928484707E+03  0.66907752157E+03  0.00000000000E+00 0. -1.
         11    1    5    5    0    0  0.39022244940E+03  0.10182066635E+03  0.64406647923E+03  0.75990962474E+03  0.00000000000E+00 0. -1.
        -11    1    5    5    0    0  0.14213121538E+03  0.57803887468E+02  0.36330112894E+03  0.39437327760E+03  0.00000000000E+00 0.  1.
          5    1    6    6  503    0  0.94149622679E+02 -0.10289883788E+03  0.56966267129E+03  0.58650658253E+03  0.47000000000E+01 0. -1.
         -5    1    6    6    0  503  0.29151215280E+03 -0.12227635283E+03  0.13278123597E+04  0.13649317178E+04  0.47000000000E+01 0.  1.
<mgrwt>
<rscale>  0 0.96713952E+03</rscale>
<asrwt>0</asrwt>
<pdfrwt beam="1">  1        2 0.56694672E+00 0.96713952E+03</pdfrwt>
<pdfrwt beam="2">  1       -2 0.63854920E-01 0.96713952E+03</pdfrwt>
<totfact> 0.14237747E+00</totfact>
</mgrwt>
</event>
<event>
12    1  0.3166324E-008  0.1211150E+04  0.7818608E-02  0.9103153E-01
          2   -1    0    0  501    0  0.00000000000E+00  0.00000000000E+00  0.24613248728E+04  0.24613248728E+04  0.00000000000E+00 0. -1.
         -2   -1    0    0    0  501 -0.00000000000E+00 -0.00000000000E+00 -0.66226218133E+03  0.66226218133E+03  0.00000000000E+00 0.  1.
         23    2    1    2    0    0  0.55007868780E+03  0.10677469065E+04  0.75270365078E+03  0.14213936969E+04  0.10548571730E+03 0.  0.
    5000000    2    1    2    0    0 -0.55007868780E+03 -0.10677469065E+04  0.10463590407E+04  0.17021933573E+04  0.59993746718E+03 0.  0.
         23    2    4    4    0    0 -0.89197048148E+02 -0.22190480906E+03  0.56777175265E+03  0.62269688037E+03  0.90491900371E+02 0.  0.
         23    2    4    4    0    0 -0.46088163965E+03 -0.84584209740E+03  0.47858728808E+03  0.10794964769E+04  0.91684851055E+02 0.  0.
          3    1    3    3  502    0  0.39095190207E+03  0.70974550268E+03  0.55851383625E+03  0.98413402217E+03  0.00000000000E+00 0. -1.
         -3    1    3    3    0  502  0.15912678573E+03  0.35800140378E+03  0.19418981453E+03  0.43725967469E+03  0.00000000000E+00 0.  1.
         11    1    5    5    0    0 -0.43158357651E+02 -0.20843301639E+02  0.13571632730E+03  0.14393056852E+03  0.00000000000E+00 0. -1.
        -11    1    5    5    0    0 -0.46038690497E+02 -0.20106150742E+03  0.43205542535E+03  0.47876631185E+03  0.00000000000E+00 0.  1.
          5    1    6    6  503    0 -0.21840308890E+03 -0.47645656284E+03  0.22895424631E+03  0.57197281615E+03  0.47000000000E+01 0. -1.
         -5    1    6    6    0  503 -0.24247855075E+03 -0.36938553456E+03  0.24963304177E+03  0.50752366079E+03  0.47000000000E+01 0.  1.
<mgrwt>
<rscale>  0 0.12111500E+04</rscale>
<asrwt>0</asrwt>
<pdfrwt beam="1">  1        2 0.37866536E+00 0.12111500E+04</pdfrwt>
<pdfrwt beam="2">  1       -2 0.10188649E+00 0.12111500E+04</pdfrwt>
<totfact> 0.28418635E+00</totfact>
</mgrwt>
</event>
<event>
12    1  0.3166324E-008  0.9083979E+03  0.7818608E-02  0.9415144E-01
         -1   -1    0    0    0  501 -0.00000000000E+00  0.00000000000E+00  0.13728947810E+04  0.13728947810E+04  0.00000000000E+00 0.  1.
          1   -1    0    0  501    0  0.00000000000E+00 -0.00000000000E+00 -0.70629457539E+03  0.70629457539E+03  0.00000000000E+00 0. -1.
         23    2    1    2    0    0  0.14074498306E+03 -0.85705992096E+03  0.93887030815E+02  0.87832688131E+03  0.91008117753E+02 0.  0.
    5000000    2    1    2    0    0 -0.14074498306E+03  0.85705992096E+03  0.57271317475E+03  0.12008624750E+04  0.59975782201E+03 0.  0.
         23    2    4    4    0    0 -0.25684674280E+03  0.51940017364E+03  0.58884345305E+03  0.83117733186E+03  0.91500574519E+02 0.  0.
         23    2    4    4    0    0  0.11610175973E+03  0.33765974733E+03 -0.16130278300E+02  0.36968514319E+03  0.94409722148E+02 0.  0.
          3    1    3    3  502    0  0.13052268457E+03 -0.59096054337E+03  0.39179405246E+02  0.60646975259E+03  0.00000000000E+00 0. -1.
         -3    1    3    3    0  502  0.10222298493E+02 -0.26609937759E+03  0.54707625568E+02  0.27185712872E+03  0.00000000000E+00 0.  1.
         11    1    5    5    0    0 -0.13356520585E+03  0.31953687485E+03  0.29431850000E+03  0.45449626847E+03  0.00000000000E+00 0.  1.
        -11    1    5    5    0    0 -0.12328153694E+03  0.19986329878E+03  0.29452495305E+03  0.37668106339E+03  0.00000000000E+00 0. -1.
          5    1    6    6  503    0  0.10717024960E+03  0.20747866944E+03 -0.39940246465E+02  0.23696027929E+03  0.47000000000E+01 0. -1.
         -5    1    6    6    0  503  0.89315101340E+01  0.13018107788E+03  0.23809968165E+02  0.13272486390E+03  0.47000000000E+01 0.  1.
<mgrwt>
<rscale>  0 0.90839788E+03</rscale>
<asrwt>0</asrwt>
<pdfrwt beam="1">  1        1 0.10866070E+00 0.90839788E+03</pdfrwt>
<pdfrwt beam="2">  1       -1 0.21121458E+00 0.90839788E+03</pdfrwt>
<totfact> 0.34445920E+00</totfact>
</mgrwt>
</event>
<event>
12    1  0.3166324E-008  0.4508281E+03  0.7818608E-02  0.1027475E+00
          1   -1    0    0  501    0  0.00000000000E+00  0.00000000000E+00  0.15111470465E+04  0.15111470465E+04  0.00000000000E+00 0. -1.
         -1   -1    0    0    0  501 -0.00000000000E+00 -0.00000000000E+00 -0.33664682225E+03  0.33664682225E+03  0.00000000000E+00 0.  1.
         23    2    1    2    0    0 -0.67603772882E+02  0.40864720035E+03 -0.45465397650E+02  0.42655754107E+03  0.91221866878E+02 0.  0.
    5000000    2    1    2    0    0  0.67603772882E+02 -0.40864720035E+03  0.12199656219E+04  0.14212363277E+04  0.60002814605E+03 0.  0.
         23    2    4    4    0    0  0.65747243771E+02  0.48540628580E+01  0.85473300020E+03  0.86216225877E+03  0.91700582509E+02 0.  0.
         23    2    4    4    0    0  0.18565291115E+01 -0.41350126321E+03  0.36523262172E+03  0.55907406893E+03  0.90455542701E+02 0.  0.
          3    1    3    3  502    0 -0.66537225425E+02  0.20994725286E+03  0.93353666805E+01  0.22043638633E+03  0.00000000000E+00 0. -1.
         -3    1    3    3    0  502 -0.10665474571E+01  0.19869994750E+03 -0.54800764330E+02  0.20612115474E+03  0.00000000000E+00 0.  1.
         11    1    5    5    0    0  0.46517806428E+02  0.90772122497E+01  0.15344256006E+03  0.16059552091E+03  0.00000000000E+00 0.  1.
        -11    1    5    5    0    0  0.19229437343E+02 -0.42231493917E+01  0.70129044013E+03  0.70156673786E+03  0.00000000000E+00 0. -1.
          5    1    6    6  503    0 -0.16427595325E+02 -0.91769872822E+02  0.41127520493E+02  0.10200558018E+03  0.47000000000E+01 0. -1.
         -5    1    6    6    0  503  0.18284124437E+02 -0.32173139039E+03  0.32410510123E+03  0.45706848875E+03  0.47000000000E+01 0.  1.
<mgrwt>
<rscale>  0 0.45082806E+03</rscale>
<asrwt>0</asrwt>
<pdfrwt beam="1">  1        1 0.23248416E+00 0.45082806E+03</pdfrwt>
<pdfrwt beam="2">  1       -1 0.51791820E-01 0.45082806E+03</pdfrwt>
<totfact> 0.26164847E+01</totfact>
</mgrwt>
</event>
<event>
12    1  0.3166324E-008  0.5810642E+03  0.7818608E-02  0.9945490E-01
          1   -1    0    0  501    0  0.00000000000E+00  0.00000000000E+00  0.65426512581E+03  0.65426512581E+03  0.00000000000E+00 0. -1.
         -1   -1    0    0    0  501 -0.00000000000E+00 -0.00000000000E+00 -0.80415472684E+03  0.80415472684E+03  0.00000000000E+00 0.  1.
         23    2    1    2    0    0 -0.45119553754E+03 -0.24152017606E+03  0.24672498054E+03  0.57564082085E+03  0.92626832313E+02 0.  0.
    5000000    2    1    2    0    0  0.45119553754E+03  0.24152017606E+03 -0.39661458158E+03  0.88277903180E+03  0.60007189914E+03 0.  0.
         23    2    4    4    0    0 -0.61337573849E+02  0.84175277176E+01  0.82647509497E+02  0.13792488150E+03  0.91430352569E+02 0.  0.
         23    2    4    4    0    0  0.51253311138E+03  0.23310264835E+03 -0.47926209107E+03  0.74485415031E+03  0.89936190469E+02 0.  0.
          1    1    3    3  502    0 -0.17448996331E+03 -0.53123259419E+02  0.58230721065E+02  0.19146708559E+03  0.00000000000E+00 0. -1.
         -1    1    3    3    0  502 -0.27670557423E+03 -0.18839691664E+03  0.18849425948E+03  0.38417373526E+03  0.00000000000E+00 0.  1.
         13    1    5    5    0    0  0.55562279159E+01 -0.43520600826E+01  0.67872980398E+02  0.68238944627E+02  0.00000000000E+00 0.  1.
        -13    1    5    5    0    0 -0.66893801765E+02  0.12769587800E+02  0.14774529099E+02  0.69685936869E+02  0.00000000000E+00 0. -1.
          5    1    6    6  503    0  0.10786884768E+02 -0.68634542015E+01 -0.15878616500E+02  0.20920906972E+02  0.47000000000E+01 0. -1.
         -5    1    6    6    0  503  0.50174622662E+03  0.23996610255E+03 -0.46338347457E+03  0.72393324333E+03  0.47000000000E+01 0.  1.
<mgrwt>
<rscale>  0 0.58106422E+03</rscale>
<asrwt>0</asrwt>
<pdfrwt beam="1">  1        1 0.10065617E+00 0.58106422E+03</pdfrwt>
<pdfrwt beam="2">  1       -1 0.12371611E+00 0.58106422E+03</pdfrwt>
<totfact> 0.18185785E+01</totfact>
</mgrwt>
</event>
<event>
12    1  0.3166324E-008  0.4901390E+03  0.7818608E-02  0.1016385E+00
         -1   -1    0    0    0  501 -0.00000000000E+00  0.00000000000E+00  0.20361817977E+03  0.20361817977E+03  0.00000000000E+00 0.  1.
          1   -1    0    0  501    0  0.00000000000E+00 -0.00000000000E+00 -0.15527137859E+04  0.15527137859E+04  0.00000000000E+00 0. -1.
         23    2    1    2    0    0 -0.95020684609E+02 -0.32411858826E+03 -0.80853754220E+03  0.88092341432E+03  0.90616306404E+02 0.  0.
    5000000    2    1    2    0    0  0.95020684609E+02  0.32411858826E+03 -0.54055806397E+03  0.87540855140E+03  0.60004609954E+03 0.  0.
         23    2    4    4    0    0 -0.12863638902E+03  0.37328465348E+03 -0.46501297934E+03  0.61685074717E+03  0.91536988292E+02 0.  0.
         23    2    4    4    0    0  0.22365707363E+03 -0.49166065224E+02 -0.75545084633E+02  0.25855780423E+03  0.93302142312E+02 0.  0.
          1    1    3    3  502    0 -0.65483723693E+02 -0.25264839890E+03 -0.70450252564E+03  0.75129430996E+03  0.00000000000E+00 0. -1.
         -1    1    3    3    0  502 -0.29536960916E+02 -0.71470189362E+02 -0.10403501656E+03  0.12962910436E+03  0.00000000000E+00 0.  1.
         13    1    5    5    0    0 -0.62474770680E+01  0.30166186554E+02 -0.69345761732E+01  0.31577177322E+02  0.00000000000E+00 0. -1.
        -13    1    5    5    0    0 -0.12238891195E+03  0.34311846693E+03 -0.45807840317E+03  0.58527356985E+03  0.00000000000E+00 0.  1.
          5    1    6    6  503    0  0.18380362325E+03 -0.62137077738E+00 -0.62827836264E+02  0.19430281786E+03  0.47000000000E+01 0. -1.
         -5    1    6    6    0  503  0.39853450383E+02 -0.48544694447E+02 -0.12717248369E+02  0.64254986362E+02  0.47000000000E+01 0.  1.
<mgrwt>
<rscale>  0 0.49013895E+03</rscale>
<asrwt>0</asrwt>
<pdfrwt beam="1">  1        1 0.23887905E+00 0.49013895E+03</pdfrwt>
<pdfrwt beam="2">  1       -1 0.31325874E-01 0.49013895E+03</pdfrwt>
<totfact> 0.60429621E+01</totfact>
</mgrwt>
</event>
<event>
12    1  0.3166324E-008  0.6899721E+03  0.7818608E-02  0.9734537E-01
          1   -1    0    0  501    0  0.00000000000E+00  0.00000000000E+00  0.21172534187E+04  0.21172534187E+04  0.00000000000E+00 0. -1.
         -1   -1    0    0    0  501 -0.00000000000E+00 -0.00000000000E+00 -0.29802448242E+03  0.29802448242E+03  0.00000000000E+00 0.  1.
         23    2    1    2    0    0  0.58126157641E+03 -0.33167198160E+03  0.94375469089E+03  0.11605717509E+04  0.91556260582E+02 0.  0.
    5000000    2    1    2    0    0 -0.58126157641E+03  0.33167198160E+03  0.87547424537E+03  0.12547061502E+04  0.59996753699E+03 0.  0.
         23    2    4    4    0    0 -0.21014781297E+03  0.24139129034E+03  0.78370865939E+03  0.85098343532E+03  0.86842881258E+02 0.  0.
         23    2    4    4    0    0 -0.37111376345E+03  0.90280691253E+02  0.91765585979E+02  0.40372271488E+03  0.93247408056E+02 0.  0.
          4    1    3    3  502    0  0.20709128078E+03 -0.12243250679E+03  0.26638393037E+03  0.35893859594E+03  0.00000000000E+00 0.  1.
         -4    1    3    3    0  502  0.37417029564E+03 -0.20923947480E+03  0.67737076051E+03  0.80163315497E+03  0.00000000000E+00 0. -1.
         13    1    5    5    0    0 -0.13711310032E+03  0.16580408848E+03  0.41326661891E+03  0.46591876582E+03  0.00000000000E+00 0. -1.
        -13    1    5    5    0    0 -0.73034712644E+02  0.75587201858E+02  0.37044204049E+03  0.38506466950E+03  0.00000000000E+00 0.  1.
          5    1    6    6  503    0 -0.28470426089E+03  0.10328853504E+03  0.90775475092E+02  0.31620770788E+03  0.47000000000E+01 0. -1.
         -5    1    6    6    0  503 -0.86409502555E+02 -0.13007843791E+02  0.99011088701E+00  0.87515007007E+02  0.47000000000E+01 0.  1.
<mgrwt>
<rscale>  0 0.68997210E+03</rscale>
<asrwt>0</asrwt>
<pdfrwt beam="1">  1        1 0.32573129E+00 0.68997210E+03</pdfrwt>
<pdfrwt beam="2">  1       -1 0.45849922E-01 0.68997210E+03</pdfrwt>
<totfact> 0.12390735E+01</totfact>
</mgrwt>
</event>
<event>
12    1  0.3166324E-008  0.5260450E+03  0.7818608E-02  0.1007196E+00
         -1   -1    0    0    0  501 -0.00000000000E+00  0.00000000000E+00  0.21979249112E+03  0.21979249112E+03  0.00000000000E+00 0.  1.
          1   -1    0    0  501    0  0.00000000000E+00 -0.00000000000E+00 -0.15499819317E+04  0.15499819317E+04  0.00000000000E+00 0. -1.
         23    2    1    2    0    0 -0.95418857882E+02  0.40819291862E+03 -0.40763976609E+03  0.59190519867E+03  0.91953075337E+02 0.  0.
    5000000    2    1    2    0    0  0.95418857882E+02 -0.40819291862E+03 -0.92254967447E+03  0.11778692241E+04  0.60045964896E+03 0.  0.
         23    2    4    4    0    0  0.40662675434E+02 -0.49681633963E+03 -0.42427861443E+03  0.66061097575E+03  0.88963982140E+02 0.  0.
         23    2    4    4    0    0  0.54756182448E+02  0.88623421006E+02 -0.49827106004E+03  0.51725824838E+03  0.91813375798E+02 0.  0.
          3    1    3    3  502    0 -0.58459786719E+02  0.28734456464E+03 -0.33852813512E+03  0.44786799814E+03  0.00000000000E+00 0. -1.
         -3    1    3    3    0  502 -0.36959071163E+02  0.12084835398E+03 -0.69111630970E+02  0.14403720053E+03  0.00000000000E+00 0.  1.
         13    1    5    5    0    0 -0.89487710873E+01 -0.18700468699E+03 -0.20617163406E+03  0.27849160876E+03  0.00000000000E+00 0.  1.
        -13    1    5    5    0    0  0.49611446521E+02 -0.30981165264E+03 -0.21810698036E+03  0.38211936698E+03  0.00000000000E+00 0. -1.
          5    1    6    6  503    0  0.69632981051E+02  0.39997526315E+02 -0.21788478704E+03  0.23225939074E+03  0.47000000000E+01 0. -1.
         -5    1    6    6    0  503 -0.14876798603E+02  0.48625894691E+02 -0.28038627300E+03  0.28499885764E+03  0.47000000000E+01 0.  1.
<mgrwt>
<rscale>  0 0.52604495E+03</rscale>
<asrwt>0</asrwt>
<pdfrwt beam="1">  1        1 0.23845875E+00 0.52604495E+03</pdfrwt>
<pdfrwt beam="2">  1       -1 0.33814231E-01 0.52604495E+03</pdfrwt>
<totfact> 0.52786052E+01</totfact>
</mgrwt>
</event>
<event>
12    1  0.3166324E-008  0.6707819E+03  0.7818608E-02  0.9768546E-01
          2   -1    0    0  501    0  0.00000000000E+00  0.00000000000E+00  0.96814547593E+03  0.96814547593E+03  0.00000000000E+00 0. -1.
         -2   -1    0    0    0  501 -0.00000000000E+00 -0.00000000000E+00 -0.66806106369E+03  0.66806106369E+03  0.00000000000E+00 0.  1.
         23    2    1    2    0    0  0.63209986420E+03  0.16211599730E+03  0.35429439309E+03  0.74801136006E+03  0.90358413531E+02 0.  0.
    5000000    2    1    2    0    0 -0.63209986420E+03 -0.16211599730E+03 -0.54209980849E+02  0.88819517956E+03  0.60010009171E+03 0.  0.
         23    2    4    4    0    0 -0.24728278999E+03 -0.57537710420E+00  0.25005359050E+03  0.36372963627E+03  0.92861945349E+02 0.  0.
         23    2    4    4    0    0 -0.38481707421E+03 -0.16154062020E+03 -0.30426357135E+03  0.52446554329E+03  0.91149507237E+02 0.  0.
          2    1    3    3  502    0  0.41849002877E+03  0.75353291051E+02  0.26334871792E+03  0.50016454281E+03  0.00000000000E+00 0. -1.
         -2    1    3    3    0  502  0.21360983543E+03  0.86762706249E+02  0.90945675171E+02  0.24784681725E+03  0.00000000000E+00 0.  1.
         13    1    5    5    0    0 -0.54974671253E+02 -0.34072559591E+02  0.92536079407E+02  0.11289853758E+03  0.00000000000E+00 0. -1.
        -13    1    5    5    0    0 -0.19230811874E+03  0.33497182487E+02  0.15751751110E+03  0.25083109869E+03  0.00000000000E+00 0.  1.
          5    1    6    6  503    0 -0.98656384546E+01 -0.24219622215E+02 -0.29690706640E+02  0.39844058317E+02  0.47000000000E+01 0. -1.
         -5    1    6    6    0  503 -0.37495143576E+03 -0.13732099798E+03 -0.27457286471E+03  0.48462148497E+03  0.47000000000E+01 0.  1.
<mgrwt>
<rscale>  0 0.67078189E+03</rscale>
<asrwt>0</asrwt>
<pdfrwt beam="1">  1        2 0.14894546E+00 0.67078189E+03</pdfrwt>
<pdfrwt beam="2">  1       -2 0.10277862E+00 0.67078189E+03</pdfrwt>
<totfact> 0.20948362E+01</totfact>
</mgrwt>
</event>
<event>
12    1  0.3166324E-008  0.5879374E+03  0.7818608E-02  0.9930753E-01
         -1   -1    0    0    0  501 -0.00000000000E+00  0.00000000000E+00  0.41167206940E+03  0.41167206940E+03  0.00000000000E+00 0.  1.
          1   -1    0    0  501    0  0.00000000000E+00 -0.00000000000E+00 -0.95261706615E+03  0.95261706615E+03  0.00000000000E+00 0. -1.
         23    2    1    2    0    0  0.37556898095E+03 -0.26626226646E+03 -0.33976769199E+03  0.58167734390E+03  0.10468425809E+03 0.  0.
    5000000    2    1    2    0    0 -0.37556898095E+03  0.26626226646E+03 -0.20117730476E+03  0.78261179166E+03  0.60005104325E+03 0.  0.
         23    2    4    4    0    0 -0.49590838357E+03  0.21894485583E+03 -0.26643934950E+03  0.61110256012E+03  0.92706187692E+02 0.  0.
         23    2    4    4    0    0  0.12033940262E+03  0.47317410629E+02  0.65262044740E+02  0.17150923154E+03  0.91846463437E+02 0.  0.
          2    1    3    3  502    0  0.22831981878E+03 -0.99989147326E+02 -0.19625506034E+03  0.31724409835E+03  0.00000000000E+00 0. -1.
         -2    1    3    3    0  502  0.14724916217E+03 -0.16627311913E+03 -0.14351263166E+03  0.26443324554E+03  0.00000000000E+00 0.  1.
         11    1    5    5    0    0 -0.20202555724E+03  0.49962283187E+02 -0.71521353449E+02  0.22005876379E+03  0.00000000000E+00 0.  1.
        -11    1    5    5    0    0 -0.29388282633E+03  0.16898257264E+03 -0.19491799605E+03  0.39104379633E+03  0.00000000000E+00 0. -1.
          5    1    6    6  503    0  0.13162701518E+03  0.55250608362E+02  0.52617539878E+02  0.15221365363E+03  0.47000000000E+01 0. -1.
         -5    1    6    6    0  503 -0.11287612554E+02 -0.79331977339E+01  0.12644504862E+02  0.19295577904E+02  0.47000000000E+01 0.  1.
<mgrwt>
<rscale>  0 0.58793735E+03</rscale>
<asrwt>0</asrwt>
<pdfrwt beam="1">  1        1 0.14655647E+00 0.58793735E+03</pdfrwt>
<pdfrwt beam="2">  1       -1 0.63334166E-01 0.58793735E+03</pdfrwt>
<totfact> 0.43532167E+01</totfact>
</mgrwt>
</event>
<event>
12    1  0.3219734E-008  0.8360402E+03  0.7818608E-02  0.9509267E-01
          2   -1    0    0  501    0  0.00000000000E+00  0.00000000000E+00  0.11794935439E+04  0.11794935439E+04  0.00000000000E+00 0. -1.
         -2   -1    0    0    0  501 -0.00000000000E+00 -0.00000000000E+00 -0.82769428166E+03  0.82769428166E+03  0.00000000000E+00 0.  1.
         23    2    1    2    0    0 -0.73905982033E+03 -0.37500641711E+03  0.50159046835E+03  0.97328799799E+03  0.94113220027E+02 0.  0.
    5000000    2    1    2    0    0  0.73905982033E+03  0.37500641711E+03 -0.14979120614E+03  0.10338998276E+04  0.59972678535E+03 0.  0.
         23    2    4    4    0    0  0.58539294796E+03  0.26645396843E+03  0.15147507615E+03  0.66716576299E+03  0.92102311566E+02 0.  0.
         23    2    4    4    0    0  0.15366687237E+03  0.10855244868E+03 -0.30126628229E+03  0.36673406456E+03  0.91298189927E+02 0.  0.
          4    1    3    3  502    0 -0.48096360105E+03 -0.19948857336E+03  0.28743484136E+03  0.59476084645E+03  0.00000000000E+00 0.  1.
         -4    1    3    3    0  502 -0.25809621927E+03 -0.17551784376E+03  0.21415562699E+03  0.37852715154E+03  0.00000000000E+00 0. -1.
         13    1    5    5    0    0  0.22494545545E+03  0.54008237411E+02  0.52348227149E+02  0.23718702436E+03  0.00000000000E+00 0. -1.
        -13    1    5    5    0    0  0.36044749250E+03  0.21244573102E+03  0.99126849004E+02  0.42997873863E+03  0.00000000000E+00 0.  1.
          5    1    6    6  503    0  0.76796042669E+02  0.41510731546E+02 -0.21834985850E+03  0.23520102829E+03  0.47000000000E+01 0. -1.
         -5    1    6    6    0  503  0.76870829702E+02  0.67041717137E+02 -0.82916423797E+02  0.13153303627E+03  0.47000000000E+01 0.  1.
<mgrwt>
<rscale>  0 0.83604021E+03</rscale>
<asrwt>0</asrwt>
<pdfrwt beam="1">  1        2 0.18146054E+00 0.83604021E+03</pdfrwt>
<pdfrwt beam="2">  1       -2 0.12733758E+00 0.83604021E+03</pdfrwt>
<totfact> 0.89994783E+00</totfact>
</mgrwt>
</event>
<event>
12    1  0.3166324E-008  0.1500838E+04  0.7818608E-02  0.8883896E-01
          2   -1    0    0  501    0  0.00000000000E+00  0.00000000000E+00  0.28050022092E+04  0.28050022092E+04  0.00000000000E+00 0.  1.
         -2   -1    0    0    0  501 -0.00000000000E+00 -0.00000000000E+00 -0.82507966249E+03  0.82507966249E+03  0.00000000000E+00 0. -1.
         23    2    1    2    0    0  0.25105526754E+03  0.14367749266E+04  0.85772359062E+03  0.16944172942E+04  0.89494536002E+02 0.  0.
    5000000    2    1    2    0    0 -0.25105526754E+03 -0.14367749266E+04  0.11221989561E+04  0.19356645775E+04  0.60009659433E+03 0.  0.
         23    2    4    4    0    0  0.26345330309E+02 -0.95827467911E+01  0.16842048167E+03  0.19444143748E+03  0.93038209889E+02 0.  0.
         23    2    4    4    0    0 -0.27740059785E+03 -0.14271921798E+04  0.95377847447E+03  0.17412231400E+04  0.91301891161E+02 0.  0.
          1    1    3    3  502    0  0.20713722344E+03  0.10968094589E+04  0.69579338341E+03  0.13153042427E+04  0.00000000000E+00 0. -1.
         -1    1    3    3    0  502  0.43918044099E+02  0.33996546768E+03  0.16193020722E+03  0.37911305150E+03  0.00000000000E+00 0.  1.
         13    1    5    5    0    0 -0.27914014279E+02  0.94413562636E+01  0.10399661504E+03  0.10809082912E+03  0.00000000000E+00 0. -1.
        -13    1    5    5    0    0  0.54259344588E+02 -0.19024103055E+02  0.64423866630E+02  0.86350608357E+02  0.00000000000E+00 0.  1.
          5    1    6    6  503    0 -0.15796073416E+03 -0.62480859665E+03  0.45506288552E+03  0.78894974223E+03  0.47000000000E+01 0. -1.
         -5    1    6    6    0  503 -0.11943986370E+03 -0.80238358314E+03  0.49871558895E+03  0.95227339782E+03  0.47000000000E+01 0.  1.
<mgrwt>
<rscale>  0 0.15008376E+04</rscale>
<asrwt>0</asrwt>
<pdfrwt beam="1">  1        2 0.43153880E+00 0.15008376E+04</pdfrwt>
<pdfrwt beam="2">  1       -2 0.12693533E+00 0.15008376E+04</pdfrwt>
<totfact> 0.10062154E+00</totfact>
</mgrwt>
</event>
<event>
12    1  0.3166324E-008  0.5239687E+03  0.7818608E-02  0.1007705E+00
         -1   -1    0    0    0  501 -0.00000000000E+00  0.00000000000E+00  0.32520033877E+03  0.32520033877E+03  0.00000000000E+00 0.  1.
          1   -1    0    0  501    0  0.00000000000E+00 -0.00000000000E+00 -0.10705587042E+04  0.10705587042E+04  0.00000000000E+00 0. -1.
         23    2    1    2    0    0  0.90010819287E+02  0.41925545161E+03 -0.22324872824E+03  0.49210280927E+03  0.91913540573E+02 0.  0.
    5000000    2    1    2    0    0 -0.90010819287E+02 -0.41925545161E+03 -0.52210963717E+03  0.90365623368E+03  0.60009918692E+03 0.  0.
         23    2    4    4    0    0 -0.75898500173E+02  0.60436749089E+02 -0.36956075617E+03  0.39154081840E+03  0.85532900118E+02 0.  0.
         23    2    4    4    0    0 -0.14112319113E+02 -0.47969220070E+03 -0.15254888099E+03  0.51211541528E+03  0.93205539035E+02 0.  0.
          3    1    3    3  502    0  0.84422232132E+02  0.23243652202E+03 -0.92589269526E+02  0.26405799150E+03  0.00000000000E+00 0. -1.
         -3    1    3    3    0  502  0.55885871549E+01  0.18681892960E+03 -0.13065945871E+03  0.22804481777E+03  0.00000000000E+00 0.  1.
         13    1    5    5    0    0 -0.24070667789E+02 -0.18714350901E+02 -0.13936273363E+03  0.14265901830E+03  0.00000000000E+00 0.  1.
        -13    1    5    5    0    0 -0.51827832384E+02  0.79151099990E+02 -0.23019802254E+03  0.24888180010E+03  0.00000000000E+00 0. -1.
          5    1    6    6  503    0  0.35652686503E+02 -0.11367673389E+03 -0.30586184283E+02  0.12308987997E+03  0.47000000000E+01 0. -1.
         -5    1    6    6    0  503 -0.49765005616E+02 -0.36601546681E+03 -0.12196269671E+03  0.38902553530E+03  0.47000000000E+01 0.  1.
<mgrwt>
<rscale>  0 0.52396866E+03</rscale>
<asrwt>0</asrwt>
<pdfrwt beam="1">  1        1 0.16470134E+00 0.52396866E+03</pdfrwt>
<pdfrwt beam="2">  1       -1 0.50030822E-01 0.52396866E+03</pdfrwt>
<totfact> 0.56251742E+01</totfact>
</mgrwt>
</event>
<event>
12    1  0.3166324E-008  0.9294225E+03  0.7818608E-02  0.9389531E-01
         -2   -1    0    0    0  501 -0.00000000000E+00  0.00000000000E+00  0.89427598356E+03  0.89427598356E+03  0.00000000000E+00 0. -1.
          2   -1    0    0  501    0  0.00000000000E+00 -0.00000000000E+00 -0.22193552238E+04  0.22193552238E+04  0.00000000000E+00 0.  1.
         23    2    1    2    0    0  0.73639197966E+03 -0.41026361208E+03  0.52260051430E+03  0.99597040494E+03  0.90864574330E+02 0.  0.
    5000000    2    1    2    0    0 -0.73639197966E+03  0.41026361208E+03 -0.18476797545E+04  0.21176608024E+04  0.59998118273E+03 0.  0.
         23    2    4    4    0    0 -0.19452539501E+03 -0.12724465537E+03 -0.30795663936E+03  0.39687756653E+03  0.92968701518E+02 0.  0.
         23    2    4    4    0    0 -0.54186658465E+03  0.53750826745E+03 -0.15397231151E+04  0.17207832358E+04  0.88391969907E+02 0.  0.
          1    1    3    3  502    0  0.47660430810E+03 -0.23217595543E+03  0.28877145841E+03  0.60369387605E+03  0.00000000000E+00 0. -1.
         -1    1    3    3    0  502  0.25978767155E+03 -0.17808765665E+03  0.23382905589E+03  0.39227652889E+03  0.00000000000E+00 0.  1.
         13    1    5    5    0    0 -0.20459839517E+03 -0.12561117731E+03 -0.29710083524E+03  0.38197850394E+03  0.00000000000E+00 0. -1.
        -13    1    5    5    0    0  0.10073000162E+02 -0.16334780600E+01 -0.10855804122E+02  0.14899062588E+02  0.00000000000E+00 0.  1.
          5    1    6    6  503    0 -0.31157738788E+03  0.31937703140E+03 -0.80265863087E+03  0.91834912998E+03  0.47000000000E+01 0. -1.
         -5    1    6    6    0  503 -0.23028919676E+03  0.21813123605E+03 -0.73706448427E+03  0.80243410586E+03  0.47000000000E+01 0.  1.
<mgrwt>
<rscale>  0 0.92942251E+03</rscale>
<asrwt>0</asrwt>
<pdfrwt beam="1">  1        2 0.34143927E+00 0.92942251E+03</pdfrwt>
<pdfrwt beam="2">  1       -2 0.13758092E+00 0.92942251E+03</pdfrwt>
<totfact> 0.19144980E+00</totfact>
</mgrwt>
</event>
<event>
12    1  0.3166324E-008  0.6761548E+03  0.7818608E-02  0.9758903E-01
         -2   -1    0    0    0  501 -0.00000000000E+00  0.00000000000E+00  0.21010068226E+04  0.21010068226E+04  0.00000000000E+00 0.  1.
          2   -1    0    0  501    0  0.00000000000E+00 -0.00000000000E+00 -0.55996436572E+03  0.55996436572E+03  0.00000000000E+00 0. -1.
         23    2    1    2    0    0 -0.39839930242E+03 -0.48492455587E+03  0.16671400371E+04  0.17835909400E+04  0.89257541319E+02 0.  0.
    5000000    2    1    2    0    0  0.39839930242E+03  0.48492455587E+03 -0.12609758025E+03  0.87738024835E+03  0.60001805923E+03 0.  0.
         23    2    4    4    0    0  0.21895803485E+02  0.27073568231E+03  0.17890881010E+03  0.33756096286E+03  0.90342711007E+02 0.  0.
         23    2    4    4    0    0  0.37650349893E+03  0.21418887356E+03 -0.30500639035E+03  0.53981928549E+03  0.10365425493E+03 0.  0.
          4    1    3    3  502    0 -0.13380591503E+03 -0.22998240824E+03  0.66896850665E+03  0.71994082665E+03  0.00000000000E+00 0.  1.
         -4    1    3    3    0  502 -0.26459338739E+03 -0.25494214762E+03  0.99817153048E+03  0.10636501133E+04  0.00000000000E+00 0. -1.
         13    1    5    5    0    0  0.22469298541E+02  0.77164966068E+02  0.10056917671E+03  0.12873795349E+03  0.00000000000E+00 0.  1.
        -13    1    5    5    0    0 -0.57349505604E+00  0.19357071624E+03  0.78339633385E+02  0.20882300937E+03  0.00000000000E+00 0. -1.
          5    1    6    6  503    0  0.61292148751E+02  0.83294387339E+02 -0.82315098931E+02  0.13225939654E+03  0.47000000000E+01 0. -1.
         -5    1    6    6    0  503  0.31521135018E+03  0.13089448622E+03 -0.22269129142E+03  0.40755988895E+03  0.47000000000E+01 0.  1.
<mgrwt>
<rscale>  0 0.67615484E+03</rscale>
<asrwt>0</asrwt>
<pdfrwt beam="1">  1        2 0.86148365E-01 0.67615484E+03</pdfrwt>
<pdfrwt beam="2">  1       -2 0.32323181E+00 0.67615484E+03</pdfrwt>
<totfact> 0.13087915E+00</totfact>
</mgrwt>
</event>
<event>
12    1  0.3166324E-008  0.8630181E+03  0.7818608E-02  0.9473029E-01
         -2   -1    0    0    0  501 -0.00000000000E+00  0.00000000000E+00  0.47539460734E+03  0.47539460734E+03  0.00000000000E+00 0. -1.
          2   -1    0    0  501    0  0.00000000000E+00 -0.00000000000E+00 -0.19203729283E+04  0.19203729283E+04  0.00000000000E+00 0.  1.
         23    2    1    2    0    0 -0.58248509324E+03  0.62719537820E+03 -0.56927902351E+03  0.10320335269E+04  0.91387460086E+02 0.  0.
    5000000    2    1    2    0    0  0.58248509324E+03 -0.62719537820E+03 -0.87569929740E+03  0.13637340086E+04  0.60021517858E+03 0.  0.
         23    2    4    4    0    0  0.14190882270E+03 -0.18672461662E+03  0.36822344551E+02  0.25445659636E+03  0.91586450738E+02 0.  0.
         23    2    4    4    0    0  0.44057627054E+03 -0.44047076158E+03 -0.91252164195E+03  0.11092774123E+04  0.98380325384E+02 0.  0.
          1    1    3    3  502    0 -0.23651597947E+03  0.20589582171E+03 -0.17362863734E+03  0.35844079239E+03  0.00000000000E+00 0. -1.
         -1    1    3    3    0  502 -0.34596911376E+03  0.42129955649E+03 -0.39565038617E+03  0.67359273456E+03  0.00000000000E+00 0.  1.
         11    1    5    5    0    0  0.13694209266E+03 -0.13633257021E+03  0.54582972074E+02  0.20079593443E+03  0.00000000000E+00 0. -1.
        -11    1    5    5    0    0  0.49667300428E+01 -0.50392046413E+02 -0.17760627523E+02  0.53660661932E+02  0.00000000000E+00 0.  1.
          5    1    6    6  503    0  0.18530754556E+03 -0.17042423891E+03 -0.28808520682E+03  0.38262054837E+03  0.47000000000E+01 0. -1.
         -5    1    6    6    0  503  0.25526872498E+03 -0.27004652266E+03 -0.62443643513E+03  0.72665686392E+03  0.47000000000E+01 0.  1.
<mgrwt>
<rscale>  0 0.86301812E+03</rscale>
<asrwt>0</asrwt>
<pdfrwt beam="1">  1        2 0.29544199E+00 0.86301812E+03</pdfrwt>
<pdfrwt beam="2">  1       -2 0.73137632E-01 0.86301812E+03</pdfrwt>
<totfact> 0.12709639E+01</totfact>
</mgrwt>
</event>
<event>
12    1  0.3166324E-008  0.9665222E+03  0.7818608E-02  0.9346044E-01
          1   -1    0    0  501    0  0.00000000000E+00  0.00000000000E+00  0.10425942610E+04  0.10425942610E+04  0.00000000000E+00 0. -1.
         -1   -1    0    0    0  501 -0.00000000000E+00 -0.00000000000E+00 -0.14578653324E+04  0.14578653324E+04  0.00000000000E+00 0.  1.
         23    2    1    2    0    0 -0.68997058966E+03 -0.56644691335E+03 -0.94323150101E+03  0.13022586313E+04  0.96282698061E+02 0.  0.
    5000000    2    1    2    0    0  0.68997058966E+03  0.56644691335E+03  0.52796042961E+03  0.11982009622E+04  0.60001817496E+03 0.  0.
         23    2    4    4    0    0  0.37458145444E+03  0.59777959634E+03  0.49568403930E+03  0.86698821615E+03  0.91182171066E+02 0.  0.
         23    2    4    4    0    0  0.31538913522E+03 -0.31332682993E+02  0.32276390311E+02  0.33121274602E+03  0.90598422254E+02 0.  0.
          1    1    3    3  502    0 -0.63897202692E+03 -0.55287268478E+03 -0.89324670290E+03  0.12295703026E+04  0.00000000000E+00 0. -1.
         -1    1    3    3    0  502 -0.50998562734E+02 -0.13574228569E+02 -0.49984798109E+02  0.72688328665E+02  0.00000000000E+00 0.  1.
         13    1    5    5    0    0  0.14693551793E+03  0.28756779205E+03  0.26981100836E+03  0.42081262064E+03  0.00000000000E+00 0. -1.
        -13    1    5    5    0    0  0.22764593650E+03  0.31021180429E+03  0.22587303094E+03  0.44617559552E+03  0.00000000000E+00 0.  1.
          5    1    6    6  503    0  0.53271567786E+02 -0.37590217672E+02 -0.81734527323E+01  0.65877004551E+02  0.47000000000E+01 0. -1.
         -5    1    6    6    0  503  0.26211756743E+03  0.62575346792E+01  0.40449843043E+02  0.26533574147E+03  0.47000000000E+01 0.  1.
<mgrwt>
<rscale>  0 0.96652221E+03</rscale>
<asrwt>0</asrwt>
<pdfrwt beam="1">  1        1 0.16039912E+00 0.96652221E+03</pdfrwt>
<pdfrwt beam="2">  1       -1 0.22428697E+00 0.96652221E+03</pdfrwt>
<totfact> 0.14602111E+00</totfact>
</mgrwt>
</event>
<event>
12    1  0.3166324E-008  0.1414940E+04  0.7818608E-02  0.8943075E-01
         -1   -1    0    0    0  501 -0.00000000000E+00  0.00000000000E+00  0.10507761550E+04  0.10507761550E+04  0.00000000000E+00 0.  1.
          1   -1    0    0  501    0  0.00000000000E+00 -0.00000000000E+00 -0.21932499078E+04  0.21932499078E+04  0.00000000000E+00 0. -1.
         23    2    1    2    0    0 -0.13563271550E+04 -0.47538772500E+02  0.17641739537E+02  0.13604209525E+04  0.92469728982E+02 0.  0.
    5000000    2    1    2    0    0  0.13563271550E+04  0.47538772500E+02 -0.11601154923E+04  0.18836051102E+04  0.60018078058E+03 0.  0.
         23    2    4    4    0    0  0.40934037270E+03 -0.24862270095E+03 -0.36908544626E+03  0.61135926828E+03  0.90350982920E+02 0.  0.
         23    2    4    4    0    0  0.94698678230E+03  0.29616147345E+03 -0.79103004606E+03  0.12722458419E+04  0.91571634974E+02 0.  0.
          1    1    3    3  502    0 -0.96784857074E+03 -0.49595184295E+02  0.51345358557E+02  0.97047765767E+03  0.00000000000E+00 0. -1.
         -1    1    3    3    0  502 -0.38847858426E+03  0.20564117946E+01 -0.33703619020E+02  0.38994329484E+03  0.00000000000E+00 0.  1.
         13    1    5    5    0    0  0.37194636401E+03 -0.21478916602E+03 -0.35932792609E+03  0.55999557320E+03  0.00000000000E+00 0. -1.
        -13    1    5    5    0    0  0.37394008695E+02 -0.33833534927E+02 -0.97575201758E+01  0.51363695076E+02  0.00000000000E+00 0.  1.
          5    1    6    6  503    0  0.16861044282E+03  0.56593586354E+02 -0.18822717405E+03  0.25900554916E+03  0.47000000000E+01 0. -1.
         -5    1    6    6    0  503  0.77837633948E+03  0.23956788709E+03 -0.60280287201E+03  0.10132402928E+04  0.47000000000E+01 0.  1.
<mgrwt>
<rscale>  0 0.14149401E+04</rscale>
<asrwt>0</asrwt>
<pdfrwt beam="1">  1        1 0.33742306E+00 0.14149401E+04</pdfrwt>
<pdfrwt beam="2">  1       -1 0.16165787E+00 0.14149401E+04</pdfrwt>
<totfact> 0.59855892E-01</totfact>
</mgrwt>
</event>
<event>
12    1  0.3166324E-008  0.1335819E+04  0.7818608E-02  0.9001633E-01
         -2   -1    0    0    0  501 -0.00000000000E+00  0.00000000000E+00  0.73362993395E+03  0.73362993395E+03  0.00000000000E+00 0. -1.
          2   -1    0    0  501    0  0.00000000000E+00 -0.00000000000E+00 -0.25385131474E+04  0.25385131474E+04  0.00000000000E+00 0.  1.
         23    2    1    2    0    0  0.11617254673E+04 -0.55816162574E+03 -0.68511501966E+03  0.14624455719E+04  0.90631112598E+02 0.  0.
    5000000    2    1    2    0    0 -0.11617254673E+04  0.55816162574E+03 -0.11197681938E+04  0.18096975096E+04  0.59997817149E+03 0.  0.
         23    2    4    4    0    0 -0.66348717156E+03  0.51151935919E+02 -0.73648326182E+03  0.99702702990E+03  0.93933785403E+02 0.  0.
         23    2    4    4    0    0 -0.49823829576E+03  0.50700968982E+03 -0.38328493201E+03  0.81267047965E+03  0.90695889886E+02 0.  0.
          1    1    3    3  502    0  0.35326076725E+03 -0.16937112519E+03 -0.25611568156E+03  0.46805447340E+03  0.00000000000E+00 0. -1.
         -1    1    3    3    0  502  0.80846470008E+03 -0.38879050055E+03 -0.42899933810E+03  0.99439109845E+03  0.00000000000E+00 0.  1.
         13    1    5    5    0    0 -0.36066983261E+03  0.73436829723E+02 -0.41946361065E+03  0.55805503024E+03  0.00000000000E+00 0. -1.
        -13    1    5    5    0    0 -0.30281733895E+03 -0.22284893803E+02 -0.31701965117E+03  0.43897199967E+03  0.00000000000E+00 0.  1.
          5    1    6    6  503    0 -0.23297451778E+03  0.22611020475E+03 -0.22547890155E+03  0.39530466184E+03  0.47000000000E+01 0. -1.
         -5    1    6    6    0  503 -0.26526377798E+03  0.28089948507E+03 -0.15780603046E+03  0.41736581781E+03  0.47000000000E+01 0.  1.
<mgrwt>
<rscale>  0 0.13358188E+04</rscale>
<asrwt>0</asrwt>
<pdfrwt beam="1">  1        2 0.39054049E+00 0.13358188E+04</pdfrwt>
<pdfrwt beam="2">  1       -2 0.11286614E+00 0.13358188E+04</pdfrwt>
<totfact> 0.19734923E+00</totfact>
</mgrwt>
</event>
<event>
12    1  0.3166324E-008  0.6891890E+03  0.7818608E-02  0.9735901E-01
         -1   -1    0    0    0  501 -0.00000000000E+00  0.00000000000E+00  0.19286106978E+04  0.19286106978E+04  0.00000000000E+00 0.  1.
          1   -1    0    0  501    0  0.00000000000E+00 -0.00000000000E+00 -0.46623510396E+03  0.46623510396E+03  0.00000000000E+00 0. -1.
         23    2    1    2    0    0 -0.97055161502E+02 -0.55265887867E+03 -0.14779008880E+03  0.58723162319E+03  0.90263660314E+02 0.  0.
    5000000    2    1    2    0    0  0.97055161502E+02  0.55265887867E+03  0.16101656826E+04  0.18076141785E+04  0.59998662686E+03 0.  0.
         23    2    4    4    0    0 -0.12996577544E+03  0.55501081755E+03  0.10958009234E+04  0.12382383811E+04  0.86755485700E+02 0.  0.
         23    2    4    4    0    0  0.22702093694E+03 -0.23519388763E+01  0.51436475927E+03  0.56937579749E+03  0.89853523931E+02 0.  0.
          3    1    3    3  502    0 -0.73091664658E+02 -0.49665234121E+03 -0.15618682969E+03  0.52573782938E+03  0.00000000000E+00 0. -1.
         -3    1    3    3    0  502 -0.23963496843E+02 -0.56006537459E+02  0.83967408843E+01  0.61493793806E+02  0.00000000000E+00 0.  1.
         11    1    5    5    0    0 -0.10229814553E+03  0.32734596936E+03  0.72897394177E+03  0.80561982474E+03  0.00000000000E+00 0.  1.
        -11    1    5    5    0    0 -0.27667629912E+02  0.22766484819E+03  0.36682698159E+03  0.43261855631E+03  0.00000000000E+00 0. -1.
          5    1    6    6  503    0  0.14525919964E+03  0.40304545369E+02  0.29344716243E+03  0.32993638568E+03  0.47000000000E+01 0. -1.
         -5    1    6    6    0  503  0.81761737305E+02 -0.42656484245E+02  0.22091759683E+03  0.23943941181E+03  0.47000000000E+01 0.  1.
<mgrwt>
<rscale>  0 0.68918900E+03</rscale>
<asrwt>0</asrwt>
<pdfrwt beam="1">  1        1 0.71728478E-01 0.68918900E+03</pdfrwt>
<pdfrwt beam="2">  1       -1 0.29670933E+00 0.68918900E+03</pdfrwt>
<totfact> 0.17998862E+00</totfact>
</mgrwt>
</event>
<event>
12    1  0.3166324E-008  0.9258740E+03  0.7818608E-02  0.9393803E-01
         -1   -1    0    0    0  501 -0.00000000000E+00  0.00000000000E+00  0.69503730881E+03  0.69503730881E+03  0.00000000000E+00 0.  1.
          1   -1    0    0  501    0  0.00000000000E+00 -0.00000000000E+00 -0.13763776796E+04  0.13763776796E+04  0.00000000000E+00 0. -1.
         23    2    1    2    0    0 -0.44678113864E+03  0.76172156306E+03 -0.35066067836E+03  0.95409642833E+03  0.86625387321E+02 0.  0.
    5000000    2    1    2    0    0  0.44678113864E+03 -0.76172156306E+03 -0.33067969246E+03  0.11173185601E+04  0.59934846317E+03 0.  0.
         23    2    4    4    0    0  0.42844394477E+03 -0.77845633831E+03 -0.13945045372E+03  0.90406542869E+03  0.91265469047E+02 0.  0.
         23    2    4    4    0    0  0.18337193872E+02  0.16734775255E+02 -0.19122923874E+03  0.21325313143E+03  0.91060259890E+02 0.  0.
          1    1    3    3  502    0 -0.12035183936E+03  0.26732804821E+03 -0.88416182382E+02  0.30621278861E+03  0.00000000000E+00 0. -1.
         -1    1    3    3    0  502 -0.32642929928E+03  0.49439351485E+03 -0.26224449598E+03  0.64788363972E+03  0.00000000000E+00 0.  1.
         11    1    5    5    0    0  0.29703898535E+03 -0.61171135379E+03 -0.88635591705E+02  0.68576906266E+03  0.00000000000E+00 0. -1.
        -11    1    5    5    0    0  0.13140495942E+03 -0.16674498452E+03 -0.50814862018E+02  0.21829636604E+03  0.00000000000E+00 0.  1.
          5    1    6    6  503    0  0.79941938144E+01 -0.27047114971E+02 -0.14782420274E+03  0.15056406769E+03  0.47000000000E+01 0. -1.
         -5    1    6    6    0  503  0.10343000057E+02  0.43781890226E+02 -0.43405035999E+02  0.62689063736E+02  0.47000000000E+01 0.  1.
<mgrwt>
<rscale>  0 0.92587400E+03</rscale>
<asrwt>0</asrwt>
<pdfrwt beam="1">  1        1 0.21175041E+00 0.92587400E+03</pdfrwt>
<pdfrwt beam="2">  1       -1 0.10692882E+00 0.92587400E+03</pdfrwt>
<totfact> 0.66013333E+00</totfact>
</mgrwt>
</event>
<event>
12    1  0.3166324E-008  0.7982962E+03  0.7818608E-02  0.9562487E-01
         -2   -1    0    0    0  501 -0.00000000000E+00  0.00000000000E+00  0.57597631810E+03  0.57597631810E+03  0.00000000000E+00 0.  1.
          2   -1    0    0  501    0  0.00000000000E+00 -0.00000000000E+00 -0.11618770491E+04  0.11618770491E+04  0.00000000000E+00 0. -1.
         23    2    1    2    0    0 -0.27422380240E+03  0.64731529609E+03 -0.20311948023E+03  0.73744454924E+03  0.91384646378E+02 0.  0.
    5000000    2    1    2    0    0  0.27422380240E+03 -0.64731529609E+03 -0.38278125081E+03  0.10004088180E+04  0.60006710524E+03 0.  0.
         23    2    4    4    0    0  0.15672804889E+03 -0.72696591886E+03 -0.25621669935E+03  0.79061462996E+03  0.79883462519E+02 0.  0.
         23    2    4    4    0    0  0.11749575352E+03  0.79650622766E+02 -0.12656455146E+03  0.20979418804E+03  0.88575063350E+02 0.  0.
          2    1    3    3  502    0 -0.61009982564E+02  0.86635793138E+02 -0.63811674906E+01  0.10615412344E+03  0.00000000000E+00 0.  1.
         -2    1    3    3    0  502 -0.21321381984E+03  0.56067950296E+03 -0.19673831274E+03  0.63129042580E+03  0.00000000000E+00 0. -1.
         13    1    5    5    0    0  0.76423079951E+02 -0.48334777801E+03 -0.13986699464E+03  0.50894826638E+03  0.00000000000E+00 0. -1.
        -13    1    5    5    0    0  0.80304968937E+02 -0.24361814085E+03 -0.11634970471E+03  0.28166636358E+03  0.00000000000E+00 0.  1.
          5    1    6    6  503    0  0.24860627262E+02  0.48613831730E+01  0.10815969304E+02  0.27942065532E+02  0.47000000000E+01 0. -1.
         -5    1    6    6    0  503  0.92635126255E+02  0.74789239593E+02 -0.13738052077E+03  0.18185212251E+03  0.47000000000E+01 0.  1.
<mgrwt>
<rscale>  0 0.79829616E+03</rscale>
<asrwt>0</asrwt>
<pdfrwt beam="1">  1        2 0.17875031E+00 0.79829616E+03</pdfrwt>
<pdfrwt beam="2">  1       -2 0.88611742E-01 0.79829616E+03</pdfrwt>
<totfact> 0.22164416E+01</totfact>
</mgrwt>
</event>
<event>
12    1  0.3166324E-008  0.7620084E+03  0.7818608E-02  0.9616697E-01
         -2   -1    0    0    0  501 -0.00000000000E+00  0.00000000000E+00  0.26629265754E+03  0.26629265754E+03  0.00000000000E+00 0. -1.
          2   -1    0    0  501    0  0.00000000000E+00 -0.00000000000E+00 -0.27613209099E+04  0.27613209099E+04  0.00000000000E+00 0.  1.
         23    2    1    2    0    0 -0.74563154370E+03 -0.74031771029E+02 -0.10744975758E+04  0.13131730436E+04  0.91822110423E+02 0.  0.
    5000000    2    1    2    0    0  0.74563154370E+03  0.74031771029E+02 -0.14205306766E+04  0.17144405239E+04  0.59995983588E+03 0.  0.
         23    2    4    4    0    0  0.27064610314E+03  0.80108126815E+02 -0.10883323742E+04  0.11280240491E+04  0.91127786149E+02 0.  0.
         23    2    4    4    0    0  0.47498544056E+03 -0.60763557861E+01 -0.33219830239E+03  0.58641647480E+03  0.88772061846E+02 0.  0.
          4    1    3    3  502    0 -0.33091392498E+03 -0.76986171667E+02 -0.46203680585E+03  0.57350580323E+03  0.00000000000E+00 0. -1.
         -4    1    3    3    0  502 -0.41471761872E+03  0.29544006377E+01 -0.61246076990E+03  0.73966724034E+03  0.00000000000E+00 0.  1.
         13    1    5    5    0    0  0.20630843319E+03  0.96760437210E+02 -0.89646101179E+03  0.92496924137E+03  0.00000000000E+00 0.  1.
        -13    1    5    5    0    0  0.64337669958E+02 -0.16652310394E+02 -0.19187136244E+03  0.20305480773E+03  0.00000000000E+00 0. -1.
          5    1    6    6  503    0  0.35306454404E+03 -0.11825263120E+01 -0.19738666616E+03  0.40452386407E+03  0.47000000000E+01 0. -1.
         -5    1    6    6    0  503  0.12192089652E+03 -0.48938294741E+01 -0.13481163623E+03  0.18189261073E+03  0.47000000000E+01 0.  1.
<mgrwt>
<rscale>  0 0.76200837E+03</rscale>
<asrwt>0</asrwt>
<pdfrwt beam="1">  1        2 0.42481861E+00 0.76200837E+03</pdfrwt>
<pdfrwt beam="2">  1       -2 0.40968101E-01 0.76200837E+03</pdfrwt>
<totfact> 0.14488405E+01</totfact>
</mgrwt>
</event>
<event>
12    1  0.3166324E-008  0.3556483E+03  0.7818608E-02  0.1060320E+00
          1   -1    0    0  501    0  0.00000000000E+00  0.00000000000E+00  0.16397902601E+04  0.16397902601E+04  0.00000000000E+00 0. -1.
         -1   -1    0    0    0  501 -0.00000000000E+00 -0.00000000000E+00 -0.10541885434E+03  0.10541885434E+03  0.00000000000E+00 0.  1.
         23    2    1    2    0    0  0.13028907389E+03 -0.37975975553E+02  0.63502445267E+03  0.65543246485E+03  0.88984509908E+02 0.  0.
    5000000    2    1    2    0    0 -0.13028907389E+03  0.37975975553E+02  0.89934695309E+03  0.10897766496E+04  0.60030890918E+03 0.  0.
         23    2    4    4    0    0 -0.26654822011E+03  0.19103201331E+03  0.31501608187E+03  0.46365823722E+03  0.90568456711E+02 0.  0.
         23    2    4    4    0    0  0.13625914622E+03 -0.15305603776E+03  0.58433087122E+03  0.62611841236E+03  0.92676823483E+02 0.  0.
          2    1    3    3  502    0  0.97998223223E+02 -0.64706560028E+02  0.51746379616E+03  0.53062168350E+03  0.00000000000E+00 0.  1.
         -2    1    3    3    0  502  0.32290850666E+02  0.26730584476E+02  0.11756065651E+03  0.12481078135E+03  0.00000000000E+00 0. -1.
         13    1    5    5    0    0 -0.13702829140E+03  0.13192122976E+03  0.22749763633E+03  0.29653859452E+03  0.00000000000E+00 0.  1.
        -13    1    5    5    0    0 -0.12951992871E+03  0.59110783550E+02  0.87518445540E+02  0.16711964270E+03  0.00000000000E+00 0. -1.
          5    1    6    6  503    0  0.10872667747E+03 -0.15712923413E+03  0.45096915271E+03  0.48980236148E+03  0.47000000000E+01 0. -1.
         -5    1    6    6    0  503  0.27532468749E+02  0.40731963717E+01  0.13336171851E+03  0.13631605088E+03  0.47000000000E+01 0.  1.
<mgrwt>
<rscale>  0 0.35564831E+03</rscale>
<asrwt>0</asrwt>
<pdfrwt beam="1">  1        1 0.25227541E+00 0.35564831E+03</pdfrwt>
<pdfrwt beam="2">  1       -1 0.16218286E-01 0.35564831E+03</pdfrwt>
<totfact> 0.16237565E+02</totfact>
</mgrwt>
</event>
<event>
12    1  0.3166324E-008  0.1316704E+04  0.7818608E-02  0.9016423E-01
         -2   -1    0    0    0  501 -0.00000000000E+00  0.00000000000E+00  0.13155317583E+04  0.13155317583E+04  0.00000000000E+00 0.  1.
          2   -1    0    0  501    0  0.00000000000E+00 -0.00000000000E+00 -0.13543640958E+04  0.13543640958E+04  0.00000000000E+00 0. -1.
         23    2    1    2    0    0 -0.10053046523E+04  0.76131639616E+03  0.89537112204E+02  0.12674535333E+04  0.90451455139E+02 0.  0.
    5000000    2    1    2    0    0  0.10053046523E+04 -0.76131639616E+03 -0.12836944970E+03  0.14024423207E+04  0.60010469771E+03 0.  0.
         23    2    4    4    0    0  0.28675218019E+03  0.43484476751E+02 -0.97759340016E+02  0.31918755957E+03  0.90587510530E+02 0.  0.
         23    2    4    4    0    0  0.71855247211E+03 -0.80480087291E+03 -0.30610109683E+02  0.10832547611E+04  0.92096679783E+02 0.  0.
          1    1    3    3  502    0 -0.37066434819E+03  0.32391625031E+03  0.62536280500E+02  0.49621022018E+03  0.00000000000E+00 0. -1.
         -1    1    3    3    0  502 -0.63464030411E+03  0.43740014585E+03  0.27000831704E+02  0.77124331317E+03  0.00000000000E+00 0.  1.
         11    1    5    5    0    0  0.26011407652E+03  0.42472575979E+02 -0.55681694593E+02  0.26937650905E+03  0.00000000000E+00 0. -1.
        -11    1    5    5    0    0  0.26638103674E+02  0.10119007717E+01 -0.42077645422E+02  0.49811050529E+02  0.00000000000E+00 0.  1.
          5    1    6    6  503    0  0.61612009043E+03 -0.66196953334E+03  0.24690711129E+01  0.90434275317E+03  0.47000000000E+01 0. -1.
         -5    1    6    6    0  503  0.10243238168E+03 -0.14283133958E+03 -0.33079180796E+02  0.17891200794E+03  0.47000000000E+01 0.  1.
<mgrwt>
<rscale>  0 0.13167036E+04</rscale>
<asrwt>0</asrwt>
<pdfrwt beam="1">  1        2 0.20836371E+00 0.13167036E+04</pdfrwt>
<pdfrwt beam="2">  1       -2 0.20238950E+00 0.13167036E+04</pdfrwt>
<totfact> 0.18915918E+00</totfact>
</mgrwt>
</event>
<event>
12    1  0.3166324E-008  0.1030692E+04  0.7818608E-02  0.9275508E-01
         -2   -1    0    0    0  501 -0.00000000000E+00  0.00000000000E+00  0.87826254207E+03  0.87826254207E+03  0.00000000000E+00 0.  1.
          2   -1    0    0  501    0  0.00000000000E+00 -0.00000000000E+00 -0.20795073621E+04  0.20795073621E+04  0.00000000000E+00 0. -1.
         23    2    1    2    0    0  0.94110421765E+03  0.16740983267E+03  0.36458810115E+03  0.10275757439E+04  0.96354685756E+02 0.  0.
    5000000    2    1    2    0    0 -0.94110421765E+03 -0.16740983267E+03 -0.15658329211E+04  0.19301941602E+04  0.60009462466E+03 0.  0.
         23    2    4    4    0    0 -0.97432644116E+03 -0.22102505712E+03 -0.14883042539E+04  0.17948183418E+04  0.90328500223E+02 0.  0.
         23    2    4    4    0    0  0.33222223506E+02  0.53615224450E+02 -0.77528667245E+02  0.13537581843E+03  0.91310511677E+02 0.  0.
          1    1    3    3  502    0  0.33280350293E+03  0.78193978908E+02  0.85548983880E+02  0.35240757447E+03  0.00000000000E+00 0. -1.
         -1    1    3    3    0  502  0.60830071472E+03  0.89215853758E+02  0.27903911727E+03  0.67516816946E+03  0.00000000000E+00 0.  1.
         11    1    5    5    0    0 -0.43141007664E+03 -0.14316900974E+03 -0.65954175106E+03  0.80100395815E+03  0.00000000000E+00 0. -1.
        -11    1    5    5    0    0 -0.54291636452E+03 -0.77856047372E+02 -0.82876250283E+03  0.99381438361E+03  0.00000000000E+00 0.  1.
          5    1    6    6  503    0  0.90022629551E+01  0.70865356473E+02 -0.77179369819E+02  0.10526958066E+03  0.47000000000E+01 0. -1.
         -5    1    6    6    0  503  0.24219960551E+02 -0.17250132023E+02 -0.34929742567E+00  0.30106237769E+02  0.47000000000E+01 0.  1.
<mgrwt>
<rscale>  0 0.10306921E+04</rscale>
<asrwt>0</asrwt>
<pdfrwt beam="1">  1        2 0.31992420E+00 0.10306921E+04</pdfrwt>
<pdfrwt beam="2">  1       -2 0.13511732E+00 0.10306921E+04</pdfrwt>
<totfact> 0.23633976E+00</totfact>
</mgrwt>
</event>
<event>
12    1  0.3166324E-008  0.8038919E+03  0.7818608E-02  0.9554401E-01
          1   -1    0    0  501    0  0.00000000000E+00  0.00000000000E+00  0.12975093214E+04  0.12975093214E+04  0.00000000000E+00 0. -1.
         -1   -1    0    0    0  501 -0.00000000000E+00 -0.00000000000E+00 -0.57001135820E+03  0.57001135820E+03  0.00000000000E+00 0.  1.
         23    2    1    2    0    0 -0.14857235001E+03  0.69244578521E+03  0.45160564675E+02  0.71552503346E+03  0.91551560665E+02 0.  0.
    5000000    2    1    2    0    0  0.14857235001E+03 -0.69244578521E+03  0.68233739856E+03  0.11519956462E+04  0.59996227774E+03 0.  0.
         23    2    4    4    0    0 -0.20609761122E+03 -0.28770739092E+03  0.16691300332E+03  0.40162656276E+03  0.90510646320E+02 0.  0.
         23    2    4    4    0    0  0.35466996123E+03 -0.40473839430E+03  0.51542439524E+03  0.75036908343E+03  0.88246840958E+02 0.  0.
          2    1    3    3  502    0 -0.51097777800E+02  0.30294194801E+03  0.62998060665E+02  0.31361371527E+03  0.00000000000E+00 0.  1.
         -2    1    3    3    0  502 -0.97474572210E+02  0.38950383721E+03 -0.17837495991E+02  0.40191131819E+03  0.00000000000E+00 0. -1.
         13    1    5    5    0    0 -0.14341883247E+02 -0.29530826494E+01 -0.76202567666E+01  0.16506926589E+02  0.00000000000E+00 0. -1.
        -13    1    5    5    0    0 -0.19175572797E+03 -0.28475430827E+03  0.17453326009E+03  0.38511963617E+03  0.00000000000E+00 0.  1.
          5    1    6    6  503    0  0.10364234544E+02 -0.25768726582E+01  0.29571672320E+02  0.31790429915E+02  0.47000000000E+01 0. -1.
         -5    1    6    6    0  503  0.34430572669E+03 -0.40216152164E+03  0.48585272292E+03  0.71857865351E+03  0.47000000000E+01 0.  1.
<mgrwt>
<rscale>  0 0.80389194E+03</rscale>
<asrwt>0</asrwt>
<pdfrwt beam="1">  1        1 0.19961682E+00 0.80389194E+03</pdfrwt>
<pdfrwt beam="2">  1       -1 0.87694056E-01 0.80389194E+03</pdfrwt>
<totfact> 0.11934616E+01</totfact>
</mgrwt>
</event>
<event>
12    1  0.3166324E-008  0.1026973E+04  0.7818608E-02  0.9279446E-01
         -1   -1    0    0    0  501 -0.00000000000E+00  0.00000000000E+00  0.41125432327E+03  0.41125432327E+03  0.00000000000E+00 0.  1.
          1   -1    0    0  501    0  0.00000000000E+00 -0.00000000000E+00 -0.34118592360E+04  0.34118592360E+04  0.00000000000E+00 0. -1.
         23    2    1    2    0    0  0.90542722211E+02 -0.94772859389E+03 -0.49563091697E+03  0.10769741195E+04  0.88519918266E+02 0.  0.
    5000000    2    1    2    0    0 -0.90542722211E+02  0.94772859389E+03 -0.25049739957E+04  0.27461394397E+04  0.59999969256E+03 0.  0.
         23    2    4    4    0    0  0.83044813864E+02 -0.13000467844E+02 -0.14630929153E+03  0.19177988273E+03  0.91146373255E+02 0.  0.
         23    2    4    4    0    0 -0.17358753608E+03  0.96072906174E+03 -0.23586647042E+04  0.25543595570E+04  0.91217306430E+02 0.  0.
          1    1    3    3  502    0  0.35851589067E+02 -0.19625795960E+03 -0.14052232667E+03  0.24402673509E+03  0.00000000000E+00 0. -1.
         -1    1    3    3    0  502  0.54691133145E+02 -0.75147063429E+03 -0.35510859030E+03  0.83294738438E+03  0.00000000000E+00 0.  1.
         13    1    5    5    0    0  0.10262820404E+02  0.35171715482E+02 -0.40350764850E+02  0.54502837326E+02  0.00000000000E+00 0. -1.
        -13    1    5    5    0    0  0.72781993460E+02 -0.48172183326E+02 -0.10595852668E+03  0.13727704540E+03  0.00000000000E+00 0.  1.
          5    1    6    6  503    0 -0.91500498730E+02  0.40142330851E+03 -0.88919194932E+03  0.97989664078E+03  0.47000000000E+01 0. -1.
         -5    1    6    6    0  503 -0.82087037345E+02  0.55930575322E+03 -0.14694727549E+04  0.15744629162E+04  0.47000000000E+01 0.  1.
<mgrwt>
<rscale>  0 0.10269728E+04</rscale>
<asrwt>0</asrwt>
<pdfrwt beam="1">  1        1 0.52490143E+00 0.10269728E+04</pdfrwt>
<pdfrwt beam="2">  1       -1 0.63269895E-01 0.10269728E+04</pdfrwt>
<totfact> 0.76655833E-01</totfact>
</mgrwt>
</event>
<event>
12    1  0.3166324E-008  0.1450450E+04  0.7818608E-02  0.8918089E-01
         -2   -1    0    0    0  501 -0.00000000000E+00  0.00000000000E+00  0.11618768687E+04  0.11618768687E+04  0.00000000000E+00 0.  1.
          2   -1    0    0  501    0  0.00000000000E+00 -0.00000000000E+00 -0.24037257352E+04  0.24037257352E+04  0.00000000000E+00 0. -1.
         23    2    1    2    0    0 -0.12326712939E+04  0.64860756503E+03 -0.14752921712E+04  0.20310764689E+04  0.92813467199E+02 0.  0.
    5000000    2    1    2    0    0  0.12326712939E+04 -0.64860756503E+03  0.23344330473E+03  0.15345261351E+04  0.60008698577E+03 0.  0.
         23    2    4    4    0    0  0.74734085309E+03 -0.85417921303E+02  0.20431646206E+03  0.78511171581E+03  0.94024558783E+02 0.  0.
         23    2    4    4    0    0  0.48533044083E+03 -0.56318964373E+03  0.29126842668E+02  0.74941441929E+03  0.89696082781E+02 0.  0.
          1    1    3    3  502    0 -0.11405880441E+04  0.57764519161E+03 -0.13747142641E+04  0.18773530200E+04  0.00000000000E+00 0. -1.
         -1    1    3    3    0  502 -0.92083249807E+02  0.70962373420E+02 -0.10057790716E+03  0.15372344891E+03  0.00000000000E+00 0.  1.
         13    1    5    5    0    0  0.48029440049E+03 -0.11358271342E+02  0.14334999219E+03  0.50135909459E+03  0.00000000000E+00 0.  1.
        -13    1    5    5    0    0  0.26704645260E+03 -0.74059649961E+02  0.60966469870E+02  0.28375262122E+03  0.00000000000E+00 0. -1.
          5    1    6    6  503    0  0.27190052578E+03 -0.24901529952E+03  0.24552318246E+02  0.36954488449E+03  0.47000000000E+01 0. -1.
         -5    1    6    6    0  503  0.21342991505E+03 -0.31417434421E+03  0.45745244218E+01  0.37986953480E+03  0.47000000000E+01 0.  1.
<mgrwt>
<rscale>  0 0.14504497E+04</rscale>
<asrwt>0</asrwt>
<pdfrwt beam="1">  1        2 0.36980396E+00 0.14504497E+04</pdfrwt>
<pdfrwt beam="2">  1       -2 0.17875029E+00 0.14504497E+04</pdfrwt>
<totfact> 0.69240748E-01</totfact>
</mgrwt>
</event>
<event>
12    1  0.3166324E-008  0.3884284E+03  0.7818608E-02  0.1047862E+00
          1   -1    0    0  501    0  0.00000000000E+00  0.00000000000E+00  0.22086422019E+04  0.22086422019E+04  0.00000000000E+00 0. -1.
         -1   -1    0    0    0  501 -0.00000000000E+00 -0.00000000000E+00 -0.17338715038E+03  0.17338715038E+03  0.00000000000E+00 0.  1.
         23    2    1    2    0    0 -0.37411467598E+02 -0.18864360709E+03  0.16048859418E+04  0.16189167458E+04  0.90810325517E+02 0.  0.
    5000000    2    1    2    0    0  0.37411467598E+02  0.18864360709E+03  0.43036910971E+03  0.76311260649E+03  0.60011436508E+03 0.  0.
         23    2    4    4    0    0  0.26467379557E+03 -0.56633559877E+01  0.74291012319E+02  0.28952406619E+03  0.90668289547E+02 0.  0.
         23    2    4    4    0    0 -0.22726232797E+03  0.19430696308E+03  0.35607809740E+03  0.47358854030E+03  0.89950722272E+02 0.  0.
          3    1    3    3  502    0 -0.66528926113E+02 -0.14264247230E+03  0.12523499967E+04  0.12622018409E+04  0.00000000000E+00 0. -1.
         -3    1    3    3    0  502  0.29117458514E+02 -0.46001134789E+02  0.35253594505E+03  0.35671490485E+03  0.00000000000E+00 0.  1.
         13    1    5    5    0    0  0.72952529271E+02  0.66836418881E+01 -0.19392027427E+02  0.75781220125E+02  0.00000000000E+00 0.  1.
        -13    1    5    5    0    0  0.19172126630E+03 -0.12346997876E+02  0.93683039746E+02  0.21374284606E+03  0.00000000000E+00 0. -1.
          5    1    6    6  503    0 -0.16352348363E+03  0.14927057985E+03  0.31559515881E+03  0.38554381071E+03  0.47000000000E+01 0. -1.
         -5    1    6    6    0  503 -0.63738844339E+02  0.45036383231E+02  0.40482938585E+02  0.88044729590E+02  0.47000000000E+01 0.  1.
<mgrwt>
<rscale>  0 0.38842835E+03</rscale>
<asrwt>0</asrwt>
<pdfrwt beam="1">  1        1 0.33979109E+00 0.38842835E+03</pdfrwt>
<pdfrwt beam="2">  1       -1 0.26674948E-01 0.38842835E+03</pdfrwt>
<totfact> 0.29963856E+01</totfact>
</mgrwt>
</event>
<event>
12    1  0.3166324E-008  0.7445422E+03  0.7818608E-02  0.9643952E-01
         -2   -1    0    0    0  501 -0.00000000000E+00  0.00000000000E+00  0.16522431200E+04  0.16522431200E+04  0.00000000000E+00 0. -1.
          2   -1    0    0  501    0  0.00000000000E+00 -0.00000000000E+00 -0.45184696790E+03  0.45184696790E+03  0.00000000000E+00 0.  1.
         23    2    1    2    0    0  0.60041307316E+03 -0.38902401443E+03  0.22898622934E+03  0.75670639400E+03  0.91292558693E+02 0.  0.
    5000000    2    1    2    0    0 -0.60041307316E+03  0.38902401443E+03  0.97140992274E+03  0.13473836939E+04  0.59997503138E+03 0.  0.
         23    2    4    4    0    0 -0.30901648638E+03  0.45024813933E+02  0.65582149081E+02  0.33165386839E+03  0.90414862782E+02 0.  0.
         23    2    4    4    0    0 -0.29139658678E+03  0.34399920050E+03  0.90582777366E+03  0.10157298255E+04  0.89082557827E+02 0.  0.
          2    1    3    3  502    0  0.35966182997E+03 -0.28523701039E+03  0.14841755528E+03  0.48243606286E+03  0.00000000000E+00 0. -1.
         -2    1    3    3    0  502  0.24075124319E+03 -0.10378700404E+03  0.80568674054E+02  0.27427033114E+03  0.00000000000E+00 0.  1.
         13    1    5    5    0    0 -0.19623379773E+03  0.50793980981E+02  0.79777137323E+02  0.21783508329E+03  0.00000000000E+00 0. -1.
        -13    1    5    5    0    0 -0.11278268866E+03 -0.57691670479E+01 -0.14194988242E+02  0.11381878509E+03  0.00000000000E+00 0.  1.
          5    1    6    6  503    0 -0.20571737749E+03  0.21774297174E+03  0.50998420700E+03  0.59147072839E+03  0.47000000000E+01 0. -1.
         -5    1    6    6    0  503 -0.85679209282E+02  0.12625622876E+03  0.39584356666E+03  0.42425909710E+03  0.47000000000E+01 0.  1.
<mgrwt>
<rscale>  0 0.74454222E+03</rscale>
<asrwt>0</asrwt>
<pdfrwt beam="1">  1        2 0.69514919E-01 0.74454222E+03</pdfrwt>
<pdfrwt beam="2">  1       -2 0.25419125E+00 0.74454222E+03</pdfrwt>
<totfact> 0.43200075E+00</totfact>
</mgrwt>
</event>
<event>
12    1  0.3166324E-008  0.5902745E+03  0.7818608E-02  0.9925791E-01
          1   -1    0    0  501    0  0.00000000000E+00  0.00000000000E+00  0.10754168035E+04  0.10754168035E+04  0.00000000000E+00 0. -1.
         -1   -1    0    0    0  501 -0.00000000000E+00 -0.00000000000E+00 -0.88759708248E+03  0.88759708248E+03  0.00000000000E+00 0.  1.
         23    2    1    2    0    0  0.56910107850E+03  0.38623841631E+02  0.76155159247E+03  0.95577330017E+03  0.90409814910E+02 0.  0.
    5000000    2    1    2    0    0 -0.56910107850E+03 -0.38623841631E+02 -0.57373187145E+03  0.10072405858E+04  0.59999791559E+03 0.  0.
         23    2    4    4    0    0 -0.30725547317E+03  0.50344711235E+02  0.40304564739E+02  0.32729209551E+03  0.92494011167E+02 0.  0.
         23    2    4    4    0    0 -0.26184560532E+03 -0.88968552866E+02 -0.61403643619E+03  0.67994849030E+03  0.93865222943E+02 0.  0.
          1    1    3    3  502    0  0.29713054979E+03  0.49961977599E+02  0.34359407139E+03  0.45698976872E+03  0.00000000000E+00 0. -1.
         -1    1    3    3    0  502  0.27197052871E+03 -0.11338135967E+02  0.41795752108E+03  0.49878353145E+03  0.00000000000E+00 0.  1.
         11    1    5    5    0    0 -0.60186340732E+02  0.41873567605E+02  0.31834736537E+02  0.79932732501E+02  0.00000000000E+00 0. -1.
        -11    1    5    5    0    0 -0.24706913244E+03  0.84711436304E+01  0.84698282013E+01  0.24735936301E+03  0.00000000000E+00 0.  1.
          5    1    6    6  503    0 -0.84325468068E+02 -0.66527510620E+02 -0.29717674978E+03  0.31602658882E+03  0.47000000000E+01 0. -1.
         -5    1    6    6    0  503 -0.17752013726E+03 -0.22441042247E+02 -0.31685968641E+03  0.36392190148E+03  0.47000000000E+01 0.  1.
<mgrwt>
<rscale>  0 0.59027455E+03</rscale>
<asrwt>0</asrwt>
<pdfrwt beam="1">  1        1 0.16544874E+00 0.59027455E+03</pdfrwt>
<pdfrwt beam="2">  1       -1 0.13655340E+00 0.59027455E+03</pdfrwt>
<totfact> 0.63026397E+00</totfact>
</mgrwt>
</event>
<event>
12    1  0.3166324E-008  0.8244348E+03  0.7818608E-02  0.9525307E-01
         -2   -1    0    0    0  501 -0.00000000000E+00  0.00000000000E+00  0.21478726600E+04  0.21478726600E+04  0.00000000000E+00 0.  1.
          2   -1    0    0  501    0  0.00000000000E+00 -0.00000000000E+00 -0.43039541665E+03  0.43039541665E+03  0.00000000000E+00 0. -1.
         23    2    1    2    0    0  0.29702372934E+03  0.73026732761E+03  0.29567536634E+03  0.84523224264E+03  0.74028076989E+02 0.  0.
    5000000    2    1    2    0    0 -0.29702372934E+03 -0.73026732761E+03  0.14218018770E+04  0.17330358340E+04  0.60031588262E+03 0.  0.
         23    2    4    4    0    0 -0.79672228754E+02 -0.10791398486E+02 -0.15685609259E+01  0.12085767159E+03  0.90221937927E+02 0.  0.
         23    2    4    4    0    0 -0.21735150058E+03 -0.71947592912E+03  0.14233704379E+04  0.16121781624E+04  0.90817049008E+02 0.  0.
          1    1    3    3  502    0  0.22225376996E+03  0.48239729156E+03  0.22524142624E+03  0.57692077901E+03  0.00000000000E+00 0. -1.
         -1    1    3    3    0  502  0.74769959376E+02  0.24787003605E+03  0.70433940100E+02  0.26831146363E+03  0.00000000000E+00 0.  1.
         11    1    5    5    0    0 -0.17480633813E+02 -0.36002837986E+02 -0.27880770997E+02  0.48776165214E+02  0.00000000000E+00 0. -1.
        -11    1    5    5    0    0 -0.62191594941E+02  0.25211439500E+02  0.26312210071E+02  0.72081506378E+02  0.00000000000E+00 0.  1.
          5    1    6    6  503    0 -0.18143585198E+03 -0.60404560007E+03  0.11167413568E+04  0.12825456730E+04  0.47000000000E+01 0. -1.
         -5    1    6    6    0  503 -0.35915648607E+02 -0.11543032905E+03  0.30662908112E+03  0.32963248940E+03  0.47000000000E+01 0.  1.
<mgrwt>
<rscale>  0 0.82443476E+03</rscale>
<asrwt>0</asrwt>
<pdfrwt beam="1">  1        2 0.66214681E-01 0.82443476E+03</pdfrwt>
<pdfrwt beam="2">  1       -2 0.33044194E+00 0.82443476E+03</pdfrwt>
<totfact> 0.15648481E+00</totfact>
</mgrwt>
</event>
<event>
12    1  0.3166324E-008  0.7926548E+03  0.7818608E-02  0.9570710E-01
         -2   -1    0    0    0  501 -0.00000000000E+00  0.00000000000E+00  0.41214388552E+03  0.41214388552E+03  0.00000000000E+00 0.  1.
          2   -1    0    0  501    0  0.00000000000E+00 -0.00000000000E+00 -0.17690246617E+04  0.17690246617E+04  0.00000000000E+00 0. -1.
         23    2    1    2    0    0 -0.27815319624E+03 -0.63240697248E+03 -0.95370353894E+03  0.11812319138E+04  0.91927223789E+02 0.  0.
    5000000    2    1    2    0    0  0.27815319624E+03  0.63240697248E+03 -0.40317723724E+03  0.99993663346E+03  0.60001133896E+03 0.  0.
         23    2    4    4    0    0  0.45000957342E+03  0.46300633302E+03 -0.23830211144E+03  0.69398809645E+03  0.89152123389E+02 0.  0.
         23    2    4    4    0    0 -0.17185637718E+03  0.16940063946E+03 -0.16487512580E+03  0.30594853701E+03  0.90495906882E+02 0.  0.
          1    1    3    3  502    0 -0.70448600446E+02 -0.25338147480E+03 -0.40212786343E+03  0.48049141056E+03  0.00000000000E+00 0. -1.
         -1    1    3    3    0  502 -0.20770459579E+03 -0.37902549769E+03 -0.55157567551E+03  0.70074050320E+03  0.00000000000E+00 0.  1.
         13    1    5    5    0    0  0.44513844785E+03  0.45972978334E+03 -0.24487607631E+03  0.68517443340E+03  0.00000000000E+00 0.  1.
        -13    1    5    5    0    0  0.48711255715E+01  0.32765496841E+01  0.65739648679E+01  0.88136630438E+01  0.00000000000E+00 0. -1.
          5    1    6    6  503    0 -0.16121983096E+03  0.16751121454E+03 -0.12425334184E+03  0.26365284723E+03  0.47000000000E+01 0. -1.
         -5    1    6    6    0  503 -0.10636546218E+02  0.18894249220E+01 -0.40621783962E+02  0.42295689784E+02  0.47000000000E+01 0.  1.
<mgrwt>
<rscale>  0 0.79265478E+03</rscale>
<asrwt>0</asrwt>
<pdfrwt beam="1">  1        2 0.27215763E+00 0.79265478E+03</pdfrwt>
<pdfrwt beam="2">  1       -2 0.63406753E-01 0.79265478E+03</pdfrwt>
<totfact> 0.21157071E+01</totfact>
</mgrwt>
</event>
<event>
12    1  0.3166324E-008  0.8403752E+03  0.7818608E-02  0.9503347E-01
         -2   -1    0    0    0  501 -0.00000000000E+00  0.00000000000E+00  0.17540070317E+04  0.17540070317E+04  0.00000000000E+00 0.  1.
          2   -1    0    0  501    0  0.00000000000E+00 -0.00000000000E+00 -0.57452630382E+03  0.57452630382E+03  0.00000000000E+00 0. -1.
         23    2    1    2    0    0 -0.17514322756E+03  0.71947351670E+03  0.11552183130E+04  0.13751493078E+04  0.90492963562E+02 0.  0.
    5000000    2    1    2    0    0  0.17514322756E+03 -0.71947351670E+03  0.24262414846E+02  0.95338402778E+03  0.60002928951E+03 0.  0.
         23    2    4    4    0    0 -0.15681645515E+03 -0.50736736338E+03  0.81783306526E+02  0.54523050187E+03  0.92599940139E+02 0.  0.
         23    2    4    4    0    0  0.33195968271E+03 -0.21210615332E+03 -0.57520891679E+02  0.40815352591E+03  0.89968864137E+02 0.  0.
          4    1    3    3  502    0 -0.12956611056E+03  0.34195277746E+03  0.55794686964E+03  0.66710103310E+03  0.00000000000E+00 0. -1.
         -4    1    3    3    0  502 -0.45577116997E+02  0.37752073924E+03  0.59727144340E+03  0.70804827466E+03  0.00000000000E+00 0.  1.
         13    1    5    5    0    0 -0.40037189792E+02 -0.28245895583E+03  0.33355111709E+02  0.28722569832E+03  0.00000000000E+00 0.  1.
        -13    1    5    5    0    0 -0.11677926536E+03 -0.22490840755E+03  0.48428194817E+02  0.25800480355E+03  0.00000000000E+00 0. -1.
          5    1    6    6  503    0  0.27697790381E+03 -0.15839650424E+03 -0.13361844728E+02  0.31938509772E+03  0.47000000000E+01 0. -1.
         -5    1    6    6    0  503  0.54981778901E+02 -0.53709649074E+02 -0.44159046952E+02  0.88768428185E+02  0.47000000000E+01 0.  1.
<mgrwt>
<rscale>  0 0.84037516E+03</rscale>
<asrwt>0</asrwt>
<pdfrwt beam="1">  1        2 0.88388663E-01 0.84037516E+03</pdfrwt>
<pdfrwt beam="2">  1       -2 0.26984723E+00 0.84037516E+03</pdfrwt>
<totfact> 0.25925837E+00</totfact>
</mgrwt>
</event>
<event>
12    1  0.3166324E-008  0.1048509E+04  0.7818608E-02  0.9256884E-01
          1   -1    0    0  501    0  0.00000000000E+00  0.00000000000E+00  0.24091810852E+04  0.24091810852E+04  0.00000000000E+00 0. -1.
         -1   -1    0    0    0  501 -0.00000000000E+00 -0.00000000000E+00 -0.55235557997E+03  0.55235557997E+03  0.00000000000E+00 0.  1.
         23    2    1    2    0    0  0.71429141880E+02  0.97053916246E+03  0.14476430321E+04  0.17471092405E+04  0.98346131779E+02 0.  0.
    5000000    2    1    2    0    0 -0.71429141880E+02 -0.97053916246E+03  0.40918247313E+03  0.12144274247E+04  0.60029599806E+03 0.  0.
         23    2    4    4    0    0  0.89937544782E+02 -0.93877465357E+03  0.29157024584E+03  0.99138581936E+03  0.91902243835E+02 0.  0.
         23    2    4    4    0    0 -0.16136668666E+03 -0.31764508896E+02  0.11761222729E+03  0.22304160531E+03  0.94163316115E+02 0.  0.
          2    1    3    3  502    0  0.85028012528E+02  0.70184310758E+03  0.10984305091E+04  0.13062783371E+04  0.00000000000E+00 0. -1.
         -2    1    3    3    0  502 -0.13598870648E+02  0.26869605488E+03  0.34921252300E+03  0.44083090343E+03  0.00000000000E+00 0.  1.
         11    1    5    5    0    0  0.64728267461E+02 -0.35534951317E+03  0.14568083271E+03  0.38946877941E+03  0.00000000000E+00 0.  1.
        -11    1    5    5    0    0  0.25209277321E+02 -0.58342514040E+03  0.14588941312E+03  0.60191703995E+03  0.00000000000E+00 0. -1.
          5    1    6    6  503    0 -0.47500385255E+02 -0.39008402107E+02  0.37135993702E+01  0.61756156411E+02  0.47000000000E+01 0. -1.
         -5    1    6    6    0  503 -0.11386630141E+03  0.72438932111E+01  0.11389862792E+03  0.16128544890E+03  0.47000000000E+01 0.  1.
<mgrwt>
<rscale>  0 0.10485093E+04</rscale>
<asrwt>0</asrwt>
<pdfrwt beam="1">  1        1 0.37064324E+00 0.10485093E+04</pdfrwt>
<pdfrwt beam="2">  1       -1 0.84977783E-01 0.10485093E+04</pdfrwt>
<totfact> 0.21666742E+00</totfact>
</mgrwt>
</event>
<event>
12    1  0.3166324E-008  0.7982947E+03  0.7818608E-02  0.9562489E-01
         -1   -1    0    0    0  501 -0.00000000000E+00  0.00000000000E+00  0.11676162866E+04  0.11676162866E+04  0.00000000000E+00 0.  1.
          1   -1    0    0  501    0  0.00000000000E+00 -0.00000000000E+00 -0.14700991743E+04  0.14700991743E+04  0.00000000000E+00 0. -1.
         23    2    1    2    0    0  0.41005973940E+03 -0.65177049679E+03  0.83416434745E+03  0.11393694931E+04  0.96844787091E+02 0.  0.
    5000000    2    1    2    0    0 -0.41005973940E+03  0.65177049679E+03 -0.11366472352E+04  0.14983459678E+04  0.60009993472E+03 0.  0.
         23    2    4    4    0    0 -0.41101281830E+03  0.47620408005E+03 -0.11339114434E+04  0.12999324195E+04  0.91472789894E+02 0.  0.
         23    2    4    4    0    0  0.95307890137E+00  0.17556641674E+03 -0.27357917862E+01  0.19841354826E+03  0.92390348679E+02 0.  0.
          4    1    3    3  502    0  0.26839441894E+03 -0.37815104570E+03  0.55867837793E+03  0.72605461740E+03  0.00000000000E+00 0. -1.
         -4    1    3    3    0  502  0.14166532046E+03 -0.27361945109E+03  0.27548596952E+03  0.41331487566E+03  0.00000000000E+00 0.  1.
         11    1    5    5    0    0 -0.96302319782E+02  0.59458903480E+02 -0.18804418301E+03  0.21947690713E+03  0.00000000000E+00 0.  1.
        -11    1    5    5    0    0 -0.31471049852E+03  0.41674517657E+03 -0.94586726036E+03  0.10804555124E+04  0.00000000000E+00 0. -1.
          5    1    6    6  503    0  0.34135918481E+02  0.61887667568E+02  0.27690977164E+02  0.76054089593E+02  0.47000000000E+01 0. -1.
         -5    1    6    6    0  503 -0.33182839579E+02  0.11367874917E+03 -0.30426768950E+02  0.12235945866E+03  0.47000000000E+01 0.  1.
<mgrwt>
<rscale>  0 0.79829475E+03</rscale>
<asrwt>0</asrwt>
<pdfrwt beam="1">  1        1 0.22616910E+00 0.79829475E+03</pdfrwt>
<pdfrwt beam="2">  1       -1 0.17963328E+00 0.79829475E+03</pdfrwt>
<totfact> 0.14937001E+00</totfact>
</mgrwt>
</event>
<event>
12    1  0.3166324E-008  0.9775953E+03  0.7818608E-02  0.9333465E-01
         -1   -1    0    0    0  501 -0.00000000000E+00  0.00000000000E+00  0.61246245984E+03  0.61246245984E+03  0.00000000000E+00 0.  1.
          1   -1    0    0  501    0  0.00000000000E+00 -0.00000000000E+00 -0.26718560641E+04  0.26718560641E+04  0.00000000000E+00 0. -1.
         23    2    1    2    0    0 -0.88052743857E+03 -0.28889819613E+03 -0.19672264303E+04  0.21764990660E+04  0.91529331096E+02 0.  0.
    5000000    2    1    2    0    0  0.88052743857E+03  0.28889819613E+03 -0.92167173948E+02  0.11078194579E+04  0.59998202105E+03 0.  0.
         23    2    4    4    0    0  0.53230581844E+03  0.38646168511E+03  0.12615693977E+03  0.67572658137E+03  0.89379644833E+02 0.  0.
         23    2    4    4    0    0  0.34822162013E+03 -0.97563488982E+02 -0.21832411372E+03  0.43209287655E+03  0.90895017603E+02 0.  0.
          2    1    3    3  502    0 -0.11003017157E+03 -0.22531674090E+02 -0.18079536535E+03  0.21284097144E+03  0.00000000000E+00 0.  1.
         -2    1    3    3    0  502 -0.77049726699E+03 -0.26636652204E+03 -0.17864310649E+04  0.19636580945E+04  0.00000000000E+00 0. -1.
         11    1    5    5    0    0  0.15530595100E+03  0.65992028459E+02  0.23296560678E+02  0.17034557809E+03  0.00000000000E+00 0. -1.
        -11    1    5    5    0    0  0.37699986744E+03  0.32046965665E+03  0.10286037909E+03  0.50538100328E+03  0.00000000000E+00 0.  1.
          5    1    6    6  503    0  0.29338026015E+03 -0.97025962595E+02 -0.14762695734E+03  0.34249353716E+03  0.47000000000E+01 0. -1.
         -5    1    6    6    0  503  0.54841359980E+02 -0.53752638691E+00 -0.70697156375E+02  0.89599339387E+02  0.47000000000E+01 0.  1.
<mgrwt>
<rscale>  0 0.97759531E+03</rscale>
<asrwt>0</asrwt>
<pdfrwt beam="1">  1        1 0.41105478E+00 0.97759531E+03</pdfrwt>
<pdfrwt beam="2">  1       -1 0.94224994E-01 0.97759531E+03</pdfrwt>
<totfact> 0.11488800E+00</totfact>
</mgrwt>
</event>
<event>
12    1  0.3166324E-008  0.1437062E+04  0.7818608E-02  0.8927420E-01
         -1   -1    0    0    0  501 -0.00000000000E+00  0.00000000000E+00  0.13467745275E+04  0.13467745275E+04  0.00000000000E+00 0.  1.
          1   -1    0    0  501    0  0.00000000000E+00 -0.00000000000E+00 -0.24088954527E+04  0.24088954527E+04  0.00000000000E+00 0. -1.
         23    2    1    2    0    0  0.12651186548E+04 -0.63392648035E+03  0.55732001773E+03  0.15229980837E+04  0.80805739606E+02 0.  0.
    5000000    2    1    2    0    0 -0.12651186548E+04  0.63392648035E+03 -0.16194409430E+04  0.22326718965E+04  0.59987235027E+03 0.  0.
         23    2    4    4    0    0 -0.26431860662E+03  0.19121370260E+02 -0.64715975150E+03  0.70520484544E+03  0.90929519240E+02 0.  0.
         23    2    4    4    0    0 -0.10008000482E+04  0.61480511009E+03 -0.97228119148E+03  0.15274670511E+04  0.90767929826E+02 0.  0.
          3    1    3    3  502    0  0.10258659276E+04 -0.48611526114E+03  0.46834498630E+03  0.12280293054E+04  0.00000000000E+00 0. -1.
         -3    1    3    3    0  502  0.23925272713E+03 -0.14781121921E+03  0.88975031426E+02  0.29496877832E+03  0.00000000000E+00 0.  1.
         11    1    5    5    0    0 -0.17843333384E+03  0.55197927100E+02 -0.44549158785E+03  0.48306109410E+03  0.00000000000E+00 0.  1.
        -11    1    5    5    0    0 -0.85885272780E+02 -0.36076556840E+02 -0.20166816364E+03  0.22214375134E+03  0.00000000000E+00 0. -1.
          5    1    6    6  503    0 -0.81318558719E+02  0.79323638601E+02 -0.83719763016E+02  0.14119502949E+03  0.47000000000E+01 0. -1.
         -5    1    6    6    0  503 -0.91948148943E+03  0.53548147149E+03 -0.88856142846E+03  0.13862720216E+04  0.47000000000E+01 0.  1.
<mgrwt>
<rscale>  0 0.14370617E+04</rscale>
<asrwt>0</asrwt>
<pdfrwt beam="1">  1        1 0.37059930E+00 0.14370617E+04</pdfrwt>
<pdfrwt beam="2">  1       -1 0.20719608E+00 0.14370617E+04</pdfrwt>
<totfact> 0.20041835E-01</totfact>
</mgrwt>
</event>
<event>
12    1  0.3166324E-008  0.5409066E+03  0.7818608E-02  0.1003621E+00
         -1   -1    0    0    0  501 -0.00000000000E+00  0.00000000000E+00  0.68660504778E+03  0.68660504778E+03  0.00000000000E+00 0.  1.
          1   -1    0    0  501    0  0.00000000000E+00 -0.00000000000E+00 -0.61501373713E+03  0.61501373713E+03  0.00000000000E+00 0. -1.
         23    2    1    2    0    0 -0.46228429482E+03  0.17529936351E+03  0.13411660970E+03  0.52147819932E+03  0.97547994746E+02 0.  0.
    5000000    2    1    2    0    0  0.46228429482E+03 -0.17529936351E+03 -0.62525299044E+02  0.78014058560E+03  0.60022769362E+03 0.  0.
         23    2    4    4    0    0  0.15748451382E+02 -0.92237477744E+02 -0.24863251419E+03  0.28084976885E+03  0.91119150201E+02 0.  0.
         23    2    4    4    0    0  0.44653584344E+03 -0.83061885771E+02  0.18610721514E+03  0.49929081674E+03  0.91443358495E+02 0.  0.
          4    1    3    3  502    0 -0.17164502834E+03  0.68183130699E+02  0.19295745874E+01  0.18470159264E+03  0.00000000000E+00 0.  1.
         -4    1    3    3    0  502 -0.29063926648E+03  0.10711623282E+03  0.13218703511E+03  0.33677660667E+03  0.00000000000E+00 0. -1.
         11    1    5    5    0    0  0.51893679890E+02 -0.39289923528E+02 -0.14581622526E+03  0.15968413714E+03  0.00000000000E+00 0. -1.
        -11    1    5    5    0    0 -0.36145228509E+02 -0.52947554216E+02 -0.10281628892E+03  0.12116563172E+03  0.00000000000E+00 0.  1.
          5    1    6    6  503    0  0.29786316156E+03 -0.26654432174E+02  0.85526884272E+02  0.31107854266E+03  0.47000000000E+01 0. -1.
         -5    1    6    6    0  503  0.14867268188E+03 -0.56407453598E+02  0.10058033087E+03  0.18821227408E+03  0.47000000000E+01 0.  1.
<mgrwt>
<rscale>  0 0.54090662E+03</rscale>
<asrwt>0</asrwt>
<pdfrwt beam="1">  1        1 0.94617498E-01 0.54090662E+03</pdfrwt>
<pdfrwt beam="2">  1       -1 0.10563155E+00 0.54090662E+03</pdfrwt>
<totfact> 0.29141746E+01</totfact>
</mgrwt>
</event>
<event>
12    1  0.3166324E-008  0.1162601E+04  0.7818608E-02  0.9146237E-01
          2   -1    0    0  501    0  0.00000000000E+00  0.00000000000E+00  0.15391043280E+04  0.15391043280E+04  0.00000000000E+00 0. -1.
         -2   -1    0    0    0  501 -0.00000000000E+00 -0.00000000000E+00 -0.11415721909E+04  0.11415721909E+04  0.00000000000E+00 0.  1.
         23    2    1    2    0    0  0.10759782056E+04 -0.27177253020E+03 -0.40575792135E+03  0.11851496121E+04  0.91382193287E+02 0.  0.
    5000000    2    1    2    0    0 -0.10759782056E+04  0.27177253020E+03  0.80329005837E+03  0.14955269068E+04  0.59978029627E+03 0.  0.
         23    2    4    4    0    0 -0.68258633767E+03  0.40983073655E+03  0.68196855860E+03  0.10521735404E+04  0.90015016201E+02 0.  0.
         23    2    4    4    0    0 -0.39339186796E+03 -0.13805820635E+03  0.12132149977E+03  0.44335336639E+03  0.89588342227E+02 0.  0.
          4    1    3    3  502    0  0.80812703473E+03 -0.23087297747E+03 -0.27510258222E+03  0.88433764295E+03  0.00000000000E+00 0. -1.
         -4    1    3    3    0  502  0.26785117090E+03 -0.40899552730E+02 -0.13065533913E+03  0.30081196919E+03  0.00000000000E+00 0.  1.
         11    1    5    5    0    0 -0.14016421183E+03  0.96529848457E+02  0.19449458156E+03  0.25844179263E+03  0.00000000000E+00 0. -1.
        -11    1    5    5    0    0 -0.54242212584E+03  0.31330088809E+03  0.48747397704E+03  0.79373174774E+03  0.00000000000E+00 0.  1.
          5    1    6    6  503    0 -0.22989922195E+03 -0.74383990469E+02  0.11519629740E+03  0.26772916768E+03  0.47000000000E+01 0. -1.
         -5    1    6    6    0  503 -0.16349264601E+03 -0.63674215881E+02  0.61252023661E+01  0.17562419871E+03  0.47000000000E+01 0.  1.
<mgrwt>
<rscale>  0 0.11626006E+04</rscale>
<asrwt>0</asrwt>
<pdfrwt beam="1">  1        2 0.23678528E+00 0.11626006E+04</pdfrwt>
<pdfrwt beam="2">  1       -2 0.17562649E+00 0.11626006E+04</pdfrwt>
<totfact> 0.22865733E+00</totfact>
</mgrwt>
</event>
<event>
12    1  0.3166324E-008  0.9219188E+03  0.7818608E-02  0.9398589E-01
          1   -1    0    0  501    0  0.00000000000E+00  0.00000000000E+00  0.32778330114E+04  0.32778330114E+04  0.00000000000E+00 0. -1.
         -1   -1    0    0    0  501 -0.00000000000E+00 -0.00000000000E+00 -0.28838258079E+03  0.28838258079E+03  0.00000000000E+00 0.  1.
         23    2    1    2    0    0  0.64426733944E+03 -0.52841960329E+03  0.86043679425E+03  0.12025349270E+04  0.10691628491E+03 0.  0.
    5000000    2    1    2    0    0 -0.64426733944E+03  0.52841960329E+03  0.21290136364E+04  0.23636806652E+04  0.59998295087E+03 0.  0.
         23    2    4    4    0    0  0.67822601517E+01  0.32581812717E+03  0.68657354094E+03  0.76546600764E+03  0.91386709641E+02 0.  0.
         23    2    4    4    0    0 -0.65104959959E+03  0.20260147612E+03  0.14424400954E+04  0.15982146575E+04  0.93507878976E+02 0.  0.
          1    1    3    3  502    0  0.41187077781E+03 -0.30781160302E+03  0.59543550487E+03  0.78672038300E+03  0.00000000000E+00 0. -1.
         -1    1    3    3    0  502  0.23239656163E+03 -0.22060800027E+03  0.26500128938E+03  0.41581454402E+03  0.00000000000E+00 0.  1.
         13    1    5    5    0    0 -0.89591705592E+01  0.22810069164E+03  0.56034924318E+03  0.60506319223E+03  0.00000000000E+00 0. -1.
        -13    1    5    5    0    0  0.15741430711E+02  0.97717435531E+02  0.12622429776E+03  0.16040281541E+03  0.00000000000E+00 0.  1.
          5    1    6    6  503    0 -0.43643602847E+03  0.13173672349E+03  0.85854771932E+03  0.97208911505E+03  0.47000000000E+01 0. -1.
         -5    1    6    6    0  503 -0.21461357111E+03  0.70864752629E+02  0.58389237610E+03  0.62612554248E+03  0.47000000000E+01 0.  1.
<mgrwt>
<rscale>  0 0.92191884E+03</rscale>
<asrwt>0</asrwt>
<pdfrwt beam="1">  1        1 0.50428198E+00 0.92191884E+03</pdfrwt>
<pdfrwt beam="2">  1       -1 0.44366553E-01 0.92191884E+03</pdfrwt>
<totfact> 0.19541561E+00</totfact>
</mgrwt>
</event>
<event>
12    1  0.3166324E-008  0.9612502E+03  0.7818608E-02  0.9352097E-01
         -2   -1    0    0    0  501 -0.00000000000E+00  0.00000000000E+00  0.21946746331E+04  0.21946746331E+04  0.00000000000E+00 0.  1.
          2   -1    0    0  501    0  0.00000000000E+00 -0.00000000000E+00 -0.49763864752E+03  0.49763864752E+03  0.00000000000E+00 0. -1.
         23    2    1    2    0    0 -0.36684291069E+03  0.81075245091E+03  0.12318894594E+04  0.15225625144E+04  0.93550587305E+02 0.  0.
    5000000    2    1    2    0    0  0.36684291069E+03 -0.81075245091E+03  0.46514652620E+03  0.11697507662E+04  0.60005191979E+03 0.  0.
         23    2    4    4    0    0  0.48683026405E+03 -0.72760447498E+03  0.29643351037E+03  0.92853931372E+03  0.88884492724E+02 0.  0.
         23    2    4    4    0    0 -0.11998735336E+03 -0.83147975928E+02  0.16871301583E+03  0.24121145250E+03  0.91696958722E+02 0.  0.
          1    1    3    3  502    0 -0.12113461029E+03  0.38023576647E+03  0.55497424354E+03  0.68355632021E+03  0.00000000000E+00 0. -1.
         -1    1    3    3    0  502 -0.24570830040E+03  0.43051668444E+03  0.67691521588E+03  0.83900619423E+03  0.00000000000E+00 0.  1.
         13    1    5    5    0    0  0.29539479223E+03 -0.51583235744E+03  0.19552755630E+03  0.62575724489E+03  0.00000000000E+00 0.  1.
        -13    1    5    5    0    0  0.19143547182E+03 -0.21177211754E+03  0.10090595408E+03  0.30278206883E+03  0.00000000000E+00 0. -1.
          5    1    6    6  503    0 -0.56023911268E+02 -0.26024380582E+02  0.12878509696E+02  0.63276322826E+02  0.47000000000E+01 0.  1.
         -5    1    6    6    0  503 -0.63963442091E+02 -0.57123595346E+02  0.15583450613E+03  0.17793512967E+03  0.47000000000E+01 0. -1.
<mgrwt>
<rscale>  0 0.96125022E+03</rscale>
<asrwt>0</asrwt>
<pdfrwt beam="1">  1        2 0.76559793E-01 0.96125022E+03</pdfrwt>
<pdfrwt beam="2">  1       -2 0.33764225E+00 0.96125022E+03</pdfrwt>
<totfact> 0.11726139E+00</totfact>
</mgrwt>
</event>
<event>
12    1  0.3166324E-008  0.1128297E+04  0.7818608E-02  0.9178043E-01
         -1   -1    0    0    0  501 -0.00000000000E+00  0.00000000000E+00  0.66930623444E+03  0.66930623444E+03  0.00000000000E+00 0.  1.
          1   -1    0    0  501    0  0.00000000000E+00 -0.00000000000E+00 -0.19981757323E+04  0.19981757323E+04  0.00000000000E+00 0. -1.
         23    2    1    2    0    0  0.41420296633E+03 -0.98808833160E+03 -0.49822164094E+03  0.11849424668E+04  0.89337549676E+02 0.  0.
    5000000    2    1    2    0    0 -0.41420296633E+03  0.98808833160E+03 -0.83064785695E+03  0.14825395000E+04  0.60005404619E+03 0.  0.
         23    2    4    4    0    0 -0.35355228601E+03  0.24643211758E+03 -0.49035954216E+03  0.65900811839E+03  0.90062267304E+02 0.  0.
         23    2    4    4    0    0 -0.60650680326E+02  0.74165621402E+03 -0.34028831478E+03  0.82353138158E+03  0.93141582834E+02 0.  0.
          4    1    3    3  502    0  0.28498167662E+03 -0.56926268584E+03 -0.28403923460E+03  0.69710318339E+03  0.00000000000E+00 0. -1.
         -4    1    3    3    0  502  0.12922128971E+03 -0.41882564575E+03 -0.21418240634E+03  0.48783928341E+03  0.00000000000E+00 0.  1.
         11    1    5    5    0    0 -0.26027241555E+02  0.16408687358E+01 -0.93895657541E+01  0.27717750598E+02  0.00000000000E+00 0. -1.
        -11    1    5    5    0    0 -0.32752504445E+03  0.24479124884E+03 -0.48096997641E+03  0.63129036779E+03  0.00000000000E+00 0.  1.
          5    1    6    6  503    0  0.26654180480E+01  0.34114882855E+03 -0.11753107821E+03  0.36086738842E+03  0.47000000000E+01 0. -1.
         -5    1    6    6    0  503 -0.63316098374E+02  0.40050738547E+03 -0.22275723657E+03  0.46266399317E+03  0.47000000000E+01 0.  1.
<mgrwt>
<rscale>  0 0.11282966E+04</rscale>
<asrwt>0</asrwt>
<pdfrwt beam="1">  1        1 0.30741164E+00 0.11282966E+04</pdfrwt>
<pdfrwt beam="2">  1       -1 0.10297019E+00 0.11282966E+04</pdfrwt>
<totfact> 0.26474170E+00</totfact>
</mgrwt>
</event>
<event>
12    1  0.3166324E-008  0.5275659E+03  0.7818608E-02  0.1006824E+00
         -1   -1    0    0    0  501 -0.00000000000E+00  0.00000000000E+00  0.40232338185E+03  0.40232338185E+03  0.00000000000E+00 0.  1.
          1   -1    0    0  501    0  0.00000000000E+00 -0.00000000000E+00 -0.74184383855E+03  0.74184383855E+03  0.00000000000E+00 0. -1.
         23    2    1    2    0    0  0.22043239676E+03  0.29807417708E+03 -0.17639897715E+03  0.42058040234E+03  0.91283180867E+02 0.  0.
    5000000    2    1    2    0    0 -0.22043239676E+03 -0.29807417708E+03 -0.16312147954E+03  0.72358681805E+03  0.59960871373E+03 0.  0.
         23    2    4    4    0    0 -0.21628147094E+03  0.11101753806E+03  0.39036141792E+02  0.25851489579E+03  0.78762697694E+02 0.  0.
         23    2    4    4    0    0 -0.41509258216E+01 -0.40909171515E+03 -0.20215762134E+03  0.46507192226E+03  0.89726960410E+02 0.  0.
          1    1    3    3  502    0  0.10150079414E+03  0.68216523659E+02 -0.44817279939E+02  0.13024781722E+03  0.00000000000E+00 0.  1.
         -1    1    3    3    0  502  0.11893160262E+03  0.22985765342E+03 -0.13158169721E+03  0.29033258512E+03  0.00000000000E+00 0. -1.
         11    1    5    5    0    0 -0.92473430544E+02  0.91644890965E+02  0.17506585490E+02  0.13136438609E+03  0.00000000000E+00 0.  1.
        -11    1    5    5    0    0 -0.12380804040E+03  0.19372647099E+02  0.21529556301E+02  0.12715050970E+03  0.00000000000E+00 0. -1.
          5    1    6    6  503    0  0.37041972490E+02 -0.10143607149E+03 -0.44451599173E+02  0.11687351708E+03  0.47000000000E+01 0.  1.
         -5    1    6    6    0  503 -0.41192898311E+02 -0.30765564366E+03 -0.15770602216E+03  0.34819840518E+03  0.47000000000E+01 0. -1.
<mgrwt>
<rscale>  0 0.52756592E+03</rscale>
<asrwt>0</asrwt>
<pdfrwt beam="1">  1        1 0.11412982E+00 0.52756592E+03</pdfrwt>
<pdfrwt beam="2">  1       -1 0.61895905E-01 0.52756592E+03</pdfrwt>
<totfact> 0.68838839E+01</totfact>
</mgrwt>
</event>
<event>
12    1  0.3166324E-008  0.1587532E+04  0.7818608E-02  0.8828245E-01
          1   -1    0    0  501    0  0.00000000000E+00  0.00000000000E+00  0.14664703805E+04  0.14664703805E+04  0.00000000000E+00 0. -1.
         -1   -1    0    0    0  501 -0.00000000000E+00 -0.00000000000E+00 -0.17577488112E+04  0.17577488112E+04  0.00000000000E+00 0.  1.
         23    2    1    2    0    0 -0.12417068736E+04 -0.92148861860E+03 -0.21552278444E+03  0.15638681757E+04  0.90864548642E+02 0.  0.
    5000000    2    1    2    0    0  0.12417068736E+04  0.92148861860E+03 -0.75755646324E+02  0.16603510160E+04  0.60004111874E+03 0.  0.
         23    2    4    4    0    0  0.37282891474E+03  0.56861498908E+03  0.12419027635E+03  0.69707604592E+03  0.90373577896E+02 0.  0.
         23    2    4    4    0    0  0.86887795888E+03  0.35287362952E+03 -0.19994592267E+03  0.96327497008E+03  0.91932530431E+02 0.  0.
          1    1    3    3  502    0 -0.51301455536E+03 -0.43662314592E+03 -0.90039696685E+02  0.67965495110E+03  0.00000000000E+00 0.  1.
         -1    1    3    3    0  502 -0.72869231826E+03 -0.48486547268E+03 -0.12548308775E+03  0.88421322462E+03  0.00000000000E+00 0. -1.
         11    1    5    5    0    0  0.26609712463E+03  0.32920543511E+03  0.63748036655E+02  0.42807442159E+03  0.00000000000E+00 0.  1.
        -11    1    5    5    0    0  0.10673179011E+03  0.23940955397E+03  0.60442239691E+02  0.26900162433E+03  0.00000000000E+00 0. -1.
          5    1    6    6  503    0  0.49152055395E+02  0.39055006535E+02 -0.27697322159E+02  0.68778265025E+02  0.47000000000E+01 0. -1.
         -5    1    6    6    0  503  0.81972590349E+03  0.31381862299E+03 -0.17224860051E+03  0.89449670506E+03  0.47000000000E+01 0.  1.
<mgrwt>
<rscale>  0 0.15875316E+04</rscale>
<asrwt>0</asrwt>
<pdfrwt beam="1">  1        1 0.22561083E+00 0.15875316E+04</pdfrwt>
<pdfrwt beam="2">  1       -1 0.27042289E+00 0.15875316E+04</pdfrwt>
<totfact> 0.33205440E-01</totfact>
</mgrwt>
</event>
<event>
12    1  0.3166324E-008  0.1430561E+04  0.7818608E-02  0.8931990E-01
         -2   -1    0    0    0  501 -0.00000000000E+00  0.00000000000E+00  0.27306743287E+04  0.27306743287E+04  0.00000000000E+00 0.  1.
          2   -1    0    0  501    0  0.00000000000E+00 -0.00000000000E+00 -0.90690544726E+03  0.90690544726E+03  0.00000000000E+00 0. -1.
         23    2    1    2    0    0 -0.14084886795E+04  0.83247752259E+02  0.24128529738E+03  0.14341803943E+04  0.88793356260E+02 0.  0.
    5000000    2    1    2    0    0  0.14084886795E+04 -0.83247752259E+02  0.15824835841E+04  0.22033993817E+04  0.59995332522E+03 0.  0.
         23    2    4    4    0    0  0.10710326456E+04 -0.20046368252E+03  0.14420412780E+04  0.18097262291E+04  0.91265332445E+02 0.  0.
         23    2    4    4    0    0  0.33745603400E+03  0.11721593026E+03  0.14044230610E+03  0.39367315258E+03  0.87397714651E+02 0.  0.
          2    1    3    3  502    0 -0.95242855467E+03  0.65445802997E+02  0.12196672062E+03  0.96243399037E+03  0.00000000000E+00 0. -1.
         -2    1    3    3    0  502 -0.45606012488E+03  0.17801949262E+02  0.11931857676E+03  0.47174640397E+03  0.00000000000E+00 0.  1.
         11    1    5    5    0    0  0.79452830190E+03 -0.11673415201E+03  0.11012042070E+04  0.13629206838E+04  0.00000000000E+00 0. -1.
        -11    1    5    5    0    0  0.27650434365E+03 -0.83729530516E+02  0.34083707099E+03  0.44680554529E+03  0.00000000000E+00 0.  1.
          5    1    6    6  503    0  0.20946259558E+03  0.84277175734E+02  0.13103206146E+03  0.26109138712E+03  0.47000000000E+01 0. -1.
         -5    1    6    6    0  503  0.12799343842E+03  0.32938754530E+02  0.94102446443E+01  0.13258176546E+03  0.47000000000E+01 0.  1.
<mgrwt>
<rscale>  0 0.14305605E+04</rscale>
<asrwt>0</asrwt>
<pdfrwt beam="1">  1        2 0.13952392E+00 0.14305605E+04</pdfrwt>
<pdfrwt beam="2">  1       -2 0.42010374E+00 0.14305605E+04</pdfrwt>
<totfact> 0.15226287E-01</totfact>
</mgrwt>
</event>
<event>
12    1  0.3166324E-008  0.1696122E+04  0.7818608E-02  0.8763579E-01
         -2   -1    0    0    0  501 -0.00000000000E+00  0.00000000000E+00  0.19103769427E+04  0.19103769427E+04  0.00000000000E+00 0. -1.
          2   -1    0    0  501    0  0.00000000000E+00 -0.00000000000E+00 -0.24409778788E+04  0.24409778788E+04  0.00000000000E+00 0.  1.
         23    2    1    2    0    0  0.10492267386E+04 -0.13137098173E+04 -0.15559764990E+04  0.22925971380E+04  0.90711295063E+02 0.  0.
    5000000    2    1    2    0    0 -0.10492267386E+04  0.13137098173E+04  0.10253755630E+04  0.20587576835E+04  0.60031485177E+03 0.  0.
         23    2    4    4    0    0 -0.90298232792E+03  0.12106863128E+04  0.67983940189E+03  0.16590184547E+04  0.94985199130E+02 0.  0.
         23    2    4    4    0    0 -0.14624441064E+03  0.10302350447E+03  0.34553616107E+03  0.39973922880E+03  0.91623917823E+02 0.  0.
          2    1    3    3  502    0  0.12993941774E+03 -0.21336411859E+03 -0.22263605496E+03  0.33462712435E+03  0.00000000000E+00 0. -1.
         -2    1    3    3    0  502  0.91928732082E+03 -0.11003456987E+04 -0.13333404440E+04  0.19579700137E+04  0.00000000000E+00 0.  1.
         13    1    5    5    0    0 -0.24496686318E+03  0.38469722748E+03  0.23566240534E+03  0.51335902659E+03  0.00000000000E+00 0. -1.
        -13    1    5    5    0    0 -0.65801546474E+03  0.82598908534E+03  0.44417699655E+03  0.11456594281E+04  0.00000000000E+00 0.  1.
          5    1    6    6  503    0 -0.42919216684E+02  0.79410958892E+02  0.11761775493E+03  0.14833807949E+03  0.47000000000E+01 0. -1.
         -5    1    6    6    0  503 -0.10332519396E+03  0.23612545574E+02  0.22791840614E+03  0.25140114930E+03  0.47000000000E+01 0.  1.
<mgrwt>
<rscale>  0 0.16961221E+04</rscale>
<asrwt>0</asrwt>
<pdfrwt beam="1">  1        2 0.37553506E+00 0.16961221E+04</pdfrwt>
<pdfrwt beam="2">  1       -2 0.29390414E+00 0.16961221E+04</pdfrwt>
<totfact> 0.11944915E-01</totfact>
</mgrwt>
</event>
<event>
12    1  0.3166324E-008  0.1130284E+04  0.7818608E-02  0.9176167E-01
         -2   -1    0    0    0  501 -0.00000000000E+00  0.00000000000E+00  0.82644683274E+03  0.82644683274E+03  0.00000000000E+00 0.  1.
          2   -1    0    0  501    0  0.00000000000E+00 -0.00000000000E+00 -0.18826899283E+04  0.18826899283E+04  0.00000000000E+00 0. -1.
         23    2    1    2    0    0  0.10494519052E+04 -0.18303281313E+03 -0.10317227548E+04  0.14856691178E+04  0.88941402382E+02 0.  0.
    5000000    2    1    2    0    0 -0.10494519052E+04  0.18303281313E+03 -0.24520340796E+02  0.12234676432E+04  0.60118342864E+03 0.  0.
         23    2    4    4    0    0 -0.13157572581E+03 -0.15039308030E+03 -0.91398289817E+02  0.24038260744E+03  0.97467432254E+02 0.  0.
         23    2    4    4    0    0 -0.91787617937E+03  0.33342589343E+03  0.66877949022E+02  0.98308503576E+03  0.91181250313E+02 0.  0.
          1    1    3    3  502    0  0.62627068392E+03 -0.10937657246E+03 -0.67566753481E+03  0.92774178613E+03  0.00000000000E+00 0. -1.
         -1    1    3    3    0  502  0.42318122126E+03 -0.73656240668E+02 -0.35605521996E+03  0.55792733172E+03  0.00000000000E+00 0.  1.
         11    1    5    5    0    0 -0.63011840846E+02 -0.17291579679E+02 -0.57114285387E+02  0.86784401881E+02  0.00000000000E+00 0. -1.
        -11    1    5    5    0    0 -0.68563884964E+02 -0.13310150062E+03 -0.34284004431E+02  0.15359820555E+03  0.00000000000E+00 0.  1.
          5    1    6    6  503    0 -0.60473077319E+03  0.17689177748E+03  0.26542174073E+02  0.63064775112E+03  0.47000000000E+01 0. -1.
         -5    1    6    6    0  503 -0.31314540617E+03  0.15653411595E+03  0.40335774948E+02  0.35243728464E+03  0.47000000000E+01 0.  1.
<mgrwt>
<rscale>  0 0.11302843E+04</rscale>
<asrwt>0</asrwt>
<pdfrwt beam="1">  1        2 0.28964460E+00 0.11302843E+04</pdfrwt>
<pdfrwt beam="2">  1       -2 0.12714567E+00 0.11302843E+04</pdfrwt>
<totfact> 0.35025967E+00</totfact>
</mgrwt>
</event>
<event>
12    1  0.3166324E-008  0.8840912E+03  0.7818608E-02  0.9445690E-01
         -1   -1    0    0    0  501 -0.00000000000E+00  0.00000000000E+00  0.44924686613E+03  0.44924686613E+03  0.00000000000E+00 0.  1.
          1   -1    0    0  501    0  0.00000000000E+00 -0.00000000000E+00 -0.22136974697E+04  0.22136974697E+04  0.00000000000E+00 0. -1.
         23    2    1    2    0    0  0.74548732861E+03 -0.35359104418E+03 -0.30800062163E+03  0.88478408945E+03  0.84855868229E+02 0.  0.
    5000000    2    1    2    0    0 -0.74548732861E+03  0.35359104418E+03 -0.14564499820E+04  0.17781602464E+04  0.59985775670E+03 0.  0.
         23    2    4    4    0    0 -0.38219043070E+03 -0.49671509091E+02 -0.29801470814E+03  0.49564596417E+03  0.91188658248E+02 0.  0.
         23    2    4    4    0    0 -0.36329689791E+03  0.40326255327E+03 -0.11584352738E+04  0.12825142822E+04  0.90913572086E+02 0.  0.
          4    1    3    3  502    0  0.39605394955E+03 -0.14651320285E+03 -0.13553481280E+03  0.44350257614E+03  0.00000000000E+00 0. -1.
         -4    1    3    3    0  502  0.34943337906E+03 -0.20707784133E+03 -0.17246580883E+03  0.44128151331E+03  0.00000000000E+00 0.  1.
         11    1    5    5    0    0 -0.33216593278E+02 -0.32524688630E+02 -0.30521358158E+02  0.55612505278E+02  0.00000000000E+00 0.  1.
        -11    1    5    5    0    0 -0.34897383742E+03 -0.17146820461E+02 -0.26749334998E+03  0.44003345889E+03  0.00000000000E+00 0. -1.
          5    1    6    6  503    0 -0.33178879054E+03  0.35435129956E+03 -0.96139957046E+03  0.10770143310E+04  0.47000000000E+01 0. -1.
         -5    1    6    6    0  503 -0.31508107365E+02  0.48911253708E+02 -0.19703570336E+03  0.20549995126E+03  0.47000000000E+01 0.  1.
<mgrwt>
<rscale>  0 0.88409117E+03</rscale>
<asrwt>0</asrwt>
<pdfrwt beam="1">  1        1 0.34056883E+00 0.88409117E+03</pdfrwt>
<pdfrwt beam="2">  1       -1 0.69114904E-01 0.88409117E+03</pdfrwt>
<totfact> 0.46555253E+00</totfact>
</mgrwt>
</event>
<event>
12    1  0.3166324E-008  0.8660196E+03  0.7818608E-02  0.9469085E-01
         -1   -1    0    0    0  501 -0.00000000000E+00  0.00000000000E+00  0.49181985856E+03  0.49181985856E+03  0.00000000000E+00 0.  1.
          1   -1    0    0  501    0  0.00000000000E+00 -0.00000000000E+00 -0.18359952223E+04  0.18359952223E+04  0.00000000000E+00 0. -1.
         23    2    1    2    0    0 -0.50209231340E+02  0.85031611838E+03 -0.55872966623E+03  0.10227847406E+04  0.91385543449E+02 0.  0.
    5000000    2    1    2    0    0  0.50209231340E+02 -0.85031611838E+03 -0.78544569747E+03  0.13050303402E+04  0.60051709152E+03 0.  0.
         23    2    4    4    0    0  0.49157245019E+02 -0.20352858893E+03  0.59395847785E+02  0.23662024666E+03  0.92849088032E+02 0.  0.
         23    2    4    4    0    0  0.10519863212E+01 -0.64678752945E+03 -0.84484154526E+03  0.10684100936E+04  0.96993177893E+02 0.  0.
          3    1    3    3  502    0  0.17912769268E+02  0.39474578028E+03 -0.28137347666E+03  0.48509394112E+03  0.00000000000E+00 0. -1.
         -3    1    3    3    0  502 -0.68122000608E+02  0.45557033810E+03 -0.27735618957E+03  0.53769079945E+03  0.00000000000E+00 0.  1.
         11    1    5    5    0    0  0.74422647606E+02 -0.12542678761E+03  0.49113667350E+02  0.15389204608E+03  0.00000000000E+00 0.  1.
        -11    1    5    5    0    0 -0.25265402588E+02 -0.78101801312E+02  0.10282180436E+02  0.82728200577E+02  0.00000000000E+00 0. -1.
          5    1    6    6  503    0  0.21586239596E+02 -0.24993296809E+03 -0.26003434514E+03  0.36134803851E+03  0.47000000000E+01 0. -1.
         -5    1    6    6    0  503 -0.20534253274E+02 -0.39685456136E+03 -0.58480720011E+03  0.70706205508E+03  0.47000000000E+01 0.  1.
<mgrwt>
<rscale>  0 0.86601963E+03</rscale>
<asrwt>0</asrwt>
<pdfrwt beam="1">  1        1 0.28246081E+00 0.86601963E+03</pdfrwt>
<pdfrwt beam="2">  1       -1 0.75664593E-01 0.86601963E+03</pdfrwt>
<totfact> 0.69414636E+00</totfact>
</mgrwt>
</event>
<event>
12    1  0.3166324E-008  0.1032535E+04  0.7818608E-02  0.9273563E-01
          2   -1    0    0  501    0  0.00000000000E+00  0.00000000000E+00  0.17467873094E+04  0.17467873094E+04  0.00000000000E+00 0. -1.
         -2   -1    0    0    0  501 -0.00000000000E+00 -0.00000000000E+00 -0.73084813701E+03  0.73084813701E+03  0.00000000000E+00 0.  1.
         23    2    1    2    0    0 -0.66924772167E+03 -0.78079180179E+03  0.69461390701E+03  0.12442790148E+04  0.90628009546E+02 0.  0.
    5000000    2    1    2    0    0  0.66924772167E+03  0.78079180179E+03  0.32132526537E+03  0.12333564316E+04  0.60032475423E+03 0.  0.
         23    2    4    4    0    0  0.51285908275E+03  0.62091195203E+03  0.47987204828E+03  0.94202013874E+03  0.92567100785E+02 0.  0.
         23    2    4    4    0    0  0.15638863892E+03  0.15987984976E+03 -0.15854678290E+03  0.29133629287E+03  0.98594018238E+02 0.  0.
          1    1    3    3  502    0 -0.50700457975E+03 -0.64643915943E+03  0.54419214241E+03  0.98543509101E+03  0.00000000000E+00 0. -1.
         -1    1    3    3    0  502 -0.16224314192E+03 -0.13435264236E+03  0.15042176460E+03  0.25884392377E+03  0.00000000000E+00 0.  1.
         11    1    5    5    0    0  0.18807608571E+03  0.18462269255E+03  0.19637799142E+03  0.32866771690E+03  0.00000000000E+00 0. -1.
        -11    1    5    5    0    0  0.32478299703E+03  0.43628925948E+03  0.28349405686E+03  0.61335242184E+03  0.00000000000E+00 0.  1.
          5    1    6    6  503    0  0.12606390526E+02  0.58855163241E+01 -0.54251776819E+02  0.56204142841E+02  0.47000000000E+01 0. -1.
         -5    1    6    6    0  503  0.14378224840E+03  0.15399433343E+03 -0.10429500609E+03  0.23513215003E+03  0.47000000000E+01 0.  1.
<mgrwt>
<rscale>  0 0.10325353E+04</rscale>
<asrwt>0</asrwt>
<pdfrwt beam="1">  1        2 0.26873651E+00 0.10325353E+04</pdfrwt>
<pdfrwt beam="2">  1       -2 0.11243818E+00 0.10325353E+04</pdfrwt>
<totfact> 0.57133927E+00</totfact>
</mgrwt>
</event>
<event>
12    1  0.3166324E-008  0.2006683E+04  0.7818608E-02  0.8603503E-01
          1   -1    0    0  501    0  0.00000000000E+00  0.00000000000E+00  0.34089769322E+04  0.34089769322E+04  0.00000000000E+00 0. -1.
         -1   -1    0    0    0  501 -0.00000000000E+00 -0.00000000000E+00 -0.12021761696E+04  0.12021761696E+04  0.00000000000E+00 0.  1.
         23    2    1    2    0    0  0.19472709388E+04 -0.35193504097E+03  0.11032613298E+04  0.22673567068E+04  0.89434287852E+02 0.  0.
    5000000    2    1    2    0    0 -0.19472709388E+04  0.35193504097E+03  0.11035394328E+04  0.23437963950E+04  0.59988322111E+03 0.  0.
         23    2    4    4    0    0 -0.13907550773E+04  0.39991044560E+02  0.93619996996E+03  0.16795313385E+04  0.92499538339E+02 0.  0.
         23    2    4    4    0    0 -0.55651586155E+03  0.31194399641E+03  0.16733946289E+03  0.66426505648E+03  0.78908861175E+02 0.  0.
          4    1    3    3  502    0  0.10213516275E+03 -0.64840034876E+01  0.75938529292E+02  0.12743741210E+03  0.00000000000E+00 0. -1.
         -4    1    3    3    0  502  0.18451357761E+04 -0.34545103748E+03  0.10273228005E+04  0.21399192947E+04  0.00000000000E+00 0.  1.
         13    1    5    5    0    0 -0.12206298003E+04  0.38050396029E+02  0.78374739739E+03  0.14510840517E+04  0.00000000000E+00 0. -1.
        -13    1    5    5    0    0 -0.17012527698E+03  0.19406485310E+01  0.15245257257E+03  0.22844728685E+03  0.00000000000E+00 0.  1.
          5    1    6    6  503    0 -0.39070358178E+03  0.17848045505E+03  0.12248475484E+03  0.44668687782E+03  0.47000000000E+01 0. -1.
         -5    1    6    6    0  503 -0.16581227977E+03  0.13346354136E+03  0.44854708047E+02  0.21757817866E+03  0.47000000000E+01 0.  1.
<mgrwt>
<rscale>  0 0.20066827E+04</rscale>
<asrwt>0</asrwt>
<pdfrwt beam="1">  1        1 0.52445798E+00 0.20066827E+04</pdfrwt>
<pdfrwt beam="2">  1       -1 0.18495018E+00 0.20066827E+04</pdfrwt>
<totfact> 0.50608083E-02</totfact>
</mgrwt>
</event>
<event>
12    1  0.3166324E-008  0.4229058E+03  0.7818608E-02  0.1036125E+00
         -2   -1    0    0    0  501 -0.00000000000E+00  0.00000000000E+00  0.23589550377E+03  0.23589550377E+03  0.00000000000E+00 0.  1.
          2   -1    0    0  501    0  0.00000000000E+00 -0.00000000000E+00 -0.11759298378E+04  0.11759298378E+04  0.00000000000E+00 0. -1.
         23    2    1    2    0    0 -0.17135365205E+03  0.23353900622E+03 -0.57930628195E+03  0.65412711780E+03  0.91564056484E+02 0.  0.
    5000000    2    1    2    0    0  0.17135365205E+03 -0.23353900622E+03 -0.36072805205E+03  0.75769822374E+03  0.60006610405E+03 0.  0.
         23    2    4    4    0    0 -0.78831803166E+02 -0.26817924444E+03  0.16851272169E+02  0.29482429667E+03  0.92210846393E+02 0.  0.
         23    2    4    4    0    0  0.25018545521E+03  0.34640238222E+02 -0.37757932422E+03  0.46287392707E+03  0.88844910834E+02 0.  0.
          3    1    3    3  502    0 -0.61135129045E+02  0.25772496266E+02 -0.16288510146E+03  0.17587859974E+03  0.00000000000E+00 0. -1.
         -3    1    3    3    0  502 -0.11021852300E+03  0.20776650996E+03 -0.41642118049E+03  0.47824851807E+03  0.00000000000E+00 0.  1.
         13    1    5    5    0    0 -0.20624555924E+02 -0.11726328683E+03 -0.36448096685E+02  0.12451712532E+03  0.00000000000E+00 0. -1.
        -13    1    5    5    0    0 -0.58207247242E+02 -0.15091595761E+03  0.53299368854E+02  0.17030717135E+03  0.00000000000E+00 0.  1.
          5    1    6    6  503    0  0.42206095939E+02 -0.22037061283E+02 -0.40250724025E+02  0.62523574666E+02  0.47000000000E+01 0. -1.
         -5    1    6    6    0  503  0.20797935927E+03  0.56677299505E+02 -0.33732860019E+03  0.40035035240E+03  0.47000000000E+01 0.  1.
<mgrwt>
<rscale>  0 0.42290575E+03</rscale>
<asrwt>0</asrwt>
<pdfrwt beam="1">  1        2 0.18091229E+00 0.42290575E+03</pdfrwt>
<pdfrwt beam="2">  1       -2 0.36291615E-01 0.42290575E+03</pdfrwt>
<totfact> 0.14618892E+02</totfact>
</mgrwt>
</event>
<event>
12    1  0.3166324E-008  0.6954857E+03  0.7818608E-02  0.9724984E-01
         -2   -1    0    0    0  501 -0.00000000000E+00  0.00000000000E+00  0.40630389588E+03  0.40630389588E+03  0.00000000000E+00 0.  1.
          2   -1    0    0  501    0  0.00000000000E+00 -0.00000000000E+00 -0.14214724233E+04  0.14214724233E+04  0.00000000000E+00 0. -1.
         23    2    1    2    0    0 -0.55588219866E+03 -0.13403038897E+03 -0.76842027271E+03  0.96298645428E+03  0.99519001486E+02 0.  0.
    5000000    2    1    2    0    0  0.55588219866E+03  0.13403038897E+03 -0.24674825475E+03  0.86478986494E+03  0.60000637108E+03 0.  0.
         23    2    4    4    0    0  0.63270702089E+03 -0.10205373093E+02 -0.22107698304E+03  0.67672025609E+03  0.93021226902E+02 0.  0.
         23    2    4    4    0    0 -0.76824822233E+02  0.14423576207E+03 -0.25671271714E+02  0.18806960885E+03  0.89471532967E+02 0.  0.
          1    1    3    3  502    0 -0.30099805925E+03 -0.11833975491E+03 -0.46478970197E+03  0.56624517333E+03  0.00000000000E+00 0. -1.
         -1    1    3    3    0  502 -0.25488413940E+03 -0.15690634066E+02 -0.30363057074E+03  0.39674128095E+03  0.00000000000E+00 0.  1.
         11    1    5    5    0    0  0.35654651902E+03 -0.41222125266E+02 -0.15569280594E+03  0.39123513858E+03  0.00000000000E+00 0.  1.
        -11    1    5    5    0    0  0.27616050187E+03  0.31016752173E+02 -0.65384177103E+02  0.28548511752E+03  0.00000000000E+00 0. -1.
          5    1    6    6  503    0  0.67235514433E+01  0.44131392371E+02  0.20925351553E+02  0.49525208472E+02  0.47000000000E+01 0. -1.
         -5    1    6    6    0  503 -0.83548373676E+02  0.10010436970E+03 -0.46596623267E+02  0.13854440038E+03  0.47000000000E+01 0.  1.
<mgrwt>
<rscale>  0 0.69548571E+03</rscale>
<asrwt>0</asrwt>
<pdfrwt beam="1">  1        2 0.21868806E+00 0.69548571E+03</pdfrwt>
<pdfrwt beam="2">  1       -2 0.62508292E-01 0.69548571E+03</pdfrwt>
<totfact> 0.34331651E+01</totfact>
</mgrwt>
</event>
<event>
12    1  0.3166324E-008  0.6402840E+03  0.7818608E-02  0.9825183E-01
          1   -1    0    0  501    0  0.00000000000E+00  0.00000000000E+00  0.13683415192E+04  0.13683415192E+04  0.00000000000E+00 0. -1.
         -1   -1    0    0    0  501 -0.00000000000E+00 -0.00000000000E+00 -0.36765782324E+03  0.36765782324E+03  0.00000000000E+00 0.  1.
         23    2    1    2    0    0 -0.44480338301E+03  0.28049228995E+03  0.11901490623E+03  0.54695530943E+03  0.92030366492E+02 0.  0.
    5000000    2    1    2    0    0  0.44480338301E+03 -0.28049228995E+03  0.88166878975E+03  0.11890440330E+04  0.59996656857E+03 0.  0.
         23    2    4    4    0    0  0.51309934856E+03 -0.34394046326E+03  0.55276346171E+03  0.83384236079E+03  0.90441441205E+02 0.  0.
         23    2    4    4    0    0 -0.68295965552E+02  0.63448173316E+02  0.32890532804E+03  0.35520167224E+03  0.96433933534E+02 0.  0.
          1    1    3    3  502    0 -0.31018832947E+03  0.14604761220E+03  0.90332897277E+02  0.35455145903E+03  0.00000000000E+00 0. -1.
         -1    1    3    3    0  502 -0.13461505354E+03  0.13444467774E+03  0.28682008955E+02  0.19240385040E+03  0.00000000000E+00 0.  1.
         13    1    5    5    0    0  0.27844981607E+03 -0.13829002983E+03  0.24815263225E+03  0.39779160538E+03  0.00000000000E+00 0. -1.
        -13    1    5    5    0    0  0.23464953249E+03 -0.20565043343E+03  0.30461082946E+03  0.43605075541E+03  0.00000000000E+00 0.  1.
          5    1    6    6  503    0 -0.19416998422E+01  0.57543770195E+02  0.21993966463E+03  0.22739965208E+03  0.47000000000E+01 0. -1.
         -5    1    6    6    0  503 -0.66354265710E+02  0.59044031212E+01  0.10896566341E+03  0.12780202016E+03  0.47000000000E+01 0.  1.
<mgrwt>
<rscale>  0 0.64028397E+03</rscale>
<asrwt>0</asrwt>
<pdfrwt beam="1">  1        1 0.21051408E+00 0.64028397E+03</pdfrwt>
<pdfrwt beam="2">  1       -1 0.56562743E-01 0.64028397E+03</pdfrwt>
<totfact> 0.26775680E+01</totfact>
</mgrwt>
</event>
<event>
12    1  0.3166324E-008  0.5048612E+03  0.7818608E-02  0.1012518E+00
         -1   -1    0    0    0  501 -0.00000000000E+00  0.00000000000E+00  0.14791303635E+03  0.14791303635E+03  0.00000000000E+00 0.  1.
          1   -1    0    0  501    0  0.00000000000E+00 -0.00000000000E+00 -0.21452479383E+04  0.21452479383E+04  0.00000000000E+00 0. -1.
         23    2    1    2    0    0 -0.38099920795E+03 -0.32363547317E+02 -0.50614638504E+03  0.64094290086E+03  0.91737906115E+02 0.  0.
    5000000    2    1    2    0    0  0.38099920795E+03  0.32363547317E+02 -0.14911885169E+04  0.16522180738E+04  0.59997797854E+03 0.  0.
         23    2    4    4    0    0  0.28302087597E+03  0.24892120138E+03 -0.12224869510E+04  0.12831060482E+04  0.99117126842E+02 0.  0.
         23    2    4    4    0    0  0.97978331975E+02 -0.21655765406E+03 -0.26870156591E+03  0.36911202559E+03  0.86868779437E+02 0.  0.
          2    1    3    3  502    0 -0.17514150466E+03  0.29365660548E+01 -0.30053334122E+03  0.34785551492E+03  0.00000000000E+00 0.  1.
         -2    1    3    3    0  502 -0.20585770329E+03 -0.35300113372E+02 -0.20561304382E+03  0.29308738594E+03  0.00000000000E+00 0. -1.
         13    1    5    5    0    0  0.10204009224E+03  0.13393836091E+03 -0.65991549644E+03  0.68105809399E+03  0.00000000000E+00 0. -1.
        -13    1    5    5    0    0  0.18098078374E+03  0.11498284047E+03 -0.56257145452E+03  0.60204795417E+03  0.00000000000E+00 0.  1.
          5    1    6    6  503    0  0.48953402371E+02 -0.16245083156E+03 -0.23143406392E+03  0.28700265542E+03  0.47000000000E+01 0. -1.
         -5    1    6    6    0  503  0.49024929605E+02 -0.54106822509E+02 -0.37267501995E+02  0.82109370170E+02  0.47000000000E+01 0.  1.
<mgrwt>
<rscale>  0 0.50486119E+03</rscale>
<asrwt>0</asrwt>
<pdfrwt beam="1">  1        1 0.33003813E+00 0.50486119E+03</pdfrwt>
<pdfrwt beam="2">  1       -1 0.22755853E-01 0.50486119E+03</pdfrwt>
<totfact> 0.42028165E+01</totfact>
</mgrwt>
</event>
<event>
12    1  0.3166324E-008  0.9596411E+03  0.7818608E-02  0.9353952E-01
          1   -1    0    0  501    0  0.00000000000E+00  0.00000000000E+00  0.12902971443E+04  0.12902971443E+04  0.00000000000E+00 0. -1.
         -1   -1    0    0    0  501 -0.00000000000E+00 -0.00000000000E+00 -0.83733771203E+03  0.83733771203E+03  0.00000000000E+00 0.  1.
         23    2    1    2    0    0  0.84390113005E+03 -0.38886346783E+03  0.41408776647E+03  0.10207589034E+04  0.84238628981E+02 0.  0.
    5000000    2    1    2    0    0 -0.84390113005E+03  0.38886346783E+03  0.38871665771E+02  0.11068759529E+04  0.60023283382E+03 0.  0.
         23    2    4    4    0    0 -0.75607984161E+03  0.20862337043E+03  0.22394063997E+03  0.82059415078E+03  0.89693436118E+02 0.  0.
         23    2    4    4    0    0 -0.87821288437E+02  0.18024009740E+03 -0.18506897420E+03  0.28628180212E+03  0.86646832611E+02 0.  0.
          4    1    3    3  502    0  0.51413614571E+03 -0.20403369619E+03  0.21450353746E+03  0.59327691097E+03  0.00000000000E+00 0. -1.
         -4    1    3    3    0  502  0.32976498434E+03 -0.18482977164E+03  0.19958422901E+03  0.42748199243E+03  0.00000000000E+00 0.  1.
         13    1    5    5    0    0 -0.40107191406E+03  0.78482826498E+02  0.82678784494E+02  0.41695805030E+03  0.00000000000E+00 0.  1.
        -13    1    5    5    0    0 -0.35500792755E+03  0.13014054393E+03  0.14126185547E+03  0.40363610048E+03  0.00000000000E+00 0. -1.
          5    1    6    6  503    0 -0.63604580955E+02  0.11385742139E+03 -0.62437080867E+02  0.14467043303E+03  0.47000000000E+01 0. -1.
         -5    1    6    6    0  503 -0.24216707482E+02  0.66382676005E+02 -0.12263189333E+03  0.14161136909E+03  0.47000000000E+01 0.  1.
<mgrwt>
<rscale>  0 0.95964113E+03</rscale>
<asrwt>0</asrwt>
<pdfrwt beam="1">  1        1 0.19850725E+00 0.95964113E+03</pdfrwt>
<pdfrwt beam="2">  1       -1 0.12882119E+00 0.95964113E+03</pdfrwt>
<totfact> 0.48119592E+00</totfact>
</mgrwt>
</event>
<event>
12    1  0.3166324E-008  0.3472170E+03  0.7818608E-02  0.1063763E+00
         -2   -1    0    0    0  501 -0.00000000000E+00  0.00000000000E+00  0.33933358080E+03  0.33933358080E+03  0.00000000000E+00 0.  1.
          2   -1    0    0  501    0  0.00000000000E+00 -0.00000000000E+00 -0.18640261442E+04  0.18640261442E+04  0.00000000000E+00 0. -1.
         23    2    1    2    0    0 -0.14186970033E+03  0.24406872147E+03  0.19863664536E+03  0.35686188644E+03  0.90539143156E+02 0.  0.
    5000000    2    1    2    0    0  0.14186970033E+03 -0.24406872147E+03 -0.17233292088E+04  0.18464978386E+04  0.59999512779E+03 0.  0.
         23    2    4    4    0    0 -0.81114248008E+02 -0.78439560547E+02 -0.58734259171E+02  0.15649827503E+03  0.91157616235E+02 0.  0.
         23    2    4    4    0    0  0.22298394834E+03 -0.16562916092E+03 -0.16645949496E+04  0.16899995635E+04  0.89818251953E+02 0.  0.
          3    1    3    3  502    0 -0.52600024942E+02  0.45337249861E+02  0.89246250524E+02  0.11308015777E+03  0.00000000000E+00 0. -1.
         -3    1    3    3    0  502 -0.89269675393E+02  0.19873147161E+03  0.10939039484E+03  0.24378172867E+03  0.00000000000E+00 0.  1.
         13    1    5    5    0    0 -0.85925727265E+02 -0.61047513420E+02 -0.77221152965E+02  0.13066421073E+03  0.00000000000E+00 0.  1.
        -13    1    5    5    0    0  0.48114792572E+01 -0.17392047127E+02  0.18486893794E+02  0.25834064296E+02  0.00000000000E+00 0. -1.
          5    1    6    6  503    0  0.16577571726E+03 -0.89854095834E+02 -0.90258970116E+03  0.92208763446E+03  0.47000000000E+01 0. -1.
         -5    1    6    6    0  503  0.57208231083E+02 -0.75775065091E+02 -0.76200524842E+03  0.76791192907E+03  0.47000000000E+01 0.  1.
<mgrwt>
<rscale>  0 0.34721697E+03</rscale>
<asrwt>0</asrwt>
<pdfrwt beam="1">  1        2 0.28677326E+00 0.34721697E+03</pdfrwt>
<pdfrwt beam="2">  1       -2 0.52205166E-01 0.34721697E+03</pdfrwt>
<totfact> 0.30559727E+01</totfact>
</mgrwt>
</event>
<event>
12    1  0.3166324E-008  0.1260651E+04  0.7818608E-02  0.9061365E-01
          2   -1    0    0  501    0  0.00000000000E+00  0.00000000000E+00  0.39732684218E+04  0.39732684218E+04  0.00000000000E+00 0. -1.
         -2   -1    0    0    0  501 -0.00000000000E+00 -0.00000000000E+00 -0.49310971207E+03  0.49310971207E+03  0.00000000000E+00 0.  1.
         23    2    1    2    0    0 -0.87946964180E+03 -0.81507207610E+03  0.72888615530E+03  0.14056807877E+04  0.82789549637E+02 0.  0.
    5000000    2    1    2    0    0  0.87946964180E+03  0.81507207610E+03  0.27512725545E+04  0.30606973462E+04  0.60046501633E+03 0.  0.
         23    2    4    4    0    0  0.59363824806E+03  0.19570394794E+03  0.10491461331E+04  0.12247233296E+04  0.92375433802E+02 0.  0.
         23    2    4    4    0    0  0.28583139374E+03  0.61936812816E+03  0.17021264214E+04  0.18359740166E+04  0.90828251296E+02 0.  0.
          1    1    3    3  502    0 -0.77875179971E+03 -0.75457005915E+03  0.66273857782E+03  0.12708472616E+04  0.00000000000E+00 0. -1.
         -1    1    3    3    0  502 -0.10071784209E+03 -0.60502016949E+02  0.66147577482E+02  0.13483352616E+03  0.00000000000E+00 0.  1.
         11    1    5    5    0    0  0.26185608169E+03  0.13392898356E+03  0.50582506404E+03  0.58511928319E+03  0.00000000000E+00 0.  1.
        -11    1    5    5    0    0  0.33178216637E+03  0.61774964377E+02  0.54332106902E+03  0.63960404642E+03  0.00000000000E+00 0. -1.
          5    1    6    6  503    0  0.21685114139E+03  0.36819509362E+03  0.10841083770E+04  0.11652918551E+04  0.47000000000E+01 0. -1.
         -5    1    6    6    0  503  0.68980252341E+02  0.25117303454E+03  0.61801804442E+03  0.67068216148E+03  0.47000000000E+01 0.  1.
<mgrwt>
<rscale>  0 0.12606508E+04</rscale>
<asrwt>0</asrwt>
<pdfrwt beam="1">  1        2 0.61127204E+00 0.12606508E+04</pdfrwt>
<pdfrwt beam="2">  1       -2 0.75863035E-01 0.12606508E+04</pdfrwt>
<totfact> 0.56360872E-01</totfact>
</mgrwt>
</event>
<event>
12    1  0.3166324E-008  0.4470472E+03  0.7818608E-02  0.1028606E+00
         -1   -1    0    0    0  501 -0.00000000000E+00  0.00000000000E+00  0.53583922998E+03  0.53583922998E+03  0.00000000000E+00 0.  1.
          1   -1    0    0  501    0  0.00000000000E+00 -0.00000000000E+00 -0.40970020009E+03  0.40970020009E+03  0.00000000000E+00 0. -1.
         23    2    1    2    0    0  0.21150860294E+03  0.12512627603E+03 -0.61609522317E+02  0.26879292970E+03  0.89785476249E+02 0.  0.
    5000000    2    1    2    0    0 -0.21150860294E+03 -0.12512627603E+03  0.18774855221E+03  0.67674650038E+03  0.60195002521E+03 0.  0.
         23    2    4    4    0    0 -0.93767080378E+02  0.22723490420E+03  0.31445047444E+02  0.26407093466E+03  0.91195945483E+02 0.  0.
         23    2    4    4    0    0 -0.11774152256E+03 -0.35236118023E+03  0.15630350476E+03  0.41267556572E+03  0.88593845566E+02 0.  0.
          4    1    3    3  502    0  0.20702561737E+03  0.13744570913E+03 -0.57629098170E+02  0.25509222286E+03  0.00000000000E+00 0. -1.
         -4    1    3    3    0  502  0.44829855711E+01 -0.12319433102E+02 -0.39804241474E+01  0.13700706843E+02  0.00000000000E+00 0.  1.
         13    1    5    5    0    0 -0.10787247567E+03  0.17449897480E+03  0.99155945550E+01  0.20538909959E+03  0.00000000000E+00 0. -1.
        -13    1    5    5    0    0  0.14105395287E+02  0.52735929396E+02  0.21529452889E+02  0.58681835070E+02  0.00000000000E+00 0.  1.
          5    1    6    6  503    0 -0.44750589915E+02 -0.17940784723E+03  0.32618335375E+02  0.18781862726E+03  0.47000000000E+01 0. -1.
         -5    1    6    6    0  503 -0.72990932645E+02 -0.17295333300E+03  0.12368516939E+03  0.22485693845E+03  0.47000000000E+01 0.  1.
<mgrwt>
<rscale>  0 0.44704722E+03</rscale>
<asrwt>0</asrwt>
<pdfrwt beam="1">  1        1 0.63030800E-01 0.44704722E+03</pdfrwt>
<pdfrwt beam="2">  1       -1 0.82436805E-01 0.44704722E+03</pdfrwt>
<totfact> 0.88821329E+01</totfact>
</mgrwt>
</event>
<event>
12    1  0.3166324E-008  0.6831839E+03  0.7818608E-02  0.9746430E-01
         -2   -1    0    0    0  501 -0.00000000000E+00  0.00000000000E+00  0.52312722391E+03  0.52312722391E+03  0.00000000000E+00 0. -1.
          2   -1    0    0  501    0  0.00000000000E+00 -0.00000000000E+00 -0.13835323750E+04  0.13835323750E+04  0.00000000000E+00 0.  1.
         23    2    1    2    0    0  0.18522113219E+03  0.62570069946E+03  0.17491648968E+02  0.65916576632E+03  0.91571374286E+02 0.  0.
    5000000    2    1    2    0    0 -0.18522113219E+03 -0.62570069946E+03 -0.87789680006E+03  0.12474938326E+04  0.59977482250E+03 0.  0.
         23    2    4    4    0    0 -0.11905088383E+03 -0.58682041478E+03 -0.33456021712E+03  0.69199944868E+03  0.91659074526E+02 0.  0.
         23    2    4    4    0    0 -0.66170248358E+02 -0.38880284677E+02 -0.54333658294E+03  0.55549438392E+03  0.86424475131E+02 0.  0.
          3    1    3    3  502    0  0.81431720939E+02  0.37513645840E+03  0.45288726708E+02  0.38653532357E+03  0.00000000000E+00 0. -1.
         -3    1    3    3    0  502  0.10378941125E+03  0.25056424106E+03 -0.27797077739E+02  0.27263044275E+03  0.00000000000E+00 0.  1.
         13    1    5    5    0    0 -0.51167638711E+02 -0.12466459818E+03 -0.43405172450E+02  0.14157470920E+03  0.00000000000E+00 0.  1.
        -13    1    5    5    0    0 -0.67883245120E+02 -0.46215581661E+03 -0.29115504467E+03  0.55042473948E+03  0.00000000000E+00 0. -1.
          5    1    6    6  503    0 -0.71867652394E+02 -0.55697877266E+02 -0.50298821840E+03  0.51116186364E+03  0.47000000000E+01 0. -1.
         -5    1    6    6    0  503  0.56974040359E+01  0.16817592589E+02 -0.40348364545E+02  0.44332520284E+02  0.47000000000E+01 0.  1.
<mgrwt>
<rscale>  0 0.68318385E+03</rscale>
<asrwt>0</asrwt>
<pdfrwt beam="1">  1        2 0.21285113E+00 0.68318385E+03</pdfrwt>
<pdfrwt beam="2">  1       -2 0.80481112E-01 0.68318385E+03</pdfrwt>
<totfact> 0.20781379E+01</totfact>
</mgrwt>
</event>
<event>
12    1  0.3166324E-008  0.1793410E+04  0.7818608E-02  0.8709812E-01
         -2   -1    0    0    0  501 -0.00000000000E+00  0.00000000000E+00  0.31265752864E+04  0.31265752864E+04  0.00000000000E+00 0.  1.
          2   -1    0    0  501    0  0.00000000000E+00 -0.00000000000E+00 -0.10987965259E+04  0.10987965259E+04  0.00000000000E+00 0. -1.
         23    2    1    2    0    0 -0.15393278452E+04  0.83408988636E+03  0.49307114790E+03  0.18210973619E+04  0.89667669078E+02 0.  0.
    5000000    2    1    2    0    0  0.15393278452E+04 -0.83408988636E+03  0.15347076126E+04  0.24042744504E+04  0.59997668542E+03 0.  0.
         23    2    4    4    0    0  0.13289071029E+04 -0.88512878859E+03  0.14285662603E+04  0.21444277455E+04  0.91223543977E+02 0.  0.
         23    2    4    4    0    0  0.21042074238E+03  0.51038902229E+02  0.10614135226E+03  0.25984670493E+03  0.96811492289E+02 0.  0.
          3    1    3    3  502    0 -0.56956193810E+03  0.26469499289E+03  0.15710008154E+03  0.64741383690E+03  0.00000000000E+00 0. -1.
         -3    1    3    3    0  502 -0.96976590715E+03  0.56939489347E+03  0.33597106636E+03  0.11736835250E+04  0.00000000000E+00 0.  1.
         13    1    5    5    0    0  0.21150195105E+03 -0.18236360231E+03  0.24676299926E+03  0.37266813192E+03  0.00000000000E+00 0. -1.
        -13    1    5    5    0    0  0.11174051518E+04 -0.70276518628E+03  0.11818032610E+04  0.17717596135E+04  0.00000000000E+00 0.  1.
          5    1    6    6  503    0  0.39917136719E+01  0.26206868052E+02  0.24578067423E+02  0.36454150784E+02  0.47000000000E+01 0. -1.
         -5    1    6    6    0  503  0.20642902871E+03  0.24832034177E+02  0.81563284839E+02  0.22339255415E+03  0.47000000000E+01 0.  1.
<mgrwt>
<rscale>  0 0.17934100E+04</rscale>
<asrwt>0</asrwt>
<pdfrwt beam="1">  1        2 0.16904562E+00 0.17934100E+04</pdfrwt>
<pdfrwt beam="2">  1       -2 0.48101158E+00 0.17934100E+04</pdfrwt>
<totfact> 0.43348737E-02</totfact>
</mgrwt>
</event>
<event>
12    1  0.3166324E-008  0.8320403E+03  0.7818608E-02  0.9514764E-01
          1   -1    0    0  501    0  0.00000000000E+00  0.00000000000E+00  0.15855356183E+04  0.15855356183E+04  0.00000000000E+00 0. -1.
         -1   -1    0    0    0  501 -0.00000000000E+00 -0.00000000000E+00 -0.50416639002E+03  0.50416639002E+03  0.00000000000E+00 0.  1.
         23    2    1    2    0    0  0.23132999188E+03  0.69854602685E+03  0.14441782028E+03  0.75573363105E+03  0.93790711234E+02 0.  0.
    5000000    2    1    2    0    0 -0.23132999188E+03 -0.69854602685E+03  0.93695140805E+03  0.13339683773E+04  0.60009463742E+03 0.  0.
         23    2    4    4    0    0 -0.24588186054E+03 -0.32790338130E+02  0.36775707892E+03  0.45361223111E+03  0.94792887368E+02 0.  0.
         23    2    4    4    0    0  0.14551868652E+02 -0.66575568872E+03  0.56919432912E+03  0.88035614621E+03  0.87191547282E+02 0.  0.
          2    1    3    3  502    0  0.14979190483E+03  0.39854321845E+03  0.39370780126E+02  0.42757966515E+03  0.00000000000E+00 0. -1.
         -2    1    3    3    0  502  0.81538087049E+02  0.30000280840E+03  0.10504704016E+03  0.32815396590E+03  0.00000000000E+00 0.  1.
         11    1    5    5    0    0 -0.87492234481E+02 -0.49082332887E+02  0.97231880517E+02  0.13970685411E+03  0.00000000000E+00 0. -1.
        -11    1    5    5    0    0 -0.15838962605E+03  0.16291994757E+02  0.27052519841E+03  0.31390537700E+03  0.00000000000E+00 0.  1.
          5    1    6    6  503    0 -0.18525269865E+02 -0.18979722335E+03  0.12211069426E+03  0.22649345082E+03  0.47000000000E+01 0. -1.
         -5    1    6    6    0  503  0.33077138517E+02 -0.47595846537E+03  0.44708363486E+03  0.65386269538E+03  0.47000000000E+01 0.  1.
<mgrwt>
<rscale>  0 0.83204029E+03</rscale>
<asrwt>0</asrwt>
<pdfrwt beam="1">  1        1 0.24392855E+00 0.83204029E+03</pdfrwt>
<pdfrwt beam="2">  1       -1 0.77564061E-01 0.83204029E+03</pdfrwt>
<totfact> 0.97730494E+00</totfact>
</mgrwt>
</event>
<event>
12    1  0.3166324E-008  0.7972361E+03  0.7818608E-02  0.9564026E-01
          2   -1    0    0  501    0  0.00000000000E+00  0.00000000000E+00  0.10765553795E+04  0.10765553795E+04  0.00000000000E+00 0. -1.
         -2   -1    0    0    0  501 -0.00000000000E+00 -0.00000000000E+00 -0.79148561133E+03  0.79148561133E+03  0.00000000000E+00 0.  1.
         23    2    1    2    0    0  0.14995839905E+03  0.72710049602E+03  0.48303624494E+03  0.89329017512E+03  0.11610628879E+03 0.  0.
    5000000    2    1    2    0    0 -0.14995839905E+03 -0.72710049602E+03 -0.19796647682E+03  0.97475081566E+03  0.59982145171E+03 0.  0.
         23    2    4    4    0    0 -0.25321870646E+03 -0.63478139295E+03 -0.32834835174E+03  0.76355058425E+03  0.90164984756E+02 0.  0.
         23    2    4    4    0    0  0.10326030742E+03 -0.92319103067E+02  0.13038187492E+03  0.21120023141E+03  0.91763808571E+02 0.  0.
          3    1    3    3  502    0  0.12291397720E+03  0.40673358885E+03  0.32558507496E+03  0.53529963491E+03  0.00000000000E+00 0. -1.
         -3    1    3    3    0  502  0.27044421847E+02  0.32036690716E+03  0.15745116998E+03  0.35799054022E+03  0.00000000000E+00 0.  1.
         11    1    5    5    0    0 -0.54971673180E+02 -0.18915621539E+03 -0.55342231216E+02  0.20460870272E+03  0.00000000000E+00 0.  1.
        -11    1    5    5    0    0 -0.19824703328E+03 -0.44562517755E+03 -0.27300612052E+03  0.55894188152E+03  0.00000000000E+00 0. -1.
          5    1    6    6  503    0  0.10619325223E+03 -0.44540572696E+02  0.10875447637E+03  0.15846291543E+03  0.47000000000E+01 0. -1.
         -5    1    6    6    0  503 -0.29329448103E+01 -0.47778530371E+02  0.21627398545E+02  0.52737315987E+02  0.47000000000E+01 0.  1.
<mgrwt>
<rscale>  0 0.79723608E+03</rscale>
<asrwt>0</asrwt>
<pdfrwt beam="1">  1        2 0.16562391E+00 0.79723608E+03</pdfrwt>
<pdfrwt beam="2">  1       -2 0.12176702E+00 0.79723608E+03</pdfrwt>
<totfact> 0.11679207E+01</totfact>
</mgrwt>
</event>
<event>
12    1  0.3166324E-008  0.9313635E+03  0.7818608E-02  0.9387203E-01
         -2   -1    0    0    0  501 -0.00000000000E+00  0.00000000000E+00  0.48064350789E+03  0.48064350789E+03  0.00000000000E+00 0.  1.
          2   -1    0    0  501    0  0.00000000000E+00 -0.00000000000E+00 -0.20332230069E+04  0.20332230069E+04  0.00000000000E+00 0. -1.
         23    2    1    2    0    0  0.17678690755E+03  0.86572981276E+03 -0.52727329269E+03  0.10329666440E+04  0.90891380568E+02 0.  0.
    5000000    2    1    2    0    0 -0.17678690755E+03 -0.86572981276E+03 -0.10253062064E+04  0.14808998708E+04  0.60089091457E+03 0.  0.
         23    2    4    4    0    0 -0.65952781474E+02 -0.84881404302E+03 -0.63298846239E+03  0.10644038321E+04  0.86290644296E+02 0.  0.
         23    2    4    4    0    0 -0.11083412608E+03 -0.16915769748E+02 -0.39231774398E+03  0.41649603872E+03  0.83578653119E+02 0.  0.
          3    1    3    3  502    0  0.63548865500E+02  0.50833690742E+03 -0.27942957183E+03  0.58354584684E+03  0.00000000000E+00 0. -1.
         -3    1    3    3    0  502  0.11323804205E+03  0.35739290534E+03 -0.24784372086E+03  0.44942079717E+03  0.00000000000E+00 0.  1.
         11    1    5    5    0    0 -0.62991943506E+02 -0.73258895412E+03 -0.50805295920E+03  0.89374066149E+03  0.00000000000E+00 0.  1.
        -11    1    5    5    0    0 -0.29608379680E+01 -0.11622508889E+03 -0.12493550319E+03  0.17066317062E+03  0.00000000000E+00 0. -1.
          5    1    6    6  503    0 -0.23870274478E+02  0.17878036880E+02 -0.20288636342E+03  0.20512040529E+03  0.47000000000E+01 0. -1.
         -5    1    6    6    0  503 -0.86963851599E+02 -0.34793806628E+02 -0.18943138056E+03  0.21137563342E+03  0.47000000000E+01 0.  1.
<mgrwt>
<rscale>  0 0.93136352E+03</rscale>
<asrwt>0</asrwt>
<pdfrwt beam="1">  1        2 0.31280354E+00 0.93136352E+03</pdfrwt>
<pdfrwt beam="2">  1       -2 0.73945155E-01 0.93136352E+03</pdfrwt>
<totfact> 0.10666960E+01</totfact>
</mgrwt>
</event>
<event>
12    1  0.3166324E-008  0.5307255E+03  0.7818608E-02  0.1006056E+00
         -2   -1    0    0    0  501 -0.00000000000E+00  0.00000000000E+00  0.25873647408E+03  0.25873647408E+03  0.00000000000E+00 0.  1.
          2   -1    0    0  501    0  0.00000000000E+00 -0.00000000000E+00 -0.15441269589E+04  0.15441269589E+04  0.00000000000E+00 0. -1.
         23    2    1    2    0    0  0.26232268765E+03  0.33189933730E+03 -0.83712097782E+03  0.94264766569E+03  0.94035778074E+02 0.  0.
    5000000    2    1    2    0    0 -0.26232268765E+03 -0.33189933730E+03 -0.44826950700E+03  0.86021576729E+03  0.60004604227E+03 0.  0.
         23    2    4    4    0    0  0.75758811883E+02  0.33525606866E+02  0.65279425052E+02  0.13894190478E+03  0.90443826073E+02 0.  0.
         23    2    4    4    0    0 -0.33808149953E+03 -0.36542494416E+03 -0.51354893205E+03  0.72127386251E+03  0.93107405689E+02 0.  0.
          2    1    3    3  502    0  0.21957130828E+03  0.21077006845E+03 -0.56632818717E+03  0.64293327551E+03  0.00000000000E+00 0. -1.
         -2    1    3    3    0  502  0.42751379373E+02  0.12112926885E+03 -0.27079279065E+03  0.29971439018E+03  0.00000000000E+00 0.  1.
         13    1    5    5    0    0  0.91742095398E+02  0.79338888672E+01  0.44257220231E+02  0.10216780414E+03  0.00000000000E+00 0.  1.
        -13    1    5    5    0    0 -0.15983283516E+02  0.25591717999E+02  0.21022204821E+02  0.36774100636E+02  0.00000000000E+00 0. -1.
          5    1    6    6  503    0 -0.28452412551E+03 -0.24892635157E+03 -0.37776723707E+03  0.53446092645E+03  0.47000000000E+01 0. -1.
         -5    1    6    6    0  503 -0.53557374028E+02 -0.11649859259E+03 -0.13578169498E+03  0.18681293606E+03  0.47000000000E+01 0.  1.
<mgrwt>
<rscale>  0 0.53072553E+03</rscale>
<asrwt>0</asrwt>
<pdfrwt beam="1">  1        2 0.23755799E+00 0.53072553E+03</pdfrwt>
<pdfrwt beam="2">  1       -2 0.39805613E-01 0.53072553E+03</pdfrwt>
<totfact> 0.74934483E+01</totfact>
</mgrwt>
</event>
<event>
12    1  0.3166324E-008  0.1046119E+04  0.7818608E-02  0.9259360E-01
         -4   -1    0    0    0  501 -0.00000000000E+00  0.00000000000E+00  0.10259686587E+04  0.10259686587E+04  0.00000000000E+00 0.  1.
          4   -1    0    0  501    0  0.00000000000E+00 -0.00000000000E+00 -0.12199312628E+04  0.12199312628E+04  0.00000000000E+00 0. -1.
         23    2    1    2    0    0  0.87237128722E+03 -0.48415856303E+03  0.18823418997E+03  0.10204562928E+04  0.10226318134E+03 0.  0.
    5000000    2    1    2    0    0 -0.87237128722E+03  0.48415856303E+03 -0.38219679406E+03  0.12254436288E+04  0.60016374524E+03 0.  0.
         23    2    4    4    0    0 -0.54775357883E+02 -0.73857557862E+02  0.55091448724E+02  0.13949715943E+03  0.89269877801E+02 0.  0.
         23    2    4    4    0    0 -0.81759592933E+03  0.55801612089E+03 -0.43728824279E+03  0.10859464694E+04  0.90629091621E+02 0.  0.
          4    1    3    3  502    0  0.60351076951E+03 -0.38635112866E+03  0.14505450074E+03  0.73111780974E+03  0.00000000000E+00 0. -1.
         -4    1    3    3    0  502  0.26886051771E+03 -0.97807434370E+02  0.43179689239E+02  0.28933848303E+03  0.00000000000E+00 0.  1.
         11    1    5    5    0    0 -0.37270083074E+01  0.24892329157E+01 -0.20229487675E+02  0.20720015517E+02  0.00000000000E+00 0. -1.
        -11    1    5    5    0    0 -0.51048349576E+02 -0.76346790778E+02  0.75320936399E+02  0.11877714391E+03  0.00000000000E+00 0.  1.
          5    1    6    6  503    0 -0.37034196195E+02  0.48005816377E+02 -0.16750820394E+02  0.63077492639E+02  0.47000000000E+01 0. -1.
         -5    1    6    6    0  503 -0.78056173314E+03  0.51001030451E+03 -0.42053742239E+03  0.10228689767E+04  0.47000000000E+01 0.  1.
<mgrwt>
<rscale>  0 0.10461194E+04</rscale>
<asrwt>0</asrwt>
<pdfrwt beam="1">  1        4 0.18768173E+00 0.10461194E+04</pdfrwt>
<pdfrwt beam="2">  1       -4 0.15784133E+00 0.10461194E+04</pdfrwt>
<totfact> 0.79092303E-02</totfact>
</mgrwt>
</event>
<event>
12    1  0.3166324E-008  0.6083337E+03  0.7818608E-02  0.9888266E-01
         -2   -1    0    0    0  501 -0.00000000000E+00  0.00000000000E+00  0.16415996654E+03  0.16415996654E+03  0.00000000000E+00 0.  1.
          2   -1    0    0  501    0  0.00000000000E+00 -0.00000000000E+00 -0.28979068695E+04  0.28979068695E+04  0.00000000000E+00 0. -1.
         23    2    1    2    0    0 -0.55640433021E+01  0.51540663247E+03 -0.65876808855E+03  0.84140505892E+03  0.91170846797E+02 0.  0.
    5000000    2    1    2    0    0  0.55640433021E+01 -0.51540663247E+03 -0.20749788144E+04  0.22206617771E+04  0.60010556803E+03 0.  0.
         23    2    4    4    0    0 -0.19459596536E+03 -0.40993856966E+03 -0.17753321295E+04  0.18346938165E+04  0.91542392539E+02 0.  0.
         23    2    4    4    0    0  0.20016000866E+03 -0.10546806281E+03 -0.29964668490E+03  0.38596796062E+03  0.89418060350E+02 0.  0.
          4    1    3    3  502    0 -0.41903209661E+02  0.27819187139E+03 -0.31753986852E+03  0.42423833441E+03  0.00000000000E+00 0. -1.
         -4    1    3    3    0  502  0.36339166359E+02  0.23721476108E+03 -0.34122822004E+03  0.41716672450E+03  0.00000000000E+00 0.  1.
         11    1    5    5    0    0 -0.76540697573E+02 -0.15042713533E+03 -0.84358833058E+03  0.86030696436E+03  0.00000000000E+00 0. -1.
        -11    1    5    5    0    0 -0.11805526779E+03 -0.25951143433E+03 -0.93174379889E+03  0.97438685211E+03  0.00000000000E+00 0.  1.
          5    1    6    6  503    0  0.18360098658E+03 -0.60574626211E+02 -0.21984341517E+03  0.29279997406E+03  0.47000000000E+01 0. -1.
         -5    1    6    6    0  503  0.16559022083E+02 -0.44893436594E+02 -0.79803269727E+02  0.93167986565E+02  0.47000000000E+01 0.  1.
<mgrwt>
<rscale>  0 0.60833371E+03</rscale>
<asrwt>0</asrwt>
<pdfrwt beam="1">  1        2 0.44583180E+00 0.60833371E+03</pdfrwt>
<pdfrwt beam="2">  1       -2 0.25255381E-01 0.60833371E+03</pdfrwt>
<totfact> 0.30625953E+01</totfact>
</mgrwt>
</event>
<event>
12    1  0.3166324E-008  0.5653263E+03  0.7818608E-02  0.9980075E-01
          1   -1    0    0  501    0  0.00000000000E+00  0.00000000000E+00  0.11825253003E+04  0.11825253003E+04  0.00000000000E+00 0. -1.
         -1   -1    0    0    0  501 -0.00000000000E+00 -0.00000000000E+00 -0.41278715387E+03  0.41278715387E+03  0.00000000000E+00 0.  1.
         23    2    1    2    0    0 -0.22317558853E+03 -0.50627348024E+03  0.45010271970E+03  0.71880364625E+03  0.89252694472E+02 0.  0.
    5000000    2    1    2    0    0  0.22317558853E+03  0.50627348024E+03  0.31963542670E+03  0.87650880788E+03  0.59998391993E+03 0.  0.
         23    2    4    4    0    0  0.18269221357E+03  0.28223263110E+03 -0.12399558351E+03  0.36979888647E+03  0.91348830039E+02 0.  0.
         23    2    4    4    0    0  0.40483374964E+02  0.22404084914E+03  0.44363101020E+03  0.50670992141E+03  0.90073667104E+02 0.  0.
          3    1    3    3  502    0 -0.12545240709E+03 -0.19807000368E+03  0.15505405780E+03  0.28109036562E+03  0.00000000000E+00 0. -1.
         -3    1    3    3    0  502 -0.97723181446E+02 -0.30820347657E+03  0.29504866190E+03  0.43771328064E+03  0.00000000000E+00 0.  1.
         11    1    5    5    0    0  0.31142467998E+02  0.18200638057E+02  0.96223749423E+01  0.37332380560E+02  0.00000000000E+00 0. -1.
        -11    1    5    5    0    0  0.15154974557E+03  0.26403199304E+03 -0.13361795845E+03  0.33246650591E+03  0.00000000000E+00 0.  1.
          5    1    6    6  503    0  0.25734860500E+02  0.40767032578E+02  0.38822833605E+02  0.62076858807E+02  0.47000000000E+01 0. -1.
         -5    1    6    6    0  503  0.14748514464E+02  0.18327381656E+03  0.40480817660E+03  0.44463306260E+03  0.47000000000E+01 0.  1.
<mgrwt>
<rscale>  0 0.56532629E+03</rscale>
<asrwt>0</asrwt>
<pdfrwt beam="1">  1        1 0.18192697E+00 0.56532629E+03</pdfrwt>
<pdfrwt beam="2">  1       -1 0.63505716E-01 0.56532629E+03</pdfrwt>
<totfact> 0.29195166E+01</totfact>
</mgrwt>
</event>
<event>
12    1  0.3166324E-008  0.6436452E+03  0.7818608E-02  0.9818777E-01
          2   -1    0    0  501    0  0.00000000000E+00  0.00000000000E+00  0.13757549032E+04  0.13757549032E+04  0.00000000000E+00 0. -1.
         -2   -1    0    0    0  501 -0.00000000000E+00 -0.00000000000E+00 -0.32430612404E+03  0.32430612404E+03  0.00000000000E+00 0.  1.
         23    2    1    2    0    0 -0.48000263455E+03  0.22033580158E+03  0.44105634862E+03  0.69430462844E+03  0.92616520049E+02 0.  0.
    5000000    2    1    2    0    0  0.48000263455E+03 -0.22033580158E+03  0.61039243050E+03  0.10057563988E+04  0.60001384966E+03 0.  0.
         23    2    4    4    0    0  0.46707861244E+03 -0.37452446224E+03  0.54433992511E+03  0.81444132274E+03  0.92615933356E+02 0.  0.
         23    2    4    4    0    0  0.12924022116E+02  0.15418866066E+03  0.66052505392E+02  0.19131507601E+03  0.91089798639E+02 0.  0.
          3    1    3    3  502    0 -0.17910798710E+03  0.54550515294E+02  0.10970452301E+03  0.21700348415E+03  0.00000000000E+00 0. -1.
         -3    1    3    3    0  502 -0.30089464745E+03  0.16578528629E+03  0.33135182561E+03  0.47730114429E+03  0.00000000000E+00 0.  1.
         13    1    5    5    0    0  0.39100211110E+03 -0.33339348911E+03  0.50118576562E+03  0.71778899485E+03  0.00000000000E+00 0.  1.
        -13    1    5    5    0    0  0.76076501333E+02 -0.41130973132E+02  0.43154159487E+02  0.96652327892E+02  0.00000000000E+00 0. -1.
          5    1    6    6  503    0  0.15116612082E+02  0.66903267992E+02  0.76961929198E+02  0.10319780896E+03  0.47000000000E+01 0. -1.
         -5    1    6    6    0  503 -0.21925899657E+01  0.87285392669E+02 -0.10909423806E+02  0.88117267047E+02  0.47000000000E+01 0.  1.
<mgrwt>
<rscale>  0 0.64364523E+03</rscale>
<asrwt>0</asrwt>
<pdfrwt beam="1">  1        2 0.21165460E+00 0.64364523E+03</pdfrwt>
<pdfrwt beam="2">  1       -2 0.49893251E-01 0.64364523E+03</pdfrwt>
<totfact> 0.58547489E+01</totfact>
</mgrwt>
</event>
<event>
12    1  0.3166324E-008  0.1478313E+04  0.7818608E-02  0.8899004E-01
          1   -1    0    0  501    0  0.00000000000E+00  0.00000000000E+00  0.19714604733E+04  0.19714604733E+04  0.00000000000E+00 0. -1.
         -1   -1    0    0    0  501 -0.00000000000E+00 -0.00000000000E+00 -0.17817878953E+04  0.17817878953E+04  0.00000000000E+00 0.  1.
         23    2    1    2    0    0 -0.84526805280E+03 -0.11458335221E+04 -0.10508478042E+04  0.17719069715E+04  0.89222568378E+02 0.  0.
    5000000    2    1    2    0    0  0.84526805280E+03  0.11458335221E+04  0.12405203822E+04  0.19813413970E+04  0.59950844145E+03 0.  0.
         23    2    4    4    0    0  0.63288366071E+03  0.39121589327E+03  0.69348262519E+03  0.10212123539E+04  0.91459921156E+02 0.  0.
         23    2    4    4    0    0  0.21238439209E+03  0.75461762884E+03  0.54703775701E+03  0.96012904311E+03  0.89680410710E+02 0.  0.
          1    1    3    3  502    0 -0.31783308978E+03 -0.46028955864E+03 -0.36348303924E+03  0.66708640413E+03  0.00000000000E+00 0. -1.
         -1    1    3    3    0  502 -0.52743496302E+03 -0.68554396347E+03 -0.68736476496E+03  0.11048205674E+04  0.00000000000E+00 0.  1.
         13    1    5    5    0    0  0.56290622309E+03  0.34269081805E+03  0.64984613349E+03  0.92552709845E+03  0.00000000000E+00 0. -1.
        -13    1    5    5    0    0  0.69977437621E+02  0.48525075223E+02  0.43636491699E+02  0.95685255443E+02  0.00000000000E+00 0.  1.
          5    1    6    6  503    0  0.16705601596E+03  0.44818113689E+03  0.30928135659E+03  0.56960608447E+03  0.47000000000E+01 0. -1.
         -5    1    6    6    0  503  0.45328376128E+02  0.30643649195E+03  0.23775640042E+03  0.39052295864E+03  0.47000000000E+01 0.  1.
<mgrwt>
<rscale>  0 0.14783128E+04</rscale>
<asrwt>0</asrwt>
<pdfrwt beam="1">  1        1 0.30330161E+00 0.14783128E+04</pdfrwt>
<pdfrwt beam="2">  1       -1 0.27412122E+00 0.14783128E+04</pdfrwt>
<totfact> 0.14319398E-01</totfact>
</mgrwt>
</event>
<event>
12    1  0.3166324E-008  0.7903458E+03  0.7818608E-02  0.9574097E-01
          1   -1    0    0  501    0  0.00000000000E+00  0.00000000000E+00  0.12264125975E+04  0.12264125975E+04  0.00000000000E+00 0. -1.
         -1   -1    0    0    0  501 -0.00000000000E+00 -0.00000000000E+00 -0.95763223743E+03  0.95763223743E+03  0.00000000000E+00 0.  1.
         23    2    1    2    0    0 -0.49936252919E+03 -0.57184728818E+03 -0.52900121679E+03  0.92991329114E+03  0.92326513645E+02 0.  0.
    5000000    2    1    2    0    0  0.49936252919E+03  0.57184728818E+03  0.79778157689E+03  0.12541315438E+04  0.60001519000E+03 0.  0.
         23    2    4    4    0    0  0.73467277376E+02  0.25608887587E+03  0.62962997015E+03  0.68982534044E+03  0.91902926012E+02 0.  0.
         23    2    4    4    0    0  0.42589525181E+03  0.31575841231E+03  0.16815160675E+03  0.56430620339E+03  0.95270078587E+02 0.  0.
          4    1    3    3  502    0 -0.35991948619E+03 -0.34539351046E+03 -0.34346591418E+03  0.60564638842E+03  0.00000000000E+00 0. -1.
         -4    1    3    3    0  502 -0.13944304300E+03 -0.22645377772E+03 -0.18553530261E+03  0.32426690272E+03  0.00000000000E+00 0.  1.
         11    1    5    5    0    0  0.86416301082E+02  0.13697883856E+03  0.36849783160E+03  0.40251910663E+03  0.00000000000E+00 0. -1.
        -11    1    5    5    0    0 -0.12949023706E+02  0.11911003731E+03  0.26113213855E+03  0.28730623381E+03  0.00000000000E+00 0.  1.
          5    1    6    6  503    0  0.30610170975E+03  0.18955771500E+03  0.14713831567E+03  0.38897578069E+03  0.47000000000E+01 0. -1.
         -5    1    6    6    0  503  0.11979354206E+03  0.12620069731E+03  0.21013291075E+02  0.17533042270E+03  0.47000000000E+01 0.  1.
<mgrwt>
<rscale>  0 0.79034577E+03</rscale>
<asrwt>0</asrwt>
<pdfrwt beam="1">  1        1 0.18867886E+00 0.79034577E+03</pdfrwt>
<pdfrwt beam="2">  1       -1 0.14732804E+00 0.79034577E+03</pdfrwt>
<totfact> 0.38674709E+00</totfact>
</mgrwt>
</event>
<event>
12    1  0.3166324E-008  0.1174429E+04  0.7818608E-02  0.9135538E-01
          2   -1    0    0  501    0  0.00000000000E+00  0.00000000000E+00  0.96447154064E+03  0.96447154064E+03  0.00000000000E+00 0. -1.
         -2   -1    0    0    0  501 -0.00000000000E+00 -0.00000000000E+00 -0.20005321970E+04  0.20005321970E+04  0.00000000000E+00 0.  1.
         23    2    1    2    0    0 -0.99940096198E+03 -0.60031996409E+03  0.17228805374E+03  0.11819098051E+04  0.89673138440E+02 0.  0.
    5000000    2    1    2    0    0  0.99940096198E+03  0.60031996409E+03 -0.12083487101E+04  0.17830939326E+04  0.60010917766E+03 0.  0.
         23    2    4    4    0    0  0.32661237153E+03  0.17468454715E+03 -0.63129141351E+02  0.38590876339E+03  0.88033816928E+02 0.  0.
         23    2    4    4    0    0  0.67278859045E+03  0.42563541694E+03 -0.11452195687E+04  0.13971851692E+04  0.82392601460E+02 0.  0.
          4    1    3    3  502    0 -0.41734285376E+03 -0.19960210016E+03  0.70268337113E+02  0.46792488197E+03  0.00000000000E+00 0. -1.
         -4    1    3    3    0  502 -0.58205810822E+03 -0.40071786393E+03  0.10201971663E+03  0.71398492309E+03  0.00000000000E+00 0.  1.
         11    1    5    5    0    0  0.13561667787E+03  0.24757373101E+02 -0.25573160045E+02  0.14020983330E+03  0.00000000000E+00 0.  1.
        -11    1    5    5    0    0  0.19099569366E+03  0.14992717405E+03 -0.37555981305E+02  0.24569893009E+03  0.00000000000E+00 0. -1.
          5    1    6    6  503    0  0.41343868267E+03  0.29904606545E+03 -0.69030866361E+03  0.85843359362E+03  0.47000000000E+01 0. -1.
         -5    1    6    6    0  503  0.25934990778E+03  0.12658935149E+03 -0.45491090511E+03  0.53875157555E+03  0.47000000000E+01 0.  1.
<mgrwt>
<rscale>  0 0.11744285E+04</rscale>
<asrwt>0</asrwt>
<pdfrwt beam="1">  1        2 0.14838024E+00 0.11744285E+04</pdfrwt>
<pdfrwt beam="2">  1       -2 0.30777418E+00 0.11744285E+04</pdfrwt>
<totfact> 0.74304277E-01</totfact>
</mgrwt>
</event>
<event>
12    1  0.3166324E-008  0.4582710E+03  0.7818608E-02  0.1025284E+00
          1   -1    0    0  501    0  0.00000000000E+00  0.00000000000E+00  0.25341858624E+04  0.25341858624E+04  0.00000000000E+00 0. -1.
         -1   -1    0    0    0  501 -0.00000000000E+00 -0.00000000000E+00 -0.13798968118E+03  0.13798968118E+03  0.00000000000E+00 0.  1.
         23    2    1    2    0    0  0.99575505297E+02 -0.38587007591E+03  0.12779681110E+04  0.13420013876E+04  0.94626818865E+02 0.  0.
    5000000    2    1    2    0    0 -0.99575505297E+02  0.38587007591E+03  0.11182280702E+04  0.13301741560E+04  0.60009855147E+03 0.  0.
         23    2    4    4    0    0  0.10006126211E+03  0.21305740270E+03  0.95879499169E+02  0.27032710646E+03  0.92076886921E+02 0.  0.
         23    2    4    4    0    0 -0.19963676741E+03  0.17281267321E+03  0.10223485711E+04  0.10598470495E+04  0.91433630113E+02 0.  0.
          2    1    3    3  502    0  0.12395684468E+02 -0.19922533522E+03  0.72240816314E+03  0.74947844623E+03  0.00000000000E+00 0. -1.
         -2    1    3    3    0  502  0.87179820829E+02 -0.18664474069E+03  0.55555994785E+03  0.59252294136E+03  0.00000000000E+00 0.  1.
         13    1    5    5    0    0  0.86930755738E+02  0.21512951748E+03  0.10450819695E+03  0.25447913237E+03  0.00000000000E+00 0.  1.
        -13    1    5    5    0    0  0.13130506376E+02 -0.20721147726E+01 -0.86286977841E+01  0.15847974090E+02  0.00000000000E+00 0. -1.
          5    1    6    6  503    0 -0.13585477227E+03  0.10038500831E+03  0.79597622981E+03  0.81371611602E+03  0.47000000000E+01 0. -1.
         -5    1    6    6    0  503 -0.63781995144E+02  0.72427664902E+02  0.22637234125E+03  0.24613093351E+03  0.47000000000E+01 0.  1.
<mgrwt>
<rscale>  0 0.45827096E+03</rscale>
<asrwt>0</asrwt>
<pdfrwt beam="1">  1        1 0.38987471E+00 0.45827096E+03</pdfrwt>
<pdfrwt beam="2">  1       -1 0.21229184E-01 0.45827096E+03</pdfrwt>
<totfact> 0.26181138E+01</totfact>
</mgrwt>
</event>
<event>
12    1  0.3166324E-008  0.1492223E+04  0.7818608E-02  0.8889641E-01
          2   -1    0    0  501    0  0.00000000000E+00  0.00000000000E+00  0.25773010219E+04  0.25773010219E+04  0.00000000000E+00 0.  1.
         -2   -1    0    0    0  501 -0.00000000000E+00 -0.00000000000E+00 -0.21085831565E+04  0.21085831565E+04  0.00000000000E+00 0. -1.
         23    2    1    2    0    0 -0.69799898869E+03 -0.12898846482E+04  0.20004173283E+04  0.24820851198E+04  0.89844647240E+02 0.  0.
    5000000    2    1    2    0    0  0.69799898869E+03  0.12898846482E+04 -0.15316994628E+04  0.22037990586E+04  0.59968496111E+03 0.  0.
         23    2    4    4    0    0 -0.29501118264E+00  0.31699649617E+03 -0.59610816712E+03  0.68133598538E+03  0.91580087629E+02 0.  0.
         23    2    4    4    0    0  0.69829399987E+03  0.97288815203E+03 -0.93559129568E+03  0.15224630732E+04  0.91852437238E+02 0.  0.
          3    1    3    3  502    0 -0.30040151850E+03 -0.64409348822E+03  0.99301512762E+03  0.12211373950E+04  0.00000000000E+00 0. -1.
         -3    1    3    3    0  502 -0.39759747020E+03 -0.64579115997E+03  0.10074022006E+04  0.12609477247E+04  0.00000000000E+00 0.  1.
         13    1    5    5    0    0  0.68784482764E+01  0.34467075882E+02 -0.22082886170E+02  0.41508387491E+02  0.00000000000E+00 0.  1.
        -13    1    5    5    0    0 -0.71734594591E+01  0.28252942028E+03 -0.57402528095E+03  0.63982759789E+03  0.00000000000E+00 0. -1.
          5    1    6    6  503    0  0.54340186956E+03  0.75814228959E+03 -0.77521354545E+03  0.12128658022E+04  0.47000000000E+01 0. -1.
         -5    1    6    6    0  503  0.15489213031E+03  0.21474586244E+03 -0.16037775023E+03  0.30959727104E+03  0.47000000000E+01 0.  1.
<mgrwt>
<rscale>  0 0.14922235E+04</rscale>
<asrwt>0</asrwt>
<pdfrwt beam="1">  1        2 0.39650785E+00 0.14922235E+04</pdfrwt>
<pdfrwt beam="2">  1       -2 0.32439741E+00 0.14922235E+04</pdfrwt>
<totfact> 0.66352041E-02</totfact>
</mgrwt>
</event>
<event>
12    1  0.3166324E-008  0.9967499E+03  0.7818608E-02  0.9312117E-01
         -2   -1    0    0    0  501 -0.00000000000E+00  0.00000000000E+00  0.10190741036E+04  0.10190741036E+04  0.00000000000E+00 0.  1.
          2   -1    0    0  501    0  0.00000000000E+00 -0.00000000000E+00 -0.11332223657E+04  0.11332223657E+04  0.00000000000E+00 0. -1.
         23    2    1    2    0    0 -0.80652954231E+03 -0.50071685286E+03 -0.32905923983E+03  0.10088458443E+04  0.91009257416E+02 0.  0.
    5000000    2    1    2    0    0  0.80652954231E+03  0.50071685286E+03  0.21491097778E+03  0.11434506250E+04  0.60007110753E+03 0.  0.
         23    2    4    4    0    0  0.90011998766E+02  0.27227144935E+03  0.24134473129E+03  0.38570680987E+03  0.91041538911E+02 0.  0.
         23    2    4    4    0    0  0.71651754354E+03  0.22844540351E+03 -0.26433753513E+02  0.75774381513E+03  0.88838355757E+02 0.  0.
          1    1    3    3  502    0 -0.24811475928E+03 -0.18456581986E+03 -0.14313872680E+03  0.34075529452E+03  0.00000000000E+00 0. -1.
         -1    1    3    3    0  502 -0.55841478303E+03 -0.31615103300E+03 -0.18592051304E+03  0.66809054981E+03  0.00000000000E+00 0.  1.
         13    1    5    5    0    0  0.46816141753E+02  0.19089555024E+03  0.10990216307E+03  0.22519180198E+03  0.00000000000E+00 0. -1.
        -13    1    5    5    0    0  0.43195857013E+02  0.81375899108E+02  0.13144256822E+03  0.16051500790E+03  0.00000000000E+00 0.  1.
          5    1    6    6  503    0  0.15333674283E+03  0.71317535461E+02  0.23976847610E+02  0.17086640040E+03  0.47000000000E+01 0. -1.
         -5    1    6    6    0  503  0.56318080071E+03  0.15712786805E+03 -0.50410601123E+02  0.58687741473E+03  0.47000000000E+01 0.  1.
<mgrwt>
<rscale>  0 0.99674995E+03</rscale>
<asrwt>0</asrwt>
<pdfrwt beam="1">  1        2 0.17434190E+00 0.99674995E+03</pdfrwt>
<pdfrwt beam="2">  1       -2 0.15678063E+00 0.99674995E+03</pdfrwt>
<totfact> 0.54858766E+00</totfact>
</mgrwt>
</event>
<event>
12    1  0.3166324E-008  0.9009924E+03  0.7818608E-02  0.9424342E-01
         -3   -1    0    0    0  501 -0.00000000000E+00  0.00000000000E+00  0.20940199904E+04  0.20940199904E+04  0.00000000000E+00 0.  1.
          3   -1    0    0  501    0  0.00000000000E+00 -0.00000000000E+00 -0.42726020297E+03  0.42726020297E+03  0.00000000000E+00 0. -1.
         23    2    1    2    0    0 -0.21002920461E+03  0.80336813042E+03  0.52341307436E+03  0.98591283223E+03  0.92467543458E+02 0.  0.
    5000000    2    1    2    0    0  0.21002920461E+03 -0.80336813042E+03  0.11433467130E+04  0.15353673611E+04  0.60049863243E+03 0.  0.
         23    2    4    4    0    0  0.15679846691E+03 -0.29404455167E+01  0.39430955751E+03  0.43413687723E+03  0.91653671956E+02 0.  0.
         23    2    4    4    0    0  0.53230737695E+02 -0.80042768490E+03  0.74903715553E+03  0.11012304839E+04  0.90188292156E+02 0.  0.
          2    1    3    3  502    0 -0.17181761734E+03  0.55352233327E+03  0.32417834288E+03  0.66407820703E+03  0.00000000000E+00 0. -1.
         -2    1    3    3    0  502 -0.38211587268E+02  0.24984579715E+03  0.19923473147E+03  0.32183462520E+03  0.00000000000E+00 0.  1.
         13    1    5    5    0    0  0.53553177969E+02 -0.23243419453E+02  0.60236433635E+02  0.83884607381E+02  0.00000000000E+00 0. -1.
        -13    1    5    5    0    0  0.10324528894E+03  0.20302973936E+02  0.33407312388E+03  0.35025226985E+03  0.00000000000E+00 0.  1.
          5    1    6    6  503    0  0.69136039606E+01 -0.60866993485E+03  0.59086065497E+03  0.84833088538E+03  0.47000000000E+01 0. -1.
         -5    1    6    6    0  503  0.46317133735E+02 -0.19175775005E+03  0.15817650057E+03  0.25289959849E+03  0.47000000000E+01 0.  1.
<mgrwt>
<rscale>  0 0.90099240E+03</rscale>
<asrwt>0</asrwt>
<pdfrwt beam="1">  1        3 0.65732340E-01 0.90099240E+03</pdfrwt>
<pdfrwt beam="2">  1       -3 0.32215692E+00 0.90099240E+03</pdfrwt>
<totfact> 0.16731988E-01</totfact>
</mgrwt>
</event>
<event>
12    1  0.3166324E-008  0.1213118E+04  0.7818608E-02  0.9101451E-01
         -2   -1    0    0    0  501 -0.00000000000E+00  0.00000000000E+00  0.56012881974E+03  0.56012881974E+03  0.00000000000E+00 0.  1.
          2   -1    0    0  501    0  0.00000000000E+00 -0.00000000000E+00 -0.28522011739E+04  0.28522011739E+04  0.00000000000E+00 0. -1.
         23    2    1    2    0    0 -0.99642597314E+03  0.60999437641E+03 -0.77355748191E+03  0.14046709375E+04  0.98749205554E+02 0.  0.
    5000000    2    1    2    0    0  0.99642597314E+03 -0.60999437641E+03 -0.15185148722E+04  0.20076590562E+04  0.59987466134E+03 0.  0.
         23    2    4    4    0    0  0.23219464618E+03 -0.39668502619E+03 -0.31511705499E+03  0.56331044954E+03  0.82137327134E+02 0.  0.
         23    2    4    4    0    0  0.76423132696E+03 -0.21330935023E+03 -0.12033978173E+04  0.14443486066E+04  0.91794285367E+02 0.  0.
          3    1    3    3  502    0 -0.15694674939E+03  0.10272913239E+03 -0.82981925543E+02  0.20511352163E+03  0.00000000000E+00 0. -1.
         -3    1    3    3    0  502 -0.83947922375E+03  0.50726524402E+03 -0.69057555637E+03  0.11995574159E+04  0.00000000000E+00 0.  1.
         13    1    5    5    0    0  0.12407964383E+03 -0.16548599345E+03 -0.18171416458E+03  0.27532055799E+03  0.00000000000E+00 0. -1.
        -13    1    5    5    0    0  0.10811500235E+03 -0.23119903273E+03 -0.13340289040E+03  0.28798989155E+03  0.00000000000E+00 0.  1.
          5    1    6    6  503    0  0.20030525990E+03 -0.28961155189E+02 -0.25399906221E+03  0.32480541753E+03  0.47000000000E+01 0. -1.
         -5    1    6    6    0  503  0.56392606707E+03 -0.18434819504E+03 -0.94939875505E+03  0.11195431891E+04  0.47000000000E+01 0.  1.
<mgrwt>
<rscale>  0 0.12131182E+04</rscale>
<asrwt>0</asrwt>
<pdfrwt beam="1">  1        2 0.43880018E+00 0.12131182E+04</pdfrwt>
<pdfrwt beam="2">  1       -2 0.86173665E-01 0.12131182E+04</pdfrwt>
<totfact> 0.24813168E+00</totfact>
</mgrwt>
</event>
<event>
12    1  0.3166324E-008  0.7865192E+03  0.7818608E-02  0.9579738E-01
         -1   -1    0    0    0  501 -0.00000000000E+00  0.00000000000E+00  0.39904390940E+03  0.39904390940E+03  0.00000000000E+00 0.  1.
          1   -1    0    0  501    0  0.00000000000E+00 -0.00000000000E+00 -0.23316777832E+04  0.23316777832E+04  0.00000000000E+00 0. -1.
         23    2    1    2    0    0 -0.46143115033E+03 -0.60095949193E+03 -0.27358633698E+03  0.81062586040E+03  0.90519524608E+02 0.  0.
    5000000    2    1    2    0    0  0.46143115033E+03  0.60095949193E+03 -0.16590475368E+04  0.19200958322E+04  0.60021517636E+03 0.  0.
         23    2    4    4    0    0  0.46631131582E+03  0.51298743418E+03 -0.16531398249E+04  0.17949217887E+04  0.90942816501E+02 0.  0.
         23    2    4    4    0    0 -0.48801654937E+01  0.87972057757E+02 -0.59077118912E+01  0.12517404350E+03  0.88717197571E+02 0.  0.
          2    1    3    3  502    0 -0.30547072256E+03 -0.46379461190E+03 -0.20117770436E+03  0.59066934329E+03  0.00000000000E+00 0. -1.
         -2    1    3    3    0  502 -0.15596042776E+03 -0.13716488003E+03 -0.72408632617E+02  0.21995651711E+03  0.00000000000E+00 0.  1.
         11    1    5    5    0    0  0.40538020753E+03  0.41394546946E+03 -0.13038065677E+04  0.14267429797E+04  0.00000000000E+00 0.  1.
        -11    1    5    5    0    0  0.60931108286E+02  0.99041964717E+02 -0.34933325728E+03  0.36817880897E+03  0.00000000000E+00 0. -1.
          5    1    6    6  503    0 -0.13150556190E+02 -0.91754419203E+01  0.18119596261E+02  0.24648237892E+02  0.47000000000E+01 0. -1.
         -5    1    6    6    0  503  0.82703906958E+01  0.97147499678E+02 -0.24027308152E+02  0.10052580561E+03  0.47000000000E+01 0.  1.
<mgrwt>
<rscale>  0 0.78651917E+03</rscale>
<asrwt>0</asrwt>
<pdfrwt beam="1">  1        1 0.35871966E+00 0.78651917E+03</pdfrwt>
<pdfrwt beam="2">  1       -1 0.61391370E-01 0.78651917E+03</pdfrwt>
<totfact> 0.49974806E+00</totfact>
</mgrwt>
</event>
<event>
12    1  0.3166324E-008  0.3101737E+03  0.7818608E-02  0.1080263E+00
          1   -1    0    0  501    0  0.00000000000E+00  0.00000000000E+00  0.40408431068E+03  0.40408431068E+03  0.00000000000E+00 0. -1.
         -1   -1    0    0    0  501 -0.00000000000E+00 -0.00000000000E+00 -0.95545145449E+03  0.95545145449E+03  0.00000000000E+00 0.  1.
         23    2    1    2    0    0 -0.20913998771E+03 -0.81855777537E+01 -0.67430170196E+03  0.71217517175E+03  0.93296044146E+02 0.  0.
    5000000    2    1    2    0    0  0.20913998771E+03  0.81855777537E+01  0.12293455815E+03  0.64736059341E+03  0.60013023101E+03 0.  0.
         23    2    4    4    0    0  0.19358842570E+03 -0.14051727397E+03  0.30227999647E+03  0.39634634513E+03  0.92171829688E+02 0.  0.
         23    2    4    4    0    0  0.15551562010E+02  0.14870285172E+03 -0.17934543831E+03  0.25101424828E+03  0.92135646770E+02 0.  0.
          4    1    3    3  502    0 -0.10594464325E+03 -0.17820053211E+02 -0.20368859823E+03  0.23028431726E+03  0.00000000000E+00 0. -1.
         -4    1    3    3    0  502 -0.10319534446E+03  0.96344754576E+01 -0.47061310373E+03  0.48189085449E+03  0.00000000000E+00 0.  1.
         11    1    5    5    0    0  0.77837028232E+01 -0.68756059374E+01  0.68131372225E+02  0.68918385558E+02  0.00000000000E+00 0. -1.
        -11    1    5    5    0    0  0.18580472287E+03 -0.13364166803E+03  0.23414862424E+03  0.32742795957E+03  0.00000000000E+00 0.  1.
          5    1    6    6  503    0  0.48201257528E+02  0.75203962646E+02 -0.62630657713E+02  0.10919563412E+03  0.47000000000E+01 0. -1.
         -5    1    6    6    0  503 -0.32649695518E+02  0.73498889077E+02 -0.11671478060E+03  0.14181861416E+03  0.47000000000E+01 0.  1.
<mgrwt>
<rscale>  0 0.31017370E+03</rscale>
<asrwt>0</asrwt>
<pdfrwt beam="1">  1        1 0.62166817E-01 0.31017370E+03</pdfrwt>
<pdfrwt beam="2">  1       -1 0.14699253E+00 0.31017370E+03</pdfrwt>
<totfact> 0.23918793E+01</totfact>
</mgrwt>
</event>
<event>
12    1  0.3166324E-008  0.4486911E+03  0.7818608E-02  0.1028113E+00
          2   -1    0    0  501    0  0.00000000000E+00  0.00000000000E+00  0.30562101652E+03  0.30562101652E+03  0.00000000000E+00 0. -1.
         -2   -1    0    0    0  501 -0.00000000000E+00 -0.00000000000E+00 -0.10006464111E+04  0.10006464111E+04  0.00000000000E+00 0.  1.
         23    2    1    2    0    0 -0.37853273454E+03 -0.53330801265E+02 -0.28218868191E+03  0.48369445424E+03  0.90546492978E+02 0.  0.
    5000000    2    1    2    0    0  0.37853273454E+03  0.53330801265E+02 -0.41283671272E+03  0.82257297343E+03  0.60005078099E+03 0.  0.
         23    2    4    4    0    0  0.15569838320E+03  0.18760001685E+03  0.67567820583E+02  0.26874829302E+03  0.90688928585E+02 0.  0.
         23    2    4    4    0    0  0.22283435134E+03 -0.13426921559E+03 -0.48040453330E+03  0.55382468041E+03  0.90828908558E+02 0.  0.
          1    1    3    3  502    0 -0.18726466583E+03 -0.58306402870E+02 -0.10289523280E+03  0.22148390600E+03  0.00000000000E+00 0. -1.
         -1    1    3    3    0  502 -0.19126806870E+03  0.49756016048E+01 -0.17929344910E+03  0.26221054824E+03  0.00000000000E+00 0.  1.
         13    1    5    5    0    0  0.73649806416E+02  0.12964238026E+03  0.26166225427E+01  0.14912507321E+03  0.00000000000E+00 0.  1.
        -13    1    5    5    0    0  0.82048576783E+02  0.57957636589E+02  0.64951198040E+02  0.11962321981E+03  0.00000000000E+00 0. -1.
          5    1    6    6  503    0  0.14174045736E+03 -0.83668195588E+02 -0.38480555845E+03  0.41855481364E+03  0.47000000000E+01 0. -1.
         -5    1    6    6    0  503  0.81093893976E+02 -0.50601019998E+02 -0.95598974852E+02  0.13526986678E+03  0.47000000000E+01 0. -1.
<mgrwt>
<rscale>  0 0.44869107E+03</rscale>
<asrwt>0</asrwt>
<pdfrwt beam="1">  1        2 0.47018618E-01 0.44869107E+03</pdfrwt>
<pdfrwt beam="2">  1       -2 0.15394560E+00 0.44869107E+03</pdfrwt>
<totfact> 0.31260006E+01</totfact>
</mgrwt>
</event>
<event>
12    1  0.3166324E-008  0.5800333E+03  0.7818608E-02  0.9947719E-01
         -1   -1    0    0    0  501 -0.00000000000E+00  0.00000000000E+00  0.50748292187E+03  0.50748292187E+03  0.00000000000E+00 0.  1.
          1   -1    0    0  501    0  0.00000000000E+00 -0.00000000000E+00 -0.71126757636E+03  0.71126757636E+03  0.00000000000E+00 0. -1.
         23    2    1    2    0    0  0.22162663377E+03 -0.38097697044E+03 -0.14072225980E+03  0.47166524074E+03  0.91670759321E+02 0.  0.
    5000000    2    1    2    0    0 -0.22162663377E+03  0.38097697044E+03 -0.63062394690E+02  0.74708525749E+03  0.59991474356E+03 0.  0.
         23    2    4    4    0    0  0.13907058853E+03 -0.51332223623E+02 -0.75944393567E+00  0.17356074039E+03  0.90261442896E+02 0.  0.
         23    2    4    4    0    0 -0.36069722230E+03  0.43230919406E+03 -0.62302950754E+02  0.57352451711E+03  0.89749588338E+02 0.  0.
          3    1    3    3  502    0  0.15554792508E+03 -0.30391643390E+03 -0.14295045952E+03  0.37012861233E+03  0.00000000000E+00 0. -1.
         -3    1    3    3    0  502  0.66078708688E+02 -0.77060536540E+02  0.22281997152E+01  0.10153662840E+03  0.00000000000E+00 0.  1.
         13    1    5    5    0    0  0.18167012949E+02  0.45598647947E+01  0.31375889994E+02  0.36541472320E+02  0.00000000000E+00 0. -1.
        -13    1    5    5    0    0  0.12090357558E+03 -0.55892088418E+02 -0.32135333929E+02  0.13701926807E+03  0.00000000000E+00 0.  1.
          5    1    6    6  503    0 -0.27087158312E+02  0.55424838715E+02  0.16533708355E+02  0.64039678357E+02  0.47000000000E+01 0. -1.
         -5    1    6    6    0  503 -0.33361006398E+03  0.37688435535E+03 -0.78836659109E+02  0.50948483875E+03  0.47000000000E+01 0.  1.
<mgrwt>
<rscale>  0 0.58003329E+03</rscale>
<asrwt>0</asrwt>
<pdfrwt beam="1">  1        1 0.10942578E+00 0.58003329E+03</pdfrwt>
<pdfrwt beam="2">  1       -1 0.78074296E-01 0.58003329E+03</pdfrwt>
<totfact> 0.45491360E+01</totfact>
</mgrwt>
</event>
<event>
12    1  0.3166324E-008  0.7200333E+03  0.7818608E-02  0.9683573E-01
         -2   -1    0    0    0  501 -0.00000000000E+00  0.00000000000E+00  0.71559073184E+03  0.71559073184E+03  0.00000000000E+00 0.  1.
          2   -1    0    0  501    0  0.00000000000E+00 -0.00000000000E+00 -0.15915700449E+04  0.15915700449E+04  0.00000000000E+00 0. -1.
         23    2    1    2    0    0  0.37805115490E+03 -0.47495936831E+03  0.42841159431E+03  0.74833644590E+03  0.89229282475E+02 0.  0.
    5000000    2    1    2    0    0 -0.37805115490E+03  0.47495936831E+03 -0.13043909074E+04  0.15588243309E+04  0.59999048151E+03 0.  0.
         23    2    4    4    0    0 -0.21182858604E+03  0.58715030802E+03 -0.91090966481E+03  0.11078655293E+04  0.89402346384E+02 0.  0.
         23    2    4    4    0    0 -0.16622256886E+03 -0.11219093971E+03 -0.39348124259E+03  0.45095880154E+03  0.91211858125E+02 0.  0.
          1    1    3    3  502    0  0.12923803890E+03 -0.11749953674E+03  0.88157994960E+02  0.19565388805E+03  0.00000000000E+00 0. -1.
         -1    1    3    3    0  502  0.24881311600E+03 -0.35745983157E+03  0.34025359935E+03  0.55268255785E+03  0.00000000000E+00 0.  1.
         11    1    5    5    0    0 -0.17124144238E+03  0.42010103282E+03 -0.59511629613E+03  0.74831271223E+03  0.00000000000E+00 0.  1.
        -11    1    5    5    0    0 -0.40587143661E+02  0.16704927520E+03 -0.31579336868E+03  0.35955281709E+03  0.00000000000E+00 0. -1.
          5    1    6    6  503    0 -0.78394447956E+02 -0.75692403862E+02 -0.29242527295E+03  0.31210520619E+03  0.47000000000E+01 0. -1.
         -5    1    6    6    0  503 -0.87828120906E+02 -0.36498535847E+02 -0.10105596965E+03  0.13885359535E+03  0.47000000000E+01 0.  1.
<mgrwt>
<rscale>  0 0.72003330E+03</rscale>
<asrwt>0</asrwt>
<pdfrwt beam="1">  1        2 0.24485693E+00 0.72003330E+03</pdfrwt>
<pdfrwt beam="2">  1       -2 0.11009088E+00 0.72003330E+03</pdfrwt>
<totfact> 0.76230196E+00</totfact>
</mgrwt>
</event>
<event>
12    1  0.3166324E-008  0.6619325E+03  0.7818608E-02  0.9784643E-01
          2   -1    0    0  501    0  0.00000000000E+00  0.00000000000E+00  0.78582372370E+03  0.78582372370E+03  0.00000000000E+00 0. -1.
         -2   -1    0    0    0  501 -0.00000000000E+00 -0.00000000000E+00 -0.59586126787E+03  0.59586126787E+03  0.00000000000E+00 0.  1.
         23    2    1    2    0    0  0.52888758446E+03  0.10234431181E+03 -0.25063018593E+02  0.54716988533E+03  0.92575878922E+02 0.  0.
    5000000    2    1    2    0    0 -0.52888758446E+03 -0.10234431181E+03  0.21502547442E+03  0.83451510623E+03  0.59998589377E+03 0.  0.
         23    2    4    4    0    0  0.10660583799E+03 -0.46368695774E+01 -0.26277168803E+02  0.14171981754E+03  0.89485819150E+02 0.  0.
         23    2    4    4    0    0 -0.63549342245E+03 -0.97707442234E+02  0.24130264322E+03  0.69279528869E+03  0.91322024497E+02 0.  0.
          3    1    3    3  502    0  0.29552883812E+03  0.71530589985E+02  0.29668038029E+02  0.30550632063E+03  0.00000000000E+00 0. -1.
         -3    1    3    3    0  502  0.23335874634E+03  0.30813721826E+02 -0.54731056622E+02  0.24166356470E+03  0.00000000000E+00 0.  1.
         11    1    5    5    0    0  0.10092825119E+03 -0.33608998990E+02 -0.73079267465E+01  0.10662777544E+03  0.00000000000E+00 0. -1.
        -11    1    5    5    0    0  0.56775868036E+01  0.28972129413E+02 -0.18969242056E+02  0.35092042101E+02  0.00000000000E+00 0.  1.
          5    1    6    6  503    0 -0.27872427722E+03 -0.85221582659E+02  0.12659011507E+03  0.31780039033E+03  0.47000000000E+01 0. -1.
         -5    1    6    6    0  503 -0.35676914523E+03 -0.12485859575E+02  0.11471252815E+03  0.37499489836E+03  0.47000000000E+01 0.  1.
<mgrwt>
<rscale>  0 0.66193254E+03</rscale>
<asrwt>0</asrwt>
<pdfrwt beam="1">  1        2 0.12089596E+00 0.66193254E+03</pdfrwt>
<pdfrwt beam="2">  1       -2 0.91670964E-01 0.66193254E+03</pdfrwt>
<totfact> 0.36508579E+01</totfact>
</mgrwt>
</event>
<event>
12    1  0.3166324E-008  0.4722251E+03  0.7818608E-02  0.1021294E+00
         -1   -1    0    0    0  501 -0.00000000000E+00  0.00000000000E+00  0.18428844960E+03  0.18428844960E+03  0.00000000000E+00 0.  1.
          1   -1    0    0  501    0  0.00000000000E+00 -0.00000000000E+00 -0.19817994269E+04  0.19817994269E+04  0.00000000000E+00 0. -1.
         23    2    1    2    0    0  0.44332146573E+03 -0.47088473474E+02 -0.79005335292E+03  0.91153187422E+03  0.89189746928E+02 0.  0.
    5000000    2    1    2    0    0 -0.44332146573E+03  0.47088473474E+02 -0.10074576244E+04  0.12545560023E+04  0.60015718909E+03 0.  0.
         23    2    4    4    0    0 -0.11766900000E+03  0.76721478922E+02  0.24877272517E+02  0.16797565474E+03  0.88683499069E+02 0.  0.
         23    2    4    4    0    0 -0.32565246573E+03 -0.29633005448E+02 -0.10323348969E+04  0.10865803475E+04  0.89520214825E+02 0.  0.
          4    1    3    3  502    0  0.12933520784E+03 -0.19921125433E+02 -0.31872700318E+03  0.34454513460E+03  0.00000000000E+00 0. -1.
         -4    1    3    3    0  502  0.31398625789E+03 -0.27167348041E+02 -0.47132634974E+03  0.56698673962E+03  0.00000000000E+00 0.  1.
         11    1    5    5    0    0  0.80980010158E+01  0.24568868551E+02  0.18258161385E+02  0.31663344414E+02  0.00000000000E+00 0.  1.
        -11    1    5    5    0    0 -0.12576700102E+03  0.52152610371E+02  0.66191111313E+01  0.13631231032E+03  0.00000000000E+00 0. -1.
          5    1    6    6  503    0 -0.28454953728E+03  0.15676292228E+01 -0.81880954817E+03  0.86685757931E+03  0.47000000000E+01 0. -1.
         -5    1    6    6    0  503 -0.41102928444E+02 -0.31200634671E+02 -0.21352534871E+03  0.21972276822E+03  0.47000000000E+01 0.  1.
<mgrwt>
<rscale>  0 0.47222509E+03</rscale>
<asrwt>0</asrwt>
<pdfrwt beam="1">  1        1 0.30489220E+00 0.47222509E+03</pdfrwt>
<pdfrwt beam="2">  1       -1 0.28352071E-01 0.47222509E+03</pdfrwt>
<totfact> 0.37379438E+01</totfact>
</mgrwt>
</event>
<event>
12    1  0.3166324E-008  0.1321712E+04  0.7818608E-02  0.9012522E-01
          2   -1    0    0  501    0  0.00000000000E+00  0.00000000000E+00  0.33888202252E+04  0.33888202252E+04  0.00000000000E+00 0.  1.
         -2   -1    0    0    0  501 -0.00000000000E+00 -0.00000000000E+00 -0.18893312839E+04  0.18893312839E+04  0.00000000000E+00 0. -1.
         23    2    1    2    0    0  0.11261980003E+04  0.60981513972E+03 -0.14926541941E+04  0.19686323891E+04  0.85442961971E+02 0.  0.
    5000000    2    1    2    0    0 -0.11261980003E+04 -0.60981513972E+03  0.29921431354E+04  0.33095191201E+04  0.59983316242E+03 0.  0.
         23    2    4    4    0    0 -0.11110434309E+04 -0.45009805585E+03  0.23254300236E+04  0.26178407887E+04  0.91977361644E+02 0.  0.
         23    2    4    4    0    0 -0.15154569430E+02 -0.15971708387E+03  0.66671311179E+03  0.69167833136E+03  0.90406486411E+02 0.  0.
          2    1    3    3  502    0  0.78514116255E+03  0.42386528861E+03 -0.97837109172E+03  0.13241293068E+04  0.00000000000E+00 0. -1.
         -2    1    3    3    0  502  0.34105683777E+03  0.18594985110E+03 -0.51428310237E+03  0.64450308230E+03  0.00000000000E+00 0.  1.
         13    1    5    5    0    0 -0.87649840649E+03 -0.31596192521E+03  0.18295269823E+04  0.20531074920E+04  0.00000000000E+00 0. -1.
        -13    1    5    5    0    0 -0.23454502440E+03 -0.13413613063E+03  0.49590304136E+03  0.56473329674E+03  0.00000000000E+00 0.  1.
          5    1    6    6  503    0 -0.35723484872E+01 -0.37070221262E+02  0.34692199658E+03  0.34894687947E+03  0.47000000000E+01 0. -1.
         -5    1    6    6    0  503 -0.11582220943E+02 -0.12264686261E+03  0.31979111520E+03  0.34273145189E+03  0.47000000000E+01 0.  1.
<mgrwt>
<rscale>  0 0.13217123E+04</rscale>
<asrwt>0</asrwt>
<pdfrwt beam="1">  1        2 0.52135696E+00 0.13217123E+04</pdfrwt>
<pdfrwt beam="2">  1       -2 0.29066635E+00 0.13217123E+04</pdfrwt>
<totfact> 0.34220936E-02</totfact>
</mgrwt>
</event>
<event>
12    1  0.3166324E-008  0.1704624E+04  0.7818608E-02  0.8758732E-01
          1   -1    0    0  501    0  0.00000000000E+00  0.00000000000E+00  0.17847075946E+04  0.17847075946E+04  0.00000000000E+00 0. -1.
         -1   -1    0    0    0  501 -0.00000000000E+00 -0.00000000000E+00 -0.17041725424E+04  0.17041725424E+04  0.00000000000E+00 0.  1.
         23    2    1    2    0    0 -0.11588418739E+03 -0.16870701229E+04  0.53220680379E+02  0.16943413178E+04  0.91243170032E+02 0.  0.
    5000000    2    1    2    0    0  0.11588418739E+03  0.16870701229E+04  0.27314371828E+02  0.17945388192E+04  0.59999062863E+03 0.  0.
         23    2    4    4    0    0 -0.10036855441E+03  0.45335635556E+03 -0.20776939428E+03  0.51694997241E+03  0.91996309309E+02 0.  0.
         23    2    4    4    0    0  0.21625274180E+03  0.12337137673E+04  0.23508376611E+03  0.12775888468E+04  0.90299371333E+02 0.  0.
          3    1    3    3  502    0 -0.54061683357E+02 -0.41509634393E+03  0.43214398456E+02  0.42082671562E+03  0.00000000000E+00 0. -1.
         -3    1    3    3    0  502 -0.61822504033E+02 -0.12719737789E+04  0.10006281923E+02  0.12735146022E+04  0.00000000000E+00 0.  1.
         11    1    5    5    0    0 -0.94031877881E+02  0.40514752343E+03 -0.15166191406E+03  0.44270514563E+03  0.00000000000E+00 0. -1.
        -11    1    5    5    0    0 -0.63366765283E+01  0.48208832139E+02 -0.56107480219E+02  0.74244826770E+02  0.00000000000E+00 0.  1.
          5    1    6    6  503    0  0.60382205942E+02  0.31333424617E+03  0.20784706274E+02  0.31981002897E+03  0.47000000000E+01 0. -1.
         -5    1    6    6    0  503  0.15587053586E+03  0.92037952113E+03  0.21429905983E+03  0.95777881784E+03  0.47000000000E+01 0.  1.
<mgrwt>
<rscale>  0 0.17046240E+04</rscale>
<asrwt>0</asrwt>
<pdfrwt beam="1">  1        1 0.27457040E+00 0.17046240E+04</pdfrwt>
<pdfrwt beam="2">  1       -1 0.26218039E+00 0.17046240E+04</pdfrwt>
<totfact> 0.22366711E-01</totfact>
</mgrwt>
</event>
<event>
12    1  0.3166324E-008  0.1398685E+04  0.7818608E-02  0.8954771E-01
         -1   -1    0    0    0  501 -0.00000000000E+00  0.00000000000E+00  0.16366651256E+04  0.16366651256E+04  0.00000000000E+00 0.  1.
          1   -1    0    0  501    0  0.00000000000E+00 -0.00000000000E+00 -0.12903136021E+04  0.12903136021E+04  0.00000000000E+00 0. -1.
         23    2    1    2    0    0  0.13613310699E+04  0.16331825108E+03  0.39474884715E+03  0.14295745722E+04  0.89228202738E+02 0.  0.
    5000000    2    1    2    0    0 -0.13613310699E+04 -0.16331825108E+03 -0.48397323654E+02  0.14974041554E+04  0.59998480886E+03 0.  0.
         23    2    4    4    0    0 -0.41059916681E+03  0.12449333728E+03  0.17805383970E+03  0.47446153363E+03  0.96541753960E+02 0.  0.
         23    2    4    4    0    0 -0.95073190307E+03 -0.28781158836E+03 -0.22645116335E+03  0.10229426218E+04  0.91677784785E+02 0.  0.
          3    1    3    3  502    0  0.91449280301E+02 -0.68246156832E+01  0.40681505199E+02  0.10032213670E+03  0.00000000000E+00 0. -1.
         -3    1    3    3    0  502  0.12698817896E+04  0.17014286676E+03  0.35406734195E+03  0.13292524355E+04  0.00000000000E+00 0.  1.
         13    1    5    5    0    0 -0.37523037531E+03  0.10340091885E+03  0.12817238138E+03  0.40977767621E+03  0.00000000000E+00 0. -1.
        -13    1    5    5    0    0 -0.35368791498E+02  0.21092418430E+02  0.49881458314E+02  0.64683857420E+02  0.00000000000E+00 0.  1.
          5    1    6    6  503    0 -0.84174013997E+03 -0.24323185578E+03 -0.17109656150E+03  0.89273978418E+03  0.47000000000E+01 0. -1.
         -5    1    6    6    0  503 -0.10899176310E+03 -0.44579732586E+02 -0.55354601848E+02  0.13020283763E+03  0.47000000000E+01 0.  1.
<mgrwt>
<rscale>  0 0.13986855E+04</rscale>
<asrwt>0</asrwt>
<pdfrwt beam="1">  1        1 0.19850978E+00 0.13986855E+04</pdfrwt>
<pdfrwt beam="2">  1       -1 0.25179464E+00 0.13986855E+04</pdfrwt>
<totfact> 0.59758528E-01</totfact>
</mgrwt>
</event>
<event>
12    1  0.3166324E-008  0.8357801E+03  0.7818608E-02  0.9509624E-01
          1   -1    0    0  501    0  0.00000000000E+00  0.00000000000E+00  0.15205543002E+04  0.15205543002E+04  0.00000000000E+00 0. -1.
         -1   -1    0    0    0  501 -0.00000000000E+00 -0.00000000000E+00 -0.62314320487E+03  0.62314320487E+03  0.00000000000E+00 0.  1.
         23    2    1    2    0    0 -0.54433421818E+03  0.60141007981E+03  0.77799196716E+03  0.11277352517E+04  0.92311817941E+02 0.  0.
    5000000    2    1    2    0    0  0.54433421818E+03 -0.60141007981E+03  0.11941912816E+03  0.10159622534E+04  0.59993711916E+03 0.  0.
         23    2    4    4    0    0  0.79361562209E+02 -0.23308634846E+03  0.28993100833E+03  0.39134007069E+03  0.91975855219E+02 0.  0.
         23    2    4    4    0    0  0.46497265597E+03 -0.36832373135E+03 -0.17051188017E+03  0.62462218269E+03  0.96003270536E+02 0.  0.
          3    1    3    3  502    0 -0.21748922488E+03  0.29029276251E+03  0.30371513662E+03  0.47309019765E+03  0.00000000000E+00 0. -1.
         -3    1    3    3    0  502 -0.32684499330E+03  0.31111731730E+03  0.47427683054E+03  0.65464505403E+03  0.00000000000E+00 0.  1.
         13    1    5    5    0    0  0.99753551231E+02 -0.17720772127E+03  0.22323209165E+03  0.30197005514E+03  0.00000000000E+00 0.  1.
        -13    1    5    5    0    0 -0.20391989021E+02 -0.55878627193E+02  0.66698916678E+02  0.89370015549E+02  0.00000000000E+00 0. -1.
          5    1    6    6  503    0  0.30996583949E+03 -0.27025446148E+03 -0.15848039667E+03  0.44074303367E+03  0.47000000000E+01 0. -1.
         -5    1    6    6    0  503  0.15500681649E+03 -0.98069269867E+02 -0.12031483496E+02  0.18387914902E+03  0.47000000000E+01 0.  1.
<mgrwt>
<rscale>  0 0.83578013E+03</rscale>
<asrwt>0</asrwt>
<pdfrwt beam="1">  1        1 0.23393143E+00 0.83578013E+03</pdfrwt>
<pdfrwt beam="2">  1       -1 0.95868186E-01 0.83578013E+03</pdfrwt>
<totfact> 0.68223280E+00</totfact>
</mgrwt>
</event>
<event>
12    1  0.3166324E-008  0.1041030E+04  0.7818608E-02  0.9264654E-01
         -2   -1    0    0    0  501 -0.00000000000E+00  0.00000000000E+00  0.52779930504E+03  0.52779930504E+03  0.00000000000E+00 0.  1.
          2   -1    0    0  501    0  0.00000000000E+00 -0.00000000000E+00 -0.22088992526E+04  0.22088992526E+04  0.00000000000E+00 0. -1.
         23    2    1    2    0    0  0.93727510353E+03 -0.33142150412E+03 -0.77799088343E+03  0.12656558430E+04  0.91049795218E+02 0.  0.
    5000000    2    1    2    0    0 -0.93727510353E+03  0.33142150412E+03 -0.90310906408E+03  0.14710427146E+04  0.60002987705E+03 0.  0.
         23    2    4    4    0    0 -0.85954500558E+03  0.15442116778E+03 -0.48895051634E+03  0.10050857296E+04  0.91984795741E+02 0.  0.
         23    2    4    4    0    0 -0.77730097952E+02  0.17700033634E+03 -0.41415854775E+03  0.46595698501E+03  0.90650548912E+02 0.  0.
          1    1    3    3  502    0  0.70511766275E+03 -0.28790814286E+03 -0.61022782547E+03  0.97594058017E+03  0.00000000000E+00 0. -1.
         -1    1    3    3    0  502  0.23215744078E+03 -0.43513361254E+02 -0.16776305796E+03  0.28971526286E+03  0.00000000000E+00 0.  1.
         13    1    5    5    0    0 -0.39034803408E+03  0.11458637078E+03 -0.21090594725E+03  0.45823895804E+03  0.00000000000E+00 0.  1.
        -13    1    5    5    0    0 -0.46919697150E+03  0.39834796999E+02 -0.27804456908E+03  0.54684677151E+03  0.00000000000E+00 0. -1.
          5    1    6    6  503    0 -0.25422174130E+02  0.45437016626E+01 -0.21640566864E+02  0.34019645743E+02  0.47000000000E+01 0. -1.
         -5    1    6    6    0  503 -0.52307923822E+02  0.17245663468E+03 -0.39251798088E+03  0.43193733927E+03  0.47000000000E+01 0.  1.
<mgrwt>
<rscale>  0 0.10410302E+04</rscale>
<asrwt>0</asrwt>
<pdfrwt beam="1">  1        2 0.33983066E+00 0.10410302E+04</pdfrwt>
<pdfrwt beam="2">  1       -2 0.81199893E-01 0.10410302E+04</pdfrwt>
<totfact> 0.68240847E+00</totfact>
</mgrwt>
</event>
<event>
12    1  0.3166324E-008  0.7966490E+03  0.7818608E-02  0.9564880E-01
          1   -1    0    0  501    0  0.00000000000E+00  0.00000000000E+00  0.16129663547E+04  0.16129663547E+04  0.00000000000E+00 0. -1.
         -1   -1    0    0    0  501 -0.00000000000E+00 -0.00000000000E+00 -0.50582863933E+03  0.50582863933E+03  0.00000000000E+00 0.  1.
         23    2    1    2    0    0 -0.39635304789E+03 -0.56512354525E+03  0.18324276785E+02  0.69681122593E+03  0.93540074260E+02 0.  0.
    5000000    2    1    2    0    0  0.39635304789E+03  0.56512354525E+03  0.10888134386E+04  0.14219837681E+04  0.60005230832E+03 0.  0.
         23    2    4    4    0    0  0.83365186927E+02  0.56895460411E+03  0.78283918403E+03  0.97553380504E+03  0.90387614193E+02 0.  0.
         23    2    4    4    0    0  0.31298786096E+03 -0.38310588589E+01  0.30597425457E+03  0.44644996307E+03  0.87870626158E+02 0.  0.
          1    1    3    3  502    0 -0.38643469246E+03 -0.50844135015E+03  0.10291676446E+02  0.63870986894E+03  0.00000000000E+00 0. -1.
         -1    1    3    3    0  502 -0.99183554328E+01 -0.56682195094E+02  0.80326003384E+01  0.58101356984E+02  0.00000000000E+00 0.  1.
         11    1    5    5    0    0  0.59304599425E+02  0.14449407686E+03  0.23286309743E+03  0.28039400120E+03  0.00000000000E+00 0.  1.
        -11    1    5    5    0    0  0.24060587502E+02  0.42446052724E+03  0.54997608660E+03  0.69513980384E+03  0.00000000000E+00 0. -1.
          5    1    6    6  503    0  0.16645911845E+03 -0.22377454787E+02  0.21519570118E+03  0.27302136987E+03  0.47000000000E+01 0. -1.
         -5    1    6    6    0  503  0.14652874251E+03  0.18546395928E+02  0.90778553393E+02  0.17342859320E+03  0.47000000000E+01 0.  1.
<mgrwt>
<rscale>  0 0.79664897E+03</rscale>
<asrwt>0</asrwt>
<pdfrwt beam="1">  1        1 0.24814867E+00 0.79664897E+03</pdfrwt>
<pdfrwt beam="2">  1       -1 0.77819791E-01 0.79664897E+03</pdfrwt>
<totfact> 0.93439026E+00</totfact>
</mgrwt>
</event>
<event>
12    1  0.3166324E-008  0.9385929E+03  0.7818608E-02  0.9378584E-01
          1   -1    0    0  501    0  0.00000000000E+00  0.00000000000E+00  0.11499236878E+04  0.11499236878E+04  0.00000000000E+00 0. -1.
         -1   -1    0    0    0  501 -0.00000000000E+00 -0.00000000000E+00 -0.79022247748E+03  0.79022247748E+03  0.00000000000E+00 0.  1.
         23    2    1    2    0    0 -0.82872925872E+03  0.17276370291E+03  0.29145998028E+03  0.90039664494E+03  0.95528617779E+02 0.  0.
    5000000    2    1    2    0    0  0.82872925872E+03 -0.17276370291E+03  0.68241230049E+02  0.10397495204E+04  0.59981890458E+03 0.  0.
         23    2    4    4    0    0 -0.38665220135E+02 -0.13746188807E+03  0.37005907296E+01  0.16460184168E+03  0.81788153126E+02 0.  0.
         23    2    4    4    0    0  0.86739447885E+03 -0.35301814836E+02  0.64540639320E+02  0.87514767867E+03  0.89992029007E+02 0.  0.
          3    1    3    3  502    0 -0.48058774368E+03  0.14048121913E+03  0.19853250817E+03  0.53862297491E+03  0.00000000000E+00 0. -1.
         -3    1    3    3    0  502 -0.34814151504E+03  0.32282483779E+02  0.92927472116E+02  0.36177367003E+03  0.00000000000E+00 0.  1.
         11    1    5    5    0    0 -0.23673712765E+01  0.61233794704E+01  0.14692255506E+02  0.16092314773E+02  0.00000000000E+00 0. -1.
        -11    1    5    5    0    0 -0.36297848858E+02 -0.14358526754E+03 -0.10991664777E+02  0.14850952691E+03  0.00000000000E+00 0.  1.
          5    1    6    6  503    0  0.11565285182E+02 -0.99550377631E+01 -0.30904790527E+01  0.16263445483E+02  0.47000000000E+01 0.  1.
         -5    1    6    6    0  503  0.85582919367E+03 -0.25346777073E+02  0.67631118372E+02  0.85888423319E+03  0.47000000000E+01 0.  1.
<mgrwt>
<rscale>  0 0.93859293E+03</rscale>
<asrwt>0</asrwt>
<pdfrwt beam="1">  1        1 0.17691134E+00 0.93859293E+03</pdfrwt>
<pdfrwt beam="2">  1       -1 0.12157269E+00 0.93859293E+03</pdfrwt>
<totfact> 0.70459399E+00</totfact>
</mgrwt>
</event>
<event>
12    1  0.3166324E-008  0.7126639E+03  0.7818608E-02  0.9695817E-01
         -4   -1    0    0    0  501 -0.00000000000E+00  0.00000000000E+00  0.91139663014E+03  0.91139663014E+03  0.00000000000E+00 0.  1.
          4   -1    0    0  501    0  0.00000000000E+00 -0.00000000000E+00 -0.67794034731E+03  0.67794034731E+03  0.00000000000E+00 0. -1.
         23    2    1    2    0    0 -0.81002792634E+02 -0.66128020505E+03  0.14931953801E+03  0.68882403339E+03  0.91264793539E+02 0.  0.
    5000000    2    1    2    0    0  0.81002792634E+02  0.66128020505E+03  0.84136744824E+02  0.90051294405E+03  0.59999300710E+03 0.  0.
         23    2    4    4    0    0  0.18712701543E+03  0.58748439109E+03 -0.12840607063E+03  0.63639363276E+03  0.91401899069E+02 0.  0.
         23    2    4    4    0    0 -0.10612422280E+03  0.73795813957E+02  0.21254281546E+03  0.26411931129E+03  0.88749024647E+02 0.  0.
          3    1    3    3  502    0  0.43258026179E+01 -0.33010734330E+03  0.83972309576E+02  0.34064779384E+03  0.00000000000E+00 0. -1.
         -3    1    3    3    0  502 -0.85328595252E+02 -0.33117286175E+03  0.65347228430E+02  0.34817623955E+03  0.00000000000E+00 0.  1.
         11    1    5    5    0    0  0.81875348307E+02  0.36050831104E+03 -0.43756046061E+02  0.37226926620E+03  0.00000000000E+00 0. -1.
        -11    1    5    5    0    0  0.10525166712E+03  0.22697608005E+03 -0.84650024570E+02  0.26412436655E+03  0.00000000000E+00 0.  1.
          5    1    6    6  503    0 -0.62966003465E+02  0.24739656488E+02  0.38105757620E+02  0.77787575867E+02  0.47000000000E+01 0. -1.
         -5    1    6    6    0  503 -0.43158219331E+02  0.49056157470E+02  0.17443705784E+03  0.18633173543E+03  0.47000000000E+01 0.  1.
<mgrwt>
<rscale>  0 0.71266391E+03</rscale>
<asrwt>0</asrwt>
<pdfrwt beam="1">  1        4 0.10429851E+00 0.71266391E+03</pdfrwt>
<pdfrwt beam="2">  1       -4 0.14021487E+00 0.71266391E+03</pdfrwt>
<totfact> 0.51895647E-01</totfact>
</mgrwt>
</event>
<event>
12    1  0.3166324E-008  0.1686174E+04  0.7818608E-02  0.8769290E-01
         -1   -1    0    0    0  501 -0.00000000000E+00  0.00000000000E+00  0.39808635511E+04  0.39808635511E+04  0.00000000000E+00 0.  1.
          1   -1    0    0  501    0  0.00000000000E+00 -0.00000000000E+00 -0.14865363314E+04  0.14865363314E+04  0.00000000000E+00 0. -1.
         23    2    1    2    0    0  0.46290861220E+03 -0.16077807326E+04  0.31539676348E+04  0.35715187799E+04  0.94822392988E+02 0.  0.
    5000000    2    1    2    0    0 -0.46290861220E+03  0.16077807326E+04 -0.65964041516E+03  0.18958811025E+04  0.59999700870E+03 0.  0.
         23    2    4    4    0    0 -0.25931204864E+02  0.51944200778E+03 -0.46242192138E+03  0.70290789649E+03  0.98757535138E+02 0.  0.
         23    2    4    4    0    0 -0.43697740733E+03  0.10883387248E+04 -0.19721849378E+03  0.11929732061E+04  0.94124926027E+02 0.  0.
          1    1    3    3  502    0  0.38296670806E+03 -0.13922943515E+04  0.27774227541E+04  0.31303712584E+04  0.00000000000E+00 0. -1.
         -1    1    3    3    0  502  0.79941904136E+02 -0.21548638110E+03  0.37654488072E+03  0.44114752144E+03  0.00000000000E+00 0.  1.
         11    1    5    5    0    0 -0.29102213677E+02  0.15541219722E+03 -0.19580649166E+03  0.25167453599E+03  0.00000000000E+00 0.  1.
        -11    1    5    5    0    0  0.31710088130E+01  0.36402981055E+03 -0.26661542972E+03  0.45123336050E+03  0.00000000000E+00 0. -1.
          5    1    6    6  503    0 -0.10410946934E+03  0.37399940326E+03 -0.54523947763E+02  0.39205775866E+03  0.47000000000E+01 0. -1.
         -5    1    6    6    0  503 -0.33286793799E+03  0.71433932152E+03 -0.14269454602E+03  0.80091544740E+03  0.47000000000E+01 0.  1.
<mgrwt>
<rscale>  0 0.16861737E+04</rscale>
<asrwt>0</asrwt>
<pdfrwt beam="1">  1        1 0.22869790E+00 0.16861737E+04</pdfrwt>
<pdfrwt beam="2">  1       -1 0.61244054E+00 0.16861737E+04</pdfrwt>
<totfact> 0.23587174E-03</totfact>
</mgrwt>
</event>
<event>
12    1  0.4163267E-008  0.9218845E+03  0.7818608E-02  0.9398631E-01
          2   -1    0    0  501    0  0.00000000000E+00  0.00000000000E+00  0.29172490235E+04  0.29172490235E+04  0.00000000000E+00 0. -1.
         -2   -1    0    0    0  501 -0.00000000000E+00 -0.00000000000E+00 -0.29487214496E+03  0.29487214496E+03  0.00000000000E+00 0.  1.
         23    2    1    2    0    0  0.68734169038E+03  0.46107620025E+03  0.11721848740E+04  0.14378412011E+04  0.91324031782E+02 0.  0.
    5000000    2    1    2    0    0 -0.68734169038E+03 -0.46107620025E+03  0.14501920045E+04  0.17742799674E+04  0.59998557561E+03 0.  0.
         23    2    4    4    0    0 -0.57256700226E+03 -0.49486960624E+02  0.90235995925E+03  0.10735346795E+04  0.89113864055E+02 0.  0.
         23    2    4    4    0    0 -0.11477468812E+03 -0.41158923963E+03  0.54783204522E+03  0.70074528781E+03  0.91351395225E+02 0.  0.
          3    1    3    3  502    0  0.28048429866E+03  0.19675087031E+03  0.40963654231E+03  0.53402663188E+03  0.00000000000E+00 0. -1.
         -3    1    3    3    0  502  0.40685739172E+03  0.26432532994E+03  0.76254833172E+03  0.90381456918E+03  0.00000000000E+00 0.  1.
         11    1    5    5    0    0 -0.16309953559E+03  0.20544293575E+02  0.29475652491E+03  0.33749805256E+03  0.00000000000E+00 0. -1.
        -11    1    5    5    0    0 -0.40946746667E+03 -0.70031254199E+02  0.60760343434E+03  0.73603662697E+03  0.00000000000E+00 0.  1.
          5    1    6    6  503    0 -0.56917773602E+01 -0.17986679876E+03  0.20575418399E+03  0.27338861691E+03  0.47000000000E+01 0. -1.
         -5    1    6    6    0  503 -0.10908291076E+03 -0.23172244087E+03  0.34207786123E+03  0.42735667091E+03  0.47000000000E+01 0.  1.
<mgrwt>
<rscale>  0 0.92188448E+03</rscale>
<asrwt>0</asrwt>
<pdfrwt beam="1">  1        2 0.44880752E+00 0.92188448E+03</pdfrwt>
<pdfrwt beam="2">  1       -2 0.45364947E-01 0.92188448E+03</pdfrwt>
<totfact> 0.93243959E+00</totfact>
</mgrwt>
</event>
<event>
12    1  0.3166324E-008  0.3503607E+03  0.7818608E-02  0.1062467E+00
         -2   -1    0    0    0  501 -0.00000000000E+00  0.00000000000E+00  0.11408021280E+03  0.11408021280E+03  0.00000000000E+00 0. -1.
          2   -1    0    0  501    0  0.00000000000E+00 -0.00000000000E+00 -0.13914675000E+04  0.13914675000E+04  0.00000000000E+00 0.  1.
         23    2    1    2    0    0 -0.95900389688E+02  0.41102583298E+02 -0.49557877241E+03  0.51452066928E+03  0.90812401997E+02 0.  0.
    5000000    2    1    2    0    0  0.95900389688E+02 -0.41102583298E+02 -0.78180851480E+03  0.99102704354E+03  0.60001978311E+03 0.  0.
         23    2    4    4    0    0  0.23128132316E+03 -0.23036408496E+03 -0.57027850722E+03  0.66361879017E+03  0.92809809779E+02 0.  0.
         23    2    4    4    0    0 -0.13538093347E+03  0.18926150166E+03 -0.21153000758E+03  0.32740825337E+03  0.91122484100E+02 0.  0.
          4    1    3    3  502    0 -0.43392109438E+02  0.65278729486E+02 -0.32857117790E+03  0.33779166158E+03  0.00000000000E+00 0. -1.
         -4    1    3    3    0  502 -0.52508280250E+02 -0.24176146187E+02 -0.16700759451E+03  0.17672900770E+03  0.00000000000E+00 0.  1.
         13    1    5    5    0    0  0.83236039658E+02 -0.89590315728E+02 -0.13127592354E+03  0.17941023123E+03  0.00000000000E+00 0.  1.
        -13    1    5    5    0    0  0.14804528350E+03 -0.14077376923E+03 -0.43900258368E+03  0.48420855894E+03  0.00000000000E+00 0. -1.
          5    1    6    6  503    0 -0.28667922721E+02  0.80171989672E+02 -0.30434295941E+02  0.90541339124E+02  0.47000000000E+01 0. -1.
         -5    1    6    6    0  503 -0.10671301075E+03  0.10908951199E+03 -0.18109571164E+03  0.23686691425E+03  0.47000000000E+01 0.  1.
<mgrwt>
<rscale>  0 0.35036072E+03</rscale>
<asrwt>0</asrwt>
<pdfrwt beam="1">  1        2 0.21407193E+00 0.35036072E+03</pdfrwt>
<pdfrwt beam="2">  1       -2 0.17550801E-01 0.35036072E+03</pdfrwt>
<totfact> 0.40885599E+02</totfact>
</mgrwt>
</event>
<event>
12    1  0.4032441E-008  0.1582229E+04  0.7818608E-02  0.8831540E-01
         -1   -1    0    0    0  501 -0.00000000000E+00  0.00000000000E+00  0.13552177368E+04  0.13552177368E+04  0.00000000000E+00 0.  1.
          1   -1    0    0  501    0  0.00000000000E+00 -0.00000000000E+00 -0.20062497246E+04  0.20062497246E+04  0.00000000000E+00 0. -1.
         23    2    1    2    0    0 -0.99197039761E+03 -0.11706109104E+04 -0.75150308044E+03  0.17109769506E+04  0.91378730223E+02 0.  0.
    5000000    2    1    2    0    0  0.99197039761E+03  0.11706109104E+04  0.10047109268E+03  0.16504905108E+04  0.59974103783E+03 0.  0.
         23    2    4    4    0    0  0.71996771923E+03  0.11464308195E+04  0.68582092762E+02  0.13585037884E+04  0.90398556736E+02 0.  0.
         23    2    4    4    0    0  0.27200267838E+03  0.24180090917E+02  0.31888999921E+02  0.29198672239E+03  0.98332110174E+02 0.  0.
          4    1    3    3  502    0 -0.20866089179E+03 -0.28617027883E+03 -0.14193089518E+03  0.38154577085E+03  0.00000000000E+00 0. -1.
         -4    1    3    3    0  502 -0.78330950582E+03 -0.88444063158E+03 -0.60957218526E+03  0.13294311798E+04  0.00000000000E+00 0.  1.
         13    1    5    5    0    0  0.40333771689E+03  0.67196602590E+03  0.81470399112E+02  0.78794484563E+03  0.00000000000E+00 0. -1.
        -13    1    5    5    0    0  0.31663000234E+03  0.47446479360E+03 -0.12888306350E+02  0.57055894278E+03  0.00000000000E+00 0.  1.
          5    1    6    6  503    0  0.16291328401E+03  0.28429990035E+02  0.65082602816E+02  0.17778311964E+03  0.47000000000E+01 0. -1.
         -5    1    6    6    0  503  0.10908939437E+03 -0.42498991185E+01 -0.33193602895E+02  0.11420360275E+03  0.47000000000E+01 0.  1.
<mgrwt>
<rscale>  0 0.15822295E+04</rscale>
<asrwt>0</asrwt>
<pdfrwt beam="1">  1        1 0.30865380E+00 0.15822295E+04</pdfrwt>
<pdfrwt beam="2">  1       -1 0.20849504E+00 0.15822295E+04</pdfrwt>
<totfact> 0.36374302E-01</totfact>
</mgrwt>
</event>
<event>
12    1  0.3166324E-008  0.1309035E+04  0.7818608E-02  0.9022431E-01
         -2   -1    0    0    0  501 -0.00000000000E+00  0.00000000000E+00  0.63107261115E+03  0.63107261115E+03  0.00000000000E+00 0.  1.
          2   -1    0    0  501    0  0.00000000000E+00 -0.00000000000E+00 -0.27286611294E+04  0.27286611294E+04  0.00000000000E+00 0. -1.
         23    2    1    2    0    0  0.11668896097E+04  0.41600964759E+03 -0.88309950002E+03  0.15240872420E+04  0.91004429783E+02 0.  0.
    5000000    2    1    2    0    0 -0.11668896097E+04 -0.41600964759E+03 -0.12144890182E+04  0.18356464985E+04  0.59993258304E+03 0.  0.
         23    2    4    4    0    0 -0.55805106666E+03  0.98554785464E+02 -0.49349154904E+03  0.75701428939E+03  0.91666169490E+02 0.  0.
         23    2    4    4    0    0 -0.60883854300E+03 -0.51456443305E+03 -0.72099746916E+03  0.10786322091E+04  0.90272724777E+02 0.  0.
          3    1    3    3  502    0  0.57105120627E+03  0.15548797885E+03 -0.41629916581E+03  0.72358896288E+03  0.00000000000E+00 0. -1.
         -3    1    3    3    0  502  0.59583840339E+03  0.26052166874E+03 -0.46680033421E+03  0.80049827911E+03  0.00000000000E+00 0.  1.
         11    1    5    5    0    0 -0.52022386535E+03  0.66997558082E+02 -0.44441398351E+03  0.68747751353E+03  0.00000000000E+00 0. -1.
        -11    1    5    5    0    0 -0.37827201313E+02  0.31557227381E+02 -0.49077565527E+02  0.69536775861E+02  0.00000000000E+00 0.  1.
          5    1    6    6  503    0 -0.22398468820E+03 -0.24657415555E+03 -0.30825138275E+03  0.45388209890E+03  0.47000000000E+01 0. -1.
         -5    1    6    6    0  503 -0.38485385480E+03 -0.26799027750E+03 -0.41274608641E+03  0.62475011023E+03  0.47000000000E+01 0.  1.
<mgrwt>
<rscale>  0 0.13090354E+04</rscale>
<asrwt>0</asrwt>
<pdfrwt beam="1">  1        2 0.41979402E+00 0.13090354E+04</pdfrwt>
<pdfrwt beam="2">  1       -2 0.97088093E-01 0.13090354E+04</pdfrwt>
<totfact> 0.22028950E+00</totfact>
</mgrwt>
</event>
<event>
12    1  0.3166324E-008  0.1042694E+04  0.7818608E-02  0.9262920E-01
         -2   -1    0    0    0  501 -0.00000000000E+00  0.00000000000E+00  0.19207113878E+04  0.19207113878E+04  0.00000000000E+00 0.  1.
          2   -1    0    0  501    0  0.00000000000E+00 -0.00000000000E+00 -0.67798152810E+03  0.67798152810E+03  0.00000000000E+00 0. -1.
         23    2    1    2    0    0 -0.97920990541E+03  0.29209883558E+03  0.25639626428E+03  0.10573139154E+04  0.89442175801E+02 0.  0.
    5000000    2    1    2    0    0  0.97920990541E+03 -0.29209883558E+03  0.98633359540E+03  0.15413790005E+04  0.59901710580E+03 0.  0.
         23    2    4    4    0    0  0.68014882909E+03 -0.31838766408E+03  0.96557761851E+03  0.12262047209E+04  0.85233477722E+02 0.  0.
         23    2    4    4    0    0  0.29906107632E+03  0.26288828502E+02  0.20755976889E+02  0.31517427960E+03  0.93677030670E+02 0.  0.
          3    1    3    3  502    0 -0.37567307842E+03  0.13431915149E+03  0.13941206267E+03  0.42261994690E+03  0.00000000000E+00 0. -1.
         -3    1    3    3    0  502 -0.60353682699E+03  0.15777968409E+03  0.11698420161E+03  0.63469396852E+03  0.00000000000E+00 0.  1.
         13    1    5    5    0    0  0.35705519197E+03 -0.14055802948E+03  0.54931413653E+03  0.67006789981E+03  0.00000000000E+00 0. -1.
        -13    1    5    5    0    0  0.32309363713E+03 -0.17782963460E+03  0.41626348198E+03  0.55613682105E+03  0.00000000000E+00 0.  1.
          5    1    6    6  503    0  0.22879616758E+03 -0.13414598399E+02  0.38391811481E+02  0.23242990113E+03  0.47000000000E+01 0. -1.
         -5    1    6    6    0  503  0.70264908733E+02  0.39703426901E+02 -0.17635834592E+02  0.82744378472E+02  0.47000000000E+01 0.  1.
<mgrwt>
<rscale>  0 0.10426940E+04</rscale>
<asrwt>0</asrwt>
<pdfrwt beam="1">  1        2 0.10430485E+00 0.10426940E+04</pdfrwt>
<pdfrwt beam="2">  1       -2 0.29549406E+00 0.10426940E+04</pdfrwt>
<totfact> 0.14438967E+00</totfact>
</mgrwt>
</event>
<event>
12    1  0.3166324E-008  0.1455300E+04  0.7818608E-02  0.8914734E-01
         -2   -1    0    0    0  501 -0.00000000000E+00  0.00000000000E+00  0.15495760518E+04  0.15495760518E+04  0.00000000000E+00 0.  1.
          2   -1    0    0  501    0  0.00000000000E+00 -0.00000000000E+00 -0.14605734552E+04  0.14605734552E+04  0.00000000000E+00 0. -1.
         23    2    1    2    0    0 -0.94891681418E+02  0.14357171263E+04 -0.68912772730E+02  0.14432732215E+04  0.89445647053E+02 0.  0.
    5000000    2    1    2    0    0  0.94891681418E+02 -0.14357171263E+04  0.15791536935E+03  0.15668762855E+04  0.59989660135E+03 0.  0.
         23    2    4    4    0    0  0.16553896765E+03 -0.11255409569E+04  0.33744874864E+03  0.11902194621E+04  0.92223177949E+02 0.  0.
         23    2    4    4    0    0 -0.70647286231E+02 -0.31017616937E+03 -0.17953337929E+03  0.37665682339E+03  0.91857679208E+02 0.  0.
          3    1    3    3  502    0 -0.28475565172E+02  0.48042265457E+03  0.19038841831E+02  0.48164225555E+03  0.00000000000E+00 0. -1.
         -3    1    3    3    0  502 -0.66416116246E+02  0.95529447170E+03 -0.87951614561E+02  0.96163096595E+03  0.00000000000E+00 0.  1.
         11    1    5    5    0    0  0.14595360866E+03 -0.69172101370E+03  0.19912193832E+03  0.73445895936E+03  0.00000000000E+00 0. -1.
        -11    1    5    5    0    0  0.19585358992E+02 -0.43381994321E+03  0.13832681032E+03  0.45576050275E+03  0.00000000000E+00 0.  1.
          5    1    6    6  503    0 -0.21555989121E+02 -0.66905200668E+01 -0.18581584601E+02  0.29610623297E+02  0.47000000000E+01 0. -1.
         -5    1    6    6    0  503 -0.49091297110E+02 -0.30348564930E+03 -0.16095179469E+03  0.34704620009E+03  0.47000000000E+01 0.  1.
<mgrwt>
<rscale>  0 0.14553003E+04</rscale>
<asrwt>0</asrwt>
<pdfrwt beam="1">  1        2 0.22470361E+00 0.14553003E+04</pdfrwt>
<pdfrwt beam="2">  1       -2 0.23839631E+00 0.14553003E+04</pdfrwt>
<totfact> 0.95721111E-01</totfact>
</mgrwt>
</event>
<event>
12    1  0.3166324E-008  0.6386241E+03  0.7818608E-02  0.9828363E-01
         -1   -1    0    0    0  501 -0.00000000000E+00  0.00000000000E+00  0.51336107204E+03  0.51336107204E+03  0.00000000000E+00 0.  1.
          1   -1    0    0  501    0  0.00000000000E+00 -0.00000000000E+00 -0.19177193709E+04  0.19177193709E+04  0.00000000000E+00 0. -1.
         23    2    1    2    0    0 -0.28642729832E+03 -0.53327732096E+03  0.17300491397E+03  0.63839454896E+03  0.10579036637E+03 0.  0.
    5000000    2    1    2    0    0  0.28642729832E+03  0.53327732096E+03 -0.15773632128E+04  0.17926858940E+04  0.59935190918E+03 0.  0.
         23    2    4    4    0    0  0.27113568046E+03  0.23484141479E+03 -0.13645432816E+04  0.14136740240E+04  0.88491985262E+02 0.  0.
         23    2    4    4    0    0  0.15291617864E+02  0.29843590617E+03 -0.21281993126E+03  0.37901187002E+03  0.95183248545E+02 0.  0.
          2    1    3    3  502    0 -0.13765171061E+03 -0.15117217781E+03  0.56293309983E+02  0.21206121175E+03  0.00000000000E+00 0.  1.
         -2    1    3    3    0  502 -0.14877558771E+03 -0.38210514315E+03  0.11671160399E+03  0.42633333722E+03  0.00000000000E+00 0. -1.
         13    1    5    5    0    0  0.55458935051E+02  0.43368260958E+02 -0.42727687926E+03  0.43303814045E+03  0.00000000000E+00 0. -1.
        -13    1    5    5    0    0  0.21567674540E+03  0.19147315383E+03 -0.93726640230E+03  0.98063588351E+03  0.00000000000E+00 0.  1.
          5    1    6    6  503    0  0.35964472852E+02  0.17934300710E+03 -0.81000031664E+02  0.20010110602E+03  0.47000000000E+01 0. -1.
         -5    1    6    6    0  503 -0.20672854989E+02  0.11909289907E+03 -0.13181989960E+03  0.17891076399E+03  0.47000000000E+01 0.  1.
<mgrwt>
<rscale>  0 0.63862407E+03</rscale>
<asrwt>0</asrwt>
<pdfrwt beam="1">  1        1 0.29503374E+00 0.63862407E+03</pdfrwt>
<pdfrwt beam="2">  1       -1 0.78978628E-01 0.63862407E+03</pdfrwt>
<totfact> 0.58115828E+00</totfact>
</mgrwt>
</event>
<event>
12    1  0.3166324E-008  0.1025026E+04  0.7818608E-02  0.9281515E-01
          1   -1    0    0  501    0  0.00000000000E+00  0.00000000000E+00  0.11488054016E+04  0.11488054016E+04  0.00000000000E+00 0. -1.
         -1   -1    0    0    0  501 -0.00000000000E+00 -0.00000000000E+00 -0.12343802910E+04  0.12343802910E+04  0.00000000000E+00 0.  1.
         23    2    1    2    0    0  0.94510928448E+03  0.96923677745E+02  0.54091323138E+03  0.10970300259E+04  0.90895516985E+02 0.  0.
    5000000    2    1    2    0    0 -0.94510928448E+03 -0.96923677745E+02 -0.62648812080E+03  0.12861556667E+04  0.59923557521E+03 0.  0.
         23    2    4    4    0    0 -0.63609410849E+03 -0.31687442844E+03 -0.29731298694E+03  0.77621894647E+03  0.95371496815E+02 0.  0.
         23    2    4    4    0    0 -0.30901517600E+03  0.21995075070E+03 -0.32917513385E+03  0.50993672024E+03  0.88376909753E+02 0.  0.
          3    1    3    3  502    0  0.86854367912E+03  0.63829030771E+02  0.49821520030E+03  0.10033247996E+04  0.00000000000E+00 0. -1.
         -3    1    3    3    0  502  0.76565605366E+02  0.33094646974E+02  0.42698031086E+02  0.93705226333E+02  0.00000000000E+00 0.  1.
         13    1    5    5    0    0 -0.40866857985E+03 -0.16569979438E+03 -0.21752805122E+03  0.49171626278E+03  0.00000000000E+00 0.  1.
        -13    1    5    5    0    0 -0.22742552864E+03 -0.15117463406E+03 -0.79784935719E+02  0.28450268370E+03  0.00000000000E+00 0. -1.
          5    1    6    6  503    0 -0.63292795301E+02  0.66601210786E+02 -0.39033708724E+02  0.99937078364E+02  0.47000000000E+01 0. -1.
         -5    1    6    6    0  503 -0.24572238070E+03  0.15334953991E+03 -0.29014142513E+03  0.40999964188E+03  0.47000000000E+01 0.  1.
<mgrwt>
<rscale>  0 0.10250260E+04</rscale>
<asrwt>0</asrwt>
<pdfrwt beam="1">  1        1 0.17673929E+00 0.10250260E+04</pdfrwt>
<pdfrwt beam="2">  1       -1 0.18990466E+00 0.10250260E+04</pdfrwt>
<totfact> 0.20648700E+00</totfact>
</mgrwt>
</event>
<event>
12    1  0.3437292E-008  0.1158621E+04  0.7818608E-02  0.9149867E-01
         -2   -1    0    0    0  501 -0.00000000000E+00  0.00000000000E+00  0.69614579790E+03  0.69614579790E+03  0.00000000000E+00 0.  1.
          2   -1    0    0  501    0  0.00000000000E+00 -0.00000000000E+00 -0.23150228464E+04  0.23150228464E+04  0.00000000000E+00 0. -1.
         23    2    1    2    0    0 -0.35260430840E+03  0.10503970358E+04 -0.22880867651E+03  0.11350452790E+04  0.91162732293E+02 0.  0.
    5000000    2    1    2    0    0  0.35260430840E+03 -0.10503970358E+04 -0.13900683720E+04  0.18761233653E+04  0.59990421889E+03 0.  0.
         23    2    4    4    0    0 -0.53731889839E+02 -0.57805569268E+03 -0.43103015006E+03  0.72875495466E+03  0.90891659965E+02 0.  0.
         23    2    4    4    0    0  0.40633619824E+03 -0.47234134313E+03 -0.95903822190E+03  0.11473684106E+04  0.92111390041E+02 0.  0.
          2    1    3    3  502    0 -0.21669905984E+03  0.76308641207E+03 -0.14572644444E+03  0.80653304423E+03  0.00000000000E+00 0. -1.
         -2    1    3    3    0  502 -0.13590524856E+03  0.28731062374E+03 -0.83082232066E+02  0.32851223476E+03  0.00000000000E+00 0.  1.
         13    1    5    5    0    0 -0.16945144298E+02 -0.31730902368E+03 -0.18132067373E+03  0.36585426217E+03  0.00000000000E+00 0.  1.
        -13    1    5    5    0    0 -0.36786745541E+02 -0.26074666900E+03 -0.24970947632E+03  0.36290069249E+03  0.00000000000E+00 0. -1.
          5    1    6    6  503    0  0.15057468252E+03 -0.13987525315E+03 -0.25153288945E+03  0.32485182150E+03  0.47000000000E+01 0. -1.
         -5    1    6    6    0  503  0.25576151571E+03 -0.33246608999E+03 -0.70750533246E+03  0.82251658911E+03  0.47000000000E+01 0.  1.
<mgrwt>
<rscale>  0 0.11586205E+04</rscale>
<asrwt>0</asrwt>
<pdfrwt beam="1">  1        2 0.35615736E+00 0.11586205E+04</pdfrwt>
<pdfrwt beam="2">  1       -2 0.10709935E+00 0.11586205E+04</pdfrwt>
<totfact> 0.30690795E+00</totfact>
</mgrwt>
</event>
<event>
12    1  0.3166324E-008  0.5809508E+03  0.7818608E-02  0.9945735E-01
          2   -1    0    0  501    0  0.00000000000E+00  0.00000000000E+00  0.67657013073E+03  0.67657013073E+03  0.00000000000E+00 0. -1.
         -2   -1    0    0    0  501 -0.00000000000E+00 -0.00000000000E+00 -0.73438526660E+03  0.73438526660E+03  0.00000000000E+00 0.  1.
         23    2    1    2    0    0 -0.46937471714E+03 -0.15893074208E+03  0.26436382629E+03  0.56874904248E+03  0.89530077649E+02 0.  0.
    5000000    2    1    2    0    0  0.46937471714E+03  0.15893074208E+03 -0.32217896217E+03  0.84220635484E+03  0.59995054346E+03 0.  0.
         23    2    4    4    0    0  0.26569276539E+03 -0.13147773849E+03  0.60455544219E+02  0.31313983166E+03  0.80762863047E+02 0.  0.
         23    2    4    4    0    0  0.20368195175E+03  0.29040848057E+03 -0.38263450638E+03  0.52906652318E+03  0.87628747635E+02 0.  0.
          2    1    3    3  502    0 -0.17030386252E+03 -0.29432412736E+02  0.12986823460E+03  0.21618378956E+03  0.00000000000E+00 0. -1.
         -2    1    3    3    0  502 -0.29907085462E+03 -0.12949832934E+03  0.13449559169E+03  0.35256525292E+03  0.00000000000E+00 0.  1.
         11    1    5    5    0    0  0.18836463461E+02 -0.37154903270E+02  0.18448036538E+02  0.45559074232E+02  0.00000000000E+00 0. -1.
        -11    1    5    5    0    0  0.24685630192E+03 -0.94322835224E+02  0.42007507681E+02  0.26758075743E+03  0.00000000000E+00 0.  1.
          5    1    6    6  503    0  0.10590484961E+03  0.18628853915E+03 -0.28230754546E+03  0.35445577611E+03  0.47000000000E+01 0. -1.
         -5    1    6    6    0  503  0.97777102141E+02  0.10411994142E+03 -0.10032696092E+03  0.17461074707E+03  0.47000000000E+01 0.  1.
<mgrwt>
<rscale>  0 0.58095084E+03</rscale>
<asrwt>0</asrwt>
<pdfrwt beam="1">  1        2 0.10408771E+00 0.58095084E+03</pdfrwt>
<pdfrwt beam="2">  1       -2 0.11298235E+00 0.58095084E+03</pdfrwt>
<totfact> 0.27131897E+01</totfact>
</mgrwt>
</event>
<event>
12    1  0.3166324E-008  0.3079967E+03  0.7818608E-02  0.1081310E+00
         -2   -1    0    0    0  501 -0.00000000000E+00  0.00000000000E+00  0.30612415349E+03  0.30612415349E+03  0.00000000000E+00 0. -1.
          2   -1    0    0  501    0  0.00000000000E+00 -0.00000000000E+00 -0.13342303305E+04  0.13342303305E+04  0.00000000000E+00 0.  1.
         23    2    1    2    0    0  0.36801971750E+02  0.22307859510E+03  0.15867862317E+03  0.29139979464E+03  0.92825051303E+02 0.  0.
    5000000    2    1    2    0    0 -0.36801971750E+02 -0.22307859510E+03 -0.11867848002E+04  0.13489546894E+04  0.60008511670E+03 0.  0.
         23    2    4    4    0    0 -0.10341781159E+03  0.32958727663E+02 -0.10059528753E+04  0.10157684596E+04  0.89793400232E+02 0.  0.
         23    2    4    4    0    0  0.66615839843E+02 -0.25603732276E+03 -0.18083192491E+03  0.33318622978E+03  0.91214570542E+02 0.  0.
          4    1    3    3  502    0  0.36863786093E+02  0.13097791842E+03  0.41290923273E+02  0.14219386127E+03  0.00000000000E+00 0. -1.
         -4    1    3    3    0  502 -0.61814342752E-01  0.92100676685E+02  0.11738769990E+03  0.14920593337E+03  0.00000000000E+00 0.  1.
         11    1    5    5    0    0 -0.33544705624E+02  0.30523537442E+02 -0.14373443145E+03  0.15072000663E+03  0.00000000000E+00 0.  1.
        -11    1    5    5    0    0 -0.69873105969E+02  0.24351902212E+01 -0.86221844385E+03  0.86504845298E+03  0.00000000000E+00 0. -1.
          5    1    6    6  503    0  0.54318572017E+02 -0.25331206367E+03 -0.18581086045E+03  0.31884992509E+03  0.47000000000E+01 0. -1.
         -5    1    6    6    0  503  0.12297267826E+02 -0.27252590921E+01  0.49789355354E+01  0.14336304690E+02  0.47000000000E+01 0.  1.
<mgrwt>
<rscale>  0 0.30799672E+03</rscale>
<asrwt>0</asrwt>
<pdfrwt beam="1">  1        2 0.20526621E+00 0.30799672E+03</pdfrwt>
<pdfrwt beam="2">  1       -2 0.47096023E-01 0.30799672E+03</pdfrwt>
<totfact> 0.73092982E+01</totfact>
</mgrwt>
</event>
<event>
12    1  0.3166324E-008  0.1084430E+04  0.7818608E-02  0.9220502E-01
         -1   -1    0    0    0  501 -0.00000000000E+00  0.00000000000E+00  0.51255815018E+03  0.51255815018E+03  0.00000000000E+00 0.  1.
          1   -1    0    0  501    0  0.00000000000E+00 -0.00000000000E+00 -0.25475326207E+04  0.25475326207E+04  0.00000000000E+00 0. -1.
         23    2    1    2    0    0  0.85631145446E+03  0.51845822728E+03 -0.14207906771E+04  0.17403697462E+04  0.90401684877E+02 0.  0.
    5000000    2    1    2    0    0 -0.85631145446E+03 -0.51845822728E+03 -0.61418379334E+03  0.13197210247E+04  0.60197475900E+03 0.  0.
         23    2    4    4    0    0 -0.19846271040E+03 -0.44866107400E+03 -0.29555350275E+03  0.57981928300E+03  0.90301280221E+02 0.  0.
         23    2    4    4    0    0 -0.65784874407E+03 -0.69797153287E+02 -0.31863029058E+03  0.73990174167E+03  0.91064332038E+02 0.  0.
          4    1    3    3  502    0  0.41580588459E+03  0.22120127474E+03 -0.73147893967E+03  0.86999194064E+03  0.00000000000E+00 0. -1.
         -4    1    3    3    0  502  0.44050556987E+03  0.29725695255E+03 -0.68931173747E+03  0.87037780552E+03  0.00000000000E+00 0.  1.
         13    1    5    5    0    0 -0.67668493658E+02 -0.26373835799E+03 -0.15711569695E+03  0.31436012587E+03  0.00000000000E+00 0. -1.
        -13    1    5    5    0    0 -0.13079421674E+03 -0.18492271601E+03 -0.13843780580E+03  0.26545915713E+03  0.00000000000E+00 0.  1.
          5    1    6    6  503    0 -0.46497147523E+03 -0.79319580605E+01 -0.22797997452E+03  0.51793662500E+03  0.47000000000E+01 0. -1.
         -5    1    6    6    0  503 -0.19287726884E+03 -0.61865195227E+02 -0.90650316060E+02  0.22196511667E+03  0.47000000000E+01 0.  1.
<mgrwt>
<rscale>  0 0.10844297E+04</rscale>
<asrwt>0</asrwt>
<pdfrwt beam="1">  1        1 0.39192809E+00 0.10844297E+04</pdfrwt>
<pdfrwt beam="2">  1       -1 0.78855102E-01 0.10844297E+04</pdfrwt>
<totfact> 0.20344341E+00</totfact>
</mgrwt>
</event>
<event>
12    1  0.3166324E-008  0.5748519E+03  0.7818608E-02  0.9958999E-01
         -2   -1    0    0    0  501 -0.00000000000E+00  0.00000000000E+00  0.15967007309E+03  0.15967007309E+03  0.00000000000E+00 0.  1.
          2   -1    0    0  501    0  0.00000000000E+00 -0.00000000000E+00 -0.23934861426E+04  0.23934861426E+04  0.00000000000E+00 0. -1.
         23    2    1    2    0    0 -0.45346554615E+03 -0.50211826821E+01 -0.10902098698E+04  0.11844696527E+04  0.93565935394E+02 0.  0.
    5000000    2    1    2    0    0  0.45346554615E+03  0.50211826821E+01 -0.11436061997E+04  0.13686865629E+04  0.59984294086E+03 0.  0.
         23    2    4    4    0    0  0.12014103912E+03  0.24532272307E+03 -0.25042402391E+03  0.38130976638E+03  0.89821147014E+02 0.  0.
         23    2    4    4    0    0  0.33332450704E+03 -0.24030154039E+03 -0.89318217581E+03  0.98737679656E+03  0.91041100006E+02 0.  0.
          1    1    3    3  502    0 -0.37183249912E+03 -0.29213317235E+02 -0.94782481329E+03  0.10185699298E+04  0.00000000000E+00 0. -1.
         -1    1    3    3    0  502 -0.81633047031E+02  0.24192134553E+02 -0.14238505647E+03  0.16589972287E+03  0.00000000000E+00 0.  1.
         11    1    5    5    0    0  0.14033781981E+02  0.97862731528E+02 -0.49943621595E+02  0.11076292970E+03  0.00000000000E+00 0. -1.
        -11    1    5    5    0    0  0.10610725713E+03  0.14745999154E+03 -0.20048040232E+03  0.27054683668E+03  0.00000000000E+00 0.  1.
          5    1    6    6  503    0  0.93440933144E+02 -0.66328281791E+02 -0.35397967910E+03  0.37209454735E+03  0.47000000000E+01 0. -1.
         -5    1    6    6    0  503  0.23988357389E+03 -0.17397325860E+03 -0.53920249672E+03  0.61528224921E+03  0.47000000000E+01 0.  1.
<mgrwt>
<rscale>  0 0.57485194E+03</rscale>
<asrwt>0</asrwt>
<pdfrwt beam="1">  1        2 0.36822863E+00 0.57485194E+03</pdfrwt>
<pdfrwt beam="2">  1       -2 0.24564627E-01 0.57485194E+03</pdfrwt>
<totfact> 0.63108697E+01</totfact>
</mgrwt>
</event>
<event>
12    1  0.3166324E-008  0.1403354E+04  0.7818608E-02  0.8951395E-01
          1   -1    0    0  501    0  0.00000000000E+00  0.00000000000E+00  0.18696927420E+04  0.18696927420E+04  0.00000000000E+00 0. -1.
         -1   -1    0    0    0  501 -0.00000000000E+00 -0.00000000000E+00 -0.11365820749E+04  0.11365820749E+04  0.00000000000E+00 0.  1.
         23    2    1    2    0    0  0.13402792540E+04 -0.37648135236E+03  0.43323745985E+03  0.14609232843E+04  0.92279242694E+02 0.  0.
    5000000    2    1    2    0    0 -0.13402792540E+04  0.37648135236E+03  0.29987320726E+03  0.15453515326E+04  0.60008393723E+03 0.  0.
         23    2    4    4    0    0 -0.27805963226E+03  0.13072501282E+03  0.31752531186E+03  0.45119396346E+03  0.91364549622E+02 0.  0.
         23    2    4    4    0    0 -0.10622196217E+04  0.24575633954E+03 -0.17652104597E+02  0.10941575692E+04  0.90346478785E+02 0.  0.
          4    1    3    3  502    0  0.49123206461E+03 -0.15637069503E+03  0.11775895035E+03  0.52879854950E+03  0.00000000000E+00 0.  1.
         -4    1    3    3    0  502  0.84904718936E+03 -0.22011065733E+03  0.31547850950E+03  0.93212473478E+03  0.00000000000E+00 0. -1.
         13    1    5    5    0    0 -0.14704830009E+03  0.11852408294E+03  0.18142555963E+03  0.26189004273E+03  0.00000000000E+00 0. -1.
        -13    1    5    5    0    0 -0.13101133217E+03  0.12200929874E+02  0.13609975223E+03  0.18930392073E+03  0.00000000000E+00 0.  1.
          5    1    6    6  503    0 -0.29385659744E+03  0.29348761093E+02 -0.17717624380E+02  0.29588689367E+03  0.47000000000E+01 0. -1.
         -5    1    6    6    0  503 -0.76836302428E+03  0.21640757845E+03  0.65519782683E-01  0.79827067551E+03  0.47000000000E+01 0.  1.
<mgrwt>
<rscale>  0 0.14033537E+04</rscale>
<asrwt>0</asrwt>
<pdfrwt beam="1">  1        1 0.28764504E+00 0.14033537E+04</pdfrwt>
<pdfrwt beam="2">  1       -1 0.17485878E+00 0.14033537E+04</pdfrwt>
<totfact> 0.79313372E-01</totfact>
</mgrwt>
</event>
<event>
12    1  0.3166324E-008  0.7544014E+03  0.7818608E-02  0.9628470E-01
         -2   -1    0    0    0  501 -0.00000000000E+00  0.00000000000E+00  0.47522432866E+03  0.47522432866E+03  0.00000000000E+00 0.  1.
          2   -1    0    0  501    0  0.00000000000E+00 -0.00000000000E+00 -0.14370303561E+04  0.14370303561E+04  0.00000000000E+00 0. -1.
         23    2    1    2    0    0  0.64506777012E+03  0.74566076118E+02 -0.75360353391E+02  0.66020090557E+03  0.92268765580E+02 0.  0.
    5000000    2    1    2    0    0 -0.64506777012E+03 -0.74566076118E+02 -0.88644567405E+03  0.12520537792E+04  0.60015015221E+03 0.  0.
         23    2    4    4    0    0 -0.71136973844E+03 -0.14505251487E+03 -0.64371301822E+03  0.97528983030E+03  0.98674547968E+02 0.  0.
         23    2    4    4    0    0  0.66301968325E+02  0.70486438754E+02 -0.24273265583E+03  0.27676394889E+03  0.91185811119E+02 0.  0.
          2    1    3    3  502    0  0.48666590750E+03  0.34160988750E+02 -0.22457580145E+02  0.48837999711E+03  0.00000000000E+00 0. -1.
         -2    1    3    3    0  502  0.15840186262E+03  0.40405087367E+02 -0.52902773246E+02  0.17182090846E+03  0.00000000000E+00 0.  1.
         11    1    5    5    0    0 -0.54518548316E+03 -0.10941682164E+03 -0.43415105037E+03  0.70546891245E+03  0.00000000000E+00 0. -1.
        -11    1    5    5    0    0 -0.16618425529E+03 -0.35635693235E+02 -0.20956196786E+03  0.26982091785E+03  0.00000000000E+00 0.  1.
          5    1    6    6  503    0 -0.59676835446E+01  0.57339593030E+02 -0.12783314549E+03  0.14030981883E+03  0.47000000000E+01 0. -1.
         -5    1    6    6    0  503  0.72269651870E+02  0.13146845725E+02 -0.11489951034E+03  0.13645413006E+03  0.47000000000E+01 0.  1.
<mgrwt>
<rscale>  0 0.75440138E+03</rscale>
<asrwt>0</asrwt>
<pdfrwt beam="1">  1        2 0.22108159E+00 0.75440138E+03</pdfrwt>
<pdfrwt beam="2">  1       -2 0.73111437E-01 0.75440138E+03</pdfrwt>
<totfact> 0.23800861E+01</totfact>
</mgrwt>
</event>
<event>
12    1  0.3166324E-008  0.5366376E+03  0.7818608E-02  0.1004635E+00
          2   -1    0    0  501    0  0.00000000000E+00  0.00000000000E+00  0.57939605192E+03  0.57939605192E+03  0.00000000000E+00 0. -1.
         -2   -1    0    0    0  501 -0.00000000000E+00 -0.00000000000E+00 -0.67073163291E+03  0.67073163291E+03  0.00000000000E+00 0.  1.
         23    2    1    2    0    0  0.35955348692E+03 -0.13368850716E+03  0.24354217387E+03  0.46338018791E+03  0.90868482959E+02 0.  0.
    5000000    2    1    2    0    0 -0.35955348692E+03  0.13368850716E+03 -0.33487775486E+03  0.78674749692E+03  0.59973092825E+03 0.  0.
         23    2    4    4    0    0 -0.48318769722E+03  0.19898804210E+03 -0.18547276603E+03  0.56201533466E+03  0.91621492050E+02 0.  0.
         23    2    4    4    0    0  0.12363421030E+03 -0.65299534946E+02 -0.14940498883E+03  0.22473216226E+03  0.92915267019E+02 0.  0.
          2    1    3    3  502    0  0.24253436231E+03 -0.12099505444E+03  0.13303373876E+03  0.30192829570E+03  0.00000000000E+00 0. -1.
         -2    1    3    3    0  502  0.11701912461E+03 -0.12693452716E+02  0.11050843511E+03  0.16145189221E+03  0.00000000000E+00 0.  1.
         11    1    5    5    0    0 -0.44617863159E+03  0.17039180209E+03 -0.14227413835E+03  0.49834793864E+03  0.00000000000E+00 0. -1.
        -11    1    5    5    0    0 -0.37009065635E+02  0.28596240011E+02 -0.43198627684E+02  0.63667396018E+02  0.00000000000E+00 0.  1.
          5    1    6    6  503    0  0.13431633890E+03 -0.57943368368E+02 -0.15164917639E+03  0.21075548755E+03  0.47000000000E+01 0. -1.
         -5    1    6    6    0  503 -0.10682128599E+02 -0.73561665788E+01  0.22441875567E+01  0.13976674710E+02  0.47000000000E+01 0.  1.
<mgrwt>
<rscale>  0 0.53663760E+03</rscale>
<asrwt>0</asrwt>
<pdfrwt beam="1">  1        2 0.89137854E-01 0.53663760E+03</pdfrwt>
<pdfrwt beam="2">  1       -2 0.10318948E+00 0.53663760E+03</pdfrwt>
<totfact> 0.40892706E+01</totfact>
</mgrwt>
</event>
<event>
12    1  0.3166324E-008  0.7341777E+03  0.7818608E-02  0.9660505E-01
          3   -1    0    0  501    0  0.00000000000E+00  0.00000000000E+00  0.10163890806E+04  0.10163890806E+04  0.00000000000E+00 0. -1.
         -3   -1    0    0    0  501 -0.00000000000E+00 -0.00000000000E+00 -0.53995666416E+03  0.53995666416E+03  0.00000000000E+00 0.  1.
         23    2    1    2    0    0  0.61517792218E+03  0.10987664858E+02  0.18911029528E+03  0.65006962688E+03  0.90902207303E+02 0.  0.
    5000000    2    1    2    0    0 -0.61517792218E+03 -0.10987664858E+02  0.28732212113E+03  0.90627611785E+03  0.60018146903E+03 0.  0.
         23    2    4    4    0    0 -0.68890620231E+03  0.82893313777E+02  0.21417699974E+03  0.73259805858E+03  0.96773297782E+02 0.  0.
         23    2    4    4    0    0  0.73728280129E+02 -0.93880978635E+02  0.73145121393E+02  0.17367805927E+03  0.10278308250E+03 0.  0.
          2    1    3    3  502    0  0.34281495946E+02 -0.14946454036E+02 -0.34080416236E+01  0.37553058468E+02  0.00000000000E+00 0. -1.
         -2    1    3    3    0  502  0.58089642624E+03  0.25934118894E+02  0.19251833691E+03  0.61251656841E+03  0.00000000000E+00 0.  1.
         13    1    5    5    0    0 -0.21665895482E+03  0.13593261091E+02  0.22514095371E+02  0.21824931602E+03  0.00000000000E+00 0.  1.
        -13    1    5    5    0    0 -0.47224724749E+03  0.69300052685E+02  0.19166290437E+03  0.51434874256E+03  0.00000000000E+00 0. -1.
          5    1    6    6  503    0  0.86444636348E+02 -0.32884556995E+02  0.58377296966E+02  0.10947176825E+03  0.47000000000E+01 0. -1.
         -5    1    6    6    0  503 -0.12716356219E+02 -0.60996421639E+02  0.14767824427E+02  0.64206291020E+02  0.47000000000E+01 0.  1.
<mgrwt>
<rscale>  0 0.73417771E+03</rscale>
<asrwt>0</asrwt>
<pdfrwt beam="1">  1        3 0.15636755E+00 0.73417771E+03</pdfrwt>
<pdfrwt beam="2">  1       -3 0.83070256E-01 0.73417771E+03</pdfrwt>
<totfact> 0.10091295E+00</totfact>
</mgrwt>
</event>
<event>
12    1  0.3166324E-008  0.6964717E+03  0.7818608E-02  0.9723285E-01
         -2   -1    0    0    0  501 -0.00000000000E+00  0.00000000000E+00  0.77425403574E+03  0.77425403574E+03  0.00000000000E+00 0. -1.
          2   -1    0    0  501    0  0.00000000000E+00 -0.00000000000E+00 -0.84535266598E+03  0.84535266598E+03  0.00000000000E+00 0.  1.
         23    2    1    2    0    0  0.54263292112E+03 -0.42956242557E+03  0.26737271806E+02  0.69850643033E+03  0.90675172814E+02 0.  0.
    5000000    2    1    2    0    0 -0.54263292112E+03  0.42956242557E+03 -0.97835902049E+02  0.92110027139E+03  0.59989955966E+03 0.  0.
         23    2    4    4    0    0 -0.19863720334E+03  0.18294819472E+03 -0.32563269118E+03  0.43266542923E+03  0.90752099617E+02 0.  0.
         23    2    4    4    0    0 -0.34399571778E+03  0.24661423085E+03  0.22779678913E+03  0.48843484216E+03  0.86750130785E+02 0.  0.
          3    1    3    3  502    0  0.38803301253E+03 -0.29779691603E+03 -0.21923801265E+02  0.48962564789E+03  0.00000000000E+00 0. -1.
         -3    1    3    3    0  502  0.15459990859E+03 -0.13176550954E+03  0.48661073071E+02  0.20888078244E+03  0.00000000000E+00 0.  1.
         13    1    5    5    0    0 -0.11533242852E+03  0.12494056391E+03 -0.13662937195E+03  0.21812679536E+03  0.00000000000E+00 0.  1.
        -13    1    5    5    0    0 -0.83304774816E+02  0.58007630816E+02 -0.18900331923E+03  0.21453863386E+03  0.00000000000E+00 0. -1.
          5    1    6    6  503    0 -0.13466277838E+02  0.31929631194E+02  0.35639116870E+02  0.49930738411E+02  0.47000000000E+01 0. -1.
         -5    1    6    6    0  503 -0.33052943995E+03  0.21468459965E+03  0.19215767226E+03  0.43850410375E+03  0.47000000000E+01 0.  1.
<mgrwt>
<rscale>  0 0.69647175E+03</rscale>
<asrwt>0</asrwt>
<pdfrwt beam="1">  1        2 0.13005426E+00 0.69647175E+03</pdfrwt>
<pdfrwt beam="2">  1       -2 0.11911601E+00 0.69647175E+03</pdfrwt>
<totfact> 0.17655717E+01</totfact>
</mgrwt>
</event>
<event>
12    1  0.3166324E-008  0.7910767E+03  0.7818608E-02  0.9573024E-01
         -1   -1    0    0    0  501 -0.00000000000E+00  0.00000000000E+00  0.45732941022E+03  0.45732941022E+03  0.00000000000E+00 0.  1.
          1   -1    0    0  501    0  0.00000000000E+00 -0.00000000000E+00 -0.22816733292E+04  0.22816733292E+04  0.00000000000E+00 0. -1.
         23    2    1    2    0    0 -0.75226530817E+03  0.18756462013E+03 -0.14538309104E+03  0.79477338038E+03  0.97184887794E+02 0.  0.
    5000000    2    1    2    0    0  0.75226530817E+03 -0.18756462013E+03 -0.16789608280E+04  0.19442293591E+04  0.60002896447E+03 0.  0.
         23    2    4    4    0    0  0.66185452192E+03 -0.15546827914E+03 -0.79145447174E+03  0.10472787712E+04  0.90392753374E+02 0.  0.
         23    2    4    4    0    0  0.90410786245E+02 -0.32096340981E+02 -0.88750635625E+03  0.89695058784E+03  0.87455927528E+02 0.  0.
          3    1    3    3  502    0 -0.43610512827E+03  0.11293045307E+03 -0.35682735372E+02  0.45190068348E+03  0.00000000000E+00 0. -1.
         -3    1    3    3    0  502 -0.31616017990E+03  0.74634167060E+02 -0.10970035566E+03  0.34287269690E+03  0.00000000000E+00 0.  1.
         11    1    5    5    0    0  0.49600663194E+02 -0.10570045186E+02 -0.27830966868E+02  0.57849065345E+02  0.00000000000E+00 0.  1.
        -11    1    5    5    0    0  0.61225385873E+03 -0.14489823396E+03 -0.76362350487E+03  0.98942970590E+03  0.00000000000E+00 0. -1.
          5    1    6    6  503    0 -0.10718763788E+02 -0.22346423430E+02 -0.26411010890E+03  0.26531206938E+03  0.47000000000E+01 0. -1.
         -5    1    6    6    0  503  0.10112955003E+03 -0.97499175512E+01 -0.62339624735E+03  0.63163851845E+03  0.47000000000E+01 0.  1.
<mgrwt>
<rscale>  0 0.79107672E+03</rscale>
<asrwt>0</asrwt>
<pdfrwt beam="1">  1        1 0.35102667E+00 0.79107672E+03</pdfrwt>
<pdfrwt beam="2">  1       -1 0.70358371E-01 0.79107672E+03</pdfrwt>
<totfact> 0.41000661E+00</totfact>
</mgrwt>
</event>
<event>
12    1  0.4967067E-008  0.8685815E+03  0.7818608E-02  0.9465731E-01
         -1   -1    0    0    0  501 -0.00000000000E+00  0.00000000000E+00  0.46101629851E+03  0.46101629851E+03  0.00000000000E+00 0.  1.
          1   -1    0    0  501    0  0.00000000000E+00 -0.00000000000E+00 -0.18000622550E+04  0.18000622550E+04  0.00000000000E+00 0. -1.
         23    2    1    2    0    0  0.76698807194E+03 -0.16362489138E+03 -0.34288063326E+03  0.85848208760E+03  0.66185787638E+02 0.  0.
    5000000    2    1    2    0    0 -0.76698807194E+03  0.16362489138E+03 -0.99616532327E+03  0.14025964659E+04  0.59990639887E+03 0.  0.
         23    2    4    4    0    0 -0.29592358514E+03  0.32978245496E+03 -0.63390218975E+03  0.77883192443E+03  0.91760255587E+02 0.  0.
         23    2    4    4    0    0 -0.47106448680E+03 -0.16615756357E+03 -0.36226313352E+03  0.62376454151E+03  0.91310123652E+02 0.  0.
          4    1    3    3  502    0  0.30348095209E+03 -0.97823760222E+02 -0.14214600598E+03  0.34910695118E+03  0.00000000000E+00 0. -1.
         -4    1    3    3    0  502  0.46350711985E+03 -0.65801131161E+02 -0.20073462728E+03  0.50937513642E+03  0.00000000000E+00 0.  1.
         13    1    5    5    0    0 -0.25699177747E+03  0.23650909336E+03 -0.45819226919E+03  0.57612627129E+03  0.00000000000E+00 0.  1.
        -13    1    5    5    0    0 -0.38931807679E+02  0.93273361592E+02 -0.17570992056E+03  0.20270565314E+03  0.00000000000E+00 0. -1.
          5    1    6    6  503    0 -0.32622450057E+03 -0.10799120988E+03 -0.19582959131E+03  0.39554499746E+03  0.47000000000E+01 0. -1.
         -5    1    6    6    0  503 -0.14483998623E+03 -0.58166353693E+02 -0.16643354222E+03  0.22821954405E+03  0.47000000000E+01 0.  1.
<mgrwt>
<rscale>  0 0.86858148E+03</rscale>
<asrwt>0</asrwt>
<pdfrwt beam="1">  1        1 0.27693266E+00 0.86858148E+03</pdfrwt>
<pdfrwt beam="2">  1       -1 0.70925584E-01 0.86858148E+03</pdfrwt>
<totfact> 0.83905574E+00</totfact>
</mgrwt>
</event>
<event>
12    1  0.3166324E-008  0.6163194E+03  0.7818608E-02  0.9872115E-01
          1   -1    0    0  501    0  0.00000000000E+00  0.00000000000E+00  0.13299896690E+04  0.13299896690E+04  0.00000000000E+00 0. -1.
         -1   -1    0    0    0  501 -0.00000000000E+00 -0.00000000000E+00 -0.31125084297E+03  0.31125084297E+03  0.00000000000E+00 0.  1.
         23    2    1    2    0    0 -0.30290512846E+03  0.39167856020E+03  0.47302359394E+03  0.69094819566E+03  0.92165488613E+02 0.  0.
    5000000    2    1    2    0    0  0.30290512846E+03 -0.39167856020E+03  0.54571523206E+03  0.95029231629E+03  0.60007229608E+03 0.  0.
         23    2    4    4    0    0  0.30223246548E+02  0.13362188376E+03  0.20535021805E+03  0.26169228699E+03  0.86867074125E+02 0.  0.
         23    2    4    4    0    0  0.27268188191E+03 -0.52530044396E+03  0.34036501402E+03  0.68860002930E+03  0.89586229076E+02 0.  0.
          2    1    3    3  502    0 -0.11638942459E+03  0.22068669311E+03  0.25780742273E+03  0.35876703010E+03  0.00000000000E+00 0. -1.
         -2    1    3    3    0  502 -0.18651570387E+03  0.17099186709E+03  0.21521617121E+03  0.33218116555E+03  0.00000000000E+00 0.  1.
         11    1    5    5    0    0  0.15600556060E+02  0.34088176774E+02  0.13191662476E+03  0.13713999064E+03  0.00000000000E+00 0. -1.
        -11    1    5    5    0    0  0.14622690488E+02  0.99533706982E+02  0.73433593292E+02  0.12455229635E+03  0.00000000000E+00 0.  1.
          5    1    6    6  503    0  0.77303145946E+02 -0.15787958869E+03  0.14925148824E+03  0.23065089993E+03  0.47000000000E+01 0. -1.
         -5    1    6    6    0  503  0.19537873596E+03 -0.36742085527E+03  0.19111352578E+03  0.45794912937E+03  0.47000000000E+01 0.  1.
<mgrwt>
<rscale>  0 0.61631943E+03</rscale>
<asrwt>0</asrwt>
<pdfrwt beam="1">  1        1 0.20461379E+00 0.61631943E+03</pdfrwt>
<pdfrwt beam="2">  1       -1 0.47884746E-01 0.61631943E+03</pdfrwt>
<totfact> 0.39229391E+01</totfact>
</mgrwt>
</event>
<event>
12    1  0.3166324E-008  0.8395426E+03  0.7818608E-02  0.9504481E-01
          2   -1    0    0  501    0  0.00000000000E+00  0.00000000000E+00  0.20510773940E+04  0.20510773940E+04  0.00000000000E+00 0. -1.
         -2   -1    0    0    0  501 -0.00000000000E+00 -0.00000000000E+00 -0.48179932106E+03  0.48179932106E+03  0.00000000000E+00 0.  1.
         23    2    1    2    0    0  0.19852397172E+03  0.80463289007E+03  0.26436587173E+03  0.87467829203E+03  0.91252097429E+02 0.  0.
    5000000    2    1    2    0    0 -0.19852397172E+03 -0.80463289007E+03  0.13049122012E+04  0.16581984230E+04  0.59998358489E+03 0.  0.
         23    2    4    4    0    0 -0.83759070157E+02 -0.23068001651E+03  0.90804168431E+03  0.94515343533E+03  0.92447087583E+02 0.  0.
         23    2    4    4    0    0 -0.11476490156E+03 -0.57395287355E+03  0.39687051689E+03  0.71304498770E+03  0.91291092738E+02 0.  0.
          1    1    3    3  502    0  0.12118266855E+03  0.36071201549E+03  0.15574975227E+03  0.41116466605E+03  0.00000000000E+00 0. -1.
         -1    1    3    3    0  502  0.77341303170E+02  0.44392087458E+03  0.10861611946E+03  0.46351362598E+03  0.00000000000E+00 0.  1.
         13    1    5    5    0    0 -0.56584395472E+02 -0.21960458378E+03  0.85468847503E+03  0.88426260600E+03  0.00000000000E+00 0.  1.
        -13    1    5    5    0    0 -0.27174674685E+02 -0.11075432730E+02  0.53353209285E+02  0.60890829321E+02  0.00000000000E+00 0. -1.
          5    1    6    6  503    0 -0.97738182950E+02 -0.26691917583E+03  0.20613651830E+03  0.35115944100E+03  0.47000000000E+01 0. -1.
         -5    1    6    6    0  503 -0.17026718608E+02 -0.30703369773E+03  0.19073399860E+03  0.36188554670E+03  0.47000000000E+01 0.  1.
<mgrwt>
<rscale>  0 0.83954259E+03</rscale>
<asrwt>0</asrwt>
<pdfrwt beam="1">  1        2 0.31555036E+00 0.83954259E+03</pdfrwt>
<pdfrwt beam="2">  1       -2 0.74122974E-01 0.83954259E+03</pdfrwt>
<totfact> 0.10495250E+01</totfact>
</mgrwt>
</event>
<event>
12    1  0.3166324E-008  0.2785463E+03  0.7818608E-02  0.1096486E+00
          2   -1    0    0  501    0  0.00000000000E+00  0.00000000000E+00  0.19118639003E+04  0.19118639003E+04  0.00000000000E+00 0. -1.
         -2   -1    0    0    0  501 -0.00000000000E+00 -0.00000000000E+00 -0.18770990932E+03  0.18770990932E+03  0.00000000000E+00 0.  1.
         23    2    1    2    0    0 -0.63238930875E+02  0.25878456919E+03  0.31285180828E+02  0.28384093928E+03  0.92834802996E+02 0.  0.
    5000000    2    1    2    0    0  0.63238930875E+02 -0.25878456919E+03  0.16928688102E+04  0.18157328703E+04  0.60009368634E+03 0.  0.
         23    2    4    4    0    0  0.21318282394E+02 -0.93156846190E+02  0.25699619575E+02  0.13728731929E+03  0.95156032054E+02 0.  0.
         23    2    4    4    0    0  0.41920648480E+02 -0.16562772300E+03  0.16671691906E+04  0.16784455510E+04  0.92393042984E+02 0.  0.
          2    1    3    3  502    0  0.16342481458E+02  0.40330695303E+02 -0.16399063197E+02  0.46503451028E+02  0.00000000000E+00 0. -1.
         -2    1    3    3    0  502 -0.79581412332E+02  0.21845387388E+03  0.47684244025E+02  0.23733748826E+03  0.00000000000E+00 0.  1.
         11    1    5    5    0    0  0.34843224528E+02 -0.32865434172E+02 -0.27950383628E+02  0.55456388305E+02  0.00000000000E+00 0.  1.
        -11    1    5    5    0    0 -0.13524942134E+02 -0.60291412018E+02  0.53650003203E+02  0.81830930989E+02  0.00000000000E+00 0. -1.
          5    1    6    6  503    0  0.20410948778E+02 -0.99959480468E+02  0.56890277376E+03  0.57799737072E+03  0.47000000000E+01 0. -1.
         -5    1    6    6    0  503  0.21509699702E+02 -0.65668242528E+02  0.10982664168E+04  0.11004481803E+04  0.47000000000E+01 0.  1.
<mgrwt>
<rscale>  0 0.27854631E+03</rscale>
<asrwt>0</asrwt>
<pdfrwt beam="1">  1        2 0.29413289E+00 0.27854631E+03</pdfrwt>
<pdfrwt beam="2">  1       -2 0.28878449E-01 0.27854631E+03</pdfrwt>
<totfact> 0.91364182E+01</totfact>
</mgrwt>
</event>
<event>
12    1  0.3166324E-008  0.7913681E+03  0.7818608E-02  0.9572596E-01
         -2   -1    0    0    0  501 -0.00000000000E+00  0.00000000000E+00  0.11879792566E+04  0.11879792566E+04  0.00000000000E+00 0.  1.
          2   -1    0    0  501    0  0.00000000000E+00 -0.00000000000E+00 -0.45437816087E+04  0.45437816087E+04  0.00000000000E+00 0. -1.
         23    2    1    2    0    0  0.44237618809E+03 -0.56394102422E+03  0.10243959548E+04  0.12529481199E+04  0.82254169046E+02 0.  0.
    5000000    2    1    2    0    0 -0.44237618809E+03  0.56394102422E+03 -0.43801983069E+04  0.44788127453E+04  0.59991685159E+03 0.  0.
         23    2    4    4    0    0 -0.15680840547E+03  0.54317737847E+03 -0.35635547243E+04  0.36092622968E+04  0.90672563629E+02 0.  0.
         23    2    4    4    0    0 -0.28556778262E+03  0.20763645758E+02 -0.81664358266E+03  0.86955044849E+03  0.85036191795E+02 0.  0.
          3    1    3    3  502    0  0.29180090183E+03 -0.42661900995E+03  0.76070482476E+03  0.91968656420E+03  0.00000000000E+00 0. -1.
         -3    1    3    3    0  502  0.15057528626E+03 -0.13732201427E+03  0.26369113009E+03  0.33326155573E+03  0.00000000000E+00 0.  1.
         13    1    5    5    0    0 -0.26343188072E+02  0.22942705030E+03 -0.15865993507E+04  0.16033178833E+04  0.00000000000E+00 0.  1.
        -13    1    5    5    0    0 -0.13046521740E+03  0.31375032816E+03 -0.19769553735E+04  0.20059444136E+04  0.00000000000E+00 0. -1.
          5    1    6    6  503    0 -0.41646350998E+02 -0.15536402937E+02 -0.20955257451E+03  0.21426658594E+03  0.47000000000E+01 0. -1.
         -5    1    6    6    0  503 -0.24392143162E+03  0.36300048695E+02 -0.60709100815E+03  0.65528386255E+03  0.47000000000E+01 0.  1.
<mgrwt>
<rscale>  0 0.79136810E+03</rscale>
<asrwt>0</asrwt>
<pdfrwt beam="1">  1        2 0.69904331E+00 0.79136810E+03</pdfrwt>
<pdfrwt beam="2">  1       -2 0.18276604E+00 0.79136810E+03</pdfrwt>
<totfact> 0.22008033E-02</totfact>
</mgrwt>
</event>
<event>
12    1  0.3166324E-008  0.1275749E+04  0.7818608E-02  0.9049021E-01
         -1   -1    0    0    0  501 -0.00000000000E+00  0.00000000000E+00  0.90680846489E+03  0.90680846489E+03  0.00000000000E+00 0.  1.
          1   -1    0    0  501    0  0.00000000000E+00 -0.00000000000E+00 -0.18992506679E+04  0.18992506679E+04  0.00000000000E+00 0. -1.
         23    2    1    2    0    0  0.12106135665E+04  0.27375644928E+03 -0.42455584737E+03  0.13150304173E+04  0.92355453574E+02 0.  0.
    5000000    2    1    2    0    0 -0.12106135665E+04 -0.27375644928E+03 -0.56788635561E+03  0.14910287155E+04  0.60011991845E+03 0.  0.
         23    2    4    4    0    0 -0.12321032465E+03  0.62348567608E+02  0.71202582402E+02  0.18234409713E+03  0.95453831946E+02 0.  0.
         23    2    4    4    0    0 -0.10874032419E+04 -0.33610501689E+03 -0.63908893801E+03  0.13086846184E+04  0.93852899853E+02 0.  0.
          4    1    3    3  502    0  0.76781710050E+03  0.15443752919E+03 -0.31026338684E+03  0.84241166864E+03  0.00000000000E+00 0. -1.
         -4    1    3    3    0  502  0.44279646604E+03  0.11931892009E+03 -0.11429246053E+03  0.47261874864E+03  0.00000000000E+00 0.  1.
         13    1    5    5    0    0  0.80576705994E+01  0.31958200902E+02  0.10781246574E+02  0.34676907850E+02  0.00000000000E+00 0.  1.
        -13    1    5    5    0    0 -0.13126799525E+03  0.30390366706E+02  0.60421335828E+02  0.14766718928E+03  0.00000000000E+00 0. -1.
          5    1    6    6  503    0 -0.92498530455E+03 -0.25030424071E+03 -0.53411144945E+03  0.10970629686E+04  0.47000000000E+01 0. -1.
         -5    1    6    6    0  503 -0.16241793734E+03 -0.85800776176E+02 -0.10497748856E+03  0.21162164980E+03  0.47000000000E+01 0.  1.
<mgrwt>
<rscale>  0 0.12757488E+04</rscale>
<asrwt>0</asrwt>
<pdfrwt beam="1">  1        1 0.29219241E+00 0.12757488E+04</pdfrwt>
<pdfrwt beam="2">  1       -1 0.13950900E+00 0.12757488E+04</pdfrwt>
<totfact> 0.14372491E+00</totfact>
</mgrwt>
</event>
<event>
12    1  0.3166324E-008  0.1271047E+04  0.7818608E-02  0.9052846E-01
         -2   -1    0    0    0  501 -0.00000000000E+00  0.00000000000E+00  0.45544281826E+03  0.45544281826E+03  0.00000000000E+00 0.  1.
          2   -1    0    0  501    0  0.00000000000E+00 -0.00000000000E+00 -0.40144218271E+04  0.40144218271E+04  0.00000000000E+00 0. -1.
         23    2    1    2    0    0 -0.74029658845E+03  0.10078972511E+04 -0.21738867631E+04  0.25097045219E+04  0.94536875358E+02 0.  0.
    5000000    2    1    2    0    0  0.74029658845E+03 -0.10078972511E+04 -0.13850922458E+04  0.19601601235E+04  0.59987604783E+03 0.  0.
         23    2    4    4    0    0  0.26202793707E+03 -0.61551830409E+03 -0.37717175254E+03  0.77398151871E+03  0.96267533005E+02 0.  0.
         23    2    4    4    0    0  0.47826865139E+03 -0.39237894704E+03 -0.10079204933E+04  0.11861786048E+04  0.91726881574E+02 0.  0.
          1    1    3    3  502    0 -0.53891307366E+03  0.70815268033E+03 -0.14638515137E+04  0.17131166843E+04  0.00000000000E+00 0. -1.
         -1    1    3    3    0  502 -0.20138351479E+03  0.29974457079E+03 -0.71003524932E+03  0.79658783761E+03  0.00000000000E+00 0.  1.
         13    1    5    5    0    0  0.16601184828E+03 -0.31229993762E+03 -0.15585008065E+03  0.38649764869E+03  0.00000000000E+00 0.  1.
        -13    1    5    5    0    0  0.96016088783E+02 -0.30321836647E+03 -0.22132167190E+03  0.38748387001E+03  0.00000000000E+00 0. -1.
          5    1    6    6  503    0  0.30454641305E+03 -0.26718367593E+03 -0.73469303035E+03  0.83900630107E+03  0.47000000000E+01 0. -1.
         -5    1    6    6    0  503  0.17372223834E+03 -0.12519527111E+03 -0.27322746293E+03  0.34717230376E+03  0.47000000000E+01 0.  1.
<mgrwt>
<rscale>  0 0.12710465E+04</rscale>
<asrwt>0</asrwt>
<pdfrwt beam="1">  1        2 0.61760334E+00 0.12710465E+04</pdfrwt>
<pdfrwt beam="2">  1       -2 0.70068128E-01 0.12710465E+04</pdfrwt>
<totfact> 0.62241265E-01</totfact>
</mgrwt>
</event>
<event>
12    1  0.3166324E-008  0.1024108E+04  0.7818608E-02  0.9282492E-01
          1   -1    0    0  501    0  0.00000000000E+00  0.00000000000E+00  0.88860506650E+03  0.88860506650E+03  0.00000000000E+00 0. -1.
         -1   -1    0    0    0  501 -0.00000000000E+00 -0.00000000000E+00 -0.12730066549E+04  0.12730066549E+04  0.00000000000E+00 0.  1.
         23    2    1    2    0    0  0.95585811043E+03  0.64950926958E+02  0.15545905541E+02  0.96249365344E+03  0.90934083463E+02 0.  0.
    5000000    2    1    2    0    0 -0.95585811043E+03 -0.64950926958E+02 -0.39994749393E+03  0.11991180680E+04  0.60003565962E+03 0.  0.
         23    2    4    4    0    0 -0.98646017379E+02 -0.17546837900E+03  0.40886248926E+02  0.22448321412E+03  0.90558485497E+02 0.  0.
         23    2    4    4    0    0 -0.85721209305E+03  0.11051745205E+03 -0.44083374286E+03  0.97463485384E+03  0.92477185280E+02 0.  0.
          4    1    3    3  502    0  0.27375627296E+03  0.56367358487E+02  0.21346755131E+02  0.28031314639E+03  0.00000000000E+00 0. -1.
         -4    1    3    3    0  502  0.68210183747E+03  0.85835684716E+01 -0.58008495895E+01  0.68218050704E+03  0.00000000000E+00 0.  1.
         11    1    5    5    0    0  0.12853744516E+02 -0.53912268208E+02  0.15850245864E+02  0.57645309482E+02  0.00000000000E+00 0. -1.
        -11    1    5    5    0    0 -0.11149976189E+03 -0.12155611080E+03  0.25036003062E+02  0.16683790464E+03  0.00000000000E+00 0.  1.
          5    1    6    6  503    0 -0.52995411340E+03  0.95820026660E+02 -0.23414326819E+03  0.58726314362E+03  0.47000000000E+01 0. -1.
         -5    1    6    6    0  503 -0.32725797965E+03  0.14697425387E+02 -0.20669047467E+03  0.38737171022E+03  0.47000000000E+01 0.  1.
<mgrwt>
<rscale>  0 0.10241081E+04</rscale>
<asrwt>0</asrwt>
<pdfrwt beam="1">  1        1 0.13670847E+00 0.10241081E+04</pdfrwt>
<pdfrwt beam="2">  1       -1 0.19584718E+00 0.10241081E+04</pdfrwt>
<totfact> 0.29930456E+00</totfact>
</mgrwt>
</event>
<event>
12    1  0.3166324E-008  0.6067268E+03  0.7818608E-02  0.9891548E-01
          1   -1    0    0  501    0  0.00000000000E+00  0.00000000000E+00  0.10599098088E+04  0.10599098088E+04  0.00000000000E+00 0. -1.
         -1   -1    0    0    0  501 -0.00000000000E+00 -0.00000000000E+00 -0.36378027489E+03  0.36378027489E+03  0.00000000000E+00 0.  1.
         23    2    1    2    0    0  0.10324537571E+02 -0.46203244744E+03  0.37153214300E+03  0.59975045663E+03  0.89910502053E+02 0.  0.
    5000000    2    1    2    0    0 -0.10324537571E+02  0.46203244744E+03  0.32459739094E+03  0.82393962709E+03  0.59994371762E+03 0.  0.
         23    2    4    4    0    0 -0.66268264314E+02 -0.11743935766E+03  0.25064706742E+02  0.16287745178E+03  0.87848387521E+02 0.  0.
         23    2    4    4    0    0  0.55943726743E+02  0.57947180510E+03  0.29953268420E+03  0.66106217531E+03  0.91466372280E+02 0.  0.
          3    1    3    3  502    0  0.26306220893E+02 -0.43186100247E+02  0.53386216195E+02  0.73533289004E+02  0.00000000000E+00 0. -1.
         -3    1    3    3    0  502 -0.15981683322E+02 -0.41884634719E+03  0.31814592680E+03  0.52621716762E+03  0.00000000000E+00 0.  1.
         13    1    5    5    0    0 -0.30991839544E+02 -0.11868732098E+03  0.32293124309E+02  0.12684644322E+03  0.00000000000E+00 0.  1.
        -13    1    5    5    0    0 -0.35276424770E+02  0.12479633209E+01 -0.72284175670E+01  0.36031008555E+02  0.00000000000E+00 0. -1.
          5    1    6    6  503    0  0.68535719421E+02  0.40535534236E+03  0.17638601616E+03  0.44737480385E+03  0.47000000000E+01 0. -1.
         -5    1    6    6    0  503 -0.12591992678E+02  0.17411646274E+03  0.12314666804E+03  0.21368737147E+03  0.47000000000E+01 0.  1.
<mgrwt>
<rscale>  0 0.60672680E+03</rscale>
<asrwt>0</asrwt>
<pdfrwt beam="1">  1        1 0.16306305E+00 0.60672680E+03</pdfrwt>
<pdfrwt beam="2">  1       -1 0.55966197E-01 0.60672680E+03</pdfrwt>
<totfact> 0.45764789E+01</totfact>
</mgrwt>
</event>
<event>
12    1  0.3166324E-008  0.5689250E+03  0.7818608E-02  0.9972060E-01
         -2   -1    0    0    0  501 -0.00000000000E+00  0.00000000000E+00  0.11595181341E+04  0.11595181341E+04  0.00000000000E+00 0.  1.
          2   -1    0    0  501    0  0.00000000000E+00 -0.00000000000E+00 -0.29698649769E+03  0.29698649769E+03  0.00000000000E+00 0. -1.
         23    2    1    2    0    0  0.15069433961E+03  0.38383990743E+03  0.46101729911E+03  0.62535110537E+03  0.92115125650E+02 0.  0.
    5000000    2    1    2    0    0 -0.15069433961E+03 -0.38383990743E+03  0.40151433731E+03  0.83115352644E+03  0.59963369061E+03 0.  0.
         23    2    4    4    0    0 -0.35936217951E+03 -0.16421338975E+03  0.27915100189E+03  0.49169978957E+03  0.87955601165E+02 0.  0.
         23    2    4    4    0    0  0.20866783990E+03 -0.21962651769E+03  0.12236333543E+03  0.33945373686E+03  0.92075941123E+02 0.  0.
          3    1    3    3  502    0  0.46316576513E+02  0.21924701808E+03  0.28659148605E+03  0.36379824088E+03  0.00000000000E+00 0. -1.
         -3    1    3    3    0  502  0.10437776309E+03  0.16459288936E+03  0.17442581306E+03  0.26155286448E+03  0.00000000000E+00 0.  1.
         13    1    5    5    0    0 -0.24097073208E+03 -0.66649689095E+02  0.19222825919E+03  0.31537402938E+03  0.00000000000E+00 0.  1.
        -13    1    5    5    0    0 -0.11839144743E+03 -0.97563700653E+02  0.86922742695E+02  0.17632576019E+03  0.00000000000E+00 0. -1.
          5    1    6    6  503    0  0.37195599187E+02 -0.98639709826E+02  0.55007600471E+02  0.11900097085E+03  0.47000000000E+01 0. -1.
         -5    1    6    6    0  503  0.17147224072E+03 -0.12098680786E+03  0.67355734955E+02  0.22045276602E+03  0.47000000000E+01 0.  1.
<mgrwt>
<rscale>  0 0.56892504E+03</rscale>
<asrwt>0</asrwt>
<pdfrwt beam="1">  1        2 0.45690231E-01 0.56892504E+03</pdfrwt>
<pdfrwt beam="2">  1       -2 0.17838740E+00 0.56892504E+03</pdfrwt>
<totfact> 0.21307419E+01</totfact>
</mgrwt>
</event>
<event>
12    1  0.3166324E-008  0.7961387E+03  0.7818608E-02  0.9565623E-01
          4   -1    0    0  501    0  0.00000000000E+00  0.00000000000E+00  0.11757522295E+04  0.11757522295E+04  0.00000000000E+00 0.  1.
         -4   -1    0    0    0  501 -0.00000000000E+00 -0.00000000000E+00 -0.73451719427E+03  0.73451719427E+03  0.00000000000E+00 0. -1.
         23    2    1    2    0    0 -0.64186268344E+03 -0.26591077917E+03 -0.26791209790E+03  0.75011910776E+03  0.90584417791E+02 0.  0.
    5000000    2    1    2    0    0  0.64186268344E+03  0.26591077917E+03  0.70914713317E+03  0.11601503161E+04  0.60030230092E+03 0.  0.
         23    2    4    4    0    0  0.59919547300E+03  0.40904908159E+03  0.49596663264E+03  0.88366067605E+03  0.92287180600E+02 0.  0.
         23    2    4    4    0    0  0.42667210442E+02 -0.14313830242E+03  0.21318050053E+03  0.27648964000E+03  0.93228379558E+02 0.  0.
          2    1    3    3  502    0 -0.26678233814E+03 -0.15266925010E+03 -0.93787481566E+02  0.32136709161E+03  0.00000000000E+00 0. -1.
         -2    1    3    3    0  502 -0.37508034530E+03 -0.11324152906E+03 -0.17412461634E+03  0.42875201615E+03  0.00000000000E+00 0.  1.
         13    1    5    5    0    0  0.17637386863E+03  0.17233198292E+03  0.17673817294E+03  0.30338496280E+03  0.00000000000E+00 0.  1.
        -13    1    5    5    0    0  0.42282160436E+03  0.23671709866E+03  0.31922845969E+03  0.58027571326E+03  0.00000000000E+00 0. -1.
          5    1    6    6  503    0  0.32874170879E+02 -0.20951271905E+02  0.10795007861E+03  0.11486938834E+03  0.47000000000E+01 0. -1.
         -5    1    6    6    0  503  0.97930395638E+01 -0.12218703052E+03  0.10523042192E+03  0.16162025166E+03  0.47000000000E+01 0.  1.
<mgrwt>
<rscale>  0 0.79613871E+03</rscale>
<asrwt>0</asrwt>
<pdfrwt beam="1">  1        4 0.18088496E+00 0.79613871E+03</pdfrwt>
<pdfrwt beam="2">  1       -4 0.11300265E+00 0.79613871E+03</pdfrwt>
<totfact> 0.21209534E-01</totfact>
</mgrwt>
</event>
<event>
12    1  0.3166324E-008  0.5167441E+03  0.7818608E-02  0.1009499E+00
         -2   -1    0    0    0  501 -0.00000000000E+00  0.00000000000E+00  0.93130855022E+03  0.93130855022E+03  0.00000000000E+00 0.  1.
          2   -1    0    0  501    0  0.00000000000E+00 -0.00000000000E+00 -0.52928971772E+03  0.52928971772E+03  0.00000000000E+00 0. -1.
         23    2    1    2    0    0 -0.15519767262E+03 -0.43836277568E+03  0.50738075285E+03  0.69422638716E+03  0.90921986176E+02 0.  0.
    5000000    2    1    2    0    0  0.15519767262E+03  0.43836277568E+03 -0.10536192035E+03  0.76637188079E+03  0.59998040361E+03 0.  0.
         23    2    4    4    0    0  0.63379570062E+02 -0.25222524505E+01 -0.25904909845E+03  0.28195099332E+03  0.91469096256E+02 0.  0.
         23    2    4    4    0    0  0.91818102562E+02  0.44088502813E+03  0.15368717810E+03  0.48442088747E+03  0.90739602771E+02 0.  0.
          2    1    3    3  502    0 -0.11907798737E+03 -0.28497584946E+03  0.27553284934E+03  0.41389509893E+03  0.00000000000E+00 0.  1.
         -2    1    3    3    0  502 -0.36119685257E+02 -0.15338692623E+03  0.23184790350E+03  0.28033128823E+03  0.00000000000E+00 0. -1.
         13    1    5    5    0    0  0.13035187655E+02 -0.42071746844E+02 -0.14019458069E+03  0.14695056467E+03  0.00000000000E+00 0.  1.
        -13    1    5    5    0    0  0.50344382407E+02  0.39549494394E+02 -0.11885451776E+03  0.13500042866E+03  0.00000000000E+00 0. -1.
          5    1    6    6  503    0  0.64574838078E+02  0.11534720613E+03  0.53611422569E+02  0.14272758074E+03  0.47000000000E+01 0.  1.
         -5    1    6    6    0  503  0.27243264484E+02  0.32553782201E+03  0.10007575553E+03  0.34169330673E+03  0.47000000000E+01 0. -1.
<mgrwt>
<rscale>  0 0.51674407E+03</rscale>
<asrwt>0</asrwt>
<pdfrwt beam="1">  1        2 0.81429187E-01 0.51674407E+03</pdfrwt>
<pdfrwt beam="2">  1       -2 0.14327824E+00 0.51674407E+03</pdfrwt>
<totfact> 0.20230168E+01</totfact>
</mgrwt>
</event>
<event>
12    1  0.3166324E-008  0.1332608E+04  0.7818608E-02  0.9004099E-01
         -1   -1    0    0    0  501 -0.00000000000E+00  0.00000000000E+00  0.11561203324E+04  0.11561203324E+04  0.00000000000E+00 0.  1.
          1   -1    0    0  501    0  0.00000000000E+00 -0.00000000000E+00 -0.16216064657E+04  0.16216064657E+04  0.00000000000E+00 0. -1.
         23    2    1    2    0    0  0.54335517915E+01  0.12654900725E+04 -0.53155792972E+03  0.13756408889E+04  0.91320181503E+02 0.  0.
    5000000    2    1    2    0    0 -0.54335517915E+01 -0.12654900725E+04  0.66071796360E+02  0.14020859092E+04  0.59998730610E+03 0.  0.
         23    2    4    4    0    0 -0.28677968388E+03 -0.70589514203E+03  0.50605099372E+02  0.76852849482E+03  0.86859844804E+02 0.  0.
         23    2    4    4    0    0  0.28134613209E+03 -0.55959493043E+03  0.15466696988E+02  0.63355741436E+03  0.94093816888E+02 0.  0.
          4    1    3    3  502    0 -0.21725949500E+02  0.75645688389E+03 -0.35773513098E+03  0.83706239792E+03  0.00000000000E+00 0. -1.
         -4    1    3    3    0  502  0.27159501292E+02  0.50903318856E+03 -0.17382279874E+03  0.53857849096E+03  0.00000000000E+00 0.  1.
         13    1    5    5    0    0 -0.24366978107E+03 -0.49660569163E+03  0.34597451047E+02  0.55424647837E+03  0.00000000000E+00 0.  1.
        -13    1    5    5    0    0 -0.43109902809E+02 -0.20928945039E+03  0.16007648325E+02  0.21428201644E+03  0.00000000000E+00 0. -1.
          5    1    6    6  503    0  0.59349202114E+02 -0.20491504669E+03 -0.15568533676E+02  0.21395554069E+03  0.47000000000E+01 0. -1.
         -5    1    6    6    0  503  0.22199692998E+03 -0.35467988374E+03  0.31035230664E+02  0.41960187367E+03  0.47000000000E+01 0.  1.
<mgrwt>
<rscale>  0 0.13326079E+04</rscale>
<asrwt>0</asrwt>
<pdfrwt beam="1">  1        1 0.24947792E+00 0.13326079E+04</pdfrwt>
<pdfrwt beam="2">  1       -1 0.17786467E+00 0.13326079E+04</pdfrwt>
<totfact> 0.11223555E+00</totfact>
</mgrwt>
</event>
<event>
12    1  0.3166324E-008  0.8398831E+03  0.7818608E-02  0.9504017E-01
          2   -1    0    0  501    0  0.00000000000E+00  0.00000000000E+00  0.10663244221E+04  0.10663244221E+04  0.00000000000E+00 0. -1.
         -2   -1    0    0    0  501 -0.00000000000E+00 -0.00000000000E+00 -0.77690110609E+03  0.77690110609E+03  0.00000000000E+00 0.  1.
         23    2    1    2    0    0  0.64471787203E+02  0.80578410865E+03  0.12638281662E+03  0.82341007737E+03  0.92665517172E+02 0.  0.
    5000000    2    1    2    0    0 -0.64471787203E+02 -0.80578410865E+03  0.16304049937E+03  0.10198154508E+04  0.59999725680E+03 0.  0.
         23    2    4    4    0    0 -0.99319594819E+02 -0.76602395277E+03 -0.52309846269E+02  0.77979416328E+03  0.93196238794E+02 0.  0.
         23    2    4    4    0    0  0.34847807616E+02 -0.39760155876E+02  0.21535034564E+03  0.24002128753E+03  0.91865158840E+02 0.  0.
          4    1    3    3  502    0  0.51763242937E+02  0.33676088072E+03  0.92203655823E+02  0.35297144112E+03  0.00000000000E+00 0. -1.
         -4    1    3    3    0  502  0.12708544266E+02  0.46902322793E+03  0.34179160794E+02  0.47043863624E+03  0.00000000000E+00 0.  1.
         13    1    5    5    0    0 -0.80384934855E+02 -0.28979317267E+03 -0.36299686074E+02  0.30291828583E+03  0.00000000000E+00 0.  1.
        -13    1    5    5    0    0 -0.18934659964E+02 -0.47623078010E+03 -0.16010160196E+02  0.47687587745E+03  0.00000000000E+00 0. -1.
          5    1    6    6  503    0  0.41864194694E+02  0.89568678539E+01  0.16048727957E+03  0.16616586046E+03  0.47000000000E+01 0.  1.
         -5    1    6    6    0  503 -0.70163870785E+01 -0.48717023730E+02  0.54863066073E+02  0.73855427070E+02  0.47000000000E+01 0. -1.
<mgrwt>
<rscale>  0 0.83988311E+03</rscale>
<asrwt>0</asrwt>
<pdfrwt beam="1">  1        2 0.16404991E+00 0.83988311E+03</pdfrwt>
<pdfrwt beam="2">  1       -2 0.11952325E+00 0.83988311E+03</pdfrwt>
<totfact> 0.12356106E+01</totfact>
</mgrwt>
</event>
<event>
12    1  0.3166324E-008  0.1163715E+04  0.7818608E-02  0.9145223E-01
          2   -1    0    0  501    0  0.00000000000E+00  0.00000000000E+00  0.24705688319E+04  0.24705688319E+04  0.00000000000E+00 0. -1.
         -2   -1    0    0    0  501 -0.00000000000E+00 -0.00000000000E+00 -0.65223317929E+03  0.65223317929E+03  0.00000000000E+00 0.  1.
         23    2    1    2    0    0  0.55048092050E+03  0.10220741291E+04  0.12163948127E+04  0.16840565886E+04  0.93624163477E+02 0.  0.
    5000000    2    1    2    0    0 -0.55048092050E+03 -0.10220741291E+04  0.60194083987E+03  0.14387454226E+04  0.59999237262E+03 0.  0.
         23    2    4    4    0    0 -0.17900802215E+03 -0.31737274746E+03  0.50770337919E+03  0.63146162296E+03  0.90618580927E+02 0.  0.
         23    2    4    4    0    0 -0.37147289834E+03 -0.70470138161E+03  0.94237460675E+02  0.80728379963E+03  0.90720905565E+02 0.  0.
          1    1    3    3  502    0  0.52304342611E+03  0.98263261906E+03  0.11889491129E+04  0.16287238203E+04  0.00000000000E+00 0. -1.
         -1    1    3    3    0  502  0.27437494382E+02  0.39441510004E+02  0.27445699787E+02  0.55332768286E+02  0.00000000000E+00 0.  1.
         11    1    5    5    0    0 -0.13970966524E+03 -0.27124589177E+03  0.36057340808E+03  0.47234130348E+03  0.00000000000E+00 0.  1.
        -11    1    5    5    0    0 -0.39298356916E+02 -0.46126855690E+02  0.14712997112E+03  0.15912031948E+03  0.00000000000E+00 0. -1.
          5    1    6    6  503    0 -0.79666537622E+02 -0.22801590934E+03  0.77508099187E+01  0.24170266275E+03  0.47000000000E+01 0. -1.
         -5    1    6    6    0  503 -0.29180636072E+03 -0.47668547227E+03  0.86486650756E+02  0.56558113688E+03  0.47000000000E+01 0.  1.
<mgrwt>
<rscale>  0 0.11637152E+04</rscale>
<asrwt>0</asrwt>
<pdfrwt beam="1">  1        2 0.38008751E+00 0.11637152E+04</pdfrwt>
<pdfrwt beam="2">  1       -2 0.10034357E+00 0.11637152E+04</pdfrwt>
<totfact> 0.29281513E+00</totfact>
</mgrwt>
</event>
<event>
12    1  0.3166324E-008  0.6341539E+03  0.7818608E-02  0.9836976E-01
          2   -1    0    0  501    0  0.00000000000E+00  0.00000000000E+00  0.15412507230E+04  0.15412507230E+04  0.00000000000E+00 0. -1.
         -2   -1    0    0    0  501 -0.00000000000E+00 -0.00000000000E+00 -0.37063338216E+03  0.37063338216E+03  0.00000000000E+00 0.  1.
         23    2    1    2    0    0 -0.34975817448E+03 -0.52022936286E+03  0.38552139703E+03  0.74162314363E+03  0.91699340193E+02 0.  0.
    5000000    2    1    2    0    0  0.34975817448E+03  0.52022936286E+03  0.78509594383E+03  0.11702609616E+04  0.60013807288E+03 0.  0.
         23    2    4    4    0    0  0.86891059485E+02  0.18338823197E+03  0.68717252230E+03  0.72267189599E+03  0.94166310321E+02 0.  0.
         23    2    4    4    0    0  0.26286711500E+03  0.33684113089E+03  0.97923421526E+02  0.44758906557E+03  0.90476005248E+02 0.  0.
          3    1    3    3  502    0 -0.19184427438E+03 -0.35757598655E+03  0.26767671049E+03  0.48612306375E+03  0.00000000000E+00 0. -1.
         -3    1    3    3    0  502 -0.15791390010E+03 -0.16265337631E+03  0.11784468654E+03  0.25550007988E+03  0.00000000000E+00 0.  1.
         13    1    5    5    0    0  0.40668619700E+02  0.57130394202E+02  0.11319883469E+03  0.13316078531E+03  0.00000000000E+00 0. -1.
        -13    1    5    5    0    0  0.46222439785E+02  0.12625783777E+03  0.57397368762E+03  0.58951111068E+03  0.00000000000E+00 0.  1.
          5    1    6    6  503    0  0.11072449973E+03  0.97572784770E+02  0.67584174552E+02  0.16238865052E+03  0.47000000000E+01 0. -1.
         -5    1    6    6    0  503  0.15214261527E+03  0.23926834612E+03  0.30339246974E+02  0.28520041505E+03  0.47000000000E+01 0.  1.
<mgrwt>
<rscale>  0 0.63415389E+03</rscale>
<asrwt>0</asrwt>
<pdfrwt beam="1">  1        2 0.23711549E+00 0.63415389E+03</pdfrwt>
<pdfrwt beam="2">  1       -2 0.57020521E-01 0.63415389E+03</pdfrwt>
<totfact> 0.36014360E+01</totfact>
</mgrwt>
</event>
<event>
12    1  0.3166324E-008  0.5646088E+03  0.7818608E-02  0.9981680E-01
         -4   -1    0    0    0  501 -0.00000000000E+00  0.00000000000E+00  0.81614367464E+03  0.81614367464E+03  0.00000000000E+00 0.  1.
          4   -1    0    0  501    0  0.00000000000E+00 -0.00000000000E+00 -0.40320742863E+03  0.40320742863E+03  0.00000000000E+00 0. -1.
         23    2    1    2    0    0  0.22665372531E+03 -0.34179278449E+03  0.17633913208E+03  0.45506165187E+03  0.88268900370E+02 0.  0.
    5000000    2    1    2    0    0 -0.22665372531E+03  0.34179278449E+03  0.23659711392E+03  0.76428945140E+03  0.59997162640E+03 0.  0.
         23    2    4    4    0    0 -0.15488438304E+03  0.49809168171E+03  0.12472250567E+03  0.54344657782E+03  0.87715358004E+02 0.  0.
         23    2    4    4    0    0 -0.71769342264E+02 -0.15629889722E+03  0.11187460825E+03  0.22084287358E+03  0.81703507146E+02 0.  0.
          4    1    3    3  502    0  0.95052492381E+02 -0.17465307367E+03  0.41293736857E+02  0.20308580737E+03  0.00000000000E+00 0.  1.
         -4    1    3    3    0  502  0.13160123293E+03 -0.16713971082E+03  0.13504539522E+03  0.25197584450E+03  0.00000000000E+00 0. -1.
         11    1    5    5    0    0 -0.11431156375E+03  0.45426192772E+03  0.10104496746E+03  0.47919841197E+03  0.00000000000E+00 0. -1.
        -11    1    5    5    0    0 -0.40572819291E+02  0.43829753983E+02  0.23677538214E+02  0.64248165852E+02  0.00000000000E+00 0.  1.
          5    1    6    6  503    0 -0.29153333338E+02 -0.14086237735E+03  0.93956602549E+02  0.17187803629E+03  0.47000000000E+01 0. -1.
         -5    1    6    6    0  503 -0.42616008927E+02 -0.15436519870E+02  0.17918005701E+02  0.48964837290E+02  0.47000000000E+01 0.  1.
<mgrwt>
<rscale>  0 0.56460878E+03</rscale>
<asrwt>0</asrwt>
<pdfrwt beam="1">  1        4 0.62031912E-01 0.56460878E+03</pdfrwt>
<pdfrwt beam="2">  1       -4 0.12556057E+00 0.56460878E+03</pdfrwt>
<totfact> 0.22562029E+00</totfact>
</mgrwt>
</event>
<event>
12    1  0.3808490E-008  0.7563408E+03  0.7818608E-02  0.9625455E-01
          2   -1    0    0  501    0  0.00000000000E+00  0.00000000000E+00  0.17630970626E+04  0.17630970626E+04  0.00000000000E+00 0. -1.
         -2   -1    0    0    0  501 -0.00000000000E+00 -0.00000000000E+00 -0.34773663850E+03  0.34773663850E+03  0.00000000000E+00 0.  1.
         23    2    1    2    0    0 -0.51592368152E+03  0.39258515835E+03  0.40940554840E+03  0.77221000408E+03  0.91624427076E+02 0.  0.
    5000000    2    1    2    0    0  0.51592368152E+03 -0.39258515835E+03  0.10059548757E+04  0.13386236970E+04  0.59972313494E+03 0.  0.
         23    2    4    4    0    0 -0.54764596481E+02 -0.25816521944E+03  0.42536923953E+03  0.50850721650E+03  0.89398868759E+02 0.  0.
         23    2    4    4    0    0  0.57068827800E+03 -0.13441993890E+03  0.58058563618E+03  0.83011648053E+03  0.90883770236E+02 0.  0.
          1    1    3    3  502    0 -0.16628483357E+03  0.15751519203E+03  0.18766010897E+03  0.29610470799E+03  0.00000000000E+00 0. -1.
         -1    1    3    3    0  502 -0.34963884794E+03  0.23506996631E+03  0.22174543944E+03  0.47610529609E+03  0.00000000000E+00 0.  1.
         11    1    5    5    0    0 -0.10880507217E+02 -0.17877708537E+03  0.21782625744E+03  0.28200693275E+03  0.00000000000E+00 0. -1.
        -11    1    5    5    0    0 -0.43884089265E+02 -0.79388134073E+02  0.20754298209E+03  0.22650028374E+03  0.00000000000E+00 0.  1.
          5    1    6    6  503    0  0.25023736877E+03 -0.10241667468E+03  0.24355543793E+03  0.36393578736E+03  0.47000000000E+01 0. -1.
         -5    1    6    6    0  503  0.32045090923E+03 -0.32003264223E+02  0.33703019826E+03  0.46618069317E+03  0.47000000000E+01 0.  1.
<mgrwt>
<rscale>  0 0.75634077E+03</rscale>
<asrwt>0</asrwt>
<pdfrwt beam="1">  1        2 0.27124570E+00 0.75634077E+03</pdfrwt>
<pdfrwt beam="2">  1       -2 0.53497945E-01 0.75634077E+03</pdfrwt>
<totfact> 0.30593405E+01</totfact>
</mgrwt>
</event>
<event>
12    1  0.3166324E-008  0.5119120E+03  0.7818608E-02  0.1010716E+00
         -2   -1    0    0    0  501 -0.00000000000E+00  0.00000000000E+00  0.63955302996E+03  0.63955302996E+03  0.00000000000E+00 0.  1.
          2   -1    0    0  501    0  0.00000000000E+00 -0.00000000000E+00 -0.71781528417E+03  0.71781528417E+03  0.00000000000E+00 0. -1.
         23    2    1    2    0    0 -0.84049798372E+02  0.41835574221E+03  0.30001305979E+03  0.52969536592E+03  0.92105640345E+02 0.  0.
    5000000    2    1    2    0    0  0.84049798372E+02 -0.41835574221E+03 -0.37827531400E+03  0.82767294822E+03  0.59988698968E+03 0.  0.
         23    2    4    4    0    0  0.64902300071E+02  0.72703771667E+02 -0.29109891113E+03  0.32021822901E+03  0.91120750438E+02 0.  0.
         23    2    4    4    0    0  0.19147498301E+02 -0.49105951388E+03 -0.87176402861E+02  0.50745471920E+03  0.91676027206E+02 0.  0.
          2    1    3    3  502    0  0.14797896504E+02  0.24686557231E+02  0.86396933215E+01  0.30050759551E+02  0.00000000000E+00 0. -1.
         -2    1    3    3    0  502 -0.98847694877E+02  0.39366918498E+03  0.29137336646E+03  0.49964460637E+03  0.00000000000E+00 0.  1.
         13    1    5    5    0    0  0.53081394489E+02  0.58480654215E+02 -0.96304658225E+02  0.12454801706E+03  0.00000000000E+00 0. -1.
        -13    1    5    5    0    0  0.11820905582E+02  0.14223117452E+02 -0.19479425291E+03  0.19567021195E+03  0.00000000000E+00 0.  1.
          5    1    6    6  503    0  0.15831360036E+02 -0.24648640893E+03 -0.89645784801E+02  0.26280151917E+03  0.47000000000E+01 0. -1.
         -5    1    6    6    0  503  0.33161382642E+01 -0.24457310495E+03  0.24693819401E+01  0.24465320003E+03  0.47000000000E+01 0.  1.
<mgrwt>
<rscale>  0 0.51191198E+03</rscale>
<asrwt>0</asrwt>
<pdfrwt beam="1">  1        2 0.11043312E+00 0.51191198E+03</pdfrwt>
<pdfrwt beam="2">  1       -2 0.98392774E-01 0.51191198E+03</pdfrwt>
<totfact> 0.35343062E+01</totfact>
</mgrwt>
</event>
<event>
12    1  0.3166324E-008  0.7732643E+03  0.7818608E-02  0.9599543E-01
         -1   -1    0    0    0  501 -0.00000000000E+00  0.00000000000E+00  0.59599556731E+03  0.59599556731E+03  0.00000000000E+00 0. -1.
          1   -1    0    0  501    0  0.00000000000E+00 -0.00000000000E+00 -0.12582824420E+04  0.12582824420E+04  0.00000000000E+00 0.  1.
         23    2    1    2    0    0 -0.67332634862E+03 -0.24650036843E+02  0.80973158994E+02  0.68503652983E+03  0.93500794934E+02 0.  0.
    5000000    2    1    2    0    0  0.67332634862E+03  0.24650036843E+02 -0.74326003365E+03  0.11692414795E+04  0.60059484146E+03 0.  0.
         23    2    4    4    0    0  0.69755215788E+03  0.16543697581E+03 -0.66716048523E+03  0.98350087524E+03  0.90677740438E+02 0.  0.
         23    2    4    4    0    0 -0.24225809256E+02 -0.14078693896E+03 -0.76099548420E+02  0.18574060422E+03  0.91107512148E+02 0.  0.
          2    1    3    3  502    0 -0.11714680911E+03 -0.15745162859E+02  0.48732860050E+02  0.12785216732E+03  0.00000000000E+00 0. -1.
         -2    1    3    3    0  502 -0.55617953951E+03 -0.89048739832E+01  0.32240298944E+02  0.55718436251E+03  0.00000000000E+00 0.  1.
         11    1    5    5    0    0  0.53399389364E+03  0.89803091821E+02 -0.52165939163E+03  0.75189267494E+03  0.00000000000E+00 0.  1.
        -11    1    5    5    0    0  0.16355826424E+03  0.75633883985E+02 -0.14550109360E+03  0.23160820030E+03  0.00000000000E+00 0. -1.
          5    1    6    6  503    0  0.96427796237E+01 -0.83160601028E+01  0.15874665542E+02  0.20886240940E+02  0.47000000000E+01 0. -1.
         -5    1    6    6    0  503 -0.33868588879E+02 -0.13247087886E+03 -0.91974213962E+02  0.16485436328E+03  0.47000000000E+01 0.  1.
<mgrwt>
<rscale>  0 0.77326429E+03</rscale>
<asrwt>0</asrwt>
<pdfrwt beam="1">  1        1 0.19358191E+00 0.77326429E+03</pdfrwt>
<pdfrwt beam="2">  1       -1 0.91691626E-01 0.77326429E+03</pdfrwt>
<totfact> 0.11585444E+01</totfact>
</mgrwt>
</event>
<event>
12    1  0.3166324E-008  0.6731450E+03  0.7818608E-02  0.9764293E-01
         -1   -1    0    0    0  501 -0.00000000000E+00  0.00000000000E+00  0.11092952468E+04  0.11092952468E+04  0.00000000000E+00 0.  1.
          1   -1    0    0  501    0  0.00000000000E+00 -0.00000000000E+00 -0.47719319950E+03  0.47719319950E+03  0.00000000000E+00 0. -1.
         23    2    1    2    0    0  0.24819615124E+03 -0.52161775950E+03  0.87129412788E+02  0.59118760428E+03  0.90690861567E+02 0.  0.
    5000000    2    1    2    0    0 -0.24819615124E+03  0.52161775950E+03  0.54497263454E+03  0.99530084206E+03  0.59995181248E+03 0.  0.
         23    2    4    4    0    0 -0.35777238006E+03  0.20169605146E+03  0.48172347614E+03  0.63939510447E+03  0.89923406526E+02 0.  0.
         23    2    4    4    0    0  0.10957622882E+03  0.31992170803E+03  0.63249158402E+02  0.35590573759E+03  0.91167915506E+02 0.  0.
          1    1    3    3  502    0  0.13041140621E+03 -0.25989444943E+03 -0.15867850398E+01  0.29078304215E+03  0.00000000000E+00 0. -1.
         -1    1    3    3    0  502  0.11778474503E+03 -0.26172331007E+03  0.88716197828E+02  0.30040456213E+03  0.00000000000E+00 0.  1.
         11    1    5    5    0    0 -0.20518578974E+03  0.15970115141E+03  0.33031038436E+03  0.42036961842E+03  0.00000000000E+00 0. -1.
        -11    1    5    5    0    0 -0.15258659032E+03  0.41994900050E+02  0.15141309178E+03  0.21902548605E+03  0.00000000000E+00 0.  1.
          5    1    6    6  503    0  0.86603543399E+02  0.31440140584E+03  0.58368769858E+02  0.33132675868E+03  0.47000000000E+01 0. -1.
         -5    1    6    6    0  503  0.22972685425E+02  0.55203021938E+01  0.48803885437E+01  0.24578978911E+02  0.47000000000E+01 0.  1.
<mgrwt>
<rscale>  0 0.67314498E+03</rscale>
<asrwt>0</asrwt>
<pdfrwt beam="1">  1        1 0.73414338E-01 0.67314498E+03</pdfrwt>
<pdfrwt beam="2">  1       -1 0.17066081E+00 0.67314498E+03</pdfrwt>
<totfact> 0.11955663E+01</totfact>
</mgrwt>
</event>
<event>
12    1  0.3166324E-008  0.9574919E+03  0.7818608E-02  0.9356436E-01
          2   -1    0    0  501    0  0.00000000000E+00  0.00000000000E+00  0.31263143111E+04  0.31263143111E+04  0.00000000000E+00 0.  1.
         -2   -1    0    0    0  501 -0.00000000000E+00 -0.00000000000E+00 -0.33809466029E+03  0.33809466029E+03  0.00000000000E+00 0. -1.
         23    2    1    2    0    0 -0.81837368108E+03  0.32768218101E+03  0.73748640432E+03  0.11530471113E+04  0.92305745390E+02 0.  0.
    5000000    2    1    2    0    0  0.81837368108E+03 -0.32768218101E+03  0.20507332465E+04  0.23113618601E+04  0.59981305959E+03 0.  0.
         23    2    4    4    0    0  0.72850500075E+03 -0.62248801292E+02  0.11746737539E+04  0.13865715746E+04  0.90154612249E+02 0.  0.
         23    2    4    4    0    0  0.89868680326E+02 -0.26543337972E+03  0.87605949258E+03  0.92479028546E+03  0.96049876444E+02 0.  0.
          3    1    3    3  502    0 -0.55544672232E+03  0.17637533240E+03  0.47260074276E+03  0.75032045239E+03  0.00000000000E+00 0. -1.
         -3    1    3    3    0  502 -0.26292695876E+03  0.15130684861E+03  0.26488566156E+03  0.40272665889E+03  0.00000000000E+00 0.  1.
         11    1    5    5    0    0  0.65534615354E+03 -0.83084070493E+02  0.10575682648E+04  0.12469290992E+04  0.00000000000E+00 0.  1.
        -11    1    5    5    0    0  0.73158847215E+02  0.20835269201E+02  0.11710548911E+03  0.13964247545E+03  0.00000000000E+00 0. -1.
          5    1    6    6  503    0 -0.95105828558E+01 -0.89084079896E+02  0.34399715479E+03  0.35550324468E+03  0.47000000000E+01 0. -1.
         -5    1    6    6    0  503  0.99379263182E+02 -0.17634929982E+03  0.53206233779E+03  0.56928704078E+03  0.47000000000E+01 0.  1.
<mgrwt>
<rscale>  0 0.95749189E+03</rscale>
<asrwt>0</asrwt>
<pdfrwt beam="1">  1        2 0.48097141E+00 0.95749189E+03</pdfrwt>
<pdfrwt beam="2">  1       -2 0.52014565E-01 0.95749189E+03</pdfrwt>
<totfact> 0.52170859E+00</totfact>
</mgrwt>
</event>
<event>
12    1  0.3166324E-008  0.1006691E+04  0.7818608E-02  0.9301237E-01
         -1   -1    0    0    0  501 -0.00000000000E+00  0.00000000000E+00  0.15972558811E+04  0.15972558811E+04  0.00000000000E+00 0.  1.
          1   -1    0    0  501    0  0.00000000000E+00 -0.00000000000E+00 -0.13452366033E+04  0.13452366033E+04  0.00000000000E+00 0. -1.
         23    2    1    2    0    0  0.91270267467E+03 -0.23488805057E+03  0.11638079359E+04  0.15003523417E+04  0.91704246697E+02 0.  0.
    5000000    2    1    2    0    0 -0.91270267467E+03  0.23488805057E+03 -0.91178865811E+03  0.14421401427E+04  0.60017586206E+03 0.  0.
         23    2    4    4    0    0 -0.26694665048E+03 -0.15009566039E+03 -0.46031171262E+03  0.56092205598E+03  0.94643851613E+02 0.  0.
         23    2    4    4    0    0 -0.64575602419E+03  0.38498371095E+03 -0.45147694549E+03  0.88121808669E+03  0.86605909253E+02 0.  0.
          4    1    3    3  502    0  0.13819033573E+03 -0.66934830295E+02  0.16636252891E+03  0.22639198621E+03  0.00000000000E+00 0. -1.
         -4    1    3    3    0  502  0.77451233894E+03 -0.16795322027E+03  0.99744540698E+03  0.12739603555E+04  0.00000000000E+00 0.  1.
         11    1    5    5    0    0 -0.39608310998E+02  0.26663129319E+01 -0.10529324457E+03  0.11252819591E+03  0.00000000000E+00 0. -1.
        -11    1    5    5    0    0 -0.22733833948E+03 -0.15276197332E+03 -0.35501846805E+03  0.44839386007E+03  0.00000000000E+00 0.  1.
          5    1    6    6  503    0 -0.15335949998E+03  0.66043728995E+02 -0.13396440647E+03  0.21412487613E+03  0.47000000000E+01 0. -1.
         -5    1    6    6    0  503 -0.49239652421E+03  0.31893998196E+03 -0.31751253902E+03  0.66709321056E+03  0.47000000000E+01 0.  1.
<mgrwt>
<rscale>  0 0.10066908E+04</rscale>
<asrwt>0</asrwt>
<pdfrwt beam="1">  1        1 0.20695948E+00 0.10066908E+04</pdfrwt>
<pdfrwt beam="2">  1       -1 0.24573168E+00 0.10066908E+04</pdfrwt>
<totfact> 0.62971983E-01</totfact>
</mgrwt>
</event>
<event>
12    1  0.3166324E-008  0.6507723E+03  0.7818608E-02  0.9805331E-01
          2   -1    0    0  501    0  0.00000000000E+00  0.00000000000E+00  0.12545521394E+04  0.12545521394E+04  0.00000000000E+00 0. -1.
         -2   -1    0    0    0  501 -0.00000000000E+00 -0.00000000000E+00 -0.45034391462E+03  0.45034391462E+03  0.00000000000E+00 0.  1.
         23    2    1    2    0    0  0.35744074440E+03  0.41321629536E+03  0.69181710953E+03  0.88559802502E+03  0.84624797610E+02 0.  0.
    5000000    2    1    2    0    0 -0.35744074440E+03 -0.41321629536E+03  0.11239111523E+03  0.81929802897E+03  0.60008824767E+03 0.  0.
         23    2    4    4    0    0 -0.18831974632E+03 -0.51628311785E+03 -0.32541018760E+02  0.55809296746E+03  0.91631096232E+02 0.  0.
         23    2    4    4    0    0 -0.16912099809E+03  0.10306682250E+03  0.14493213399E+03  0.26120506151E+03  0.89431978641E+02 0.  0.
          4    1    3    3  502    0  0.29527629880E+03  0.34409204109E+03  0.62008695495E+03  0.76817657936E+03  0.00000000000E+00 0. -1.
         -4    1    3    3    0  502  0.62164445600E+02  0.69124254265E+02  0.71730154578E+02  0.11742144566E+03  0.00000000000E+00 0.  1.
         13    1    5    5    0    0  0.20491689678E+01 -0.89825943151E+02  0.12014150495E+01  0.89857345579E+02  0.00000000000E+00 0. -1.
        -13    1    5    5    0    0 -0.19036891528E+03 -0.42645717470E+03 -0.33742433809E+02  0.46823562188E+03  0.00000000000E+00 0.  1.
          5    1    6    6  503    0 -0.10773648302E+03  0.65930761017E+02  0.37331466460E+02  0.13179432237E+03  0.47000000000E+01 0. -1.
         -5    1    6    6    0  503 -0.61384515071E+02  0.37136061478E+02  0.10760066753E+03  0.12941073914E+03  0.47000000000E+01 0.  1.
<mgrwt>
<rscale>  0 0.65077228E+03</rscale>
<asrwt>0</asrwt>
<pdfrwt beam="1">  1        2 0.19300802E+00 0.65077228E+03</pdfrwt>
<pdfrwt beam="2">  1       -2 0.69283680E-01 0.65077228E+03</pdfrwt>
<totfact> 0.34440950E+01</totfact>
</mgrwt>
</event>
<event>
12    1  0.3166324E-008  0.4682571E+03  0.7818608E-02  0.1022413E+00
         -2   -1    0    0    0  501 -0.00000000000E+00  0.00000000000E+00  0.27528824676E+03  0.27528824676E+03  0.00000000000E+00 0.  1.
          2   -1    0    0  501    0  0.00000000000E+00 -0.00000000000E+00 -0.10629020341E+04  0.10629020341E+04  0.00000000000E+00 0. -1.
         23    2    1    2    0    0 -0.16443084312E+03  0.25138016759E+03 -0.10711395182E+02  0.31153923982E+03  0.81929684097E+02 0.  0.
    5000000    2    1    2    0    0  0.16443084312E+03 -0.25138016759E+03 -0.77690239216E+03  0.10266510410E+04  0.60017126080E+03 0.  0.
         23    2    4    4    0    0 -0.79700156193E+02  0.13059301198E+03 -0.94370738871E+02  0.20212513528E+03  0.92423396837E+02 0.  0.
         23    2    4    4    0    0  0.24413099931E+03 -0.38197317957E+03 -0.68253165329E+03  0.82452590576E+03  0.92141504176E+02 0.  0.
          1    1    3    3  502    0 -0.70868688170E+02  0.16843539428E+03 -0.29492433507E+02  0.18510174674E+03  0.00000000000E+00 0. -1.
         -1    1    3    3    0  502 -0.93562154950E+02  0.82944773307E+02  0.18781038325E+02  0.12643749309E+03  0.00000000000E+00 0.  1.
         13    1    5    5    0    0 -0.34075257083E+01  0.70821260169E+02 -0.75150166805E+02  0.10331897064E+03  0.00000000000E+00 0. -1.
        -13    1    5    5    0    0 -0.76292630484E+02  0.59771751807E+02 -0.19220572067E+02  0.98806164640E+02  0.00000000000E+00 0.  1.
          5    1    6    6  503    0  0.11172406636E+03 -0.10276299000E+03 -0.19277594556E+03  0.24541221303E+03  0.47000000000E+01 0. -1.
         -5    1    6    6    0  503  0.13240693295E+03 -0.27921018956E+03 -0.48975570772E+03  0.57911369272E+03  0.47000000000E+01 0.  1.
<mgrwt>
<rscale>  0 0.46825715E+03</rscale>
<asrwt>0</asrwt>
<pdfrwt beam="1">  1        2 0.16352339E+00 0.46825715E+03</pdfrwt>
<pdfrwt beam="2">  1       -2 0.42352038E-01 0.46825715E+03</pdfrwt>
<totfact> 0.12611765E+02</totfact>
</mgrwt>
</event>
<event>
12    1  0.3166324E-008  0.5776995E+03  0.7818608E-02  0.9952784E-01
          2   -1    0    0  501    0  0.00000000000E+00  0.00000000000E+00  0.14349306477E+04  0.14349306477E+04  0.00000000000E+00 0. -1.
         -2   -1    0    0    0  501 -0.00000000000E+00 -0.00000000000E+00 -0.41903231665E+03  0.41903231665E+03  0.00000000000E+00 0.  1.
         23    2    1    2    0    0 -0.19865365182E+03  0.43643021160E+03  0.96838770712E+03  0.10843316529E+04  0.89809682652E+02 0.  0.
    5000000    2    1    2    0    0  0.19865365182E+03 -0.43643021160E+03  0.47510623929E+02  0.76963131149E+03  0.60011706629E+03 0.  0.
         23    2    4    4    0    0  0.12386574589E+03 -0.51387323622E+03  0.19013682095E+03  0.56870043504E+03  0.88655221099E+02 0.  0.
         23    2    4    4    0    0  0.74787905929E+02  0.77443024614E+02 -0.14262619702E+03  0.20093087645E+03  0.91871280058E+02 0.  0.
          3    1    3    3  502    0 -0.36159749111E+02  0.13932414384E+03  0.22014590604E+03  0.26302654706E+03  0.00000000000E+00 0. -1.
         -3    1    3    3    0  502 -0.16249390271E+03  0.29710606777E+03  0.74824180108E+03  0.82130510580E+03  0.00000000000E+00 0.  1.
         11    1    5    5    0    0  0.10976332486E+03 -0.32647791389E+03  0.91116660685E+02  0.35628368135E+03  0.00000000000E+00 0. -1.
        -11    1    5    5    0    0  0.14102421030E+02 -0.18739532233E+03  0.99020160264E+02  0.21241675369E+03  0.00000000000E+00 0.  1.
          5    1    6    6  503    0  0.95661311761E+02  0.62645385615E+02 -0.10589946363E+03  0.15592407545E+03  0.47000000000E+01 0. -1.
         -5    1    6    6    0  503 -0.20873405832E+02  0.14797638999E+02 -0.36726733389E+02  0.45006801002E+02  0.47000000000E+01 0.  1.
<mgrwt>
<rscale>  0 0.57769955E+03</rscale>
<asrwt>0</asrwt>
<pdfrwt beam="1">  1        2 0.22075856E+00 0.57769955E+03</pdfrwt>
<pdfrwt beam="2">  1       -2 0.64466511E-01 0.57769955E+03</pdfrwt>
<totfact> 0.32085084E+01</totfact>
</mgrwt>
</event>
<event>
12    1  0.3166324E-008  0.7516780E+03  0.7818608E-02  0.9632721E-01
         -2   -1    0    0    0  501 -0.00000000000E+00  0.00000000000E+00  0.67158229868E+03  0.67158229868E+03  0.00000000000E+00 0.  1.
          2   -1    0    0  501    0  0.00000000000E+00 -0.00000000000E+00 -0.10765551598E+04  0.10765551598E+04  0.00000000000E+00 0. -1.
         23    2    1    2    0    0 -0.61002518162E+03 -0.20755864159E+03 -0.55551869750E+03  0.85500268133E+03  0.84954398904E+02 0.  0.
    5000000    2    1    2    0    0  0.61002518162E+03  0.20755864159E+03  0.15054583638E+03  0.89313477715E+03  0.59984528787E+03 0.  0.
         23    2    4    4    0    0  0.54408091154E+03 -0.76503373029E+02  0.18169115638E+03  0.58580319500E+03  0.90977483898E+02 0.  0.
         23    2    4    4    0    0  0.65944270081E+02  0.28406201462E+03 -0.31145320005E+02  0.30733158215E+03  0.91884685992E+02 0.  0.
          2    1    3    3  502    0 -0.45479315385E+03 -0.13312208432E+03 -0.36443890341E+03  0.59780767513E+03  0.00000000000E+00 0. -1.
         -2    1    3    3    0  502 -0.15523202777E+03 -0.74436557266E+02 -0.19107979409E+03  0.25719500620E+03  0.00000000000E+00 0.  1.
         11    1    5    5    0    0  0.21162402067E+03 -0.69053767715E+02  0.50103154311E+02  0.22817422079E+03  0.00000000000E+00 0.  1.
        -11    1    5    5    0    0  0.33245689088E+03 -0.74496053149E+01  0.13158800207E+03  0.35762897422E+03  0.00000000000E+00 0. -1.
          5    1    6    6  503    0  0.82580955433E+02  0.20132714903E+03 -0.11934022823E+01  0.21765970997E+03  0.47000000000E+01 0. -1.
         -5    1    6    6    0  503 -0.16636685352E+02  0.82734865591E+02 -0.29951917722E+02  0.89671872174E+02  0.47000000000E+01 0.  1.
<mgrwt>
<rscale>  0 0.75167801E+03</rscale>
<asrwt>0</asrwt>
<pdfrwt beam="1">  1        2 0.16562387E+00 0.75167801E+03</pdfrwt>
<pdfrwt beam="2">  1       -2 0.10332035E+00 0.75167801E+03</pdfrwt>
<totfact> 0.17512699E+01</totfact>
</mgrwt>
</event>
<event>
12    1  0.3166324E-008  0.4896843E+03  0.7818608E-02  0.1016507E+00
         -1   -1    0    0    0  501 -0.00000000000E+00  0.00000000000E+00  0.18135768901E+03  0.18135768901E+03  0.00000000000E+00 0.  1.
          1   -1    0    0  501    0  0.00000000000E+00 -0.00000000000E+00 -0.17051113380E+04  0.17051113380E+04  0.00000000000E+00 0. -1.
         23    2    1    2    0    0  0.18856059905E+02  0.38287251285E+03 -0.65354379754E+03  0.76222260378E+03  0.83167844311E+02 0.  0.
    5000000    2    1    2    0    0 -0.18856059905E+02 -0.38287251285E+03 -0.87020985143E+03  0.11242464232E+04  0.59976488932E+03 0.  0.
         23    2    4    4    0    0  0.20614003776E+03 -0.17903954966E+03 -0.71643639480E+03  0.77211822318E+03  0.91304804196E+02 0.  0.
         23    2    4    4    0    0 -0.22499609766E+03 -0.20383296319E+03 -0.15377345663E+03  0.35212820001E+03  0.90426060608E+02 0.  0.
          3    1    3    3  502    0  0.44939883312E+02  0.25207278682E+03 -0.47164928221E+03  0.53666873244E+03  0.00000000000E+00 0. -1.
         -3    1    3    3    0  502 -0.26083823407E+02  0.13079972602E+03 -0.18189451533E+03  0.22555387135E+03  0.00000000000E+00 0.  1.
         13    1    5    5    0    0  0.14320951567E+03 -0.12950157737E+03 -0.37948927889E+03  0.42578367361E+03  0.00000000000E+00 0. -1.
        -13    1    5    5    0    0  0.62930522087E+02 -0.49537972288E+02 -0.33694711591E+03  0.34633454957E+03  0.00000000000E+00 0.  1.
          5    1    6    6  503    0 -0.84588972054E+02 -0.22998781849E+02 -0.42634669715E+02  0.97591204631E+02  0.47000000000E+01 0. -1.
         -5    1    6    6    0  503 -0.14040712561E+03 -0.18083418134E+03 -0.11113878691E+03  0.25453699538E+03  0.47000000000E+01 0.  1.
<mgrwt>
<rscale>  0 0.48968425E+03</rscale>
<asrwt>0</asrwt>
<pdfrwt beam="1">  1        1 0.26232482E+00 0.48968425E+03</pdfrwt>
<pdfrwt beam="2">  1       -1 0.27901183E-01 0.48968425E+03</pdfrwt>
<totfact> 0.58373842E+01</totfact>
</mgrwt>
</event>
<event>
12    1  0.3166324E-008  0.6083046E+03  0.7818608E-02  0.9888325E-01
          2   -1    0    0  501    0  0.00000000000E+00  0.00000000000E+00  0.14618746282E+04  0.14618746282E+04  0.00000000000E+00 0. -1.
         -2   -1    0    0    0  501 -0.00000000000E+00 -0.00000000000E+00 -0.28048866102E+03  0.28048866102E+03  0.00000000000E+00 0.  1.
         23    2    1    2    0    0  0.44436011611E+03 -0.13421409665E+03  0.23135364356E+03  0.52664066633E+03  0.91414148335E+02 0.  0.
    5000000    2    1    2    0    0 -0.44436011611E+03  0.13421409665E+03  0.95003232357E+03  0.12157226228E+04  0.59995895137E+03 0.  0.
         23    2    4    4    0    0 -0.53112927704E+03 -0.40922594520E+02  0.62973900248E+03  0.82997897641E+03  0.92308842283E+02 0.  0.
         23    2    4    4    0    0  0.86769160931E+02  0.17513669117E+03  0.32029332109E+03  0.38574364644E+03  0.89490789152E+02 0.  0.
          3    1    3    3  502    0  0.17691606622E+03 -0.97910604487E+02  0.11612373640E+03  0.23317483379E+03  0.00000000000E+00 0. -1.
         -3    1    3    3    0  502  0.26744404989E+03 -0.36303492167E+02  0.11522990716E+03  0.29346583254E+03  0.00000000000E+00 0.  1.
         13    1    5    5    0    0 -0.14292001332E+03  0.42623991864E+01  0.23077960332E+03  0.27148392874E+03  0.00000000000E+00 0. -1.
        -13    1    5    5    0    0 -0.38820926372E+03 -0.45184993706E+02  0.39895939916E+03  0.55849504767E+03  0.00000000000E+00 0.  1.
          5    1    6    6  503    0  0.76921377032E+01  0.10350221515E+03  0.19626826190E+03  0.22207025499E+03  0.47000000000E+01 0. -1.
         -5    1    6    6    0  503  0.79077023228E+02  0.71634476028E+02  0.12402505919E+03  0.16367339144E+03  0.47000000000E+01 0.  1.
<mgrwt>
<rscale>  0 0.60830458E+03</rscale>
<asrwt>0</asrwt>
<pdfrwt beam="1">  1        2 0.22490378E+00 0.60830458E+03</pdfrwt>
<pdfrwt beam="2">  1       -2 0.43152102E-01 0.60830458E+03</pdfrwt>
<totfact> 0.70333923E+01</totfact>
</mgrwt>
</event>
<event>
12    1  0.3166324E-008  0.7393364E+03  0.7818608E-02  0.9652230E-01
         -1   -1    0    0    0  501 -0.00000000000E+00  0.00000000000E+00  0.32477336929E+03  0.32477336929E+03  0.00000000000E+00 0.  1.
          1   -1    0    0  501    0  0.00000000000E+00 -0.00000000000E+00 -0.19038257461E+04  0.19038257461E+04  0.00000000000E+00 0. -1.
         23    2    1    2    0    0 -0.17755996627E+02  0.66593024472E+03 -0.75658059283E+03  0.10121219949E+04  0.90544866583E+02 0.  0.
    5000000    2    1    2    0    0  0.17755996627E+02 -0.66593024472E+03 -0.82247178396E+03  0.12164771205E+04  0.59964854953E+03 0.  0.
         23    2    4    4    0    0 -0.11069838178E+03 -0.66725435189E+03 -0.81104981990E+03  0.10596618006E+04  0.87171207573E+02 0.  0.
         23    2    4    4    0    0  0.12845437840E+03  0.13241071742E+01 -0.11421964060E+02  0.15681531987E+03  0.89209319533E+02 0.  0.
          4    1    3    3  502    0 -0.17095773607E+02  0.43889853160E+03 -0.56078140846E+03  0.71232013490E+03  0.00000000000E+00 0. -1.
         -4    1    3    3    0  502 -0.66022302054E+00  0.22703171312E+03 -0.19579918437E+03  0.29980185999E+03  0.00000000000E+00 0.  1.
         11    1    5    5    0    0 -0.43501844363E+02 -0.41060479587E+03 -0.43852812519E+03  0.60232518247E+03  0.00000000000E+00 0. -1.
        -11    1    5    5    0    0 -0.67196537415E+02 -0.25664955602E+03 -0.37252169471E+03  0.45733661812E+03  0.00000000000E+00 0.  1.
          5    1    6    6  503    0  0.12677310161E+03  0.64846140558E+01  0.16401618487E+02  0.12808033651E+03  0.47000000000E+01 0. -1.
         -5    1    6    6    0  503  0.16812767935E+01 -0.51605068816E+01 -0.27823582546E+02  0.28734983359E+02  0.47000000000E+01 0.  1.
<mgrwt>
<rscale>  0 0.73933641E+03</rscale>
<asrwt>0</asrwt>
<pdfrwt beam="1">  1        1 0.29289628E+00 0.73933641E+03</pdfrwt>
<pdfrwt beam="2">  1       -1 0.49965132E-01 0.73933641E+03</pdfrwt>
<totfact> 0.14526960E+01</totfact>
</mgrwt>
</event>
<event>
12    1  0.3166324E-008  0.9093743E+03  0.7818608E-02  0.9413938E-01
          2   -1    0    0  501    0  0.00000000000E+00  0.00000000000E+00  0.29140333732E+04  0.29140333732E+04  0.00000000000E+00 0. -1.
         -2   -1    0    0    0  501 -0.00000000000E+00 -0.00000000000E+00 -0.49041358476E+03  0.49041358476E+03  0.00000000000E+00 0.  1.
         23    2    1    2    0    0  0.62728223850E+03  0.63431867040E+03  0.17776978135E+03  0.91453083418E+03  0.94452999627E+02 0.  0.
    5000000    2    1    2    0    0 -0.62728223850E+03 -0.63431867040E+03  0.22458500071E+04  0.24899161238E+04  0.59999738896E+03 0.  0.
         23    2    4    4    0    0 -0.37900758050E+03 -0.23614972234E+03  0.17179485239E+04  0.17774711990E+04  0.92969323254E+02 0.  0.
         23    2    4    4    0    0 -0.24827465801E+03 -0.39816894806E+03  0.52790148323E+03  0.71244492482E+03  0.93375467320E+02 0.  0.
          1    1    3    3  502    0  0.10991124247E+03  0.11421440584E+03  0.69102802882E+02  0.17291792587E+03  0.00000000000E+00 0. -1.
         -1    1    3    3    0  502  0.51737099603E+03  0.52010426456E+03  0.10866697846E+03  0.74161290830E+03  0.00000000000E+00 0.  1.
         13    1    5    5    0    0 -0.13245727756E+03 -0.61387414573E+02  0.41484396603E+03  0.43978274318E+03  0.00000000000E+00 0. -1.
        -13    1    5    5    0    0 -0.24655030294E+03 -0.17476230777E+03  0.13031045578E+04  0.13376884558E+04  0.00000000000E+00 0.  1.
          5    1    6    6  503    0 -0.22836847626E+03 -0.29415317780E+03  0.41084194517E+03  0.55451911317E+03  0.47000000000E+01 0. -1.
         -5    1    6    6    0  503 -0.19906181745E+02 -0.10401577026E+03  0.11705953805E+03  0.15792581164E+03  0.47000000000E+01 0.  1.
<mgrwt>
<rscale>  0 0.90937429E+03</rscale>
<asrwt>0</asrwt>
<pdfrwt beam="1">  1        2 0.44831282E+00 0.90937429E+03</pdfrwt>
<pdfrwt beam="2">  1       -2 0.75448245E-01 0.90937429E+03</pdfrwt>
<totfact> 0.32085753E+00</totfact>
</mgrwt>
</event>
<event>
12    1  0.3166324E-008  0.5485885E+03  0.7818608E-02  0.1001821E+00
          2   -1    0    0  501    0  0.00000000000E+00  0.00000000000E+00  0.16158559015E+03  0.16158559015E+03  0.00000000000E+00 0. -1.
         -2   -1    0    0    0  501 -0.00000000000E+00 -0.00000000000E+00 -0.20740996947E+04  0.20740996947E+04  0.00000000000E+00 0.  1.
         23    2    1    2    0    0  0.25445050376E+03 -0.31109583772E+03 -0.92310704639E+03  0.10107716204E+04  0.89481676187E+02 0.  0.
    5000000    2    1    2    0    0 -0.25445050376E+03  0.31109583772E+03 -0.98940705817E+03  0.12249136645E+04  0.59996789877E+03 0.  0.
         23    2    4    4    0    0 -0.79255088016E+02 -0.16140820306E+03 -0.19333477116E+03  0.27938916350E+03  0.91356411651E+02 0.  0.
         23    2    4    4    0    0 -0.17519541574E+03  0.47250404077E+03 -0.79607228701E+03  0.94552450098E+03  0.79573824595E+02 0.  0.
          2    1    3    3  502    0  0.17515556078E+03 -0.23716154782E+03 -0.57513245783E+03  0.64629901307E+03  0.00000000000E+00 0. -1.
         -2    1    3    3    0  502  0.79294942979E+02 -0.73934289895E+02 -0.34797458856E+03  0.36447260732E+03  0.00000000000E+00 0.  1.
         11    1    5    5    0    0 -0.67736277765E+02 -0.74221018631E+02 -0.15200859518E+03  0.18221848408E+03  0.00000000000E+00 0. -1.
        -11    1    5    5    0    0 -0.11518810252E+02 -0.87187184426E+02 -0.41326175988E+02  0.97170679423E+02  0.00000000000E+00 0.  1.
          5    1    6    6  503    0 -0.89849959569E+02  0.18772790925E+03 -0.26621629751E+03  0.33794672688E+03  0.47000000000E+01 0. -1.
         -5    1    6    6    0  503 -0.85345456175E+02  0.28477613152E+03 -0.52985598950E+03  0.60757777410E+03  0.47000000000E+01 0.  1.
<mgrwt>
<rscale>  0 0.54858845E+03</rscale>
<asrwt>0</asrwt>
<pdfrwt beam="1">  1        2 0.24859324E-01 0.54858845E+03</pdfrwt>
<pdfrwt beam="2">  1       -2 0.31909222E+00 0.54858845E+03</pdfrwt>
<totfact> 0.57478080E+00</totfact>
</mgrwt>
</event>
<event>
12    1  0.3166324E-008  0.4441797E+03  0.7818608E-02  0.1029472E+00
         -2   -1    0    0    0  501 -0.00000000000E+00  0.00000000000E+00  0.62984006921E+03  0.62984006921E+03  0.00000000000E+00 0.  1.
          2   -1    0    0  501    0  0.00000000000E+00 -0.00000000000E+00 -0.48374199539E+03  0.48374199539E+03  0.00000000000E+00 0. -1.
         23    2    1    2    0    0 -0.14655093606E+03  0.35231268420E+03  0.35483651103E+02  0.39398444484E+03  0.91450800844E+02 0.  0.
    5000000    2    1    2    0    0  0.14655093606E+03 -0.35231268420E+03  0.11061442272E+03  0.71959761976E+03  0.59998648281E+03 0.  0.
         23    2    4    4    0    0  0.51393361885E+01  0.23932984749E+02  0.26353127454E+03  0.28020031700E+03  0.92001545930E+02 0.  0.
         23    2    4    4    0    0  0.14141159987E+03 -0.37624566895E+03 -0.15291685182E+03  0.43939730276E+03  0.90157540561E+02 0.  0.
          2    1    3    3  502    0 -0.15871544341E+03  0.31919448431E+03  0.38625204667E+02  0.35856326809E+03  0.00000000000E+00 0. -1.
         -2    1    3    3    0  502  0.12164507359E+02  0.33118199894E+02 -0.31415535640E+01  0.35421176749E+02  0.00000000000E+00 0.  1.
         13    1    5    5    0    0  0.24487808714E+02  0.52552462221E+02  0.13130026599E+03  0.14353109039E+03  0.00000000000E+00 0.  1.
        -13    1    5    5    0    0 -0.19348472525E+02 -0.28619477471E+02  0.13223100855E+03  0.13666922661E+03  0.00000000000E+00 0. -1.
          5    1    6    6  503    0  0.58946492371E+02 -0.21394975759E+03 -0.41223268014E+02  0.22576677249E+03  0.47000000000E+01 0. -1.
         -5    1    6    6    0  503  0.82465107496E+02 -0.16229591136E+03 -0.11169358381E+03  0.21363053027E+03  0.47000000000E+01 0.  1.
<mgrwt>
<rscale>  0 0.44417974E+03</rscale>
<asrwt>0</asrwt>
<pdfrwt beam="1">  1        2 0.74421845E-01 0.44417974E+03</pdfrwt>
<pdfrwt beam="2">  1       -2 0.96898472E-01 0.44417974E+03</pdfrwt>
<totfact> 0.59019891E+01</totfact>
</mgrwt>
</event>
<event>
12    1  0.3166324E-008  0.1548109E+04  0.7818608E-02  0.8853077E-01
         -1   -1    0    0    0  501 -0.00000000000E+00  0.00000000000E+00  0.23973820526E+04  0.23973820526E+04  0.00000000000E+00 0.  1.
          1   -1    0    0  501    0  0.00000000000E+00 -0.00000000000E+00 -0.15545864212E+04  0.15545864212E+04  0.00000000000E+00 0. -1.
         23    2    1    2    0    0  0.29797405440E+03 -0.14621098395E+04  0.15867276166E+04  0.21799992518E+04  0.90213572474E+02 0.  0.
    5000000    2    1    2    0    0 -0.29797405440E+03  0.14621098395E+04 -0.74393198526E+03  0.17719692221E+04  0.59990533042E+03 0.  0.
         23    2    4    4    0    0  0.16117376682E+03  0.59674551850E+03 -0.29465571249E+03  0.69025764587E+03  0.86898974823E+02 0.  0.
         23    2    4    4    0    0 -0.45914782123E+03  0.86536432097E+03 -0.44927627277E+03  0.10817115762E+04  0.92620921173E+02 0.  0.
          3    1    3    3  502    0  0.44392323170E+02 -0.39921862841E+03  0.45141591181E+03  0.60425368601E+03  0.00000000000E+00 0. -1.
         -3    1    3    3    0  502  0.25358173123E+03 -0.10628912111E+04  0.11353117048E+04  0.15757455658E+04  0.00000000000E+00 0.  1.
         13    1    5    5    0    0  0.12234649968E+03  0.44877562402E+03 -0.17870276833E+03  0.49830001616E+03  0.00000000000E+00 0.  1.
        -13    1    5    5    0    0  0.38827267147E+02  0.14796989448E+03 -0.11595294416E+03  0.19195762971E+03  0.00000000000E+00 0. -1.
          5    1    6    6  503    0 -0.35763622357E+03  0.74313714844E+03 -0.38664986802E+03  0.91086590685E+03  0.47000000000E+01 0. -1.
         -5    1    6    6    0  503 -0.10151159765E+03  0.12222717253E+03 -0.62626404744E+02  0.17084566934E+03  0.47000000000E+01 0.  1.
<mgrwt>
<rscale>  0 0.15481086E+04</rscale>
<asrwt>0</asrwt>
<pdfrwt beam="1">  1        1 0.23916714E+00 0.15481086E+04</pdfrwt>
<pdfrwt beam="2">  1       -1 0.36882801E+00 0.15481086E+04</pdfrwt>
<totfact> 0.65621686E-02</totfact>
</mgrwt>
</event>
<event>
12    1  0.3166324E-008  0.1415101E+04  0.7818608E-02  0.8942959E-01
          2   -1    0    0  501    0  0.00000000000E+00  0.00000000000E+00  0.39802862614E+04  0.39802862614E+04  0.00000000000E+00 0. -1.
         -2   -1    0    0    0  501 -0.00000000000E+00 -0.00000000000E+00 -0.54590488961E+03  0.54590488961E+03  0.00000000000E+00 0.  1.
         23    2    1    2    0    0 -0.13518489947E+04 -0.19463835376E+03  0.21941644269E+04  0.25860814875E+04  0.89889568216E+02 0.  0.
    5000000    2    1    2    0    0  0.13518489947E+04  0.19463835376E+03  0.12402169449E+04  0.19401096636E+04  0.60042288685E+03 0.  0.
         23    2    4    4    0    0  0.73099282540E+02  0.16247591828E+03  0.23417128440E+03  0.31031893136E+03  0.98588638277E+02 0.  0.
         23    2    4    4    0    0  0.12787497121E+04  0.32162435489E+02  0.10060456605E+04  0.16297907322E+04  0.88626808602E+02 0.  0.
          2    1    3    3  502    0 -0.30120997251E+03 -0.12797034093E+02  0.44349622259E+03  0.53626496349E+03  0.00000000000E+00 0. -1.
         -2    1    3    3    0  502 -0.10506390222E+04 -0.18184131967E+03  0.17506682043E+04  0.20498165240E+04  0.00000000000E+00 0.  1.
         11    1    5    5    0    0  0.24233119310E+02  0.17374965090E+02 -0.84298969462E+00  0.29830255028E+02  0.00000000000E+00 0. -1.
        -11    1    5    5    0    0  0.48866163230E+02  0.14510095319E+03  0.23501427410E+03  0.28048867634E+03  0.00000000000E+00 0.  1.
          5    1    6    6  503    0  0.77313030001E+03  0.49190682452E+01  0.55590226131E+03  0.95226260671E+03  0.47000000000E+01 0. -1.
         -5    1    6    6    0  503  0.50561941212E+03  0.27243367243E+02  0.45014339923E+03  0.67752812550E+03  0.47000000000E+01 0.  1.
<mgrwt>
<rscale>  0 0.14151013E+04</rscale>
<asrwt>0</asrwt>
<pdfrwt beam="1">  1        2 0.61235171E+00 0.14151013E+04</pdfrwt>
<pdfrwt beam="2">  1       -2 0.83985370E-01 0.14151013E+04</pdfrwt>
<totfact> 0.43246344E-01</totfact>
</mgrwt>
</event>
<event>
12    1  0.3166324E-008  0.7394011E+03  0.7818608E-02  0.9652127E-01
          1   -1    0    0  501    0  0.00000000000E+00  0.00000000000E+00  0.91588558122E+03  0.91588558122E+03  0.00000000000E+00 0. -1.
         -1   -1    0    0    0  501 -0.00000000000E+00 -0.00000000000E+00 -0.11023100725E+04  0.11023100725E+04  0.00000000000E+00 0.  1.
         23    2    1    2    0    0 -0.41393592108E+03  0.46816567815E+03  0.58266322065E+03  0.85971003604E+03  0.95304083859E+02 0.  0.
    5000000    2    1    2    0    0  0.41393592108E+03 -0.46816567815E+03 -0.76908771195E+03  0.11584856177E+04  0.60005913776E+03 0.  0.
         23    2    4    4    0    0  0.41110662586E+03 -0.33755117314E+02 -0.37555830500E+03  0.56518928951E+03  0.90812040814E+02 0.  0.
         23    2    4    4    0    0  0.28292952290E+01 -0.43441056084E+03 -0.39352940695E+03  0.59329632820E+03  0.91731121440E+02 0.  0.
          1    1    3    3  502    0 -0.15344464403E+03  0.20309520291E+03  0.18002358101E+03  0.31177140656E+03  0.00000000000E+00 0. -1.
         -1    1    3    3    0  502 -0.26049127705E+03  0.26507047524E+03  0.40263963964E+03  0.54793862948E+03  0.00000000000E+00 0.  1.
         13    1    5    5    0    0  0.30900931556E+03 -0.36675525886E+02 -0.22816088026E+03  0.38586168323E+03  0.00000000000E+00 0.  1.
        -13    1    5    5    0    0  0.10209731029E+03  0.29204085723E+01 -0.14739742474E+03  0.17932760628E+03  0.00000000000E+00 0. -1.
          5    1    6    6  503    0  0.31930190029E+02 -0.15420739138E+03 -0.18364069433E+03  0.24196167301E+03  0.47000000000E+01 0. -1.
         -5    1    6    6    0  503 -0.29100894800E+02 -0.28020316945E+03 -0.20988871262E+03  0.35133465519E+03  0.47000000000E+01 0.  1.
<mgrwt>
<rscale>  0 0.73940109E+03</rscale>
<asrwt>0</asrwt>
<pdfrwt beam="1">  1        1 0.14090547E+00 0.73940109E+03</pdfrwt>
<pdfrwt beam="2">  1       -1 0.16958616E+00 0.73940109E+03</pdfrwt>
<totfact> 0.45450163E+00</totfact>
</mgrwt>
</event>
<event>
12    1  0.3166324E-008  0.2027113E+03  0.7818608E-02  0.1147471E+00
          1   -1    0    0  501    0  0.00000000000E+00  0.00000000000E+00  0.41674650118E+03  0.41674650118E+03  0.00000000000E+00 0. -1.
         -1   -1    0    0    0  501 -0.00000000000E+00 -0.00000000000E+00 -0.41146459558E+03  0.41146459558E+03  0.00000000000E+00 0.  1.
         23    2    1    2    0    0 -0.14227866909E+03 -0.47753389884E+02  0.10179468406E+03  0.20207311019E+03  0.89150312592E+02 0.  0.
    5000000    2    1    2    0    0  0.14227866909E+03  0.47753389884E+02 -0.96512778464E+02  0.62613798657E+03  0.60017535428E+03 0.  0.
         23    2    4    4    0    0  0.22146748255E+01  0.46006465503E+02 -0.32678786560E+03  0.34251754578E+03  0.91686751579E+02 0.  0.
         23    2    4    4    0    0  0.14006399427E+03  0.17469243808E+01  0.23027508713E+03  0.28362044078E+03  0.88277768660E+02 0.  0.
          3    1    3    3  502    0 -0.20840827587E+02 -0.48810911503E+02  0.28877399342E+02  0.60421431372E+02  0.00000000000E+00 0. -1.
         -3    1    3    3    0  502 -0.12143784151E+03  0.10575216192E+01  0.72917284718E+02  0.14165167882E+03  0.00000000000E+00 0.  1.
         13    1    5    5    0    0 -0.37471523396E+02  0.16161944152E+02 -0.70460669734E+02  0.81424992992E+02  0.00000000000E+00 0. -1.
        -13    1    5    5    0    0  0.39686198222E+02  0.29844521351E+02 -0.25632719586E+03  0.26109255279E+03  0.00000000000E+00 0.  1.
          5    1    6    6  503    0  0.61573909964E+02 -0.10461277812E+01  0.17987256922E+03  0.19018062975E+03  0.47000000000E+01 0. -1.
         -5    1    6    6    0  503  0.78490084306E+02  0.27930521619E+01  0.50402517909E+02  0.93439811035E+02  0.47000000000E+01 0.  1.
<mgrwt>
<rscale>  0 0.20271132E+03</rscale>
<asrwt>0</asrwt>
<pdfrwt beam="1">  1        1 0.64114847E-01 0.20271132E+03</pdfrwt>
<pdfrwt beam="2">  1       -1 0.63302245E-01 0.20271132E+03</pdfrwt>
<totfact> 0.15359129E+02</totfact>
</mgrwt>
</event>
<event>
12    1  0.3166324E-008  0.6278698E+03  0.7818608E-02  0.9849215E-01
         -1   -1    0    0    0  501 -0.00000000000E+00  0.00000000000E+00  0.51182465162E+03  0.51182465162E+03  0.00000000000E+00 0.  1.
          1   -1    0    0  501    0  0.00000000000E+00 -0.00000000000E+00 -0.85933426006E+03  0.85933426006E+03  0.00000000000E+00 0. -1.
         23    2    1    2    0    0 -0.51958787394E+03 -0.39157543285E+02 -0.18238650714E+03  0.55965013862E+03  0.91861677167E+02 0.  0.
    5000000    2    1    2    0    0  0.51958787394E+03  0.39157543285E+02 -0.16512310129E+03  0.81150877306E+03  0.59981328615E+03 0.  0.
         23    2    4    4    0    0  0.15983749736E+03  0.24697584585E+03  0.79888495513E+02  0.31823111615E+03  0.91344280497E+02 0.  0.
         23    2    4    4    0    0  0.35975037658E+03 -0.20781830256E+03 -0.24501159681E+03  0.49327765691E+03  0.10336045622E+03 0.  0.
          3    1    3    3  502    0 -0.35462742841E+03 -0.69409268950E+02 -0.12730645170E+03  0.38312555676E+03  0.00000000000E+00 0. -1.
         -3    1    3    3    0  502 -0.16496044552E+03  0.30251725665E+02 -0.55080055446E+02  0.17652458186E+03  0.00000000000E+00 0.  1.
         13    1    5    5    0    0  0.80826454234E+02  0.19483401440E+03  0.73414210808E+02  0.22334470045E+03  0.00000000000E+00 0.  1.
        -13    1    5    5    0    0  0.79011043124E+02  0.52141831444E+02  0.64742847052E+01  0.94886415700E+02  0.00000000000E+00 0. -1.
          5    1    6    6  503    0  0.20901931836E+03 -0.81650032632E+02 -0.85845139563E+02  0.24030664008E+03  0.47000000000E+01 0. -1.
         -5    1    6    6    0  503  0.15073105821E+03 -0.12616826993E+03 -0.15916645724E+03  0.25297101684E+03  0.47000000000E+01 0.  1.
<mgrwt>
<rscale>  0 0.62786979E+03</rscale>
<asrwt>0</asrwt>
<pdfrwt beam="1">  1        1 0.13220527E+00 0.62786979E+03</pdfrwt>
<pdfrwt beam="2">  1       -1 0.78742254E-01 0.62786979E+03</pdfrwt>
<totfact> 0.33002878E+01</totfact>
</mgrwt>
</event>
<event>
12    1  0.3166324E-008  0.4996746E+03  0.7818608E-02  0.1013864E+00
          4   -1    0    0  501    0  0.00000000000E+00  0.00000000000E+00  0.27811753226E+04  0.27811753226E+04  0.00000000000E+00 0. -1.
         -4   -1    0    0    0  501 -0.00000000000E+00 -0.00000000000E+00 -0.17904918907E+03  0.17904918907E+03  0.00000000000E+00 0.  1.
         23    2    1    2    0    0 -0.20828687784E+03 -0.36695380397E+03  0.25672876504E+03  0.50279613273E+03  0.94105125021E+02 0.  0.
    5000000    2    1    2    0    0  0.20828687784E+03  0.36695380397E+03  0.23453973685E+04  0.24574283790E+04  0.60002241944E+03 0.  0.
         23    2    4    4    0    0  0.13267729960E+03 -0.39480298363E+02  0.15874118050E+03  0.23019039834E+03  0.92881092314E+02 0.  0.
         23    2    4    4    0    0  0.75609578235E+02  0.40643410234E+03  0.21866561880E+04  0.22272379806E+04  0.90654564032E+02 0.  0.
          1    1    3    3  502    0 -0.18500522034E+03 -0.35046401185E+03  0.26015749701E+03  0.47406104924E+03  0.00000000000E+00 0. -1.
         -1    1    3    3    0  502 -0.23281657501E+02 -0.16489792123E+02 -0.34287319670E+01  0.28735083490E+02  0.00000000000E+00 0.  1.
         13    1    5    5    0    0  0.53235643135E+02 -0.52058621037E+02  0.34206468964E+02  0.81940321230E+02  0.00000000000E+00 0. -1.
        -13    1    5    5    0    0  0.79441656469E+02  0.12578322674E+02  0.12453471154E+03  0.14825007711E+03  0.00000000000E+00 0.  1.
          5    1    6    6  503    0  0.66765174151E+01  0.23008964638E+03  0.13421633986E+04  0.13617674177E+04  0.47000000000E+01 0. -1.
         -5    1    6    6    0  503  0.68933060820E+02  0.17634445596E+03  0.84449278936E+03  0.86547056293E+03  0.47000000000E+01 0.  1.
<mgrwt>
<rscale>  0 0.49967465E+03</rscale>
<asrwt>0</asrwt>
<pdfrwt beam="1">  1        4 0.42787309E+00 0.49967465E+03</pdfrwt>
<pdfrwt beam="2">  1       -4 0.27546031E-01 0.49967465E+03</pdfrwt>
<totfact> 0.11877768E-01</totfact>
</mgrwt>
</event>
<event>
12    1  0.3166324E-008  0.1205057E+04  0.7818608E-02  0.9108442E-01
          2   -1    0    0  501    0  0.00000000000E+00  0.00000000000E+00  0.41556573742E+04  0.41556573742E+04  0.00000000000E+00 0. -1.
         -2   -1    0    0    0  501 -0.00000000000E+00 -0.00000000000E+00 -0.61404849791E+03  0.61404849791E+03  0.00000000000E+00 0.  1.
         23    2    1    2    0    0 -0.79613347188E+03 -0.88899330701E+03  0.25745398715E+03  0.12243031097E+04  0.92184293918E+02 0.  0.
    5000000    2    1    2    0    0  0.79613347188E+03  0.88899330701E+03  0.32841548892E+04  0.35454027624E+04  0.60005816938E+03 0.  0.
         23    2    4    4    0    0  0.19257206190E+03  0.31435863407E+03  0.18106161081E+04  0.18500421266E+04  0.91759628436E+02 0.  0.
         23    2    4    4    0    0  0.60356140998E+03  0.57463467294E+03  0.14735387811E+04  0.16953606359E+04  0.91868183826E+02 0.  0.
          2    1    3    3  502    0 -0.60326270138E+03 -0.65177013473E+03  0.15280902131E+03  0.90115525432E+03  0.00000000000E+00 0. -1.
         -2    1    3    3    0  502 -0.19287077050E+03 -0.23722317228E+03  0.10464496583E+03  0.32314785541E+03  0.00000000000E+00 0.  1.
         13    1    5    5    0    0  0.20047165266E+02  0.11051842988E+03  0.49250732926E+03  0.50515312684E+03  0.00000000000E+00 0. -1.
        -13    1    5    5    0    0  0.17252489664E+03  0.20384020418E+03  0.13181087788E+04  0.13448889997E+04  0.00000000000E+00 0.  1.
          5    1    6    6  503    0  0.78095666224E+02  0.11301047013E+03  0.20607317124E+03  0.24770656299E+03  0.47000000000E+01 0. -1.
         -5    1    6    6    0  503  0.52546574375E+03  0.46162420281E+03  0.12674656099E+04  0.14476540729E+04  0.47000000000E+01 0.  1.
<mgrwt>
<rscale>  0 0.12050568E+04</rscale>
<asrwt>0</asrwt>
<pdfrwt beam="1">  1        2 0.63933189E+00 0.12050568E+04</pdfrwt>
<pdfrwt beam="2">  1       -2 0.94469002E-01 0.12050568E+04</pdfrwt>
<totfact> 0.24413786E-01</totfact>
</mgrwt>
</event>
<event>
12    1  0.3166324E-008  0.7570696E+03  0.7818608E-02  0.9624324E-01
          1   -1    0    0  501    0  0.00000000000E+00  0.00000000000E+00  0.22125195488E+04  0.22125195488E+04  0.00000000000E+00 0. -1.
         -1   -1    0    0    0  501 -0.00000000000E+00 -0.00000000000E+00 -0.30752859063E+03  0.30752859063E+03  0.00000000000E+00 0.  1.
         23    2    1    2    0    0 -0.64553914935E+03 -0.83073639341E+02  0.12723718175E+04  0.14320858839E+04  0.91202599790E+02 0.  0.
    5000000    2    1    2    0    0  0.64553914935E+03  0.83073639341E+02  0.63261914068E+03  0.10879622555E+04  0.59986070821E+03 0.  0.
         23    2    4    4    0    0  0.30779088564E+03 -0.24193954745E+03  0.35114594241E+03  0.53365462810E+03  0.90630101603E+02 0.  0.
         23    2    4    4    0    0  0.33774826371E+03  0.32501318679E+03  0.28147319827E+03  0.55430762736E+03  0.91226767879E+02 0.  0.
          1    1    3    3  502    0 -0.54979246227E+03 -0.75259049095E+02  0.11465946364E+04  0.12738190359E+04  0.00000000000E+00 0. -1.
         -1    1    3    3    0  502 -0.95746687085E+02 -0.78145902462E+01  0.12577718108E+03  0.15826684804E+03  0.00000000000E+00 0.  1.
         13    1    5    5    0    0  0.22809704068E+03 -0.18556978597E+03  0.20714014869E+03  0.35968242469E+03  0.00000000000E+00 0. -1.
        -13    1    5    5    0    0  0.79693844966E+02 -0.56369761481E+02  0.14400579372E+03  0.17397220341E+03  0.00000000000E+00 0.  1.
          5    1    6    6  503    0  0.10747816882E+03  0.72569367766E+02  0.39704333269E+02  0.13570701526E+03  0.47000000000E+01 0. -1.
         -5    1    6    6    0  503  0.23027009489E+03  0.25244381902E+03  0.24176886500E+03  0.41860061210E+03  0.47000000000E+01 0.  1.
<mgrwt>
<rscale>  0 0.75706957E+03</rscale>
<asrwt>0</asrwt>
<pdfrwt beam="1">  1        1 0.34038761E+00 0.75706957E+03</pdfrwt>
<pdfrwt beam="2">  1       -1 0.47312092E-01 0.75706957E+03</pdfrwt>
<totfact> 0.99782006E+00</totfact>
</mgrwt>
</event>
<event>
12    1  0.3166324E-008  0.6731660E+03  0.7818608E-02  0.9764255E-01
         -1   -1    0    0    0  501 -0.00000000000E+00  0.00000000000E+00  0.43241746033E+03  0.43241746033E+03  0.00000000000E+00 0.  1.
          1   -1    0    0  501    0  0.00000000000E+00 -0.00000000000E+00 -0.12041374849E+04  0.12041374849E+04  0.00000000000E+00 0. -1.
         23    2    1    2    0    0 -0.52333767157E+03 -0.15737671692E+03 -0.61048915792E+02  0.55781268668E+03  0.93692442545E+02 0.  0.
    5000000    2    1    2    0    0  0.52333767157E+03  0.15737671692E+03 -0.71067110877E+03  0.10787422585E+04  0.59998473813E+03 0.  0.
         23    2    4    4    0    0  0.62787927653E+03  0.68915391554E+02 -0.62340557943E+03  0.89145177193E+03  0.84083459305E+02 0.  0.
         23    2    4    4    0    0 -0.10454160496E+03  0.88461325364E+02 -0.87265529343E+02  0.18729048660E+03  0.93317203710E+02 0.  0.
          2    1    3    3  502    0 -0.28921262840E+03 -0.71653171245E+02 -0.77734351840E+02  0.30792978231E+03  0.00000000000E+00 0. -1.
         -2    1    3    3    0  502 -0.23412504317E+03 -0.85723545674E+02  0.16685436048E+02  0.24988290437E+03  0.00000000000E+00 0.  1.
         11    1    5    5    0    0  0.30015905079E+03  0.64042211405E+02 -0.34136613371E+03  0.45905086631E+03  0.00000000000E+00 0.  1.
        -11    1    5    5    0    0  0.32772022574E+03  0.48731801497E+01 -0.28203944571E+03  0.43240090562E+03  0.00000000000E+00 0. -1.
          5    1    6    6  503    0 -0.90166169364E+02  0.17684857864E+02 -0.36961219001E+02  0.99150965732E+02  0.47000000000E+01 0. -1.
         -5    1    6    6    0  503 -0.14375435591E+02  0.70776467500E+02 -0.50304310342E+02  0.88139520870E+02  0.47000000000E+01 0.  1.
<mgrwt>
<rscale>  0 0.67316598E+03</rscale>
<asrwt>0</asrwt>
<pdfrwt beam="1">  1        1 0.18525192E+00 0.67316598E+03</pdfrwt>
<pdfrwt beam="2">  1       -1 0.66525765E-01 0.67316598E+03</pdfrwt>
<totfact> 0.25268037E+01</totfact>
</mgrwt>
</event>
<event>
12    1  0.3166324E-008  0.3935819E+03  0.7818608E-02  0.1046025E+00
          1   -1    0    0  501    0  0.00000000000E+00  0.00000000000E+00  0.11922300655E+04  0.11922300655E+04  0.00000000000E+00 0. -1.
         -1   -1    0    0    0  501 -0.00000000000E+00 -0.00000000000E+00 -0.23729165986E+03  0.23729165986E+03  0.00000000000E+00 0.  1.
         23    2    1    2    0    0 -0.21269879111E+03 -0.14331477603E+03 -0.15581171867E+01  0.27168282365E+03  0.89605960580E+02 0.  0.
    5000000    2    1    2    0    0  0.21269879111E+03  0.14331477603E+03  0.95649652287E+03  0.11578389018E+04  0.59993784961E+03 0.  0.
         23    2    4    4    0    0  0.25780599638E+03 -0.90237009689E+02  0.82267299312E+03  0.87054106599E+03  0.80276050525E+02 0.  0.
         23    2    4    4    0    0 -0.45107205268E+02  0.23355178572E+03  0.13382352975E+03  0.28729783576E+03  0.89722977774E+02 0.  0.
          4    1    3    3  502    0 -0.12086893173E+03 -0.90477530698E+02 -0.44442523764E+02  0.15738684868E+03  0.00000000000E+00 0. -1.
         -4    1    3    3    0  502 -0.91829859374E+02 -0.52837245331E+02  0.42884406577E+02  0.11429597497E+03  0.00000000000E+00 0.  1.
         13    1    5    5    0    0  0.12013964108E+03 -0.76566344865E+02  0.34553382182E+03  0.37375066628E+03  0.00000000000E+00 0. -1.
        -13    1    5    5    0    0  0.13766635530E+03 -0.13670664824E+02  0.47713917130E+03  0.49679039971E+03  0.00000000000E+00 0.  1.
          5    1    6    6  503    0  0.20839801917E+02  0.62070016595E+02  0.11809204487E+02  0.66697313399E+02  0.47000000000E+01 0. -1.
         -5    1    6    6    0  503 -0.65947007185E+02  0.17148176912E+03  0.12201432526E+03  0.22060052236E+03  0.47000000000E+01 0.  1.
<mgrwt>
<rscale>  0 0.39358186E+03</rscale>
<asrwt>0</asrwt>
<pdfrwt beam="1">  1        1 0.18342001E+00 0.39358186E+03</pdfrwt>
<pdfrwt beam="2">  1       -1 0.36506410E-01 0.39358186E+03</pdfrwt>
<totfact> 0.83161900E+01</totfact>
</mgrwt>
</event>
<event>
12    1  0.3166324E-008  0.1003884E+04  0.7818608E-02  0.9304295E-01
         -2   -1    0    0    0  501 -0.00000000000E+00  0.00000000000E+00  0.19287892741E+04  0.19287892741E+04  0.00000000000E+00 0. -1.
          2   -1    0    0  501    0  0.00000000000E+00 -0.00000000000E+00 -0.57162270541E+03  0.57162270541E+03  0.00000000000E+00 0.  1.
         23    2    1    2    0    0  0.20042502121E+03  0.89791937599E+03  0.28999517077E+03  0.96897432531E+03  0.91567729698E+02 0.  0.
    5000000    2    1    2    0    0 -0.20042502121E+03 -0.89791937599E+03  0.10671713979E+04  0.15314376542E+04  0.60001425087E+03 0.  0.
         23    2    4    4    0    0  0.51025870574E+02  0.46092771970E+02  0.15188830597E+03  0.18914093149E+03  0.89308741906E+02 0.  0.
         23    2    4    4    0    0 -0.25145089178E+03 -0.94401214797E+03  0.91528309193E+03  0.13422967227E+04  0.98136980221E+02 0.  0.
          1    1    3    3  502    0  0.13823955913E+03  0.41203252906E+03  0.12897326206E+03  0.45333771412E+03  0.00000000000E+00 0. -1.
         -1    1    3    3    0  502  0.62185462078E+02  0.48588684693E+03  0.16102190871E+03  0.51563661119E+03  0.00000000000E+00 0.  1.
         13    1    5    5    0    0  0.70162165448E+02  0.27112818631E+02  0.14151086594E+03  0.16025966296E+03  0.00000000000E+00 0. -1.
        -13    1    5    5    0    0 -0.19136294874E+02  0.18979953339E+02  0.10377440026E+02  0.28881268527E+02  0.00000000000E+00 0.  1.
          5    1    6    6  503    0 -0.68910110540E+02 -0.43323776674E+03  0.43455643240E+03  0.61749894640E+03  0.47000000000E+01 0. -1.
         -5    1    6    6    0  503 -0.18254078124E+03 -0.51077438123E+03  0.48072665954E+03  0.72479777630E+03  0.47000000000E+01 0.  1.
<mgrwt>
<rscale>  0 0.10038838E+04</rscale>
<asrwt>0</asrwt>
<pdfrwt beam="1">  1        2 0.87941955E-01 0.10038838E+04</pdfrwt>
<pdfrwt beam="2">  1       -2 0.29673681E+00 0.10038838E+04</pdfrwt>
<totfact> 0.17591523E+00</totfact>
</mgrwt>
</event>
<event>
12    1  0.3166324E-008  0.9531262E+03  0.7818608E-02  0.9361504E-01
          1   -1    0    0  501    0  0.00000000000E+00  0.00000000000E+00  0.32724677820E+04  0.32724677820E+04  0.00000000000E+00 0. -1.
         -1   -1    0    0    0  501 -0.00000000000E+00 -0.00000000000E+00 -0.28768340124E+03  0.28768340124E+03  0.00000000000E+00 0.  1.
         23    2    1    2    0    0  0.85591314336E+03  0.15848386533E+03  0.15254601816E+04  0.17583561758E+04  0.84161931297E+02 0.  0.
    5000000    2    1    2    0    0 -0.85591314336E+03 -0.15848386533E+03  0.14593241992E+04  0.18017950075E+04  0.59927763699E+03 0.  0.
         23    2    4    4    0    0 -0.82063368321E+03 -0.29852325730E+03  0.12986776504E+04  0.15676266368E+04  0.91289953381E+02 0.  0.
         23    2    4    4    0    0 -0.35279460151E+02  0.14003939197E+03  0.16064654881E+03  0.23416837072E+03  0.90398233348E+02 0.  0.
          4    1    3    3  502    0  0.52472693283E+03  0.10356688957E+03  0.10170351688E+04  0.11490974673E+04  0.00000000000E+00 0. -1.
         -4    1    3    3    0  502  0.33118621053E+03  0.54916975761E+02  0.50842501274E+03  0.60925870847E+03  0.00000000000E+00 0.  1.
         13    1    5    5    0    0 -0.36709726007E+03 -0.12092745290E+03  0.49719394537E+03  0.62975047958E+03  0.00000000000E+00 0. -1.
        -13    1    5    5    0    0 -0.45353642313E+03 -0.17759580439E+03  0.80148370505E+03  0.93787615723E+03  0.00000000000E+00 0.  1.
          5    1    6    6  503    0  0.22784536862E+02  0.35363530559E+02  0.13511944378E+02  0.44433962849E+02  0.47000000000E+01 0. -1.
         -5    1    6    6    0  503 -0.58063997013E+02  0.10467586141E+03  0.14713460443E+03  0.18973440787E+03  0.47000000000E+01 0.  1.
<mgrwt>
<rscale>  0 0.95312616E+03</rscale>
<asrwt>0</asrwt>
<pdfrwt beam="1">  1        1 0.50345655E+00 0.95312616E+03</pdfrwt>
<pdfrwt beam="2">  1       -1 0.44258987E-01 0.95312616E+03</pdfrwt>
<totfact> 0.19711245E+00</totfact>
</mgrwt>
</event>
<event>
12    1  0.3166324E-008  0.8024948E+03  0.7818608E-02  0.9556413E-01
         -1   -1    0    0    0  501 -0.00000000000E+00  0.00000000000E+00  0.29763788202E+03  0.29763788202E+03  0.00000000000E+00 0.  1.
          1   -1    0    0  501    0  0.00000000000E+00 -0.00000000000E+00 -0.26200129299E+04  0.26200129299E+04  0.00000000000E+00 0. -1.
         23    2    1    2    0    0 -0.28158256760E+03 -0.69527203675E+03 -0.13720323505E+04  0.15664490433E+04  0.92724791251E+02 0.  0.
    5000000    2    1    2    0    0  0.28158256760E+03  0.69527203675E+03 -0.95034269739E+03  0.13512017687E+04  0.59991918594E+03 0.  0.
         23    2    4    4    0    0 -0.81487450772E+02  0.24773034799E+03 -0.62662875656E+03  0.68462390913E+03  0.89642447784E+02 0.  0.
         23    2    4    4    0    0  0.36307001838E+03  0.44754168876E+03 -0.32371394083E+03  0.66657785953E+03  0.86150600132E+02 0.  0.
          3    1    3    3  502    0 -0.64866953283E+02 -0.21491558387E+03 -0.33602238424E+03  0.40411319272E+03  0.00000000000E+00 0. -1.
         -3    1    3    3    0  502 -0.21671561432E+03 -0.48035645288E+03 -0.10360099662E+04  0.11623358505E+04  0.00000000000E+00 0.  1.
         13    1    5    5    0    0 -0.67677424801E+02  0.74762935616E+02 -0.26442117131E+03  0.28299873888E+03  0.00000000000E+00 0.  1.
        -13    1    5    5    0    0 -0.13810025971E+02  0.17296741238E+03 -0.36220758525E+03  0.40162517024E+03  0.00000000000E+00 0. -1.
          5    1    6    6  503    0  0.21316890004E+03  0.30581892019E+03 -0.24297657624E+03  0.44500100954E+03  0.47000000000E+01 0. -1.
         -5    1    6    6    0  503  0.14990111834E+03  0.14172276857E+03 -0.80737364594E+02  0.22157684999E+03  0.47000000000E+01 0.  1.
<mgrwt>
<rscale>  0 0.80249482E+03</rscale>
<asrwt>0</asrwt>
<pdfrwt beam="1">  1        1 0.40307891E+00 0.80249482E+03</pdfrwt>
<pdfrwt beam="2">  1       -1 0.45790443E-01 0.80249482E+03</pdfrwt>
<totfact> 0.55631497E+00</totfact>
</mgrwt>
</event>
<event>
12    1  0.3166324E-008  0.6077413E+03  0.7818608E-02  0.9889474E-01
         -1   -1    0    0    0  501 -0.00000000000E+00  0.00000000000E+00  0.62705155302E+03  0.62705155302E+03  0.00000000000E+00 0.  1.
          1   -1    0    0  501    0  0.00000000000E+00 -0.00000000000E+00 -0.64270058173E+03  0.64270058173E+03  0.00000000000E+00 0. -1.
         23    2    1    2    0    0 -0.14052668915E+03  0.46621652590E+03  0.21920812314E+02  0.49612635086E+03  0.92494511278E+02 0.  0.
    5000000    2    1    2    0    0  0.14052668915E+03 -0.46621652590E+03 -0.37569841030E+02  0.77362578389E+03  0.59998313406E+03 0.  0.
         23    2    4    4    0    0  0.89457022298E+01 -0.55204719917E+03  0.68030580187E+02  0.56341355311E+03  0.89277859980E+02 0.  0.
         23    2    4    4    0    0  0.13158098692E+03  0.85830673273E+02 -0.10560042122E+03  0.21021223078E+03  0.91418118634E+02 0.  0.
          2    1    3    3  502    0 -0.12791594145E+03  0.26762529003E+03  0.10598149156E+02  0.29681324887E+03  0.00000000000E+00 0. -1.
         -2    1    3    3    0  502 -0.12610747702E+02  0.19859123587E+03  0.11322663158E+02  0.19931310198E+03  0.00000000000E+00 0.  1.
         13    1    5    5    0    0 -0.16461726563E+02 -0.25530381507E+03  0.71238329947E+02  0.26556717810E+03  0.00000000000E+00 0. -1.
        -13    1    5    5    0    0  0.25407428793E+02 -0.29674338411E+03 -0.32077497594E+01  0.29784637501E+03  0.00000000000E+00 0.  1.
          5    1    6    6  503    0  0.11542565802E+03  0.48561135570E+02 -0.37544752926E+02  0.13081653141E+03  0.47000000000E+01 0. -1.
         -5    1    6    6    0  503  0.16155328904E+02  0.37269537702E+02 -0.68055668291E+02  0.79395699374E+02  0.47000000000E+01 0.  1.
<mgrwt>
<rscale>  0 0.60774134E+03</rscale>
<asrwt>0</asrwt>
<pdfrwt beam="1">  1        1 0.98877013E-01 0.60774134E+03</pdfrwt>
<pdfrwt beam="2">  1       -1 0.96469470E-01 0.60774134E+03</pdfrwt>
<totfact> 0.33322434E+01</totfact>
</mgrwt>
</event>
<event>
12    1  0.3166324E-008  0.4368187E+03  0.7818608E-02  0.1031727E+00
         -2   -1    0    0    0  501 -0.00000000000E+00  0.00000000000E+00  0.40425958178E+03  0.40425958178E+03  0.00000000000E+00 0.  1.
          2   -1    0    0  501    0  0.00000000000E+00 -0.00000000000E+00 -0.82512402886E+03  0.82512402886E+03  0.00000000000E+00 0. -1.
         23    2    1    2    0    0  0.17221782372E+03  0.31634845135E+03  0.66091988006E+02  0.37729455194E+03  0.90816884822E+02 0.  0.
    5000000    2    1    2    0    0 -0.17221782372E+03 -0.31634845135E+03 -0.48695643508E+03  0.85208905870E+03  0.59932785085E+03 0.  0.
         23    2    4    4    0    0  0.77752371701E+02 -0.18392301983E+03 -0.50738754939E+03  0.55368940598E+03  0.96211872902E+02 0.  0.
         23    2    4    4    0    0 -0.24997019542E+03 -0.13242543152E+03  0.20431114308E+02  0.29839965272E+03  0.92754130893E+02 0.  0.
          2    1    3    3  502    0  0.13655410786E+03  0.20015538493E+03  0.76241720613E+01  0.24241974031E+03  0.00000000000E+00 0. -1.
         -2    1    3    3    0  502  0.35663715860E+02  0.11619306642E+03  0.58467815944E+02  0.13487481163E+03  0.00000000000E+00 0.  1.
         13    1    5    5    0    0 -0.18776988684E+02 -0.44624079172E+02 -0.16003279414E+03  0.16719563077E+03  0.00000000000E+00 0. -1.
        -13    1    5    5    0    0  0.96529360385E+02 -0.13929894066E+03 -0.34735475525E+03  0.38649377521E+03  0.00000000000E+00 0.  1.
          5    1    6    6  503    0 -0.60356197789E+02  0.68437939237E-01 -0.19523475331E+02  0.63609208330E+02  0.47000000000E+01 0. -1.
         -5    1    6    6    0  503 -0.18961399763E+03 -0.13249386946E+03  0.39954589639E+02  0.23479044439E+03  0.47000000000E+01 0.  1.
<mgrwt>
<rscale>  0 0.43681873E+03</rscale>
<asrwt>0</asrwt>
<pdfrwt beam="1">  1        2 0.12694216E+00 0.43681873E+03</pdfrwt>
<pdfrwt beam="2">  1       -2 0.62193781E-01 0.43681873E+03</pdfrwt>
<totfact> 0.82660440E+01</totfact>
</mgrwt>
</event>
<event>
12    1  0.3166324E-008  0.7289333E+03  0.7818608E-02  0.9668993E-01
         -2   -1    0    0    0  501 -0.00000000000E+00  0.00000000000E+00  0.86078837148E+03  0.86078837148E+03  0.00000000000E+00 0.  1.
          2   -1    0    0  501    0  0.00000000000E+00 -0.00000000000E+00 -0.80942345281E+03  0.80942345281E+03  0.00000000000E+00 0. -1.
         23    2    1    2    0    0 -0.46834989028E+03  0.43264263745E+03  0.36860462884E+03  0.73874659807E+03  0.57843688459E+02 0.  0.
    5000000    2    1    2    0    0  0.46834989028E+03 -0.43264263745E+03 -0.31723971016E+03  0.93146522622E+03  0.60037918226E+03 0.  0.
         23    2    4    4    0    0  0.25692100751E+03  0.59739624630E+02  0.39159709954E+02  0.28134046125E+03  0.89675779351E+02 0.  0.
         23    2    4    4    0    0  0.21142888277E+03 -0.49238226208E+03 -0.35639942011E+03  0.65012476497E+03  0.92191099843E+02 0.  0.
          3    1    3    3  502    0 -0.30921588836E+03  0.29569016545E+03  0.27699076751E+03  0.50967737329E+03  0.00000000000E+00 0. -1.
         -3    1    3    3    0  502 -0.15913400192E+03  0.13695247200E+03  0.91613861327E+02  0.22906922478E+03  0.00000000000E+00 0.  1.
         11    1    5    5    0    0  0.16691821521E+03 -0.56572973174E+01  0.16740987532E+02  0.16785099418E+03  0.00000000000E+00 0.  1.
        -11    1    5    5    0    0  0.90002792296E+02  0.65396921947E+02  0.22418722422E+02  0.11348946707E+03  0.00000000000E+00 0. -1.
          5    1    6    6  503    0  0.10305225527E+03 -0.33603699426E+03 -0.25692740787E+03  0.43540143746E+03  0.47000000000E+01 0. -1.
         -5    1    6    6    0  503  0.10837662750E+03 -0.15634526782E+03 -0.99472012248E+02  0.21472332751E+03  0.47000000000E+01 0.  1.
<mgrwt>
<rscale>  0 0.72893331E+03</rscale>
<asrwt>0</asrwt>
<pdfrwt beam="1">  1        2 0.12452668E+00 0.72893331E+03</pdfrwt>
<pdfrwt beam="2">  1       -2 0.13242898E+00 0.72893331E+03</pdfrwt>
<totfact> 0.14297432E+01</totfact>
</mgrwt>
</event>
<event>
12    1  0.3166324E-008  0.4531142E+03  0.7818608E-02  0.1026797E+00
         -1   -1    0    0    0  501 -0.00000000000E+00  0.00000000000E+00  0.57465766504E+03  0.57465766504E+03  0.00000000000E+00 0.  1.
          1   -1    0    0  501    0  0.00000000000E+00 -0.00000000000E+00 -0.40465137827E+03  0.40465137827E+03  0.00000000000E+00 0. -1.
         23    2    1    2    0    0 -0.18923987769E+03 -0.21332966997E+03  0.56316203449E+02  0.30517912436E+03  0.92959688974E+02 0.  0.
    5000000    2    1    2    0    0  0.18923987769E+03  0.21332966997E+03  0.11369008332E+03  0.67412991895E+03  0.60017033681E+03 0.  0.
         23    2    4    4    0    0  0.13146234542E+03 -0.17362215735E+03 -0.45845228887E+02  0.24146884242E+03  0.93693196447E+02 0.  0.
         23    2    4    4    0    0  0.57777532267E+02  0.38695182733E+03  0.15953531221E+03  0.43266107653E+03  0.93135017041E+02 0.  0.
          1    1    3    3  502    0 -0.82268257299E+02 -0.84757513854E+02 -0.22570470537E+02  0.12025526373E+03  0.00000000000E+00 0. -1.
         -1    1    3    3    0  502 -0.10697162039E+03 -0.12857215612E+03  0.78886673986E+02  0.18492386063E+03  0.00000000000E+00 0.  1.
         11    1    5    5    0    0  0.58847289658E+02 -0.47002137627E+02  0.24820415391E+02  0.79298533793E+02  0.00000000000E+00 0. -1.
        -11    1    5    5    0    0  0.72615055761E+02 -0.12662001973E+03 -0.70665644277E+02  0.16217030863E+03  0.00000000000E+00 0.  1.
          5    1    6    6  503    0 -0.17169690130E+02  0.14896772110E+03  0.83931529810E+02  0.17190919663E+03  0.47000000000E+01 0. -1.
         -5    1    6    6    0  503  0.74947222397E+02  0.23798410622E+03  0.75603782401E+02  0.26075187991E+03  0.47000000000E+01 0.  1.
<mgrwt>
<rscale>  0 0.45311418E+03</rscale>
<asrwt>0</asrwt>
<pdfrwt beam="1">  1        1 0.62254058E-01 0.45311418E+03</pdfrwt>
<pdfrwt beam="2">  1       -1 0.88408872E-01 0.45311418E+03</pdfrwt>
<totfact> 0.77658100E+01</totfact>
</mgrwt>
</event>
<event>
12    1  0.3166324E-008  0.1019592E+04  0.7818608E-02  0.9287314E-01
          2   -1    0    0  501    0  0.00000000000E+00  0.00000000000E+00  0.12286386880E+04  0.12286386880E+04  0.00000000000E+00 0. -1.
         -2   -1    0    0    0  501 -0.00000000000E+00 -0.00000000000E+00 -0.10382537477E+04  0.10382537477E+04  0.00000000000E+00 0.  1.
         23    2    1    2    0    0 -0.34311088212E+03  0.94952138662E+03 -0.19270801642E+03  0.10315830292E+04  0.87813583349E+02 0.  0.
    5000000    2    1    2    0    0  0.34311088212E+03 -0.94952138662E+03  0.38309295668E+03  0.12353094065E+04  0.59992764175E+03 0.  0.
         23    2    4    4    0    0  0.77798135254E+02 -0.29849263429E+03 -0.14349205919E+03  0.35231960092E+03  0.91589997112E+02 0.  0.
         23    2    4    4    0    0  0.26531274687E+03 -0.65102875234E+03  0.52658501587E+03  0.88298980562E+03  0.90276950939E+02 0.  0.
          2    1    3    3  502    0 -0.27325043756E+03  0.74565219207E+03 -0.18767439946E+03  0.81601756928E+03  0.00000000000E+00 0. -1.
         -2    1    3    3    0  502 -0.69860444562E+02  0.20386919455E+03 -0.50336169597E+01  0.21556545990E+03  0.00000000000E+00 0.  1.
         11    1    5    5    0    0 -0.18383523095E+02 -0.20514316803E+02 -0.14531824054E+02  0.31144261520E+02  0.00000000000E+00 0. -1.
        -11    1    5    5    0    0  0.96181658349E+02 -0.27797831748E+03 -0.12896023513E+03  0.32117533940E+03  0.00000000000E+00 0.  1.
          5    1    6    6  503    0  0.93300796330E+02 -0.33754371307E+03  0.23774207676E+03  0.42330152597E+03  0.47000000000E+01 0. -1.
         -5    1    6    6    0  503  0.17201195054E+03 -0.31348503927E+03  0.28884293910E+03  0.45968827965E+03  0.47000000000E+01 0.  1.
<mgrwt>
<rscale>  0 0.10195917E+04</rscale>
<asrwt>0</asrwt>
<pdfrwt beam="1">  1        2 0.18902134E+00 0.10195917E+04</pdfrwt>
<pdfrwt beam="2">  1       -2 0.15973135E+00 0.10195917E+04</pdfrwt>
<totfact> 0.45585724E+00</totfact>
</mgrwt>
</event>
<event>
12    1  0.3166324E-008  0.1108370E+04  0.7818608E-02  0.9197072E-01
          1   -1    0    0  501    0  0.00000000000E+00  0.00000000000E+00  0.89955251109E+03  0.89955251109E+03  0.00000000000E+00 0. -1.
         -1   -1    0    0    0  501 -0.00000000000E+00 -0.00000000000E+00 -0.16268234599E+04  0.16268234599E+04  0.00000000000E+00 0.  1.
         23    2    1    2    0    0  0.83812811694E+02  0.10474641695E+04 -0.78675823606E+03  0.13148532299E+04  0.75131353438E+02 0.  0.
    5000000    2    1    2    0    0 -0.83812811694E+02 -0.10474641695E+04  0.59487287236E+02  0.12115227411E+04  0.60003569977E+03 0.  0.
         23    2    4    4    0    0 -0.28439620980E+03 -0.75420397906E+03  0.16305086487E+03  0.82744808003E+03  0.91541763293E+02 0.  0.
         23    2    4    4    0    0  0.20058339810E+03 -0.29326019048E+03 -0.10356357764E+03  0.38407466108E+03  0.10272629535E+03 0.  0.
          2    1    3    3  502    0  0.44104938543E+02  0.78258793628E+03 -0.55196249640E+03  0.95867185264E+03  0.00000000000E+00 0. -1.
         -2    1    3    3    0  502  0.39707873151E+02  0.26487623327E+03 -0.23479573966E+03  0.35618137726E+03  0.00000000000E+00 0.  1.
         13    1    5    5    0    0 -0.10344230388E+03 -0.35591148585E+03  0.38743380635E+02  0.37265848378E+03  0.00000000000E+00 0.  1.
        -13    1    5    5    0    0 -0.18095390592E+03 -0.39829249321E+03  0.12430748424E+03  0.45478959625E+03  0.00000000000E+00 0. -1.
          5    1    6    6  503    0  0.39793684691E+02 -0.83579787822E+02 -0.73107504866E+02  0.11805047879E+03  0.47000000000E+01 0. -1.
         -5    1    6    6    0  503  0.16078971341E+03 -0.20968040266E+03 -0.30456072770E+02  0.26602418230E+03  0.47000000000E+01 0.  1.
<mgrwt>
<rscale>  0 0.11083700E+04</rscale>
<asrwt>0</asrwt>
<pdfrwt beam="1">  1        1 0.13839270E+00 0.11083700E+04</pdfrwt>
<pdfrwt beam="2">  1       -1 0.25028053E+00 0.11083700E+04</pdfrwt>
<totfact> 0.12565428E+00</totfact>
</mgrwt>
</event>
<event>
12    1  0.3166324E-008  0.7441477E+03  0.7818608E-02  0.9644577E-01
         -1   -1    0    0    0  501 -0.00000000000E+00  0.00000000000E+00  0.34907559363E+03  0.34907559363E+03  0.00000000000E+00 0.  1.
          1   -1    0    0  501    0  0.00000000000E+00 -0.00000000000E+00 -0.18398419930E+04  0.18398419930E+04  0.00000000000E+00 0. -1.
         23    2    1    2    0    0 -0.53018499307E+03  0.43403376599E+03 -0.62105256936E+03  0.92941933366E+03  0.92911608455E+02 0.  0.
    5000000    2    1    2    0    0  0.53018499307E+03 -0.43403376599E+03 -0.86971383000E+03  0.12594982530E+04  0.60037677022E+03 0.  0.
         23    2    4    4    0    0  0.29436223703E+03  0.11667754058E+02 -0.78449386549E+02  0.31652815633E+03  0.85149893852E+02 0.  0.
         23    2    4    4    0    0  0.23582275604E+03 -0.44570152005E+03 -0.79126444345E+03  0.94297009663E+03  0.93973221898E+02 0.  0.
          4    1    3    3  502    0 -0.20265437110E+03  0.15220393379E+03 -0.17237020680E+03  0.30650663905E+03  0.00000000000E+00 0.  1.
         -4    1    3    3    0  502 -0.32753062197E+03  0.28182983220E+03 -0.44868236255E+03  0.62291269462E+03  0.00000000000E+00 0. -1.
         11    1    5    5    0    0  0.72910675688E+02  0.20204351837E+02 -0.55284697060E+02  0.93704750101E+02  0.00000000000E+00 0. -1.
        -11    1    5    5    0    0  0.22145156134E+03 -0.85365977787E+01 -0.23164689488E+02  0.22282340623E+03  0.00000000000E+00 0.  1.
          5    1    6    6  503    0  0.16284797698E+03 -0.27266607404E+03 -0.57170986599E+03  0.65401874011E+03  0.47000000000E+01 0. -1.
         -5    1    6    6    0  503  0.72974779056E+02 -0.17303544601E+03 -0.21955457746E+03  0.28895135653E+03  0.47000000000E+01 0.  1.
<mgrwt>
<rscale>  0 0.74414767E+03</rscale>
<asrwt>0</asrwt>
<pdfrwt beam="1">  1        1 0.28305261E+00 0.74414767E+03</pdfrwt>
<pdfrwt beam="2">  1       -1 0.53703938E-01 0.74414767E+03</pdfrwt>
<totfact> 0.13959723E+01</totfact>
</mgrwt>
</event>
<event>
12    1  0.3166324E-008  0.9069766E+03  0.7818608E-02  0.9416902E-01
          1   -1    0    0  501    0  0.00000000000E+00  0.00000000000E+00  0.63036978906E+03  0.63036978906E+03  0.00000000000E+00 0. -1.
         -1   -1    0    0    0  501 -0.00000000000E+00 -0.00000000000E+00 -0.22234495218E+04  0.22234495218E+04  0.00000000000E+00 0.  1.
         23    2    1    2    0    0  0.59429239800E+03  0.63766187672E+03  0.72759441951E+02  0.88029641049E+03  0.99154982638E+02 0.  0.
    5000000    2    1    2    0    0 -0.59429239800E+03 -0.63766187672E+03 -0.16658391747E+04  0.19735229004E+04  0.59998029881E+03 0.  0.
         23    2    4    4    0    0 -0.32231579274E+03 -0.53800526959E+03 -0.14984921012E+04  0.16269834773E+04  0.90881889123E+02 0.  0.
         23    2    4    4    0    0 -0.27197660526E+03 -0.99656607134E+02 -0.16734707351E+03  0.34653942306E+03  0.90453388905E+02 0.  0.
          4    1    3    3  502    0  0.27800440538E+03  0.22706020553E+03  0.33932633188E+02  0.36054709809E+03  0.00000000000E+00 0.  1.
         -4    1    3    3    0  502  0.31628799263E+03  0.41060167119E+03  0.38826808763E+02  0.51974931240E+03  0.00000000000E+00 0. -1.
         13    1    5    5    0    0 -0.28529432963E+03 -0.40622660459E+03 -0.11988705091E+04  0.12975759733E+04  0.00000000000E+00 0. -1.
        -13    1    5    5    0    0 -0.37021463111E+02 -0.13177866500E+03 -0.29962159207E+03  0.32940750404E+03  0.00000000000E+00 0.  1.
          5    1    6    6  503    0 -0.77955119157E+02  0.12777503037E+02 -0.41692003334E+02  0.89445951997E+02  0.47000000000E+01 0. -1.
         -5    1    6    6    0  503 -0.19402148610E+03 -0.11243411017E+03 -0.12565507018E+03  0.25709347106E+03  0.47000000000E+01 0.  1.
<mgrwt>
<rscale>  0 0.90697660E+03</rscale>
<asrwt>0</asrwt>
<pdfrwt beam="1">  1        1 0.96979969E-01 0.90697660E+03</pdfrwt>
<pdfrwt beam="2">  1       -1 0.34206915E+00 0.90697660E+03</pdfrwt>
<totfact> 0.57815063E-01</totfact>
</mgrwt>
</event>
<event>
12    1  0.3166324E-008  0.6150666E+03  0.7818608E-02  0.9874631E-01
          2   -1    0    0  501    0  0.00000000000E+00  0.00000000000E+00  0.14435331621E+04  0.14435331621E+04  0.00000000000E+00 0.  1.
         -2   -1    0    0    0  501 -0.00000000000E+00 -0.00000000000E+00 -0.40110294582E+03  0.40110294582E+03  0.00000000000E+00 0. -1.
         23    2    1    2    0    0 -0.49849983861E+03  0.26766455095E+02 -0.41066671061E+02  0.50950611176E+03  0.93228076471E+02 0.  0.
    5000000    2    1    2    0    0  0.49849983861E+03 -0.26766455095E+02  0.10834968874E+04  0.13351299962E+04  0.59948984110E+03 0.  0.
         23    2    4    4    0    0  0.44807781958E+03 -0.22701707012E+03  0.52095965812E+03  0.72940668846E+03  0.91239625468E+02 0.  0.
         23    2    4    4    0    0  0.50422019025E+02  0.20025061502E+03  0.56253722923E+03  0.60572330772E+03  0.88373652315E+02 0.  0.
          1    1    3    3  502    0 -0.13480161827E+03  0.47389048664E+02 -0.23430212253E+02  0.14479700641E+03  0.00000000000E+00 0. -1.
         -1    1    3    3    0  502 -0.36369822034E+03 -0.20622593569E+02 -0.17636458808E+02  0.36470910535E+03  0.00000000000E+00 0.  1.
         13    1    5    5    0    0  0.13198455517E+03 -0.43303574828E+02  0.96165848547E+02  0.16894671593E+03  0.00000000000E+00 0. -1.
        -13    1    5    5    0    0  0.31609326441E+03 -0.18371349529E+03  0.42479380958E+03  0.56045997253E+03  0.00000000000E+00 0.  1.
          5    1    6    6  503    0  0.45335356389E+02  0.48544325286E+02  0.11222365971E+03  0.13049170799E+03  0.47000000000E+01 0. -1.
         -5    1    6    6    0  503  0.50866626352E+01  0.15170628974E+03  0.45031356952E+03  0.47523159973E+03  0.47000000000E+01 0.  1.
<mgrwt>
<rscale>  0 0.61506662E+03</rscale>
<asrwt>0</asrwt>
<pdfrwt beam="1">  1        2 0.22208202E+00 0.61506662E+03</pdfrwt>
<pdfrwt beam="2">  1       -2 0.61708146E-01 0.61506662E+03</pdfrwt>
<totfact> 0.34644419E+01</totfact>
</mgrwt>
</event>
<event>
12    1  0.3166324E-008  0.6027642E+03  0.7818608E-02  0.9899688E-01
         -1   -1    0    0    0  501 -0.00000000000E+00  0.00000000000E+00  0.25727474301E+03  0.25727474301E+03  0.00000000000E+00 0.  1.
          1   -1    0    0  501    0  0.00000000000E+00 -0.00000000000E+00 -0.15128530562E+04  0.15128530562E+04  0.00000000000E+00 0. -1.
         23    2    1    2    0    0  0.23592349435E+03  0.40869730441E+03 -0.42936506811E+03  0.64529271132E+03  0.96720937485E+02 0.  0.
    5000000    2    1    2    0    0 -0.23592349435E+03 -0.40869730441E+03 -0.82621324505E+03  0.11248350879E+04  0.59994355298E+03 0.  0.
         23    2    4    4    0    0  0.83567719251E+02 -0.38294277165E+03 -0.59681519892E+03  0.72002441972E+03  0.92833470668E+02 0.  0.
         23    2    4    4    0    0 -0.31949121360E+03 -0.25754532768E+02 -0.22939804613E+03  0.40481066814E+03  0.92251189390E+02 0.  0.
          1    1    3    3  502    0  0.18822634854E+03  0.23594942972E+03 -0.25277374380E+03  0.39369513233E+03  0.00000000000E+00 0. -1.
         -1    1    3    3    0  502  0.47697145815E+02  0.17274787470E+03 -0.17659132431E+03  0.25159757899E+03  0.00000000000E+00 0.  1.
         13    1    5    5    0    0  0.67276084613E+01 -0.24225346809E+03 -0.36866120815E+03  0.44118373713E+03  0.00000000000E+00 0. -1.
        -13    1    5    5    0    0  0.76840110789E+02 -0.14068930356E+03 -0.22815399077E+03  0.27884068259E+03  0.00000000000E+00 0.  1.
          5    1    6    6  503    0 -0.11754388692E+03 -0.22707028759E+02 -0.13892790751E+03  0.18345361264E+03  0.47000000000E+01 0. -1.
         -5    1    6    6    0  503 -0.20194732669E+03 -0.30475040096E+01 -0.90470138623E+02  0.22135705550E+03  0.47000000000E+01 0.  1.
<mgrwt>
<rscale>  0 0.60276419E+03</rscale>
<asrwt>0</asrwt>
<pdfrwt beam="1">  1        1 0.23274662E+00 0.60276419E+03</pdfrwt>
<pdfrwt beam="2">  1       -1 0.39580730E-01 0.60276419E+03</pdfrwt>
<totfact> 0.41753036E+01</totfact>
</mgrwt>
</event>
<event>
12    1  0.3166324E-008  0.4816964E+03  0.7818608E-02  0.1018670E+00
         -1   -1    0    0    0  501 -0.00000000000E+00  0.00000000000E+00  0.18204214812E+03  0.18204214812E+03  0.00000000000E+00 0.  1.
          1   -1    0    0  501    0  0.00000000000E+00 -0.00000000000E+00 -0.27823854124E+04  0.27823854124E+04  0.00000000000E+00 0. -1.
         23    2    1    2    0    0  0.42667761884E+03 -0.21019928971E+02 -0.25456633181E+03  0.50581390174E+03  0.92455708683E+02 0.  0.
    5000000    2    1    2    0    0 -0.42667761884E+03  0.21019928971E+02 -0.23457769325E+04  0.24586136588E+04  0.59967997998E+03 0.  0.
         23    2    4    4    0    0 -0.24133461969E+03  0.14926866275E+03 -0.20650895709E+04  0.20865047588E+04  0.91562222989E+02 0.  0.
         23    2    4    4    0    0 -0.18534299915E+03 -0.12824873378E+03 -0.28068736165E+03  0.37210889997E+03  0.94233080160E+02 0.  0.
          4    1    3    3  502    0  0.82721390582E+02  0.29863274720E+02 -0.68381696156E+02  0.11140332134E+03  0.00000000000E+00 0. -1.
         -4    1    3    3    0  502  0.34395622826E+03 -0.50883203691E+02 -0.18618463566E+03  0.39441058040E+03  0.00000000000E+00 0.  1.
         13    1    5    5    0    0 -0.31688530210E+02  0.59575822151E+02 -0.36424003223E+03  0.37043790655E+03  0.00000000000E+00 0. -1.
        -13    1    5    5    0    0 -0.20964608948E+03  0.89692840596E+02 -0.17008495386E+04  0.17160668523E+04  0.00000000000E+00 0.  1.
          5    1    6    6  503    0 -0.94280871619E+02 -0.98247911868E+02 -0.10539705987E+03  0.17225610343E+03  0.47000000000E+01 0. -1.
         -5    1    6    6    0  503 -0.91062127534E+02 -0.30000821909E+02 -0.17529030179E+03  0.19985279654E+03  0.47000000000E+01 0.  1.
<mgrwt>
<rscale>  0 0.48169643E+03</rscale>
<asrwt>0</asrwt>
<pdfrwt beam="1">  1        1 0.42805927E+00 0.48169643E+03</pdfrwt>
<pdfrwt beam="2">  1       -1 0.28006486E-01 0.48169643E+03</pdfrwt>
<totfact> 0.11035839E+01</totfact>
</mgrwt>
</event>
<event>
12    1  0.3166324E-008  0.6805546E+03  0.7818608E-02  0.9751077E-01
          2   -1    0    0  501    0  0.00000000000E+00  0.00000000000E+00  0.90505344741E+03  0.90505344741E+03  0.00000000000E+00 0. -1.
         -2   -1    0    0    0  501 -0.00000000000E+00 -0.00000000000E+00 -0.94968768169E+03  0.94968768169E+03  0.00000000000E+00 0.  1.
         23    2    1    2    0    0  0.62248100572E+03  0.20835764128E+03 -0.52362403701E+03  0.84464087322E+03  0.91326685117E+02 0.  0.
    5000000    2    1    2    0    0 -0.62248100572E+03 -0.20835764128E+03  0.47898980273E+03  0.10101002559E+04  0.59997982186E+03 0.  0.
         23    2    4    4    0    0 -0.49022655343E+03 -0.25259423096E+03  0.60898193866E+02  0.56237034187E+03  0.91792658681E+02 0.  0.
         23    2    4    4    0    0 -0.13225445229E+03  0.44236589684E+02  0.41809160886E+03  0.44772991401E+03  0.78824910271E+02 0.  0.
          3    1    3    3  502    0  0.31295380358E+03  0.76103797811E+02 -0.20935153328E+03  0.38413530911E+03  0.00000000000E+00 0. -1.
         -3    1    3    3    0  502  0.30952720215E+03  0.13225384347E+03 -0.31427250373E+03  0.46050556411E+03  0.00000000000E+00 0.  1.
         13    1    5    5    0    0 -0.35044844071E+03 -0.14997853863E+03  0.87320397250E+01  0.38129243391E+03  0.00000000000E+00 0. -1.
        -13    1    5    5    0    0 -0.13977811273E+03 -0.10261569233E+03  0.52166154141E+02  0.18107790795E+03  0.00000000000E+00 0.  1.
          5    1    6    6  503    0 -0.83761202911E+02  0.51715953895E+02  0.18636223738E+03  0.21081615811E+03  0.47000000000E+01 0. -1.
         -5    1    6    6    0  503 -0.48493249378E+02 -0.74793642115E+01  0.23172937149E+03  0.23691375590E+03  0.47000000000E+01 0.  1.
<mgrwt>
<rscale>  0 0.68055464E+03</rscale>
<asrwt>0</asrwt>
<pdfrwt beam="1">  1        2 0.13923899E+00 0.68055464E+03</pdfrwt>
<pdfrwt beam="2">  1       -2 0.14610580E+00 0.68055464E+03</pdfrwt>
<totfact> 0.95851915E+00</totfact>
</mgrwt>
</event>
<event>
12    1  0.3166324E-008  0.1025248E+04  0.7818608E-02  0.9281278E-01
          2   -1    0    0  501    0  0.00000000000E+00  0.00000000000E+00  0.11999429800E+04  0.11999429800E+04  0.00000000000E+00 0. -1.
         -2   -1    0    0    0  501 -0.00000000000E+00 -0.00000000000E+00 -0.99247479447E+03  0.99247479447E+03  0.00000000000E+00 0.  1.
         23    2    1    2    0    0 -0.39885171314E+03  0.87978671232E+03  0.38069734302E+03  0.10421500523E+04  0.89660003215E+02 0.  0.
    5000000    2    1    2    0    0  0.39885171314E+03 -0.87978671232E+03 -0.17322915753E+03  0.11502677222E+04  0.60000011949E+03 0.  0.
         23    2    4    4    0    0 -0.80302186377E+02 -0.37612252283E+03 -0.20790806175E+03  0.44720240357E+03  0.94061864196E+02 0.  0.
         23    2    4    4    0    0  0.47915389952E+03 -0.50366418949E+03  0.34678904217E+02  0.70306531860E+03  0.99157151127E+02 0.  0.
          1    1    3    3  502    0 -0.10122215633E+03  0.14839806687E+03  0.87884713044E+02  0.19997908383E+03  0.00000000000E+00 0. -1.
         -1    1    3    3    0  502 -0.29762955682E+03  0.73138864545E+03  0.29281262998E+03  0.84217096842E+03  0.00000000000E+00 0.  1.
         13    1    5    5    0    0 -0.65904351644E+02 -0.25727359013E+03 -0.93363468953E+02  0.28151344742E+03  0.00000000000E+00 0. -1.
        -13    1    5    5    0    0 -0.14397834734E+02 -0.11884893270E+03 -0.11454459280E+03  0.16568895615E+03  0.00000000000E+00 0.  1.
          5    1    6    6  503    0  0.16682201474E+03 -0.19715561459E+03  0.58277725935E+02  0.26479861085E+03  0.47000000000E+01 0. -1.
         -5    1    6    6    0  503  0.31233188478E+03 -0.30650857489E+03 -0.23598821717E+02  0.43826670775E+03  0.47000000000E+01 0.  1.
<mgrwt>
<rscale>  0 0.10252482E+04</rscale>
<asrwt>0</asrwt>
<pdfrwt beam="1">  1        2 0.18460661E+00 0.10252482E+04</pdfrwt>
<pdfrwt beam="2">  1       -2 0.15268843E+00 0.10252482E+04</pdfrwt>
<totfact> 0.53525359E+00</totfact>
</mgrwt>
</event>
<event>
12    1  0.3166324E-008  0.6042425E+03  0.7818608E-02  0.9896643E-01
          2   -1    0    0  501    0  0.00000000000E+00  0.00000000000E+00  0.66368631259E+03  0.66368631259E+03  0.00000000000E+00 0. -1.
         -2   -1    0    0    0  501 -0.00000000000E+00 -0.00000000000E+00 -0.62736507773E+03  0.62736507773E+03  0.00000000000E+00 0.  1.
         23    2    1    2    0    0 -0.12514638106E+03  0.46319083466E+03  0.15782347918E+03  0.51312705122E+03  0.90464104007E+02 0.  0.
    5000000    2    1    2    0    0  0.12514638106E+03 -0.46319083466E+03 -0.12150224431E+03  0.77792433909E+03  0.60016340773E+03 0.  0.
         23    2    4    4    0    0  0.13613369677E+03  0.77105189786E+02 -0.14201267512E+03  0.22942226036E+03  0.89383331590E+02 0.  0.
         23    2    4    4    0    0 -0.10987315709E+02 -0.54029602445E+03  0.20510430810E+02  0.54850207873E+03  0.91615159578E+02 0.  0.
          3    1    3    3  502    0 -0.75515632078E+02  0.12220091634E+03  0.48504569107E+02  0.15161915402E+03  0.00000000000E+00 0. -1.
         -3    1    3    3    0  502 -0.49630748982E+02  0.34098991832E+03  0.10931891007E+03  0.36150789720E+03  0.00000000000E+00 0.  1.
         13    1    5    5    0    0  0.97982840819E+02  0.94014178895E+01 -0.54993189111E+02  0.11275315784E+03  0.00000000000E+00 0.  1.
        -13    1    5    5    0    0  0.38150855950E+02  0.67703771896E+02 -0.87019486009E+02  0.11666910252E+03  0.00000000000E+00 0. -1.
          5    1    6    6  503    0 -0.37077021292E+02 -0.28615257465E+03 -0.22197084246E+02  0.28943531580E+03  0.47000000000E+01 0.  1.
         -5    1    6    6    0  503  0.26089705582E+02 -0.25414344980E+03  0.42707515056E+02  0.25906676293E+03  0.47000000000E+01 0. -1.
<mgrwt>
<rscale>  0 0.60424249E+03</rscale>
<asrwt>0</asrwt>
<pdfrwt beam="1">  1        2 0.10210559E+00 0.60424249E+03</pdfrwt>
<pdfrwt beam="2">  1       -2 0.96517704E-01 0.60424249E+03</pdfrwt>
<totfact> 0.40358189E+01</totfact>
</mgrwt>
</event>
<event>
12    1  0.3166324E-008  0.4116369E+03  0.7818608E-02  0.1039823E+00
         -2   -1    0    0    0  501 -0.00000000000E+00  0.00000000000E+00  0.34318493826E+03  0.34318493826E+03  0.00000000000E+00 0.  1.
          2   -1    0    0  501    0  0.00000000000E+00 -0.00000000000E+00 -0.75966348464E+03  0.75966348464E+03  0.00000000000E+00 0. -1.
         23    2    1    2    0    0  0.65034572749E+02  0.19216647544E+03  0.14131698346E+03  0.25889150121E+03  0.76791077950E+02 0.  0.
    5000000    2    1    2    0    0 -0.65034572749E+02 -0.19216647544E+03 -0.55779552984E+03  0.84395692169E+03  0.59997498500E+03 0.  0.
         23    2    4    4    0    0  0.31102736585E+01  0.20218655765E+03 -0.17864265065E+03  0.28513552175E+03  0.92195397041E+02 0.  0.
         23    2    4    4    0    0 -0.68144846408E+02 -0.39435303309E+03 -0.37915287919E+03  0.55882139993E+03  0.91468117000E+02 0.  0.
          1    1    3    3  502    0  0.41823223460E+02  0.14775909797E+03  0.63147420306E+02  0.16604074725E+03  0.00000000000E+00 0. -1.
         -1    1    3    3    0  502  0.23211349289E+02  0.44407377462E+02  0.78169563154E+02  0.92850753969E+02  0.00000000000E+00 0.  1.
         11    1    5    5    0    0  0.32552659924E+02  0.14816252341E+03 -0.87357624678E+02  0.17505188831E+03  0.00000000000E+00 0.  1.
        -11    1    5    5    0    0 -0.29442386266E+02  0.54024034242E+02 -0.91285025974E+02  0.11008363344E+03  0.00000000000E+00 0. -1.
          5    1    6    6  503    0  0.14551684441E+02 -0.63687401596E+02 -0.93032448420E+02  0.11377593375E+03  0.47000000000E+01 0. -1.
         -5    1    6    6    0  503 -0.82696530849E+02 -0.33066563149E+03 -0.28612043077E+03  0.44504546618E+03  0.47000000000E+01 0.  1.
<mgrwt>
<rscale>  0 0.41163691E+03</rscale>
<asrwt>0</asrwt>
<pdfrwt beam="1">  1        2 0.11687131E+00 0.41163691E+03</pdfrwt>
<pdfrwt beam="2">  1       -2 0.52797683E-01 0.41163691E+03</pdfrwt>
<totfact> 0.12959105E+02</totfact>
</mgrwt>
</event>
<event>
12    1  0.3166324E-008  0.7384644E+03  0.7818608E-02  0.9653624E-01
          2   -1    0    0  501    0  0.00000000000E+00  0.00000000000E+00  0.57647121032E+03  0.57647121032E+03  0.00000000000E+00 0. -1.
         -2   -1    0    0    0  501 -0.00000000000E+00 -0.00000000000E+00 -0.12530376198E+04  0.12530376198E+04  0.00000000000E+00 0.  1.
         23    2    1    2    0    0 -0.62767137860E+03 -0.36697436135E+03 -0.45083846123E+03  0.86019109968E+03  0.89620691983E+02 0.  0.
    5000000    2    1    2    0    0  0.62767137860E+03  0.36697436135E+03 -0.22572794826E+03  0.96931773045E+03  0.59998517859E+03 0.  0.
         23    2    4    4    0    0  0.19470904961E+03  0.18223713401E+03  0.18561111738E+03  0.33768877067E+03  0.91979519053E+02 0.  0.
         23    2    4    4    0    0  0.43296232899E+03  0.18473722734E+03 -0.41133906565E+03  0.63162895978E+03  0.90394106070E+02 0.  0.
          1    1    3    3  502    0 -0.16754270377E+03 -0.97798851042E+02 -0.16850570385E+03  0.25696175801E+03  0.00000000000E+00 0. -1.
         -1    1    3    3    0  502 -0.46012867483E+03 -0.26917551031E+03 -0.28233275739E+03  0.60322934167E+03  0.00000000000E+00 0.  1.
         13    1    5    5    0    0  0.48714004536E+02  0.10041096253E+03  0.50050824479E+02  0.12231312549E+03  0.00000000000E+00 0.  1.
        -13    1    5    5    0    0  0.14599504508E+03  0.81826171478E+02  0.13556029291E+03  0.21537564518E+03  0.00000000000E+00 0. -1.
          5    1    6    6  503    0  0.26615646628E+03  0.10960184879E+03 -0.19229188311E+03  0.34619371472E+03  0.47000000000E+01 0. -1.
         -5    1    6    6    0  503  0.16680586271E+03  0.75135378552E+02 -0.21904718254E+03  0.28543524506E+03  0.47000000000E+01 0.  1.
<mgrwt>
<rscale>  0 0.73846442E+03</rscale>
<asrwt>0</asrwt>
<pdfrwt beam="1">  1        2 0.88687880E-01 0.73846442E+03</pdfrwt>
<pdfrwt beam="2">  1       -2 0.19277501E+00 0.73846442E+03</pdfrwt>
<totfact> 0.78856310E+00</totfact>
</mgrwt>
</event>
<event>
12    1  0.3166324E-008  0.7704316E+03  0.7818608E-02  0.9603831E-01
         -2   -1    0    0    0  501 -0.00000000000E+00  0.00000000000E+00  0.12065764923E+04  0.12065764923E+04  0.00000000000E+00 0.  1.
          2   -1    0    0  501    0  0.00000000000E+00 -0.00000000000E+00 -0.65603865152E+03  0.65603865152E+03  0.00000000000E+00 0. -1.
         23    2    1    2    0    0 -0.50689387376E+03 -0.43056080633E+03  0.68241803867E+03  0.95723437110E+03  0.90990408942E+02 0.  0.
    5000000    2    1    2    0    0  0.50689387376E+03  0.43056080633E+03 -0.13188019788E+03  0.90538077273E+03  0.59999829153E+03 0.  0.
         23    2    4    4    0    0  0.62672320360E+03  0.34812480417E+03 -0.86945075175E+02  0.72807669127E+03  0.92538473451E+02 0.  0.
         23    2    4    4    0    0 -0.11982932984E+03  0.82436002154E+02 -0.44935122703E+02  0.17730408146E+03  0.90899996203E+02 0.  0.
          1    1    3    3  502    0 -0.22887636941E+03 -0.17134595716E+03  0.23455952692E+03  0.36981346809E+03  0.00000000000E+00 0. -1.
         -1    1    3    3    0  502 -0.27801750435E+03 -0.25921484917E+03  0.44785851175E+03  0.58742090302E+03  0.00000000000E+00 0.  1.
         11    1    5    5    0    0  0.46113591509E+03  0.22275080547E+03 -0.92016232693E+02  0.52031840310E+03  0.00000000000E+00 0.  1.
        -11    1    5    5    0    0  0.16558728850E+03  0.12537399871E+03  0.50711575182E+01  0.20775828817E+03  0.00000000000E+00 0. -1.
          5    1    6    6  503    0 -0.11484091303E+03  0.56257536430E+02 -0.37465461425E+01  0.12802137446E+03  0.47000000000E+01 0. -1.
         -5    1    6    6    0  503 -0.49884168051E+01  0.26178465724E+02 -0.41188576561E+02  0.49282706997E+02  0.47000000000E+01 0.  1.
<mgrwt>
<rscale>  0 0.77043158E+03</rscale>
<asrwt>0</asrwt>
<pdfrwt beam="1">  1        2 0.10092902E+00 0.77043158E+03</pdfrwt>
<pdfrwt beam="2">  1       -2 0.18562715E+00 0.77043158E+03</pdfrwt>
<totfact> 0.74936158E+00</totfact>
</mgrwt>
</event>
<event>
12    1  0.3166324E-008  0.6865412E+03  0.7818608E-02  0.9740529E-01
         -2   -1    0    0    0  501 -0.00000000000E+00  0.00000000000E+00  0.17692206793E+03  0.17692206793E+03  0.00000000000E+00 0.  1.
          2   -1    0    0  501    0  0.00000000000E+00 -0.00000000000E+00 -0.41196833722E+04  0.41196833722E+04  0.00000000000E+00 0. -1.
         23    2    1    2    0    0 -0.58090198800E+03 -0.30464271112E+03 -0.26239401407E+04  0.27062674363E+04  0.92559568548E+02 0.  0.
    5000000    2    1    2    0    0  0.58090198800E+03  0.30464271112E+03 -0.13188211635E+04  0.15903380038E+04  0.59969275784E+03 0.  0.
         23    2    4    4    0    0  0.22297754617E+02  0.10075985663E+03  0.40253113091E+01  0.13685639799E+03  0.89798284896E+02 0.  0.
         23    2    4    4    0    0  0.55860423339E+03  0.20388285450E+03 -0.13228464749E+04  0.14534816058E+04  0.95284177515E+02 0.  0.
          1    1    3    3  502    0 -0.44677175010E+03 -0.26312216608E+03 -0.21713439625E+04  0.22323917386E+04  0.00000000000E+00 0. -1.
         -1    1    3    3    0  502 -0.13413023790E+03 -0.41520545044E+02 -0.45259617823E+03  0.47387569776E+03  0.00000000000E+00 0.  1.
         11    1    5    5    0    0 -0.12667145733E+02  0.12321262647E+02  0.33006184254E+02  0.37438994288E+02  0.00000000000E+00 0. -1.
        -11    1    5    5    0    0  0.34964900349E+02  0.88438593981E+02 -0.28980872945E+02  0.99417403700E+02  0.00000000000E+00 0.  1.
          5    1    6    6  503    0  0.16768771879E+03  0.18614020712E+02 -0.33779806978E+03  0.37761790046E+03  0.47000000000E+01 0. -1.
         -5    1    6    6    0  503  0.39091651459E+03  0.18526883378E+03 -0.98504840507E+03  0.10758637054E+04  0.47000000000E+01 0.  1.
<mgrwt>
<rscale>  0 0.68654117E+03</rscale>
<asrwt>0</asrwt>
<pdfrwt beam="1">  1        2 0.63379734E+00 0.68654117E+03</pdfrwt>
<pdfrwt beam="2">  1       -2 0.27218784E-01 0.68654117E+03</pdfrwt>
<totfact> 0.37733827E+00</totfact>
</mgrwt>
</event>
<event>
12    1  0.3166324E-008  0.6015694E+03  0.7818608E-02  0.9902155E-01
         -2   -1    0    0    0  501 -0.00000000000E+00  0.00000000000E+00  0.17492843767E+03  0.17492843767E+03  0.00000000000E+00 0.  1.
          2   -1    0    0  501    0  0.00000000000E+00 -0.00000000000E+00 -0.29408527723E+04  0.29408527723E+04  0.00000000000E+00 0. -1.
         23    2    1    2    0    0 -0.49247946528E+03 -0.21276098224E+03 -0.16660703632E+04  0.17529054288E+04  0.95308592469E+02 0.  0.
    5000000    2    1    2    0    0  0.49247946528E+03  0.21276098224E+03 -0.10998539714E+04  0.13628757812E+04  0.59995697948E+03 0.  0.
         23    2    4    4    0    0  0.14331572967E+03 -0.87757075313E+02 -0.26414911147E+02  0.19124214775E+03  0.87379110254E+02 0.  0.
         23    2    4    4    0    0  0.34916373562E+03  0.30051805755E+03 -0.10734390602E+04  0.11716336334E+04  0.90705775507E+02 0.  0.
          2    1    3    3  502    0 -0.26283814547E+03 -0.61967456194E+02 -0.80874115232E+03  0.85263480330E+03  0.00000000000E+00 0. -1.
         -2    1    3    3    0  502 -0.22964131982E+03 -0.15079352604E+03 -0.85732921093E+03  0.90027062552E+03  0.00000000000E+00 0.  1.
         11    1    5    5    0    0  0.12014919169E+03 -0.25349281466E+02 -0.19139274765E+02  0.12427681269E+03  0.00000000000E+00 0.  1.
        -11    1    5    5    0    0  0.23166537974E+02 -0.62407793847E+02 -0.72756363817E+01  0.66965335057E+02  0.00000000000E+00 0. -1.
          5    1    6    6  503    0  0.55817585433E+02  0.96769963134E+02 -0.28000126559E+03  0.30150095745E+03  0.47000000000E+01 0. -1.
         -5    1    6    6    0  503  0.29334615019E+03  0.20374809442E+03 -0.79343779465E+03  0.87013267597E+03  0.47000000000E+01 0.  1.
<mgrwt>
<rscale>  0 0.60156943E+03</rscale>
<asrwt>0</asrwt>
<pdfrwt beam="1">  1        2 0.45243889E+00 0.60156943E+03</pdfrwt>
<pdfrwt beam="2">  1       -2 0.26912067E-01 0.60156943E+03</pdfrwt>
<totfact> 0.25763792E+01</totfact>
</mgrwt>
</event>
<event>
12    1  0.3166324E-008  0.1025378E+04  0.7818608E-02  0.9281140E-01
         -2   -1    0    0    0  501 -0.00000000000E+00  0.00000000000E+00  0.16546163263E+04  0.16546163263E+04  0.00000000000E+00 0.  1.
          2   -1    0    0  501    0  0.00000000000E+00 -0.00000000000E+00 -0.73946935210E+03  0.73946935210E+03  0.00000000000E+00 0. -1.
         23    2    1    2    0    0 -0.24416457389E+03  0.99233304010E+03  0.38930903786E+03  0.10976208819E+04  0.94174687311E+02 0.  0.
    5000000    2    1    2    0    0  0.24416457389E+03 -0.99233304010E+03  0.52583793634E+03  0.12964647965E+04  0.59997852605E+03 0.  0.
         23    2    4    4    0    0  0.19259218393E+02 -0.91698576450E+02 -0.10723232507E+03  0.16874855287E+03  0.90541460896E+02 0.  0.
         23    2    4    4    0    0  0.22490535550E+03 -0.90063446365E+03  0.63307026141E+03  0.11277162437E+04  0.96130714491E+02 0.  0.
          4    1    3    3  502    0 -0.60369076588E+02  0.11592896109E+03  0.54336826347E+02  0.14155013290E+03  0.00000000000E+00 0. -1.
         -4    1    3    3    0  502 -0.18379549730E+03  0.87640407902E+03  0.33497221152E+03  0.95607074897E+03  0.00000000000E+00 0.  1.
         11    1    5    5    0    0  0.15329402740E+02 -0.70718359469E+02 -0.14767840517E+02  0.73852326083E+02  0.00000000000E+00 0.  1.
        -11    1    5    5    0    0  0.39298156528E+01 -0.20980216981E+02 -0.92464484553E+02  0.94896226791E+02  0.00000000000E+00 0. -1.
          5    1    6    6  503    0  0.95328188109E+02 -0.25334087603E+03  0.22135811228E+03  0.34970068171E+03  0.47000000000E+01 0. -1.
         -5    1    6    6    0  503  0.12957716739E+03 -0.64729358762E+03  0.41171214913E+03  0.77801556195E+03  0.47000000000E+01 0.  1.
<mgrwt>
<rscale>  0 0.10253782E+04</rscale>
<asrwt>0</asrwt>
<pdfrwt beam="1">  1        2 0.11376452E+00 0.10253782E+04</pdfrwt>
<pdfrwt beam="2">  1       -2 0.25455636E+00 0.10253782E+04</pdfrwt>
<totfact> 0.22908912E+00</totfact>
</mgrwt>
</event>
<event>
12    1  0.3166324E-008  0.7772923E+03  0.7818608E-02  0.9593480E-01
          1   -1    0    0  501    0  0.00000000000E+00  0.00000000000E+00  0.69197285106E+03  0.69197285106E+03  0.00000000000E+00 0. -1.
         -1   -1    0    0    0  501 -0.00000000000E+00 -0.00000000000E+00 -0.10407821573E+04  0.10407821573E+04  0.00000000000E+00 0.  1.
         23    2    1    2    0    0 -0.37495556474E+03 -0.63422096281E+03 -0.21636429649E+03  0.77335831794E+03  0.91878582569E+02 0.  0.
    5000000    2    1    2    0    0  0.37495556474E+03  0.63422096281E+03 -0.13244500977E+03  0.95939669044E+03  0.60006035013E+03 0.  0.
         23    2    4    4    0    0 -0.44438874735E+02  0.89074004926E+02  0.15786995274E+03  0.20726115032E+03  0.90140282404E+02 0.  0.
         23    2    4    4    0    0  0.41939443948E+03  0.54514695789E+03 -0.29031496251E+03  0.75213554012E+03  0.91368439230E+02 0.  0.
          1    1    3    3  502    0 -0.19119659856E+03 -0.38988672327E+03 -0.15812334138E+03  0.46213719540E+03  0.00000000000E+00 0. -1.
         -1    1    3    3    0  502 -0.18375896618E+03 -0.24433423954E+03 -0.58240955113E+02  0.31122112254E+03  0.00000000000E+00 0.  1.
         13    1    5    5    0    0 -0.53398198931E+02  0.28678015380E+02  0.12256147490E+03  0.13673006745E+03  0.00000000000E+00 0. -1.
        -13    1    5    5    0    0  0.89593241961E+01  0.60395989546E+02  0.35308477843E+02  0.70531082871E+02  0.00000000000E+00 0.  1.
          5    1    6    6  503    0  0.35054912871E+03  0.39775713243E+03 -0.20569863078E+03  0.56870857629E+03  0.47000000000E+01 0. -1.
         -5    1    6    6    0  503  0.68845310767E+02  0.14738982546E+03 -0.84616331730E+02  0.18342696383E+03  0.47000000000E+01 0.  1.
<mgrwt>
<rscale>  0 0.77729232E+03</rscale>
<asrwt>0</asrwt>
<pdfrwt beam="1">  1        1 0.10645736E+00 0.77729232E+03</pdfrwt>
<pdfrwt beam="2">  1       -1 0.16012033E+00 0.77729232E+03</pdfrwt>
<totfact> 0.83139062E+00</totfact>
</mgrwt>
</event>
<event>
12    1  0.3166324E-008  0.5988016E+03  0.7818608E-02  0.9907896E-01
         -1   -1    0    0    0  501 -0.00000000000E+00  0.00000000000E+00  0.39699369716E+03  0.39699369716E+03  0.00000000000E+00 0.  1.
          1   -1    0    0  501    0  0.00000000000E+00 -0.00000000000E+00 -0.10353765701E+04  0.10353765701E+04  0.00000000000E+00 0. -1.
         23    2    1    2    0    0 -0.47950325476E+03 -0.11300911744E+03 -0.31156059754E+03  0.59002064560E+03  0.91432621836E+02 0.  0.
    5000000    2    1    2    0    0  0.47950325476E+03  0.11300911744E+03 -0.32682227542E+03  0.84234962169E+03  0.60003804337E+03 0.  0.
         23    2    4    4    0    0  0.53647190061E+03 -0.21771863855E+02 -0.94809234785E+02  0.55263764763E+03  0.90241145659E+02 0.  0.
         23    2    4    4    0    0 -0.56968645848E+02  0.13478098129E+03 -0.23201304064E+03  0.28971197406E+03  0.93228951303E+02 0.  0.
          2    1    3    3  502    0 -0.23695460538E+03 -0.22284871877E+02 -0.18691065012E+03  0.30262136682E+03  0.00000000000E+00 0. -1.
         -2    1    3    3    0  502 -0.24254864938E+03 -0.90724245561E+02 -0.12464994742E+03  0.28739927878E+03  0.00000000000E+00 0.  1.
         13    1    5    5    0    0  0.22642851060E+03  0.30940393871E+02 -0.59627785262E+02  0.23618351162E+03  0.00000000000E+00 0.  1.
        -13    1    5    5    0    0  0.31004339001E+03 -0.52712257726E+02 -0.35181449523E+02  0.31645413600E+03  0.00000000000E+00 0. -1.
          5    1    6    6  503    0 -0.22306289868E+02  0.51783338575E+01 -0.95245294131E+02  0.98072125312E+02  0.47000000000E+01 0. -1.
         -5    1    6    6    0  503 -0.34662355980E+02  0.12960264743E+03 -0.13676774651E+03  0.19163984875E+03  0.47000000000E+01 0.  1.
<mgrwt>
<rscale>  0 0.59880157E+03</rscale>
<asrwt>0</asrwt>
<pdfrwt beam="1">  1        1 0.15928870E+00 0.59880157E+03</pdfrwt>
<pdfrwt beam="2">  1       -1 0.61075955E-01 0.59880157E+03</pdfrwt>
<totfact> 0.40316532E+01</totfact>
</mgrwt>
</event>
<event>
12    1  0.3166324E-008  0.7786558E+03  0.7818608E-02  0.9591436E-01
         -2   -1    0    0    0  501 -0.00000000000E+00  0.00000000000E+00  0.32428705038E+03  0.32428705038E+03  0.00000000000E+00 0.  1.
          2   -1    0    0  501    0  0.00000000000E+00 -0.00000000000E+00 -0.21260893408E+04  0.21260893408E+04  0.00000000000E+00 0. -1.
         23    2    1    2    0    0  0.65896577488E+03 -0.21230175116E+03 -0.50227653814E+03  0.86037855351E+03  0.93067763344E+02 0.  0.
    5000000    2    1    2    0    0 -0.65896577488E+03  0.21230175116E+03 -0.12995257523E+04  0.15899978377E+04  0.60001501394E+03 0.  0.
         23    2    4    4    0    0 -0.28803166603E+02 -0.13407435156E+03 -0.10824230324E+03  0.19560176122E+03  0.87966463090E+02 0.  0.
         23    2    4    4    0    0 -0.63016260827E+03  0.34637610273E+03 -0.11912834490E+04  0.13943960764E+04  0.90015802299E+02 0.  0.
          4    1    3    3  502    0  0.23954915276E+03 -0.31135997516E+02 -0.16639208038E+03  0.29332502679E+03  0.00000000000E+00 0.  1.
         -4    1    3    3    0  502  0.41941662212E+03 -0.18116575365E+03 -0.33588445776E+03  0.56705352672E+03  0.00000000000E+00 0. -1.
         11    1    5    5    0    0 -0.30203121123E+02 -0.12418290081E+03 -0.12326481363E+03  0.17756079426E+03  0.00000000000E+00 0. -1.
        -11    1    5    5    0    0  0.13999545198E+01 -0.98914507502E+01  0.15022510386E+02  0.18040966961E+02  0.00000000000E+00 0.  1.
          5    1    6    6  503    0 -0.14410043855E+03  0.54713946483E+02 -0.20099922509E+03  0.25334034582E+03  0.47000000000E+01 0. -1.
         -5    1    6    6    0  503 -0.48606216972E+03  0.29166215624E+03 -0.99028422394E+03  0.11410557306E+04  0.47000000000E+01 0.  1.
<mgrwt>
<rscale>  0 0.77865576E+03</rscale>
<asrwt>0</asrwt>
<pdfrwt beam="1">  1        2 0.32709066E+00 0.77865576E+03</pdfrwt>
<pdfrwt beam="2">  1       -2 0.49890317E-01 0.77865576E+03</pdfrwt>
<totfact> 0.22296482E+01</totfact>
</mgrwt>
</event>
<event>
12    1  0.3166324E-008  0.5037970E+03  0.7818608E-02  0.1012793E+00
         -2   -1    0    0    0  501 -0.00000000000E+00  0.00000000000E+00  0.27159797516E+03  0.27159797516E+03  0.00000000000E+00 0.  1.
          2   -1    0    0  501    0  0.00000000000E+00 -0.00000000000E+00 -0.10750507332E+04  0.10750507332E+04  0.00000000000E+00 0. -1.
         23    2    1    2    0    0 -0.23141065505E+03 -0.24236038118E+03 -0.96625825169E+02  0.36073674261E+03  0.92222566360E+02 0.  0.
    5000000    2    1    2    0    0  0.23141065505E+03  0.24236038118E+03 -0.70682693289E+03  0.98591196576E+03  0.60010719503E+03 0.  0.
         23    2    4    4    0    0  0.34531125241E+03 -0.48984465014E+02 -0.39275798249E+03  0.53306260146E+03  0.90871147324E+02 0.  0.
         23    2    4    4    0    0 -0.11390059735E+03  0.29134484619E+03 -0.31406895039E+03  0.45284936429E+03  0.92617901393E+02 0.  0.
          4    1    3    3  502    0 -0.17512810110E+03 -0.17872302376E+03 -0.28503059086E+02  0.25184160775E+03  0.00000000000E+00 0.  1.
         -4    1    3    3    0  502 -0.56282553957E+02 -0.63637357417E+02 -0.68122766083E+02  0.10889513487E+03  0.00000000000E+00 0. -1.
         13    1    5    5    0    0  0.16567523364E+03 -0.66891393255E+02 -0.17349120600E+03  0.24904204482E+03  0.00000000000E+00 0. -1.
        -13    1    5    5    0    0  0.17963601877E+03  0.17906928242E+02 -0.21926677650E+03  0.28402055664E+03  0.00000000000E+00 0.  1.
          5    1    6    6  503    0 -0.16802399568E+02  0.53585382422E+02 -0.14413427141E+02  0.58168296541E+02  0.47000000000E+01 0. -1.
         -5    1    6    6    0  503 -0.97098197786E+02  0.23775946377E+03 -0.29965552325E+03  0.39468106775E+03  0.47000000000E+01 0.  1.
<mgrwt>
<rscale>  0 0.50379704E+03</rscale>
<asrwt>0</asrwt>
<pdfrwt beam="1">  1        2 0.16539242E+00 0.50379704E+03</pdfrwt>
<pdfrwt beam="2">  1       -2 0.41784304E-01 0.50379704E+03</pdfrwt>
<totfact> 0.12680723E+02</totfact>
</mgrwt>
</event>
<event>
12    1  0.3166324E-008  0.5796804E+03  0.7818608E-02  0.9948483E-01
          1   -1    0    0  501    0  0.00000000000E+00  0.00000000000E+00  0.23197141039E+04  0.23197141039E+04  0.00000000000E+00 0. -1.
         -1   -1    0    0    0  501 -0.00000000000E+00 -0.00000000000E+00 -0.22051726030E+03  0.22051726030E+03  0.00000000000E+00 0.  1.
         23    2    1    2    0    0 -0.27666258037E+03 -0.43978401912E+03  0.39049416846E+03  0.65618412407E+03  0.90220519941E+02 0.  0.
    5000000    2    1    2    0    0  0.27666258037E+03  0.43978401912E+03  0.17087026751E+04  0.18840472401E+04  0.60001416996E+03 0.  0.
         23    2    4    4    0    0  0.33243297748E+03  0.40956860030E+03  0.76754952840E+03  0.93619037322E+03  0.95194608554E+02 0.  0.
         23    2    4    4    0    0 -0.55770397111E+02  0.30215418824E+02  0.94115314673E+03  0.94785686689E+03  0.92952061818E+02 0.  0.
          1    1    3    3  502    0 -0.17035500440E+03 -0.33868163680E+03  0.25866506846E+03  0.45894846799E+03  0.00000000000E+00 0. -1.
         -1    1    3    3    0  502 -0.10630757596E+03 -0.10110238232E+03  0.13182910000E+03  0.19723565607E+03  0.00000000000E+00 0.  1.
         13    1    5    5    0    0  0.13176244923E+03  0.95950632095E+02  0.21204700861E+03  0.26745429644E+03  0.00000000000E+00 0. -1.
        -13    1    5    5    0    0  0.20067052825E+03  0.31361796821E+03  0.55550251979E+03  0.66873607678E+03  0.00000000000E+00 0.  1.
          5    1    6    6  503    0 -0.73678775891E+02  0.17846573793E+02  0.86980384561E+03  0.87311389981E+03  0.47000000000E+01 0. -1.
         -5    1    6    6    0  503  0.17908378779E+02  0.12368845031E+02  0.71349301119E+02  0.74742967081E+02  0.47000000000E+01 0.  1.
<mgrwt>
<rscale>  0 0.57968040E+03</rscale>
<asrwt>0</asrwt>
<pdfrwt beam="1">  1        1 0.35687908E+00 0.57968040E+03</pdfrwt>
<pdfrwt beam="2">  1       -1 0.33925734E-01 0.57968040E+03</pdfrwt>
<totfact> 0.15962681E+01</totfact>
</mgrwt>
</event>
<event>
12    1  0.3166324E-008  0.1766771E+04  0.7818608E-02  0.8724172E-01
          1   -1    0    0  501    0  0.00000000000E+00  0.00000000000E+00  0.15588670797E+04  0.15588670797E+04  0.00000000000E+00 0. -1.
         -1   -1    0    0    0  501 -0.00000000000E+00 -0.00000000000E+00 -0.20235648054E+04  0.20235648054E+04  0.00000000000E+00 0.  1.
         23    2    1    2    0    0  0.15951779568E+04 -0.64564007454E+03 -0.11928967278E+03  0.17275203267E+04  0.93019532434E+02 0.  0.
    5000000    2    1    2    0    0 -0.15951779568E+04  0.64564007454E+03 -0.34540805292E+03  0.18549115585E+04  0.59995528780E+03 0.  0.
         23    2    4    4    0    0 -0.11947751574E+04  0.19801506207E+03 -0.26244425523E+03  0.12425098584E+04  0.90863191382E+02 0.  0.
         23    2    4    4    0    0 -0.40040279937E+03  0.44762501247E+03 -0.82963797688E+02  0.61240170014E+03  0.86384588218E+02 0.  0.
          1    1    3    3  502    0  0.36533788361E+03 -0.13575091853E+03  0.10286167395E+02  0.38987932277E+03  0.00000000000E+00 0. -1.
         -1    1    3    3    0  502  0.12298400732E+04 -0.50988915601E+03 -0.12957584017E+03  0.13376410039E+04  0.00000000000E+00 0.  1.
         13    1    5    5    0    0 -0.74068057447E+03  0.14266137046E+03 -0.12287982557E+03  0.76423781087E+03  0.00000000000E+00 0.  1.
        -13    1    5    5    0    0 -0.45409458292E+03  0.55353691610E+02 -0.13956442966E+03  0.47827204752E+03  0.00000000000E+00 0. -1.
          5    1    6    6  503    0 -0.15313148328E+03  0.16587292677E+03 -0.73227205137E+02  0.23737605730E+03  0.47000000000E+01 0. -1.
         -5    1    6    6    0  503 -0.24727131609E+03  0.28175208570E+03 -0.97365925502E+01  0.37502564284E+03  0.47000000000E+01 0.  1.
<mgrwt>
<rscale>  0 0.17667712E+04</rscale>
<asrwt>0</asrwt>
<pdfrwt beam="1">  1        1 0.23982571E+00 0.17667712E+04</pdfrwt>
<pdfrwt beam="2">  1       -1 0.31131766E+00 0.17667712E+04</pdfrwt>
<totfact> 0.15241743E-01</totfact>
</mgrwt>
</event>
<event>
12    1  0.3166324E-008  0.4340546E+03  0.7818608E-02  0.1032587E+00
          1   -1    0    0  501    0  0.00000000000E+00  0.00000000000E+00  0.25280204307E+04  0.25280204307E+04  0.00000000000E+00 0. -1.
         -1   -1    0    0    0  501 -0.00000000000E+00 -0.00000000000E+00 -0.81854997917E+02  0.81854997917E+02  0.00000000000E+00 0.  1.
         23    2    1    2    0    0 -0.19679874973E+03  0.13767103090E+03  0.56481117405E+03  0.62060648817E+03  0.91965701108E+02 0.  0.
    5000000    2    1    2    0    0  0.19679874973E+03 -0.13767103090E+03  0.18813542587E+04  0.19892689404E+04  0.60001167484E+03 0.  0.
         23    2    4    4    0    0 -0.16642131072E+03 -0.17090370055E+03  0.55861693415E+03  0.61427586009E+03  0.91530462916E+02 0.  0.
         23    2    4    4    0    0  0.36322006044E+03  0.33232669647E+02  0.13227373246E+04  0.13749930803E+04  0.89099486889E+02 0.  0.
          1    1    3    3  502    0 -0.86778915362E+02  0.11091134212E+03  0.36029271471E+03  0.38683684705E+03  0.00000000000E+00 0. -1.
         -1    1    3    3    0  502 -0.11001983436E+03  0.26759688778E+02  0.20451845935E+03  0.23376964112E+03  0.00000000000E+00 0.  1.
         11    1    5    5    0    0 -0.49005555637E+02 -0.44573242303E+02  0.27040341174E+03  0.27839957524E+03  0.00000000000E+00 0.  1.
        -11    1    5    5    0    0 -0.11741575508E+03 -0.12633045825E+03  0.28821352241E+03  0.33587628485E+03  0.00000000000E+00 0. -1.
          5    1    6    6  503    0  0.56605280044E+02 -0.26904634468E+02  0.20876211456E+03  0.21801772304E+03  0.47000000000E+01 0. -1.
         -5    1    6    6    0  503  0.30661478040E+03  0.60137304115E+02  0.11139752100E+04  0.11569753573E+04  0.47000000000E+01 0.  1.
<mgrwt>
<rscale>  0 0.43405462E+03</rscale>
<asrwt>0</asrwt>
<pdfrwt beam="1">  1        1 0.38892616E+00 0.43405462E+03</pdfrwt>
<pdfrwt beam="2">  1       -1 0.12593079E-01 0.43405462E+03</pdfrwt>
<totfact> 0.62009001E+01</totfact>
</mgrwt>
</event>
<event>
12    1  0.3166324E-008  0.9914593E+03  0.7818608E-02  0.9317962E-01
          2   -1    0    0  501    0  0.00000000000E+00  0.00000000000E+00  0.23069168312E+04  0.23069168312E+04  0.00000000000E+00 0. -1.
         -2   -1    0    0    0  501 -0.00000000000E+00 -0.00000000000E+00 -0.48840504020E+03  0.48840504020E+03  0.00000000000E+00 0.  1.
         23    2    1    2    0    0 -0.24831411567E+03  0.94236412731E+03  0.82219237502E+03  0.12779029483E+04  0.85589691196E+02 0.  0.
    5000000    2    1    2    0    0  0.24831411567E+03 -0.94236412731E+03  0.99631941593E+03  0.15174189231E+04  0.60016477824E+03 0.  0.
         23    2    4    4    0    0  0.19291314389E+03 -0.80810283354E+03  0.45938422488E+03  0.95353710728E+03  0.89182275353E+02 0.  0.
         23    2    4    4    0    0  0.55400971785E+02 -0.13426129377E+03  0.53693519106E+03  0.56388181579E+03  0.92563168166E+02 0.  0.
          1    1    3    3  502    0 -0.14308702652E+03  0.46866138307E+03  0.36297048497E+03  0.60980731555E+03  0.00000000000E+00 0. -1.
         -1    1    3    3    0  502 -0.10522708915E+03  0.47370274423E+03  0.45922189006E+03  0.66809563275E+03  0.00000000000E+00 0.  1.
         11    1    5    5    0    0  0.14357869979E+02 -0.22821385463E+03  0.13414462206E+03  0.26510845235E+03  0.00000000000E+00 0. -1.
        -11    1    5    5    0    0  0.17855527391E+03 -0.57988897890E+03  0.32523960282E+03  0.68842865493E+03  0.00000000000E+00 0.  1.
          5    1    6    6  503    0 -0.23911562081E+02 -0.54249702338E+02  0.18480822888E+03  0.19414160931E+03  0.47000000000E+01 0. -1.
         -5    1    6    6    0  503  0.79312533866E+02 -0.80011591430E+02  0.35212696218E+03  0.36974020648E+03  0.47000000000E+01 0.  1.
<mgrwt>
<rscale>  0 0.99145926E+03</rscale>
<asrwt>0</asrwt>
<pdfrwt beam="1">  1        2 0.35491027E+00 0.99145926E+03</pdfrwt>
<pdfrwt beam="2">  1       -2 0.75139239E-01 0.99145926E+03</pdfrwt>
<totfact> 0.72036437E+00</totfact>
</mgrwt>
</event>
<event>
12    1  0.3166324E-008  0.8254316E+03  0.7818608E-02  0.9523918E-01
         -2   -1    0    0    0  501 -0.00000000000E+00  0.00000000000E+00  0.20509633749E+03  0.20509633749E+03  0.00000000000E+00 0.  1.
          2   -1    0    0  501    0  0.00000000000E+00 -0.00000000000E+00 -0.34779030221E+04  0.34779030221E+04  0.00000000000E+00 0. -1.
         23    2    1    2    0    0 -0.71450294379E+02  0.73074356313E+03 -0.14969190539E+04  0.16697961648E+04  0.91440027971E+02 0.  0.
    5000000    2    1    2    0    0  0.71450294379E+02 -0.73074356313E+03 -0.17758876308E+04  0.20132031948E+04  0.60009909738E+03 0.  0.
         23    2    4    4    0    0  0.18676571824E+03 -0.74581553499E+03 -0.12802952638E+04  0.14960439190E+04  0.88708507532E+02 0.  0.
         23    2    4    4    0    0 -0.11531542386E+03  0.15071971857E+02 -0.49559236695E+03  0.51715927576E+03  0.91198196303E+02 0.  0.
          4    1    3    3  502    0 -0.54458528213E+02  0.49033608370E+03 -0.10976920818E+04  0.12034629669E+04  0.00000000000E+00 0. -1.
         -4    1    3    3    0  502 -0.16991766166E+02  0.24040747943E+03 -0.39922697208E+03  0.46633319796E+03  0.00000000000E+00 0.  1.
         13    1    5    5    0    0  0.17124914562E+03 -0.67656328701E+03 -0.12054486693E+04  0.13929000846E+04  0.00000000000E+00 0. -1.
        -13    1    5    5    0    0  0.15516572622E+02 -0.69252247976E+02 -0.74846594472E+02  0.10314383442E+03  0.00000000000E+00 0.  1.
          5    1    6    6  503    0  0.15351768712E+02  0.29460589724E+01 -0.62615016431E+02  0.64707699300E+02  0.47000000000E+01 0. -1.
         -5    1    6    6    0  503 -0.13066719257E+03  0.12125912884E+02 -0.43297735052E+03  0.45245157646E+03  0.47000000000E+01 0.  1.
<mgrwt>
<rscale>  0 0.82543162E+03</rscale>
<asrwt>0</asrwt>
<pdfrwt beam="1">  1        2 0.53506200E+00 0.82543162E+03</pdfrwt>
<pdfrwt beam="2">  1       -2 0.31553283E-01 0.82543162E+03</pdfrwt>
<totfact> 0.83670816E+00</totfact>
</mgrwt>
</event>
<event>
12    1  0.3166324E-008  0.5542610E+03  0.7818608E-02  0.1000512E+00
         -2   -1    0    0    0  501 -0.00000000000E+00  0.00000000000E+00  0.14224054998E+03  0.14224054998E+03  0.00000000000E+00 0. -1.
          2   -1    0    0  501    0  0.00000000000E+00 -0.00000000000E+00 -0.26403695027E+04  0.26403695027E+04  0.00000000000E+00 0.  1.
         23    2    1    2    0    0 -0.34148586823E+03  0.30536480852E+03 -0.85497618819E+03  0.97429766977E+03  0.91713698270E+02 0.  0.
    5000000    2    1    2    0    0  0.34148586823E+03 -0.30536480852E+03 -0.16431527645E+04  0.18083123829E+04  0.60015198256E+03 0.  0.
         23    2    4    4    0    0  0.43215163275E+03 -0.19501729688E+03 -0.15319416538E+04  0.16062364554E+04  0.91452393452E+02 0.  0.
         23    2    4    4    0    0 -0.90665764523E+02 -0.11034751164E+03 -0.11121111072E+03  0.20207592751E+03  0.89832706445E+02 0.  0.
          3    1    3    3  502    0 -0.21569010838E+03  0.24342050550E+03 -0.55753332942E+03  0.64546043935E+03  0.00000000000E+00 0. -1.
         -3    1    3    3    0  502 -0.12579575986E+03  0.61944303022E+02 -0.29744285877E+03  0.32883723042E+03  0.00000000000E+00 0.  1.
         13    1    5    5    0    0  0.18535254065E+03 -0.61419924154E+02 -0.76615851550E+03  0.79064963307E+03  0.00000000000E+00 0. -1.
        -13    1    5    5    0    0  0.24679909211E+03 -0.13359737273E+03 -0.76578313831E+03  0.81558682235E+03  0.00000000000E+00 0.  1.
          5    1    6    6  503    0  0.77016666399E+00 -0.64677169261E+02 -0.30034594932E+02  0.71469547872E+02  0.47000000000E+01 0. -1.
         -5    1    6    6    0  503 -0.91435931187E+02 -0.45670342381E+02 -0.81176515790E+02  0.13060637963E+03  0.47000000000E+01 0.  1.
<mgrwt>
<rscale>  0 0.55426096E+03</rscale>
<asrwt>0</asrwt>
<pdfrwt beam="1">  1        2 0.40621067E+00 0.55426096E+03</pdfrwt>
<pdfrwt beam="2">  1       -2 0.21883163E-01 0.55426096E+03</pdfrwt>
<totfact> 0.56463325E+01</totfact>
</mgrwt>
</event>
<event>
12    1  0.3166324E-008  0.6907452E+03  0.7818608E-02  0.9733191E-01
          2   -1    0    0  501    0  0.00000000000E+00  0.00000000000E+00  0.44087602106E+03  0.44087602106E+03  0.00000000000E+00 0. -1.
         -2   -1    0    0    0  501 -0.00000000000E+00 -0.00000000000E+00 -0.11478541394E+04  0.11478541394E+04  0.00000000000E+00 0.  1.
         23    2    1    2    0    0  0.44677241449E+03 -0.36877630465E+03 -0.34301211897E+03  0.67859413198E+03  0.85036045217E+02 0.  0.
    5000000    2    1    2    0    0 -0.44677241449E+03  0.36877630465E+03 -0.36396599942E+03  0.91013602852E+03  0.60022894670E+03 0.  0.
         23    2    4    4    0    0 -0.20107674688E+03  0.47916202967E+03 -0.33123355332E+03  0.62287815914E+03  0.90738225040E+02 0.  0.
         23    2    4    4    0    0 -0.24569566760E+03 -0.11038572502E+03 -0.32732446094E+02  0.28725786937E+03  0.94309602487E+02 0.  0.
          2    1    3    3  502    0  0.20101205113E+03 -0.11675076529E+03 -0.11670573063E+03  0.26010923370E+03  0.00000000000E+00 0.  1.
         -2    1    3    3    0  502  0.24576036335E+03 -0.25202553936E+03 -0.22630638834E+03  0.41848489828E+03  0.00000000000E+00 0. -1.
         11    1    5    5    0    0 -0.20999932098E+03  0.44315285337E+03 -0.30672857413E+03  0.57841730995E+03  0.00000000000E+00 0.  1.
        -11    1    5    5    0    0  0.89225740958E+01  0.36009176299E+02 -0.24504979187E+02  0.44460849196E+02  0.00000000000E+00 0. -1.
          5    1    6    6  503    0 -0.94037534938E+02 -0.42286257578E+02  0.33096566029E+02  0.10839122769E+03  0.47000000000E+01 0. -1.
         -5    1    6    6    0  503 -0.15165813267E+03 -0.68099467441E+02 -0.65829012123E+02  0.17886664168E+03  0.47000000000E+01 0.  1.
<mgrwt>
<rscale>  0 0.69074525E+03</rscale>
<asrwt>0</asrwt>
<pdfrwt beam="1">  1        2 0.67827081E-01 0.69074525E+03</pdfrwt>
<pdfrwt beam="2">  1       -2 0.17659294E+00 0.69074525E+03</pdfrwt>
<totfact> 0.13929202E+01</totfact>
</mgrwt>
</event>
<event>
12    1  0.3166324E-008  0.1106807E+04  0.7818608E-02  0.9198583E-01
         -2   -1    0    0    0  501 -0.00000000000E+00  0.00000000000E+00  0.91944830990E+03  0.91944830990E+03  0.00000000000E+00 0.  1.
          2   -1    0    0  501    0  0.00000000000E+00 -0.00000000000E+00 -0.16767873525E+04  0.16767873525E+04  0.00000000000E+00 0. -1.
         23    2    1    2    0    0 -0.72395177741E+03 -0.82120476485E+03  0.66365916360E+02  0.11005305161E+04  0.90991978498E+02 0.  0.
    5000000    2    1    2    0    0  0.72395177741E+03  0.82120476485E+03 -0.82370495896E+03  0.14957051463E+04  0.60013380465E+03 0.  0.
         23    2    4    4    0    0  0.51740302443E+03  0.70277013187E+03 -0.32477475241E+03  0.93584023152E+03  0.93416011441E+02 0.  0.
         23    2    4    4    0    0  0.20654875298E+03  0.11843463298E+03 -0.49893020655E+03  0.55986491480E+03  0.88477240965E+02 0.  0.
          4    1    3    3  502    0 -0.21225845319E+03 -0.22863866081E+03  0.59388821025E+02  0.31757884096E+03  0.00000000000E+00 0. -1.
         -4    1    3    3    0  502 -0.51169332423E+03 -0.59256610404E+03  0.69770953343E+01  0.78295167512E+03  0.00000000000E+00 0.  1.
         13    1    5    5    0    0  0.15425111547E+03  0.27030692845E+03 -0.87384751701E+02  0.32325738510E+03  0.00000000000E+00 0.  1.
        -13    1    5    5    0    0  0.36315190896E+03  0.43246320342E+03 -0.23739000071E+03  0.61258284642E+03  0.00000000000E+00 0. -1.
          5    1    6    6  503    0  0.18456796655E+03  0.12007751508E+03 -0.38338867404E+03  0.44214580094E+03  0.47000000000E+01 0. -1.
         -5    1    6    6    0  503  0.21980786426E+02 -0.16428820979E+01 -0.11554153251E+03  0.11771911386E+03  0.47000000000E+01 0.  1.
<mgrwt>
<rscale>  0 0.11068066E+04</rscale>
<asrwt>0</asrwt>
<pdfrwt beam="1">  1        2 0.25796728E+00 0.11068066E+04</pdfrwt>
<pdfrwt beam="2">  1       -2 0.14145359E+00 0.11068066E+04</pdfrwt>
<totfact> 0.34698049E+00</totfact>
</mgrwt>
</event>
<event>
12    1  0.3166324E-008  0.1237876E+04  0.7818608E-02  0.9080335E-01
         -2   -1    0    0    0  501 -0.00000000000E+00  0.00000000000E+00  0.15651029083E+04  0.15651029083E+04  0.00000000000E+00 0.  1.
          2   -1    0    0  501    0  0.00000000000E+00 -0.00000000000E+00 -0.10923670505E+04  0.10923670505E+04  0.00000000000E+00 0. -1.
         23    2    1    2    0    0  0.62804094505E+03 -0.10561595272E+04  0.37150279960E+03  0.12862702948E+04  0.81046687963E+02 0.  0.
    5000000    2    1    2    0    0 -0.62804094505E+03  0.10561595272E+04  0.10123305821E+03  0.13711996641E+04  0.60002667550E+03 0.  0.
         23    2    4    4    0    0 -0.50099575880E+03  0.65532294294E+03  0.31667456158E+03  0.88858039119E+03  0.94060745124E+02 0.  0.
         23    2    4    4    0    0 -0.12704518625E+03  0.40083658422E+03 -0.21544150337E+03  0.48261927292E+03  0.98467632350E+02 0.  0.
          2    1    3    3  502    0  0.17167558286E+03 -0.29535119702E+03  0.14141584676E+03  0.36973406260E+03  0.00000000000E+00 0. -1.
         -2    1    3    3    0  502  0.45636536219E+03 -0.76080833013E+03  0.23008695284E+03  0.91653623216E+03  0.00000000000E+00 0.  1.
         11    1    5    5    0    0 -0.47921594357E+03  0.61002205870E+03  0.31777110365E+03  0.83830382737E+03  0.00000000000E+00 0.  1.
        -11    1    5    5    0    0 -0.21779815228E+02  0.45300884241E+02 -0.10965420749E+01  0.50276563814E+02  0.00000000000E+00 0. -1.
          5    1    6    6  503    0 -0.94836004722E+02  0.27374739424E+03 -0.96101970622E+02  0.30526903283E+03  0.47000000000E+01 0. -1.
         -5    1    6    6    0  503 -0.32209181525E+02  0.12708918998E+03 -0.11933953275E+03  0.17735024009E+03  0.47000000000E+01 0.  1.
<mgrwt>
<rscale>  0 0.12378758E+04</rscale>
<asrwt>0</asrwt>
<pdfrwt beam="1">  1        2 0.16805647E+00 0.12378758E+04</pdfrwt>
<pdfrwt beam="2">  1       -2 0.24078506E+00 0.12378758E+04</pdfrwt>
<totfact> 0.15633960E+00</totfact>
</mgrwt>
</event>
<event>
12    1  0.3166324E-008  0.1853884E+04  0.7818608E-02  0.8678158E-01
          2   -1    0    0  501    0  0.00000000000E+00  0.00000000000E+00  0.31835064182E+04  0.31835064182E+04  0.00000000000E+00 0.  1.
         -2   -1    0    0    0  501 -0.00000000000E+00 -0.00000000000E+00 -0.11635729841E+04  0.11635729841E+04  0.00000000000E+00 0. -1.
         23    2    1    2    0    0  0.15958883104E+04 -0.85185484527E+03  0.42188396451E+03  0.18597495952E+04  0.90367585995E+02 0.  0.
    5000000    2    1    2    0    0 -0.15958883104E+04  0.85185484527E+03  0.15980494696E+04  0.24873298072E+04  0.60044257470E+03 0.  0.
         23    2    4    4    0    0 -0.13904943794E+04  0.49816466220E+03  0.13321560395E+04  0.19910983709E+04  0.90500604707E+02 0.  0.
         23    2    4    4    0    0 -0.20539393100E+03  0.35369018307E+03  0.26589343014E+03  0.49623143621E+03  0.90900547829E+02 0.  0.
          4    1    3    3  502    0  0.12474701374E+04 -0.64879963617E+03  0.29221254221E+03  0.14361444501E+04  0.00000000000E+00 0. -1.
         -4    1    3    3    0  502  0.34841817300E+03 -0.20305520910E+03  0.12967142230E+03  0.42360514513E+03  0.00000000000E+00 0.  1.
         13    1    5    5    0    0 -0.46166495867E+03  0.12125807618E+03  0.44036391639E+03  0.64942931406E+03  0.00000000000E+00 0. -1.
        -13    1    5    5    0    0 -0.92882942074E+03  0.37690658602E+03  0.89179212308E+03  0.13416690569E+04  0.00000000000E+00 0.  1.
          5    1    6    6  503    0  0.86968350767E+01  0.16918376100E+02  0.16584066495E+02  0.25670754794E+02  0.47000000000E+01 0. -1.
         -5    1    6    6    0  503 -0.21409076608E+03  0.33677180697E+03  0.24930936364E+03  0.47056068141E+03  0.47000000000E+01 0.  1.
<mgrwt>
<rscale>  0 0.18538841E+04</rscale>
<asrwt>0</asrwt>
<pdfrwt beam="1">  1        2 0.48977021E+00 0.18538841E+04</pdfrwt>
<pdfrwt beam="2">  1       -2 0.17901123E+00 0.18538841E+04</pdfrwt>
<totfact> 0.22271284E-01</totfact>
</mgrwt>
</event>
<event>
12    1  0.3166324E-008  0.1112885E+04  0.7818608E-02  0.9192723E-01
          1   -1    0    0  501    0  0.00000000000E+00  0.00000000000E+00  0.21753440321E+04  0.21753440321E+04  0.00000000000E+00 0. -1.
         -1   -1    0    0    0  501 -0.00000000000E+00 -0.00000000000E+00 -0.62930000195E+03  0.62930000195E+03  0.00000000000E+00 0.  1.
         23    2    1    2    0    0  0.10200999397E+04 -0.35874089499E+03  0.89225846385E+03  0.14058997266E+04  0.10549861665E+03 0.  0.
    5000000    2    1    2    0    0 -0.10200999397E+04  0.35874089499E+03  0.65378556627E+03  0.13987443075E+04  0.59979259272E+03 0.  0.
         23    2    4    4    0    0 -0.19560553162E+02  0.76965291934E+02  0.25391644533E+03  0.28125139737E+03  0.91227824229E+02 0.  0.
         23    2    4    4    0    0 -0.10005393865E+04  0.28177560306E+03  0.39986912095E+03  0.11174929101E+04  0.91752578872E+02 0.  0.
          2    1    3    3  502    0  0.44498566197E+03 -0.16047756126E+03  0.45838816202E+03  0.65869947177E+03  0.00000000000E+00 0.  1.
         -2    1    3    3    0  502  0.57511427773E+03 -0.19826333373E+03  0.43387030183E+03  0.74720025479E+03  0.00000000000E+00 0. -1.
         11    1    5    5    0    0 -0.37349035824E+02  0.16275028150E+02  0.36081556535E+02  0.54421555842E+02  0.00000000000E+00 0. -1.
        -11    1    5    5    0    0  0.17788482662E+02  0.60690263784E+02  0.21783488879E+03  0.22682984153E+03  0.00000000000E+00 0.  1.
          5    1    6    6  503    0 -0.34930586019E+03  0.76892040943E+02  0.17863064372E+03  0.39982241908E+03  0.47000000000E+01 0. -1.
         -5    1    6    6    0  503 -0.65123352635E+03  0.20488356211E+03  0.22123847722E+03  0.71767049101E+03  0.47000000000E+01 0.  1.
<mgrwt>
<rscale>  0 0.11128852E+04</rscale>
<asrwt>0</asrwt>
<pdfrwt beam="1">  1        1 0.33466831E+00 0.11128852E+04</pdfrwt>
<pdfrwt beam="2">  1       -1 0.96815386E-01 0.11128852E+04</pdfrwt>
<totfact> 0.23193569E+00</totfact>
</mgrwt>
</event>
<event>
12    1  0.3166324E-008  0.5415060E+03  0.7818608E-02  0.1003479E+00
         -2   -1    0    0    0  501 -0.00000000000E+00  0.00000000000E+00  0.75278951845E+03  0.75278951845E+03  0.00000000000E+00 0.  1.
          2   -1    0    0  501    0  0.00000000000E+00 -0.00000000000E+00 -0.11236367410E+04  0.11236367410E+04  0.00000000000E+00 0. -1.
         23    2    1    2    0    0  0.48087886181E+03  0.65771351352E+02 -0.83923454701E+03  0.97361668130E+03  0.89690951627E+02 0.  0.
    5000000    2    1    2    0    0 -0.48087886181E+03 -0.65771351352E+02  0.46838732442E+03  0.90280957819E+03  0.60009007524E+03 0.  0.
         23    2    4    4    0    0 -0.48412457237E+03 -0.14110732916E+01  0.81040837633E+02  0.49978952160E+03  0.94039118674E+02 0.  0.
         23    2    4    4    0    0  0.32457105517E+01 -0.64360278061E+02  0.38734648679E+03  0.40302005659E+03  0.90747369990E+02 0.  0.
          2    1    3    3  502    0  0.18435682061E+03  0.61592531041E+02 -0.28394356494E+03  0.34410031278E+03  0.00000000000E+00 0. -1.
         -2    1    3    3    0  502  0.29652204120E+03  0.41788203117E+01 -0.55529098207E+03  0.62951636851E+03  0.00000000000E+00 0.  1.
         13    1    5    5    0    0 -0.14877255036E+03 -0.11801424782E+02 -0.17103015589E+02  0.15021670516E+03  0.00000000000E+00 0. -1.
        -13    1    5    5    0    0 -0.33535202201E+03  0.10390351490E+02  0.98143853221E+02  0.34957281644E+03  0.00000000000E+00 0.  1.
          5    1    6    6  503    0  0.37766094478E+02 -0.48352996194E+01  0.91049975939E+02  0.98802055308E+02  0.47000000000E+01 0. -1.
         -5    1    6    6    0  503 -0.34520383926E+02 -0.59524978441E+02  0.29629651085E+03  0.30421800129E+03  0.47000000000E+01 0.  1.
<mgrwt>
<rscale>  0 0.54150602E+03</rscale>
<asrwt>0</asrwt>
<pdfrwt beam="1">  1        2 0.17286719E+00 0.54150602E+03</pdfrwt>
<pdfrwt beam="2">  1       -2 0.11581377E+00 0.54150602E+03</pdfrwt>
<totfact> 0.12804758E+01</totfact>
</mgrwt>
</event>
<event>
12    1  0.3166324E-008  0.1285898E+04  0.7818608E-02  0.9040823E-01
         -1   -1    0    0    0  501 -0.00000000000E+00  0.00000000000E+00  0.10516059962E+04  0.10516059962E+04  0.00000000000E+00 0.  1.
          1   -1    0    0  501    0  0.00000000000E+00 -0.00000000000E+00 -0.23037255645E+04  0.23037255645E+04  0.00000000000E+00 0. -1.
         23    2    1    2    0    0 -0.12135769582E+04 -0.22253140336E+03  0.31093590641E+03  0.12756542644E+04  0.91232698556E+02 0.  0.
    5000000    2    1    2    0    0  0.12135769582E+04  0.22253140336E+03 -0.15630554747E+04  0.20796772963E+04  0.59968823634E+03 0.  0.
         23    2    4    4    0    0  0.34466486478E+03 -0.16382438730E+03 -0.29488070738E+03  0.49183666769E+03  0.96521382162E+02 0.  0.
         23    2    4    4    0    0  0.86891209343E+03  0.38635579067E+03 -0.12681747673E+04  0.15878406286E+04  0.93228741924E+02 0.  0.
          3    1    3    3  502    0 -0.26487288185E+03 -0.79238345387E+02  0.93565200000E+02  0.29187464016E+03  0.00000000000E+00 0. -1.
         -3    1    3    3    0  502 -0.94870407636E+03 -0.14329305798E+03  0.21737070641E+03  0.98377962419E+03  0.00000000000E+00 0.  1.
         11    1    5    5    0    0  0.31096443688E+03 -0.13946441628E+03 -0.21839592104E+03  0.40477893070E+03  0.00000000000E+00 0.  1.
        -11    1    5    5    0    0  0.33700427899E+02 -0.24359971017E+02 -0.76484786337E+02  0.87057736989E+02  0.00000000000E+00 0. -1.
          5    1    6    6  503    0  0.51107092764E+03  0.26408219768E+03 -0.71407525047E+03  0.91698334420E+03  0.47000000000E+01 0. -1.
         -5    1    6    6    0  503  0.35784116579E+03  0.12227359299E+03 -0.55409951685E+03  0.67085728441E+03  0.47000000000E+01 0.  1.
<mgrwt>
<rscale>  0 0.12858982E+04</rscale>
<asrwt>0</asrwt>
<pdfrwt beam="1">  1        1 0.35441931E+00 0.12858982E+04</pdfrwt>
<pdfrwt beam="2">  1       -1 0.16178554E+00 0.12858982E+04</pdfrwt>
<totfact> 0.51006891E-01</totfact>
</mgrwt>
</event>
<event>
12    1  0.3404125E-008  0.8107740E+03  0.7818608E-02  0.9544552E-01
          2   -1    0    0  501    0  0.00000000000E+00  0.00000000000E+00  0.20302326616E+04  0.20302326616E+04  0.00000000000E+00 0.  1.
         -2   -1    0    0    0  501 -0.00000000000E+00 -0.00000000000E+00 -0.36250794669E+03  0.36250794669E+03  0.00000000000E+00 0. -1.
         23    2    1    2    0    0 -0.57207567637E+03 -0.46394698563E+03  0.53789920979E+03  0.91662212805E+03  0.91341013564E+02 0.  0.
    5000000    2    1    2    0    0  0.57207567637E+03  0.46394698563E+03  0.11298255051E+04  0.14761184803E+04  0.59991892015E+03 0.  0.
         23    2    4    4    0    0  0.30352880191E+03  0.51787615493E+03  0.51182532195E+03  0.79397953688E+03  0.90071634585E+02 0.  0.
         23    2    4    4    0    0  0.26854687447E+03 -0.53929169297E+02  0.61800018318E+03  0.68213894339E+03  0.91452351451E+02 0.  0.
          2    1    3    3  502    0 -0.15240225801E+03 -0.12599502447E+03  0.19632851683E+03  0.27865046377E+03  0.00000000000E+00 0. -1.
         -2    1    3    3    0  502 -0.41967341836E+03 -0.33795196117E+03  0.34157069296E+03  0.63797166428E+03  0.00000000000E+00 0.  1.
         11    1    5    5    0    0  0.10780117874E+03  0.23355440483E+03  0.17095197208E+03  0.30885810805E+03  0.00000000000E+00 0. -1.
        -11    1    5    5    0    0  0.19572762317E+03  0.28432175011E+03  0.34087334988E+03  0.48512142883E+03  0.00000000000E+00 0.  1.
          5    1    6    6  503    0  0.19152268028E+01 -0.11459561371E+02  0.71213022590E+02  0.72307497723E+02  0.47000000000E+01 0. -1.
         -5    1    6    6    0  503  0.26663164766E+03 -0.42469607926E+02  0.54678716059E+03  0.60983144566E+03  0.47000000000E+01 0.  1.
<mgrwt>
<rscale>  0 0.81077397E+03</rscale>
<asrwt>0</asrwt>
<pdfrwt beam="1">  1        2 0.31234348E+00 0.81077397E+03</pdfrwt>
<pdfrwt beam="2">  1       -2 0.55770455E-01 0.81077397E+03</pdfrwt>
<totfact> 0.19921643E+01</totfact>
</mgrwt>
</event>
<event>
12    1  0.3166324E-008  0.6535447E+03  0.7818608E-02  0.9800150E-01
         -2   -1    0    0    0  501 -0.00000000000E+00  0.00000000000E+00  0.47795907716E+03  0.47795907716E+03  0.00000000000E+00 0.  1.
          2   -1    0    0  501    0  0.00000000000E+00 -0.00000000000E+00 -0.18178243300E+04  0.18178243300E+04  0.00000000000E+00 0. -1.
         23    2    1    2    0    0 -0.22521818210E+01  0.63711695799E+03  0.54586531630E+02  0.64943059565E+03  0.11339011706E+03 0.  0.
    5000000    2    1    2    0    0  0.22521818210E+01 -0.63711695799E+03 -0.13944517844E+04  0.16463528115E+04  0.60004892322E+03 0.  0.
         23    2    4    4    0    0 -0.71368038181E+02 -0.11556819102E+03 -0.91178173366E+03  0.92603222796E+03  0.87979280110E+02 0.  0.
         23    2    4    4    0    0  0.73620220002E+02 -0.52154876697E+03 -0.48267005077E+03  0.72032058352E+03  0.91969081791E+02 0.  0.
          1    1    3    3  502    0 -0.35852556469E+01  0.25537730140E+03 -0.33689467950E+02  0.25761482950E+03  0.00000000000E+00 0. -1.
         -1    1    3    3    0  502  0.13330738259E+01  0.38173965659E+03  0.88275999581E+02  0.39181576614E+03  0.00000000000E+00 0.  1.
         11    1    5    5    0    0 -0.53464456786E+02 -0.44490804116E+02 -0.66409868666E+03  0.66773119248E+03  0.00000000000E+00 0.  1.
        -11    1    5    5    0    0 -0.17903581395E+02 -0.71077386905E+02 -0.24768304701E+03  0.25830103548E+03  0.00000000000E+00 0. -1.
          5    1    6    6  503    0  0.37932496948E+02 -0.32853395536E+03 -0.24259005954E+03  0.41017735327E+03  0.47000000000E+01 0. -1.
         -5    1    6    6    0  503  0.35687723054E+02 -0.19301481161E+03 -0.24007999123E+03  0.31014323024E+03  0.47000000000E+01 0.  1.
<mgrwt>
<rscale>  0 0.65354472E+03</rscale>
<asrwt>0</asrwt>
<pdfrwt beam="1">  1        2 0.27966528E+00 0.65354472E+03</pdfrwt>
<pdfrwt beam="2">  1       -2 0.73532166E-01 0.65354472E+03</pdfrwt>
<totfact> 0.14713313E+01</totfact>
</mgrwt>
</event>
<event>
12    1  0.3166324E-008  0.8702050E+03  0.7818608E-02  0.9463613E-01
         -1   -1    0    0    0  501 -0.00000000000E+00  0.00000000000E+00  0.33175571288E+03  0.33175571288E+03  0.00000000000E+00 0.  1.
          1   -1    0    0  501    0  0.00000000000E+00 -0.00000000000E+00 -0.30613948122E+04  0.30613948122E+04  0.00000000000E+00 0. -1.
         23    2    1    2    0    0  0.34062072324E+03 -0.69578664768E+03 -0.20722132064E+04  0.22141134122E+04  0.89939384315E+02 0.  0.
    5000000    2    1    2    0    0 -0.34062072324E+03  0.69578664768E+03 -0.65742589292E+03  0.11790371129E+04  0.59814561172E+03 0.  0.
         23    2    4    4    0    0 -0.49312639115E+03  0.45215538650E+03 -0.49203177696E+03  0.83546013288E+03  0.90995785085E+02 0.  0.
         23    2    4    4    0    0  0.15250566791E+03  0.24363126118E+03 -0.16539411596E+03  0.34357698007E+03  0.89865218317E+02 0.  0.
          4    1    3    3  502    0  0.20232401668E+03 -0.45679845580E+03 -0.12218400741E+04  0.13200352282E+04  0.00000000000E+00 0. -1.
         -4    1    3    3    0  502  0.13829670656E+03 -0.23898819188E+03 -0.85037313234E+03  0.89407818400E+03  0.00000000000E+00 0.  1.
         13    1    5    5    0    0 -0.17279758294E+03  0.14039634793E+03 -0.11446784668E+03  0.25034581504E+03  0.00000000000E+00 0.  1.
        -13    1    5    5    0    0 -0.32032880821E+03  0.31175903857E+03 -0.37756393027E+03  0.58511431784E+03  0.00000000000E+00 0. -1.
          5    1    6    6  503    0  0.83340733273E+02  0.18959596635E+03 -0.14635727886E+03  0.25364315752E+03  0.47000000000E+01 0. -1.
         -5    1    6    6    0  503  0.69164934640E+02  0.54035294831E+02 -0.19036837105E+02  0.89933822548E+02  0.47000000000E+01 0.  1.
<mgrwt>
<rscale>  0 0.87020502E+03</rscale>
<asrwt>0</asrwt>
<pdfrwt beam="1">  1        1 0.47098385E+00 0.87020502E+03</pdfrwt>
<pdfrwt beam="2">  1       -1 0.51039337E-01 0.87020502E+03</pdfrwt>
<totfact> 0.21856456E+00</totfact>
</mgrwt>
</event>
<event>
12    1  0.3166324E-008  0.9303194E+03  0.7818608E-02  0.9388455E-01
          2   -1    0    0  501    0  0.00000000000E+00  0.00000000000E+00  0.35263303993E+04  0.35263303993E+04  0.00000000000E+00 0. -1.
         -2   -1    0    0    0  501 -0.00000000000E+00 -0.00000000000E+00 -0.30271292290E+03  0.30271292290E+03  0.00000000000E+00 0.  1.
         23    2    1    2    0    0  0.64008068649E+03  0.66305627257E+03  0.18549549986E+04  0.20732950717E+04  0.91364663050E+02 0.  0.
    5000000    2    1    2    0    0 -0.64008068649E+03 -0.66305627257E+03  0.13686624778E+04  0.17557482505E+04  0.60005669335E+03 0.  0.
         23    2    4    4    0    0 -0.14429373456E+03 -0.15085801464E+03  0.23525638571E+02  0.23057297088E+03  0.95034818981E+02 0.  0.
         23    2    4    4    0    0 -0.49578695194E+03 -0.51219825793E+03  0.13451368392E+04  0.15251752796E+04  0.92815732596E+02 0.  0.
          2    1    3    3  502    0  0.45984665751E+03  0.51025152873E+03  0.14493908202E+04  0.16039168684E+04  0.00000000000E+00 0. -1.
         -2    1    3    3    0  502  0.18023402898E+03  0.15280474383E+03  0.40556417842E+03  0.46937820333E+03  0.00000000000E+00 0.  1.
         13    1    5    5    0    0 -0.15094615938E+03 -0.13955483898E+03  0.40089191330E+02  0.20944555230E+03  0.00000000000E+00 0. -1.
        -13    1    5    5    0    0  0.66524248280E+01 -0.11303175657E+02 -0.16563552760E+02  0.21127418584E+02  0.00000000000E+00 0.  1.
          5    1    6    6  503    0 -0.23471135269E+03 -0.17774089485E+03  0.56322669725E+03  0.63555302476E+03  0.47000000000E+01 0. -1.
         -5    1    6    6    0  503 -0.26107559924E+03 -0.33445736308E+03  0.78191014198E+03  0.88962225487E+03  0.47000000000E+01 0.  1.
<mgrwt>
<rscale>  0 0.93031941E+03</rscale>
<asrwt>0</asrwt>
<pdfrwt beam="1">  1        2 0.54251234E+00 0.93031941E+03</pdfrwt>
<pdfrwt beam="2">  1       -2 0.46571221E-01 0.93031941E+03</pdfrwt>
<totfact> 0.35752454E+00</totfact>
</mgrwt>
</event>
<event>
12    1  0.3166324E-008  0.4557478E+03  0.7818608E-02  0.1026022E+00
          1   -1    0    0  501    0  0.00000000000E+00  0.00000000000E+00  0.70429946936E+03  0.70429946936E+03  0.00000000000E+00 0. -1.
         -1   -1    0    0    0  501 -0.00000000000E+00 -0.00000000000E+00 -0.51132924147E+03  0.51132924147E+03  0.00000000000E+00 0.  1.
         23    2    1    2    0    0 -0.28596447841E+02 -0.43376113141E+03  0.16657596535E+03  0.47422856196E+03  0.90436169736E+02 0.  0.
    5000000    2    1    2    0    0  0.28596447841E+02  0.43376113141E+03  0.26394262544E+02  0.74140014887E+03  0.60000920634E+03 0.  0.
         23    2    4    4    0    0  0.49321171170E+02  0.34172764601E+03  0.28126396678E+03  0.45550004576E+03  0.95710556891E+02 0.  0.
         23    2    4    4    0    0 -0.20724723329E+02  0.92033485398E+02 -0.25486970423E+03  0.28590010311E+03  0.88772891316E+02 0.  0.
          4    1    3    3  502    0  0.35481899876E+00 -0.11250680081E+03  0.86405805529E+02  0.14185862453E+03  0.00000000000E+00 0.  1.
         -4    1    3    3    0  502 -0.28951266839E+02 -0.32125433060E+03  0.80170159822E+02  0.33236993743E+03  0.00000000000E+00 0. -1.
         13    1    5    5    0    0 -0.21196620117E+02  0.57254512782E+02  0.24265859533E+02  0.65697852912E+02  0.00000000000E+00 0.  1.
        -13    1    5    5    0    0  0.70517791287E+02  0.28447313323E+03  0.25699810725E+03  0.38980219284E+03  0.00000000000E+00 0. -1.
          5    1    6    6  503    0  0.28487392775E+02  0.48405384978E+02 -0.16554393170E+03  0.17487565916E+03  0.47000000000E+01 0. -1.
         -5    1    6    6    0  503 -0.49212116104E+02  0.43628100420E+02 -0.89325772533E+02  0.11102444396E+03  0.47000000000E+01 0.  1.
<mgrwt>
<rscale>  0 0.45574776E+03</rscale>
<asrwt>0</asrwt>
<pdfrwt beam="1">  1        1 0.10835376E+00 0.45574776E+03</pdfrwt>
<pdfrwt beam="2">  1       -1 0.78666037E-01 0.45574776E+03</pdfrwt>
<totfact> 0.46218816E+01</totfact>
</mgrwt>
</event>
<event>
12    1  0.3166324E-008  0.1244512E+04  0.7818608E-02  0.9074763E-01
         -1   -1    0    0    0  501 -0.00000000000E+00  0.00000000000E+00  0.64599898612E+03  0.64599898612E+03  0.00000000000E+00 0.  1.
          1   -1    0    0  501    0  0.00000000000E+00 -0.00000000000E+00 -0.24558749027E+04  0.24558749027E+04  0.00000000000E+00 0. -1.
         23    2    1    2    0    0 -0.89550951564E+03  0.77561366602E+03 -0.78107933255E+03  0.14219850081E+04  0.91883557387E+02 0.  0.
    5000000    2    1    2    0    0  0.89550951564E+03 -0.77561366602E+03 -0.10287965840E+04  0.16798888806E+04  0.60007531905E+03 0.  0.
         23    2    4    4    0    0  0.33066697309E+03  0.79558880220E+01 -0.37902222366E+03  0.51217145913E+03  0.96217536169E+02 0.  0.
         23    2    4    4    0    0  0.56484254255E+03 -0.78356955404E+03 -0.64977436034E+03  0.11677174215E+04  0.91262879977E+02 0.  0.
          1    1    3    3  502    0 -0.27072347902E+03  0.18072331867E+03 -0.20792197229E+03  0.38624301490E+03  0.00000000000E+00 0. -1.
         -1    1    3    3    0  502 -0.62478603663E+03  0.59489034735E+03 -0.57315736026E+03  0.10357419932E+04  0.00000000000E+00 0.  1.
         11    1    5    5    0    0  0.12015872973E+03 -0.16717704882E+02 -0.78762804373E+02  0.14464156159E+03  0.00000000000E+00 0. -1.
        -11    1    5    5    0    0  0.21050824336E+03  0.24673592904E+02 -0.30025941929E+03  0.36752989753E+03  0.00000000000E+00 0.  1.
          5    1    6    6  503    0  0.54154564270E+03 -0.76549459697E+03 -0.64334137430E+03  0.11371736345E+04  0.47000000000E+01 0.  1.
         -5    1    6    6    0  503  0.23296899846E+02 -0.18074957070E+02 -0.64329860335E+01  0.30543787009E+02  0.47000000000E+01 0. -1.
<mgrwt>
<rscale>  0 0.12445122E+04</rscale>
<asrwt>0</asrwt>
<pdfrwt beam="1">  1        1 0.37782691E+00 0.12445122E+04</pdfrwt>
<pdfrwt beam="2">  1       -1 0.99384459E-01 0.12445122E+04</pdfrwt>
<totfact> 0.13830916E+00</totfact>
</mgrwt>
</event>
<event>
12    1  0.3166324E-008  0.6477487E+03  0.7818608E-02  0.9811013E-01
          1   -1    0    0  501    0  0.00000000000E+00  0.00000000000E+00  0.10078657486E+04  0.10078657486E+04  0.00000000000E+00 0. -1.
         -1   -1    0    0    0  501 -0.00000000000E+00 -0.00000000000E+00 -0.58422861335E+03  0.58422861335E+03  0.00000000000E+00 0.  1.
         23    2    1    2    0    0 -0.55024503576E+03 -0.31553075655E+03  0.30973434386E+03  0.71158674534E+03  0.89950401182E+02 0.  0.
    5000000    2    1    2    0    0  0.55024503576E+03  0.31553075655E+03  0.11390279141E+03  0.88050761665E+03  0.59999213276E+03 0.  0.
         23    2    4    4    0    0  0.28582936235E+03  0.12196015794E+03  0.34217673243E+03  0.47092274851E+03  0.90058949249E+02 0.  0.
         23    2    4    4    0    0  0.26441567340E+03  0.19357059861E+03 -0.22827394101E+03  0.40958486814E+03  0.90915054175E+02 0.  0.
          2    1    3    3  502    0 -0.18341919900E+03 -0.10018779356E+03  0.56302882262E+02  0.21644909584E+03  0.00000000000E+00 0. -1.
         -2    1    3    3    0  502 -0.36682583676E+03 -0.21534296300E+03  0.25343146160E+03  0.49513764950E+03  0.00000000000E+00 0.  1.
         13    1    5    5    0    0  0.12936924160E+03  0.84217934627E+01  0.12354736697E+03  0.17908455869E+03  0.00000000000E+00 0.  1.
        -13    1    5    5    0    0  0.15646012076E+03  0.11353836448E+03  0.21862936546E+03  0.29183818982E+03  0.00000000000E+00 0. -1.
          5    1    6    6  503    0  0.22254981112E+03  0.11870382402E+03 -0.15082437074E+03  0.29392022229E+03  0.47000000000E+01 0. -1.
         -5    1    6    6    0  503  0.41865862286E+02  0.74866774594E+02 -0.77449570272E+02  0.11566464584E+03  0.47000000000E+01 0.  1.
<mgrwt>
<rscale>  0 0.64774873E+03</rscale>
<asrwt>0</asrwt>
<pdfrwt beam="1">  1        1 0.15505627E+00 0.64774873E+03</pdfrwt>
<pdfrwt beam="2">  1       -1 0.89881325E-01 0.64774873E+03</pdfrwt>
<totfact> 0.18861286E+01</totfact>
</mgrwt>
</event>
<event>
12    1  0.3166324E-008  0.1452934E+04  0.7818608E-02  0.8916369E-01
         -1   -1    0    0    0  501 -0.00000000000E+00  0.00000000000E+00  0.19310918626E+04  0.19310918626E+04  0.00000000000E+00 0.  1.
          1   -1    0    0  501    0  0.00000000000E+00 -0.00000000000E+00 -0.12248594367E+04  0.12248594367E+04  0.00000000000E+00 0. -1.
         23    2    1    2    0    0  0.75867339276E+03 -0.11871718893E+04  0.79654257978E+03  0.16218876496E+04  0.10524758843E+03 0.  0.
    5000000    2    1    2    0    0 -0.75867339276E+03  0.11871718893E+04 -0.90310153897E+02  0.15340636498E+04  0.60019409036E+03 0.  0.
         23    2    4    4    0    0 -0.78617905606E+03  0.91138459939E+03  0.50997672639E+02  0.12082300106E+04  0.92301678242E+02 0.  0.
         23    2    4    4    0    0  0.27505663302E+02  0.27578728990E+03 -0.14130782654E+03  0.32583363915E+03  0.96873462699E+02 0.  0.
          3    1    3    3  502    0  0.66478753869E+03 -0.10842657075E+04  0.69355871531E+03  0.14486539572E+04  0.00000000000E+00 0. -1.
         -3    1    3    3    0  502  0.93885854066E+02 -0.10290618180E+03  0.10298386447E+03  0.17323369242E+03  0.00000000000E+00 0.  1.
         11    1    5    5    0    0 -0.18351321962E+03  0.17960806651E+03  0.41969012358E+02  0.26018754261E+03  0.00000000000E+00 0. -1.
        -11    1    5    5    0    0 -0.60266583644E+03  0.73177653288E+03  0.90286602817E+01  0.94804246804E+03  0.00000000000E+00 0.  1.
          5    1    6    6  503    0  0.37384464568E+02  0.44098442195E+02 -0.86902233228E+01  0.58650496813E+02  0.47000000000E+01 0. -1.
         -5    1    6    6    0  503 -0.98788012660E+01  0.23168884771E+03 -0.13261760321E+03  0.26718314234E+03  0.47000000000E+01 0.  1.
<mgrwt>
<rscale>  0 0.14529340E+04</rscale>
<asrwt>0</asrwt>
<pdfrwt beam="1">  1        1 0.18843991E+00 0.14529340E+04</pdfrwt>
<pdfrwt beam="2">  1       -1 0.29709106E+00 0.14529340E+04</pdfrwt>
<totfact> 0.33699587E-01</totfact>
</mgrwt>
</event>
<event>
12    1  0.3166324E-008  0.1137988E+04  0.7818608E-02  0.9168937E-01
         -2   -1    0    0    0  501 -0.00000000000E+00  0.00000000000E+00  0.14472991844E+04  0.14472991844E+04  0.00000000000E+00 0. -1.
          2   -1    0    0  501    0  0.00000000000E+00 -0.00000000000E+00 -0.11874702730E+04  0.11874702730E+04  0.00000000000E+00 0.  1.
         23    2    1    2    0    0  0.11918617759E+03  0.10790642051E+04 -0.47990550964E+03  0.11905660442E+04  0.92484073708E+02 0.  0.
    5000000    2    1    2    0    0 -0.11918617759E+03 -0.10790642051E+04  0.73973442105E+03  0.14442034132E+04  0.59994298182E+03 0.  0.
         23    2    4    4    0    0  0.17380331006E+03 -0.41814808805E+03  0.95015580023E+02  0.47146379069E+03  0.90524755528E+02 0.  0.
         23    2    4    4    0    0 -0.29298948766E+03 -0.66091611703E+03  0.64471884103E+03  0.97273962252E+03  0.88921513745E+02 0.  0.
          4    1    3    3  502    0  0.75040631175E+02  0.37659124428E+03 -0.13779581957E+03  0.40797028015E+03  0.00000000000E+00 0. -1.
         -4    1    3    3    0  502  0.44145546419E+02  0.70247296080E+03 -0.34210969007E+03  0.78259576408E+03  0.00000000000E+00 0.  1.
         11    1    5    5    0    0  0.15489575387E+03 -0.27738952682E+03  0.86072542786E+02  0.32915972836E+03  0.00000000000E+00 0. -1.
        -11    1    5    5    0    0  0.18907556189E+02 -0.14075856123E+03  0.89430372377E+01  0.14230406233E+03  0.00000000000E+00 0.  1.
          5    1    6    6  503    0 -0.17156524818E+03 -0.27852331938E+03  0.29078192278E+03  0.43770548367E+03  0.47000000000E+01 0. -1.
         -5    1    6    6    0  503 -0.12142423947E+03 -0.38239279765E+03  0.35393691825E+03  0.53503413885E+03  0.47000000000E+01 0.  1.
<mgrwt>
<rscale>  0 0.11379882E+04</rscale>
<asrwt>0</asrwt>
<pdfrwt beam="1">  1        2 0.18268773E+00 0.11379882E+04</pdfrwt>
<pdfrwt beam="2">  1       -2 0.22266141E+00 0.11379882E+04</pdfrwt>
<totfact> 0.17918838E+00</totfact>
</mgrwt>
</event>
<event>
12    1  0.3166324E-008  0.8598651E+03  0.7818608E-02  0.9477191E-01
         -1   -1    0    0    0  501 -0.00000000000E+00  0.00000000000E+00  0.32662507936E+03  0.32662507936E+03  0.00000000000E+00 0.  1.
          1   -1    0    0  501    0  0.00000000000E+00 -0.00000000000E+00 -0.24563136990E+04  0.24563136990E+04  0.00000000000E+00 0. -1.
         23    2    1    2    0    0  0.50238955022E+03 -0.57748254186E+03 -0.12665393885E+04  0.14827096129E+04  0.91784679604E+02 0.  0.
    5000000    2    1    2    0    0 -0.50238955022E+03  0.57748254186E+03 -0.86314923116E+03  0.13002291654E+04  0.59973989448E+03 0.  0.
         23    2    4    4    0    0 -0.54764169021E+03  0.22944947242E+03 -0.61501776042E+03  0.85966915554E+03  0.90695810873E+02 0.  0.
         23    2    4    4    0    0  0.45252139990E+02  0.34803306944E+03 -0.24813147074E+03  0.44056000988E+03  0.96690857553E+02 0.  0.
          2    1    3    3  502    0  0.85175300432E+02 -0.15231615168E+03 -0.26081240479E+03  0.31381228841E+03  0.00000000000E+00 0.  1.
         -2    1    3    3    0  502  0.41721424979E+03 -0.42516639017E+03 -0.10057269837E+04  0.11688973245E+04  0.00000000000E+00 0. -1.
         11    1    5    5    0    0 -0.58179948578E+02  0.24596210595E+01 -0.87469419116E+02  0.10508023331E+03  0.00000000000E+00 0. -1.
        -11    1    5    5    0    0 -0.48946174163E+03  0.22698985136E+03 -0.52754834130E+03  0.75458892223E+03  0.00000000000E+00 0.  1.
          5    1    6    6  503    0  0.22554966658E+02  0.98277223711E+02 -0.12637839625E+03  0.16174278426E+03  0.47000000000E+01 0. -1.
         -5    1    6    6    0  503  0.22697173332E+02  0.24975584573E+03 -0.12175307449E+03  0.27881722561E+03  0.47000000000E+01 0.  1.
<mgrwt>
<rscale>  0 0.85986514E+03</rscale>
<asrwt>0</asrwt>
<pdfrwt beam="1">  1        1 0.37789441E+00 0.85986514E+03</pdfrwt>
<pdfrwt beam="2">  1       -1 0.50250012E-01 0.85986514E+03</pdfrwt>
<totfact> 0.59935749E+00</totfact>
</mgrwt>
</event>
<event>
12    1  0.3166324E-008  0.6599979E+03  0.7818608E-02  0.9788198E-01
         -3   -1    0    0    0  501 -0.00000000000E+00  0.00000000000E+00  0.76490356133E+03  0.76490356133E+03  0.00000000000E+00 0.  1.
          3   -1    0    0  501    0  0.00000000000E+00 -0.00000000000E+00 -0.65809858525E+03  0.65809858525E+03  0.00000000000E+00 0. -1.
         23    2    1    2    0    0  0.53776957073E+03 -0.12734603046E+03 -0.12858597876E+03  0.57443078842E+03  0.89572619030E+02 0.  0.
    5000000    2    1    2    0    0 -0.53776957073E+03  0.12734603046E+03  0.23539095484E+03  0.84857135816E+03  0.59937577996E+03 0.  0.
         23    2    4    4    0    0 -0.10506935465E+03 -0.19212556955E+03  0.18615670965E+03  0.30105218345E+03  0.89589580061E+02 0.  0.
         23    2    4    4    0    0 -0.43270021608E+03  0.31947160001E+03  0.49234245193E+02  0.54751917471E+03  0.89786722686E+02 0.  0.
          3    1    3    3  502    0  0.44317150008E+03 -0.73303957795E+02 -0.85411299188E+02  0.45724122599E+03  0.00000000000E+00 0. -1.
         -3    1    3    3    0  502  0.94598070642E+02 -0.54042072664E+02 -0.43174679567E+02  0.11718956243E+03  0.00000000000E+00 0.  1.
         11    1    5    5    0    0  0.40058473677E+01 -0.33433781337E+01 -0.77023120176E+01  0.93032575421E+01  0.00000000000E+00 0. -1.
        -11    1    5    5    0    0 -0.10907520202E+03 -0.18878219141E+03  0.19385902166E+03  0.29174892591E+03  0.00000000000E+00 0.  1.
          5    1    6    6  503    0 -0.31632448848E+03  0.21867651528E+03 -0.38456303317E+01  0.38460041501E+03  0.47000000000E+01 0. -1.
         -5    1    6    6    0  503 -0.11637572759E+03  0.10079508472E+03  0.53079875524E+02  0.16291875970E+03  0.47000000000E+01 0.  1.
<mgrwt>
<rscale>  0 0.65999786E+03</rscale>
<asrwt>0</asrwt>
<pdfrwt beam="1">  1        3 0.10124594E+00 0.65999786E+03</pdfrwt>
<pdfrwt beam="2">  1       -3 0.11767747E+00 0.65999786E+03</pdfrwt>
<totfact> 0.13125299E+00</totfact>
</mgrwt>
</event>
<event>
12    1  0.3166324E-008  0.7401846E+03  0.7818608E-02  0.9650876E-01
         -2   -1    0    0    0  501 -0.00000000000E+00  0.00000000000E+00  0.53440551098E+03  0.53440551098E+03  0.00000000000E+00 0. -1.
          2   -1    0    0  501    0  0.00000000000E+00 -0.00000000000E+00 -0.15434519598E+04  0.15434519598E+04  0.00000000000E+00 0.  1.
         23    2    1    2    0    0 -0.71764976367E+03 -0.11237315331E+03 -0.85078943241E+03  0.11226892816E+04  0.94549753160E+02 0.  0.
    5000000    2    1    2    0    0  0.71764976367E+03  0.11237315331E+03 -0.15825701639E+03  0.95516818916E+03  0.59970999447E+03 0.  0.
         23    2    4    4    0    0  0.16885167963E+03 -0.53518022898E+02  0.19250155167E+03  0.27734190864E+03  0.92122844117E+02 0.  0.
         23    2    4    4    0    0  0.54879808405E+03  0.16589117621E+03 -0.35075856806E+03  0.67782628052E+03  0.87850293673E+02 0.  0.
          1    1    3    3  502    0 -0.50024080100E+03 -0.59118071302E+02 -0.64711797425E+03  0.82005943562E+03  0.00000000000E+00 0. -1.
         -1    1    3    3    0  502 -0.21740896267E+03 -0.53255082007E+02 -0.20367145815E+03  0.30262984598E+03  0.00000000000E+00 0.  1.
         11    1    5    5    0    0  0.29195919083E+01  0.28581658832E+01 -0.92458779150E+01  0.10108382044E+02  0.00000000000E+00 0.  1.
        -11    1    5    5    0    0  0.16593208772E+03 -0.56376188781E+02  0.20174742958E+03  0.26723352660E+03  0.00000000000E+00 0. -1.
          5    1    6    6  503    0  0.44719404579E+03  0.13740094543E+03 -0.24404146019E+03  0.52767400798E+03  0.47000000000E+01 0. -1.
         -5    1    6    6    0  503  0.10160403825E+03  0.28490230773E+02 -0.10671710786E+03  0.15015227254E+03  0.47000000000E+01 0.  1.
<mgrwt>
<rscale>  0 0.74018462E+03</rscale>
<asrwt>0</asrwt>
<pdfrwt beam="1">  1        2 0.23745414E+00 0.74018462E+03</pdfrwt>
<pdfrwt beam="2">  1       -2 0.82216234E-01 0.74018462E+03</pdfrwt>
<totfact> 0.16002054E+01</totfact>
</mgrwt>
</event>
<event>
12    1  0.3166324E-008  0.6196508E+03  0.7818608E-02  0.9865455E-01
          1   -1    0    0  501    0  0.00000000000E+00  0.00000000000E+00  0.21863406402E+04  0.21863406402E+04  0.00000000000E+00 0. -1.
         -1   -1    0    0    0  501 -0.00000000000E+00 -0.00000000000E+00 -0.22929676935E+03  0.22929676935E+03  0.00000000000E+00 0.  1.
         23    2    1    2    0    0  0.52320346009E+03  0.21537400686E+03  0.99642268975E+03  0.11495241785E+04  0.91759668879E+02 0.  0.
    5000000    2    1    2    0    0 -0.52320346009E+03 -0.21537400686E+03  0.96062118108E+03  0.12661132310E+04  0.60010152204E+03 0.  0.
         23    2    4    4    0    0 -0.95312717125E+01 -0.10567632903E+03  0.61643454853E+03  0.63154735617E+03  0.87190474261E+02 0.  0.
         23    2    4    4    0    0 -0.51367218838E+03 -0.10969767783E+03  0.34418663255E+03  0.63456587486E+03  0.91196018951E+02 0.  0.
          1    1    3    3  502    0  0.32140338964E+03  0.89378492009E+02  0.53769033871E+03  0.63277132841E+03  0.00000000000E+00 0. -1.
         -1    1    3    3    0  502  0.20180007045E+03  0.12599551485E+03  0.45873235104E+03  0.51675285010E+03  0.00000000000E+00 0.  1.
         11    1    5    5    0    0  0.36543254379E+02 -0.35823616398E+02  0.29462839231E+03  0.29903951326E+03  0.00000000000E+00 0. -1.
        -11    1    5    5    0    0 -0.46074526092E+02 -0.69852712636E+02  0.32180615622E+03  0.33250784291E+03  0.00000000000E+00 0.  1.
          5    1    6    6  503    0 -0.17726478701E+03  0.52661063859E+01  0.10710842606E+03  0.20723137196E+03  0.47000000000E+01 0. -1.
         -5    1    6    6    0  503 -0.33640740137E+03 -0.11496378421E+03  0.23707820649E+03  0.42733450290E+03  0.47000000000E+01 0.  1.
<mgrwt>
<rscale>  0 0.61965081E+03</rscale>
<asrwt>0</asrwt>
<pdfrwt beam="1">  1        1 0.33636008E+00 0.61965081E+03</pdfrwt>
<pdfrwt beam="2">  1       -1 0.35276428E-01 0.61965081E+03</pdfrwt>
<totfact> 0.18158784E+01</totfact>
</mgrwt>
</event>
<event>
12    1  0.3166324E-008  0.1344745E+04  0.7818608E-02  0.8994816E-01
          1   -1    0    0  501    0  0.00000000000E+00  0.00000000000E+00  0.14242851623E+04  0.14242851623E+04  0.00000000000E+00 0. -1.
         -1   -1    0    0    0  501 -0.00000000000E+00 -0.00000000000E+00 -0.12932931062E+04  0.12932931062E+04  0.00000000000E+00 0.  1.
         23    2    1    2    0    0  0.95566797575E+03  0.85507364108E+03 -0.70470654255E+02  0.12875153799E+04  0.90980925285E+02 0.  0.
    5000000    2    1    2    0    0 -0.95566797575E+03 -0.85507364108E+03  0.20146271040E+03  0.14300628887E+04  0.60003369096E+03 0.  0.
         23    2    4    4    0    0 -0.10089315917E+04 -0.76958835864E+03  0.22833054516E+03  0.12926918958E+04  0.93318277878E+02 0.  0.
         23    2    4    4    0    0  0.53263615987E+02 -0.85485282436E+02 -0.26867834758E+02  0.13737099288E+03  0.89465987051E+02 0.  0.
          4    1    3    3  502    0  0.63988913878E+03  0.60727611469E+03 -0.15039675540E+02  0.88230866551E+03  0.00000000000E+00 0. -1.
         -4    1    3    3    0  502  0.31577883697E+03  0.24779752639E+03 -0.55430978715E+02  0.40520671436E+03  0.00000000000E+00 0.  1.
         11    1    5    5    0    0 -0.31716120374E+03 -0.29687077135E+03  0.85030678869E+02  0.44266657925E+03  0.00000000000E+00 0.  1.
        -11    1    5    5    0    0 -0.69177038800E+03 -0.47271758729E+03  0.14329986629E+03  0.85002531652E+03  0.00000000000E+00 0. -1.
          5    1    6    6  503    0 -0.16565189441E+02  0.61860270301E+01  0.22074246326E+01  0.18429193014E+02  0.47000000000E+01 0. -1.
         -5    1    6    6    0  503  0.69828805428E+02 -0.91671309466E+02 -0.29075259391E+02  0.11894179987E+03  0.47000000000E+01 0.  1.
<mgrwt>
<rscale>  0 0.13447451E+04</rscale>
<asrwt>0</asrwt>
<pdfrwt beam="1">  1        1 0.21912079E+00 0.13447451E+04</pdfrwt>
<pdfrwt beam="2">  1       -1 0.19896817E+00 0.13447451E+04</pdfrwt>
<totfact> 0.10891522E+00</totfact>
</mgrwt>
</event>
<event>
12    1  0.3166324E-008  0.9141877E+03  0.7818608E-02  0.9408018E-01
          2   -1    0    0  501    0  0.00000000000E+00  0.00000000000E+00  0.82332918001E+03  0.82332918001E+03  0.00000000000E+00 0. -1.
         -2   -1    0    0    0  501 -0.00000000000E+00 -0.00000000000E+00 -0.12761787724E+04  0.12761787724E+04  0.00000000000E+00 0.  1.
         23    2    1    2    0    0 -0.84815722821E+03 -0.15903957959E+03  0.16045847269E+03  0.88258047804E+03  0.92396467006E+02 0.  0.
    5000000    2    1    2    0    0  0.84815722821E+03  0.15903957959E+03 -0.61330806509E+03  0.12169274744E+04  0.60008451367E+03 0.  0.
         23    2    4    4    0    0  0.75873816061E+03 -0.19540274429E+02 -0.27261532523E+03  0.81170519797E+03  0.92091227420E+02 0.  0.
         23    2    4    4    0    0  0.89419067594E+02  0.17857985402E+03 -0.34069273986E+03  0.40522227640E+03  0.90813084894E+02 0.  0.
          3    1    3    3  502    0 -0.38355518924E+03 -0.26005862244E+02  0.62604982704E+02  0.38950002815E+03  0.00000000000E+00 0. -1.
         -3    1    3    3    0  502 -0.46460203897E+03 -0.13303371735E+03  0.97853489990E+02  0.49308044989E+03  0.00000000000E+00 0.  1.
         11    1    5    5    0    0  0.49544194000E+03 -0.50087317458E+01 -0.22318880065E+03  0.54341608740E+03  0.00000000000E+00 0. -1.
        -11    1    5    5    0    0  0.26329622061E+03 -0.14531542683E+02 -0.49426524585E+02  0.26828911058E+03  0.00000000000E+00 0.  1.
          5    1    6    6  503    0  0.37001320166E+02  0.48531969199E+02 -0.18870204713E+03  0.19838095251E+03  0.47000000000E+01 0. -1.
         -5    1    6    6    0  503  0.52417747428E+02  0.13004788482E+03 -0.15199069273E+03  0.20684132389E+03  0.47000000000E+01 0.  1.
<mgrwt>
<rscale>  0 0.91418767E+03</rscale>
<asrwt>0</asrwt>
<pdfrwt beam="1">  1        2 0.12666603E+00 0.91418767E+03</pdfrwt>
<pdfrwt beam="2">  1       -2 0.19633519E+00 0.91418767E+03</pdfrwt>
<totfact> 0.46674645E+00</totfact>
</mgrwt>
</event>
<event>
12    1  0.3166324E-008  0.1125419E+04  0.7818608E-02  0.9180765E-01
          2   -1    0    0  501    0  0.00000000000E+00  0.00000000000E+00  0.21457144710E+04  0.21457144710E+04  0.00000000000E+00 0.  1.
         -2   -1    0    0    0  501 -0.00000000000E+00 -0.00000000000E+00 -0.65244593188E+03  0.65244593188E+03  0.00000000000E+00 0. -1.
         23    2    1    2    0    0 -0.16539119323E+03  0.10433901032E+04  0.31582794522E+03  0.11061731588E+04  0.88626248326E+02 0.  0.
    5000000    2    1    2    0    0  0.16539119323E+03 -0.10433901032E+04  0.11774405939E+04  0.16919872441E+04  0.60036432923E+03 0.  0.
         23    2    4    4    0    0  0.24225823128E+03 -0.15747541113E+03  0.17947345504E+03  0.35215074707E+03  0.91169467822E+02 0.  0.
         23    2    4    4    0    0 -0.76867038047E+02 -0.88591469209E+03  0.99796713884E+03  0.13398364970E+04  0.92032849552E+02 0.  0.
          4    1    3    3  502    0 -0.22257404879E+02  0.69793448109E+02  0.43195378517E+02  0.85043272492E+02  0.00000000000E+00 0. -1.
         -4    1    3    3    0  502 -0.14313378835E+03  0.97359665511E+03  0.27263256670E+03  0.10211298863E+04  0.00000000000E+00 0.  1.
         11    1    5    5    0    0  0.53252784809E+02  0.43950163778E+01  0.22834161342E+02  0.58108297025E+02  0.00000000000E+00 0. -1.
        -11    1    5    5    0    0  0.18900544647E+03 -0.16187042751E+03  0.15663929369E+03  0.29404245004E+03  0.00000000000E+00 0.  1.
          5    1    6    6  503    0 -0.86451208068E+02 -0.78270618385E+03  0.91327922247E+03  0.12059037316E+04  0.47000000000E+01 0. -1.
         -5    1    6    6    0  503  0.95841700215E+01 -0.10320850824E+03  0.84687916373E+02  0.13393276547E+03  0.47000000000E+01 0.  1.
<mgrwt>
<rscale>  0 0.11254194E+04</rscale>
<asrwt>0</asrwt>
<pdfrwt beam="1">  1        2 0.33010992E+00 0.11254194E+04</pdfrwt>
<pdfrwt beam="2">  1       -2 0.10037630E+00 0.11254194E+04</pdfrwt>
<totfact> 0.44795670E+00</totfact>
</mgrwt>
</event>
<event>
12    1  0.3166324E-008  0.8774598E+03  0.7818608E-02  0.9454205E-01
         -2   -1    0    0    0  501 -0.00000000000E+00  0.00000000000E+00  0.59370362584E+03  0.59370362584E+03  0.00000000000E+00 0.  1.
          2   -1    0    0  501    0  0.00000000000E+00 -0.00000000000E+00 -0.13853759202E+04  0.13853759202E+04  0.00000000000E+00 0. -1.
         23    2    1    2    0    0  0.53894931115E+03 -0.59738293194E+03 -0.33185703433E+03  0.87508236362E+03  0.91144525450E+02 0.  0.
    5000000    2    1    2    0    0 -0.53894931115E+03  0.59738293194E+03 -0.45981525998E+03  0.11039971824E+04  0.60003914708E+03 0.  0.
         23    2    4    4    0    0 -0.31809454742E+02  0.37582427577E+03 -0.15711362057E+02  0.38789938036E+03  0.89237630627E+02 0.  0.
         23    2    4    4    0    0 -0.50713985641E+03  0.22155865617E+03 -0.44410389792E+03  0.71609780202E+03  0.96377994491E+02 0.  0.
          3    1    3    3  502    0  0.32125073622E+03 -0.41773409533E+03 -0.23051985583E+03  0.57518971988E+03  0.00000000000E+00 0. -1.
         -3    1    3    3    0  502  0.21769857493E+03 -0.17964883660E+03 -0.10133717851E+03  0.29989264374E+03  0.00000000000E+00 0.  1.
         11    1    5    5    0    0  0.30044431067E+02  0.14621681423E+03  0.36807299289E+01  0.14931701971E+03  0.00000000000E+00 0. -1.
        -11    1    5    5    0    0 -0.61853885808E+02  0.22960746153E+03 -0.19392091986E+02  0.23858236065E+03  0.00000000000E+00 0.  1.
          5    1    6    6  503    0 -0.12226085010E+03  0.19464123016E+02 -0.13129062460E+03  0.18051561058E+03  0.47000000000E+01 0. -1.
         -5    1    6    6    0  503 -0.38487900630E+03  0.20209453316E+03 -0.31281327332E+03  0.53558219144E+03  0.47000000000E+01 0.  1.
<mgrwt>
<rscale>  0 0.87745979E+03</rscale>
<asrwt>0</asrwt>
<pdfrwt beam="1">  1        2 0.21313476E+00 0.87745979E+03</pdfrwt>
<pdfrwt beam="2">  1       -2 0.91339020E-01 0.87745979E+03</pdfrwt>
<totfact> 0.15180685E+01</totfact>
</mgrwt>
</event>
<event>
12    1  0.3166324E-008  0.5286261E+03  0.7818608E-02  0.1006566E+00
         -2   -1    0    0    0  501 -0.00000000000E+00  0.00000000000E+00  0.52679492248E+03  0.52679492248E+03  0.00000000000E+00 0. -1.
          2   -1    0    0  501    0  0.00000000000E+00 -0.00000000000E+00 -0.74295391105E+03  0.74295391105E+03  0.00000000000E+00 0.  1.
         23    2    1    2    0    0 -0.38505010686E+03  0.25804231840E+03  0.28141981131E+02  0.47315999610E+03  0.90768870936E+02 0.  0.
    5000000    2    1    2    0    0  0.38505010686E+03 -0.25804231840E+03 -0.24430096970E+03  0.79658883743E+03  0.60001782411E+03 0.  0.
         23    2    4    4    0    0  0.13940831333E+03  0.69564045210E+02  0.14114381136E+03  0.22830300715E+03  0.89032878078E+02 0.  0.
         23    2    4    4    0    0  0.24564179353E+03 -0.32760636361E+03 -0.38544478106E+03  0.56828583028E+03  0.81946845250E+02 0.  0.
          4    1    3    3  502    0 -0.26373380478E+03  0.16214744318E+03 -0.22579207550E+02  0.31041445476E+03  0.00000000000E+00 0. -1.
         -4    1    3    3    0  502 -0.12131630208E+03  0.95894875224E+02  0.50721188680E+02  0.16274554134E+03  0.00000000000E+00 0.  1.
         13    1    5    5    0    0  0.10867778592E+03  0.88830283130E+02  0.94470053678E+02  0.16919300043E+03  0.00000000000E+00 0. -1.
        -13    1    5    5    0    0  0.30730527407E+02 -0.19266237919E+02  0.46673757683E+02  0.59110006721E+02  0.00000000000E+00 0.  1.
          5    1    6    6  503    0  0.13667448283E+03 -0.12029176548E+03 -0.14735508622E+03  0.23427683311E+03  0.47000000000E+01 0. -1.
         -5    1    6    6    0  503  0.10896731070E+03 -0.20731459814E+03 -0.23808969484E+03  0.33400899717E+03  0.47000000000E+01 0.  1.
<mgrwt>
<rscale>  0 0.52862607E+03</rscale>
<asrwt>0</asrwt>
<pdfrwt beam="1">  1        2 0.11430060E+00 0.52862607E+03</pdfrwt>
<pdfrwt beam="2">  1       -2 0.81045373E-01 0.52862607E+03</pdfrwt>
<totfact> 0.52672280E+01</totfact>
</mgrwt>
</event>
<event>
12    1  0.3166324E-008  0.3784306E+03  0.7818608E-02  0.1051515E+00
         -2   -1    0    0    0  501 -0.00000000000E+00  0.00000000000E+00  0.54073734416E+03  0.54073734416E+03  0.00000000000E+00 0.  1.
          2   -1    0    0  501    0  0.00000000000E+00 -0.00000000000E+00 -0.41263145854E+03  0.41263145854E+03  0.00000000000E+00 0. -1.
         23    2    1    2    0    0  0.25254395493E+03 -0.38851780866E+02 -0.53181147172E+02  0.27661889939E+03  0.91661720657E+02 0.  0.
    5000000    2    1    2    0    0 -0.25254395493E+03  0.38851780866E+02  0.18128703279E+03  0.67674990331E+03  0.59986459582E+03 0.  0.
         23    2    4    4    0    0  0.10081685857E+03  0.82529156298E+02 -0.12161361183E+03  0.20038648584E+03  0.91595701387E+02 0.  0.
         23    2    4    4    0    0 -0.35336081350E+03 -0.43677375432E+02  0.30290064462E+03  0.47636341747E+03  0.91660936882E+02 0.  0.
          4    1    3    3  502    0  0.10491135421E+03 -0.53425355535E+02  0.35668064160E+01  0.11778532576E+03  0.00000000000E+00 0.  1.
         -4    1    3    3    0  502  0.14763260072E+03  0.14573574669E+02 -0.56747953587E+02  0.15883357363E+03  0.00000000000E+00 0. -1.
         13    1    5    5    0    0  0.76719947357E+02  0.65010419083E+02 -0.31349998492E+02  0.10533341026E+03  0.00000000000E+00 0. -1.
        -13    1    5    5    0    0  0.24096911214E+02  0.17518737215E+02 -0.90263613338E+02  0.95053075576E+02  0.00000000000E+00 0.  1.
          5    1    6    6  503    0 -0.15138024017E+03  0.87345452792E+01  0.17486363791E+03  0.23149870682E+03  0.47000000000E+01 0. -1.
         -5    1    6    6    0  503 -0.20198057333E+03 -0.52411920711E+02  0.12803700671E+03  0.24486471066E+03  0.47000000000E+01 0.  1.
<mgrwt>
<rscale>  0 0.37843063E+03</rscale>
<asrwt>0</asrwt>
<pdfrwt beam="1">  1        2 0.63481763E-01 0.37843063E+03</pdfrwt>
<pdfrwt beam="2">  1       -2 0.83190361E-01 0.37843063E+03</pdfrwt>
<totfact> 0.10061462E+02</totfact>
</mgrwt>
</event>
<event>
12    1  0.3166324E-008  0.4523481E+03  0.7818608E-02  0.1027024E+00
         -1   -1    0    0    0  501 -0.00000000000E+00  0.00000000000E+00  0.34669978156E+03  0.34669978156E+03  0.00000000000E+00 0.  1.
          1   -1    0    0  501    0  0.00000000000E+00 -0.00000000000E+00 -0.10950190681E+04  0.10950190681E+04  0.00000000000E+00 0. -1.
         23    2    1    2    0    0 -0.40587109156E+03  0.67536473465E+02 -0.54189649063E+03  0.68556219228E+03  0.83971392222E+02 0.  0.
    5000000    2    1    2    0    0  0.40587109156E+03 -0.67536473465E+02 -0.20642279593E+03  0.75615665739E+03  0.59989165824E+03 0.  0.
         23    2    4    4    0    0  0.22916713335E+03 -0.15715329108E+03  0.15993349637E+03  0.33024074382E+03  0.79154871711E+02 0.  0.
         23    2    4    4    0    0  0.17670395822E+03  0.89616817617E+02 -0.36635629229E+03  0.42591591357E+03  0.89061606111E+02 0.  0.
          1    1    3    3  502    0 -0.31869860031E+03  0.24157495950E+02 -0.37891788559E+03  0.49571276609E+03  0.00000000000E+00 0. -1.
         -1    1    3    3    0  502 -0.87172491253E+02  0.43378977514E+02 -0.16297860505E+03  0.18984942619E+03  0.00000000000E+00 0.  1.
         11    1    5    5    0    0  0.23202011661E+03 -0.14244315955E+03  0.14264138734E+03  0.30735964861E+03  0.00000000000E+00 0.  1.
        -11    1    5    5    0    0 -0.28529832645E+01 -0.14710131536E+02  0.17292109027E+02  0.22881095208E+02  0.00000000000E+00 0. -1.
          5    1    6    6  503    0  0.96664736775E+02  0.32722212954E+02 -0.10417762901E+03  0.14591053061E+03  0.47000000000E+01 0. -1.
         -5    1    6    6    0  503  0.80039221441E+02  0.56894604662E+02 -0.26217866328E+03  0.28000538296E+03  0.47000000000E+01 0.  1.
<mgrwt>
<rscale>  0 0.45234813E+03</rscale>
<asrwt>0</asrwt>
<pdfrwt beam="1">  1        1 0.16846447E+00 0.45234813E+03</pdfrwt>
<pdfrwt beam="2">  1       -1 0.53338430E-01 0.45234813E+03</pdfrwt>
<totfact> 0.48335121E+01</totfact>
</mgrwt>
</event>
<event>
12    1  0.3166324E-008  0.2111141E+04  0.7818608E-02  0.8556351E-01
         -1   -1    0    0    0  501 -0.00000000000E+00  0.00000000000E+00  0.30628993330E+04  0.30628993330E+04  0.00000000000E+00 0.  1.
          1   -1    0    0  501    0  0.00000000000E+00 -0.00000000000E+00 -0.15041781131E+04  0.15041781131E+04  0.00000000000E+00 0. -1.
         23    2    1    2    0    0  0.20154026238E+04  0.56206549959E+03  0.53529928701E+03  0.21618734745E+04  0.96882564632E+02 0.  0.
    5000000    2    1    2    0    0 -0.20154026238E+04 -0.56206549959E+03  0.10234219329E+04  0.24052039716E+04  0.59987359535E+03 0.  0.
         23    2    4    4    0    0 -0.19257109391E+04 -0.56777517374E+03  0.82568219203E+03  0.21727233069E+04  0.90797671377E+02 0.  0.
         23    2    4    4    0    0 -0.89691684731E+02  0.57096741421E+01  0.19773974086E+03  0.23248066475E+03  0.82879766383E+02 0.  0.
          1    1    3    3  502    0  0.14478019357E+04  0.43452776716E+03  0.41913638854E+03  0.15686363943E+04  0.00000000000E+00 0. -1.
         -1    1    3    3    0  502  0.56760068811E+03  0.12753773244E+03  0.11616289847E+03  0.59323708019E+03  0.00000000000E+00 0.  1.
         13    1    5    5    0    0 -0.12901573100E+04 -0.42341519692E+03  0.54691635158E+03  0.14638660489E+04  0.00000000000E+00 0. -1.
        -13    1    5    5    0    0 -0.63555362908E+03 -0.14435997682E+03  0.27876584045E+03  0.70885725795E+03  0.00000000000E+00 0.  1.
          5    1    6    6  503    0  0.95137842895E+01 -0.14502197195E+02  0.51561430578E+02  0.54603085428E+02  0.47000000000E+01 0. -1.
         -5    1    6    6    0  503 -0.99205469021E+02  0.20211871337E+02  0.14617831028E+03  0.17787757932E+03  0.47000000000E+01 0.  1.
<mgrwt>
<rscale>  0 0.21111410E+04</rscale>
<asrwt>0</asrwt>
<pdfrwt beam="1">  1        1 0.23141202E+00 0.21111410E+04</pdfrwt>
<pdfrwt beam="2">  1       -1 0.47121528E+00 0.21111410E+04</pdfrwt>
<totfact> 0.13228703E-02</totfact>
</mgrwt>
</event>
<event>
12    1  0.3793193E-008  0.9665336E+03  0.7818608E-02  0.9346031E-01
         -2   -1    0    0    0  501 -0.00000000000E+00  0.00000000000E+00  0.57757883579E+03  0.57757883579E+03  0.00000000000E+00 0.  1.
          2   -1    0    0  501    0  0.00000000000E+00 -0.00000000000E+00 -0.18427004500E+04  0.18427004500E+04  0.00000000000E+00 0. -1.
         23    2    1    2    0    0  0.58593108474E+03 -0.72566069746E+03 -0.73171253867E+03  0.11889453109E+04  0.91044106270E+02 0.  0.
    5000000    2    1    2    0    0 -0.58593108474E+03  0.72566069746E+03 -0.53340907553E+03  0.12313339748E+04  0.60146440609E+03 0.  0.
         23    2    4    4    0    0 -0.26174353886E+03  0.10578846678E+03  0.68198041271E+02  0.30426484243E+03  0.90693118113E+02 0.  0.
         23    2    4    4    0    0 -0.32418754588E+03  0.61987223068E+03 -0.60160711680E+03  0.92706913239E+03  0.90481522762E+02 0.  0.
          3    1    3    3  502    0  0.34817739114E+03 -0.35963258345E+03 -0.39895760539E+03  0.64010175885E+03  0.00000000000E+00 0. -1.
         -3    1    3    3    0  502  0.23775369360E+03 -0.36602811401E+03 -0.33275493328E+03  0.54884355210E+03  0.00000000000E+00 0.  1.
         13    1    5    5    0    0 -0.14361683786E+03  0.15902240609E+02  0.10044965882E+02  0.14484329019E+03  0.00000000000E+00 0. -1.
        -13    1    5    5    0    0 -0.11812670099E+03  0.89886226168E+02  0.58153075389E+02  0.15942155224E+03  0.00000000000E+00 0.  1.
          5    1    6    6  503    0 -0.86884532870E+02  0.10652889990E+03 -0.14825695992E+03  0.20223635858E+03  0.47000000000E+01 0. -1.
         -5    1    6    6    0  503 -0.23730301301E+03  0.51334333078E+03 -0.45335015688E+03  0.72483277380E+03  0.47000000000E+01 0.  1.
<mgrwt>
<rscale>  0 0.96653357E+03</rscale>
<asrwt>0</asrwt>
<pdfrwt beam="1">  1        2 0.28349237E+00 0.96653357E+03</pdfrwt>
<pdfrwt beam="2">  1       -2 0.88858283E-01 0.96653357E+03</pdfrwt>
<totfact> 0.89215167E+00</totfact>
</mgrwt>
</event>
<event>
12    1  0.3166324E-008  0.1150036E+04  0.7818608E-02  0.9157751E-01
         -1   -1    0    0    0  501 -0.00000000000E+00  0.00000000000E+00  0.17110820243E+04  0.17110820243E+04  0.00000000000E+00 0.  1.
          1   -1    0    0  501    0  0.00000000000E+00 -0.00000000000E+00 -0.11074795450E+04  0.11074795450E+04  0.00000000000E+00 0. -1.
         23    2    1    2    0    0 -0.29666218661E+03  0.10780142117E+04 -0.41004285559E+03  0.11944717114E+04  0.92219479605E+02 0.  0.
    5000000    2    1    2    0    0  0.29666218661E+03 -0.10780142117E+04  0.10136453349E+04  0.16240898579E+04  0.60005658729E+03 0.  0.
         23    2    4    4    0    0  0.37659014377E+03 -0.77783516058E+03  0.45878731504E+03  0.98244469779E+03  0.88679819281E+02 0.  0.
         23    2    4    4    0    0 -0.79927957156E+02 -0.30017905107E+03  0.55485801986E+03  0.64164516007E+03  0.85703840084E+02 0.  0.
          3    1    3    3  502    0 -0.16476526073E+03  0.67723432099E+03 -0.29726418775E+03  0.75773340561E+03  0.00000000000E+00 0. -1.
         -3    1    3    3    0  502 -0.13189692588E+03  0.40077989066E+03 -0.11277866784E+03  0.43673830578E+03  0.00000000000E+00 0.  1.
         11    1    5    5    0    0  0.18513878277E+03 -0.46187554498E+03  0.23275072848E+03  0.54934350779E+03  0.00000000000E+00 0.  1.
        -11    1    5    5    0    0  0.19145136100E+03 -0.31595961560E+03  0.22603658655E+03  0.43310119000E+03  0.00000000000E+00 0. -1.
          5    1    6    6  503    0 -0.45684776705E+02 -0.89210019788E+02  0.11521984202E+03  0.15278490910E+03  0.47000000000E+01 0. -1.
         -5    1    6    6    0  503 -0.34243180451E+02 -0.21096903128E+03  0.43963817784E+03  0.48886025097E+03  0.47000000000E+01 0.  1.
<mgrwt>
<rscale>  0 0.11500357E+04</rscale>
<asrwt>0</asrwt>
<pdfrwt beam="1">  1        1 0.17038147E+00 0.11500357E+04</pdfrwt>
<pdfrwt beam="2">  1       -1 0.26324339E+00 0.11500357E+04</pdfrwt>
<totfact> 0.70729247E-01</totfact>
</mgrwt>
</event>
<event>
12    1  0.3166324E-008  0.9268767E+03  0.7818608E-02  0.9392594E-01
         -1   -1    0    0    0  501 -0.00000000000E+00  0.00000000000E+00  0.11951553267E+04  0.11951553267E+04  0.00000000000E+00 0.  1.
          1   -1    0    0  501    0  0.00000000000E+00 -0.00000000000E+00 -0.86721844921E+03  0.86721844921E+03  0.00000000000E+00 0. -1.
         23    2    1    2    0    0 -0.66662949636E+02  0.88018030588E+03 -0.13749034546E+03  0.89788521821E+03  0.90182871229E+02 0.  0.
    5000000    2    1    2    0    0  0.66662949636E+02 -0.88018030588E+03  0.46542722297E+03  0.11644885577E+04  0.60020811513E+03 0.  0.
         23    2    4    4    0    0  0.17173208315E+03 -0.21527409741E+03 -0.69292812261E+02  0.29969167978E+03  0.95805864651E+02 0.  0.
         23    2    4    4    0    0 -0.10506913352E+03 -0.66490620847E+03  0.53472003523E+03  0.86479687794E+03  0.93852731064E+02 0.  0.
          2    1    3    3  502    0 -0.71854564902E+02  0.36471814066E+03 -0.51704029679E+02  0.37530748368E+03  0.00000000000E+00 0. -1.
         -2    1    3    3    0  502  0.51916152658E+01  0.51546216522E+03 -0.85786315781E+02  0.52257773453E+03  0.00000000000E+00 0.  1.
         13    1    5    5    0    0  0.14311148398E+03 -0.22009167838E+03 -0.63419633977E+02  0.27008016165E+03  0.00000000000E+00 0. -1.
        -13    1    5    5    0    0  0.28620599168E+02  0.48175809742E+01 -0.58731782836E+01  0.29611518136E+02  0.00000000000E+00 0.  1.
          5    1    6    6  503    0 -0.42013951674E+02 -0.13889419685E+03  0.75328415108E+02  0.16356414698E+03  0.47000000000E+01 0. -1.
         -5    1    6    6    0  503 -0.63055181842E+02 -0.52601201162E+03  0.45939162012E+03  0.70123273096E+03  0.47000000000E+01 0.  1.
<mgrwt>
<rscale>  0 0.92687668E+03</rscale>
<asrwt>0</asrwt>
<pdfrwt beam="1">  1        1 0.13341822E+00 0.92687668E+03</pdfrwt>
<pdfrwt beam="2">  1       -1 0.18387005E+00 0.92687668E+03</pdfrwt>
<totfact> 0.38286521E+00</totfact>
</mgrwt>
</event>
<event>
12    1  0.3166324E-008  0.7108827E+03  0.7818608E-02  0.9698800E-01
          2   -1    0    0  501    0  0.00000000000E+00  0.00000000000E+00  0.72644632522E+03  0.72644632522E+03  0.00000000000E+00 0. -1.
         -2   -1    0    0    0  501 -0.00000000000E+00 -0.00000000000E+00 -0.87764656522E+03  0.87764656522E+03  0.00000000000E+00 0.  1.
         23    2    1    2    0    0 -0.45334561592E+03 -0.47885259789E+03  0.11108532718E+03  0.67480070133E+03  0.90520597753E+02 0.  0.
    5000000    2    1    2    0    0  0.45334561592E+03  0.47885259789E+03 -0.26228556719E+03  0.92929218911E+03  0.59997349609E+03 0.  0.
         23    2    4    4    0    0  0.16469885205E+03  0.43320643206E+03 -0.37546461508E+03  0.60263296982E+03  0.86019151953E+02 0.  0.
         23    2    4    4    0    0  0.28864676387E+03  0.45646165834E+02  0.11317904789E+03  0.32665921929E+03  0.92174952768E+02 0.  0.
          2    1    3    3  502    0 -0.29074840658E+03 -0.36561679759E+03  0.87588935828E+02  0.47527055483E+03  0.00000000000E+00 0. -1.
         -2    1    3    3    0  502 -0.16259720934E+03 -0.11323580030E+03  0.23496391353E+02  0.19953014650E+03  0.00000000000E+00 0.  1.
         11    1    5    5    0    0  0.11280811540E+03  0.26842642626E+03 -0.18250209674E+03  0.34363561010E+03  0.00000000000E+00 0. -1.
        -11    1    5    5    0    0  0.51890736652E+02  0.16478000579E+03 -0.19296251834E+03  0.25899735972E+03  0.00000000000E+00 0.  1.
          5    1    6    6  503    0  0.24295939968E+03  0.36335653724E+02  0.54702997349E+02  0.25172218326E+03  0.47000000000E+01 0. -1.
         -5    1    6    6    0  503  0.45687364186E+02  0.93105121093E+01  0.58476050541E+02  0.74937036029E+02  0.47000000000E+01 0.  1.
<mgrwt>
<rscale>  0 0.71088273E+03</rscale>
<asrwt>0</asrwt>
<pdfrwt beam="1">  1        2 0.11176097E+00 0.71088273E+03</pdfrwt>
<pdfrwt beam="2">  1       -2 0.13502255E+00 0.71088273E+03</pdfrwt>
<totfact> 0.15697976E+01</totfact>
</mgrwt>
</event>
<event>
12    1  0.3166324E-008  0.1251515E+04  0.7818608E-02  0.9068923E-01
         -1   -1    0    0    0  501 -0.00000000000E+00  0.00000000000E+00  0.22905002253E+04  0.22905002253E+04  0.00000000000E+00 0.  1.
          1   -1    0    0  501    0  0.00000000000E+00 -0.00000000000E+00 -0.98508866119E+03  0.98508866119E+03  0.00000000000E+00 0. -1.
         23    2    1    2    0    0  0.73741438999E+03  0.93201981700E+03 -0.26049349017E+03  0.12202143426E+04  0.92872287115E+02 0.  0.
    5000000    2    1    2    0    0 -0.73741438999E+03 -0.93201981700E+03  0.15659050542E+04  0.20553745438E+04  0.60005412641E+03 0.  0.
         23    2    4    4    0    0 -0.63783253582E+03 -0.98037348148E+03  0.12945098934E+04  0.17472842392E+04  0.96352692471E+02 0.  0.
         23    2    4    4    0    0 -0.99581854169E+02  0.48353664478E+02  0.27139516081E+03  0.30809030464E+03  0.94919333926E+02 0.  0.
          1    1    3    3  502    0  0.39403549379E+03  0.42829702281E+03 -0.10999391002E+03  0.59228453497E+03  0.00000000000E+00 0. -1.
         -1    1    3    3    0  502  0.34337889620E+03  0.50372279419E+03 -0.15049958015E+03  0.62792980767E+03  0.00000000000E+00 0.  1.
         13    1    5    5    0    0 -0.30387517378E+03 -0.48341479654E+03  0.70246673511E+03  0.90525659384E+03  0.00000000000E+00 0.  1.
        -13    1    5    5    0    0 -0.33395736204E+03 -0.49695868494E+03  0.59204315831E+03  0.84202764533E+03  0.00000000000E+00 0. -1.
          5    1    6    6  503    0  0.76850683754E+01  0.31795800327E+02  0.98503453230E+02  0.10389924683E+03  0.47000000000E+01 0. -1.
         -5    1    6    6    0  503 -0.10726692254E+03  0.16557864150E+02  0.17289170758E+03  0.20419105780E+03  0.47000000000E+01 0.  1.
<mgrwt>
<rscale>  0 0.12515152E+04</rscale>
<asrwt>0</asrwt>
<pdfrwt beam="1">  1        1 0.15155210E+00 0.12515152E+04</pdfrwt>
<pdfrwt beam="2">  1       -1 0.35238465E+00 0.12515152E+04</pdfrwt>
<totfact> 0.22875736E-01</totfact>
</mgrwt>
</event>
<event>
12    1  0.3166324E-008  0.7226582E+03  0.7818608E-02  0.9679250E-01
          2   -1    0    0  501    0  0.00000000000E+00  0.00000000000E+00  0.85498616998E+03  0.85498616998E+03  0.00000000000E+00 0. -1.
         -2   -1    0    0    0  501 -0.00000000000E+00 -0.00000000000E+00 -0.10498149474E+04  0.10498149474E+04  0.00000000000E+00 0.  1.
         23    2    1    2    0    0 -0.52337514184E+03 -0.32074559409E+03  0.50266231672E+03  0.79871293163E+03  0.92052524605E+02 0.  0.
    5000000    2    1    2    0    0  0.52337514184E+03  0.32074559409E+03 -0.69749109419E+03  0.11060881858E+04  0.60011496653E+03 0.  0.
         23    2    4    4    0    0 -0.10287934530E+03  0.10030901001E+03 -0.57361738611E+02  0.17941560341E+03  0.90848954381E+02 0.  0.
         23    2    4    4    0    0  0.62625448714E+03  0.22043658408E+03 -0.64012935557E+03  0.92667258238E+03  0.90385357224E+02 0.  0.
          3    1    3    3  502    0 -0.31622418876E+03 -0.19173704079E+03  0.24374290341E+03  0.44291244432E+03  0.00000000000E+00 0. -1.
         -3    1    3    3    0  502 -0.20715095308E+03 -0.12900855330E+03  0.25891941331E+03  0.35580048732E+03  0.00000000000E+00 0.  1.
         13    1    5    5    0    0 -0.95524557341E+02  0.44937492412E+02 -0.97434725378E+01  0.10601535048E+03  0.00000000000E+00 0.  1.
        -13    1    5    5    0    0 -0.73547879610E+01  0.55371517602E+02 -0.47618266074E+02  0.73400252938E+02  0.00000000000E+00 0. -1.
          5    1    6    6  503    0  0.19784965961E+03  0.11475530167E+03 -0.21911483195E+03  0.31677541990E+03  0.47000000000E+01 0. -1.
         -5    1    6    6    0  503  0.42840482753E+03  0.10568128241E+03 -0.42101452363E+03  0.60989716248E+03  0.47000000000E+01 0.  1.
<mgrwt>
<rscale>  0 0.72265818E+03</rscale>
<asrwt>0</asrwt>
<pdfrwt beam="1">  1        2 0.13153633E+00 0.72265818E+03</pdfrwt>
<pdfrwt beam="2">  1       -2 0.16150999E+00 0.72265818E+03</pdfrwt>
<totfact> 0.78932572E+00</totfact>
</mgrwt>
</event>
<event>
12    1  0.3166324E-008  0.4969182E+03  0.7818608E-02  0.1014586E+00
          1   -1    0    0  501    0  0.00000000000E+00  0.00000000000E+00  0.86268665778E+02  0.86268665778E+02  0.00000000000E+00 0. -1.
         -1   -1    0    0    0  501 -0.00000000000E+00 -0.00000000000E+00 -0.34648489291E+04  0.34648489291E+04  0.00000000000E+00 0.  1.
         23    2    1    2    0    0  0.78811858955E+02 -0.31897000392E+03 -0.17793865593E+04  0.18117113624E+04  0.90157420551E+02 0.  0.
    5000000    2    1    2    0    0 -0.78811858955E+02  0.31897000392E+03 -0.15991937039E+04  0.17394062325E+04  0.60013362370E+03 0.  0.
         23    2    4    4    0    0 -0.84025650830E+02  0.48095467171E+03 -0.11519783373E+04  0.12544540829E+04  0.90682139069E+02 0.  0.
         23    2    4    4    0    0  0.52137918753E+01 -0.16198466779E+03 -0.44721536667E+03  0.48495214955E+03  0.94396964715E+02 0.  0.
          2    1    3    3  502    0  0.10353699077E+02 -0.14233548584E+03 -0.97060633377E+03  0.98104191794E+03  0.00000000000E+00 0. -1.
         -2    1    3    3    0  502  0.68458159877E+02 -0.17663451808E+03 -0.80878022557E+03  0.83066944443E+03  0.00000000000E+00 0.  1.
         11    1    5    5    0    0 -0.71795586748E+02  0.31787070316E+03 -0.66119996511E+03  0.73714434412E+03  0.00000000000E+00 0.  1.
        -11    1    5    5    0    0 -0.12230064082E+02  0.16308396855E+03 -0.49077837217E+03  0.51730973879E+03  0.00000000000E+00 0. -1.
          5    1    6    6  503    0  0.31503336180E+02 -0.83884892370E+02 -0.13566650394E+03  0.16265492814E+03  0.47000000000E+01 0. -1.
         -5    1    6    6    0  503 -0.26289544305E+02 -0.78099775421E+02 -0.31154886273E+03  0.32229722141E+03  0.47000000000E+01 0.  1.
<mgrwt>
<rscale>  0 0.49691820E+03</rscale>
<asrwt>0</asrwt>
<pdfrwt beam="1">  1        1 0.13272103E-01 0.49691820E+03</pdfrwt>
<pdfrwt beam="2">  1       -1 0.53305367E+00 0.49691820E+03</pdfrwt>
<totfact> 0.46382469E-01</totfact>
</mgrwt>
</event>
<event>
12    1  0.3166324E-008  0.7208532E+03  0.7818608E-02  0.9682220E-01
         -1   -1    0    0    0  501 -0.00000000000E+00  0.00000000000E+00  0.10937206307E+04  0.10937206307E+04  0.00000000000E+00 0.  1.
          1   -1    0    0  501    0  0.00000000000E+00 -0.00000000000E+00 -0.69445678137E+03  0.69445678137E+03  0.00000000000E+00 0. -1.
         23    2    1    2    0    0  0.27467400181E+03 -0.59319791819E+03 -0.23033045048E+03  0.70014338337E+03  0.99091187552E+02 0.  0.
    5000000    2    1    2    0    0 -0.27467400181E+03  0.59319791819E+03  0.62959429982E+03  0.10880340287E+04  0.60008290083E+03 0.  0.
         23    2    4    4    0    0 -0.65619710127E+02  0.53695374706E+03  0.17375478890E+03  0.57522094932E+03  0.89794994466E+02 0.  0.
         23    2    4    4    0    0 -0.20905429168E+03  0.56244171124E+02  0.45583951093E+03  0.51281307940E+03  0.91216725561E+02 0.  0.
          2    1    3    3  502    0  0.20338127810E+03 -0.32279753094E+03 -0.13154546738E+03  0.40356709511E+03  0.00000000000E+00 0. -1.
         -2    1    3    3    0  502  0.71292723709E+02 -0.27040038724E+03 -0.98784983099E+02  0.29657628826E+03  0.00000000000E+00 0.  1.
         13    1    5    5    0    0  0.10081370189E+02  0.26070611084E+03  0.10033339601E+03  0.27952835386E+03  0.00000000000E+00 0.  1.
        -13    1    5    5    0    0 -0.75701080316E+02  0.27624763622E+03  0.73421392885E+02  0.29569259546E+03  0.00000000000E+00 0. -1.
          5    1    6    6  503    0 -0.21096152969E+03  0.38175741634E+02  0.39926654352E+03  0.45320858005E+03  0.47000000000E+01 0. -1.
         -5    1    6    6    0  503  0.19072380051E+01  0.18068429490E+02  0.56572967408E+02  0.59604499347E+02  0.47000000000E+01 0.  1.
<mgrwt>
<rscale>  0 0.72085322E+03</rscale>
<asrwt>0</asrwt>
<pdfrwt beam="1">  1        1 0.10683950E+00 0.72085322E+03</pdfrwt>
<pdfrwt beam="2">  1       -1 0.16826471E+00 0.72085322E+03</pdfrwt>
<totfact> 0.72482758E+00</totfact>
</mgrwt>
</event>
<event>
12    1  0.3166324E-008  0.1397518E+04  0.7818608E-02  0.8955617E-01
          1   -1    0    0  501    0  0.00000000000E+00  0.00000000000E+00  0.12847479820E+04  0.12847479820E+04  0.00000000000E+00 0. -1.
         -1   -1    0    0    0  501 -0.00000000000E+00 -0.00000000000E+00 -0.16432150377E+04  0.16432150377E+04  0.00000000000E+00 0.  1.
         23    2    1    2    0    0 -0.13781816492E+04  0.16451356359E+03 -0.10281130088E+03  0.13944692457E+04  0.86746427819E+02 0.  0.
    5000000    2    1    2    0    0  0.13781816492E+04 -0.16451356359E+03 -0.25565575487E+03  0.15334937740E+04  0.59982824146E+03 0.  0.
         23    2    4    4    0    0  0.29256668489E+03 -0.10745133607E+02 -0.30430644136E+03  0.43215751245E+03  0.91907466033E+02 0.  0.
         23    2    4    4    0    0  0.10856149643E+04 -0.15376842998E+03  0.48650686492E+02  0.11013362616E+04  0.91488201504E+02 0.  0.
          1    1    3    3  502    0 -0.73250182783E+03  0.10111364484E+03 -0.13543160511E+02  0.73957170994E+03  0.00000000000E+00 0. -1.
         -1    1    3    3    0  502 -0.64567982135E+03  0.63399918744E+02 -0.89268140374E+02  0.65489753572E+03  0.00000000000E+00 0.  1.
         13    1    5    5    0    0  0.24701756629E+03 -0.43346231142E+02 -0.25159576329E+03  0.35524217362E+03  0.00000000000E+00 0.  1.
        -13    1    5    5    0    0  0.45549118598E+02  0.32601097535E+02 -0.52710678066E+02  0.76915338833E+02  0.00000000000E+00 0. -1.
          5    1    6    6  503    0  0.55634365450E+03 -0.34486699810E+02  0.12605940312E+02  0.55757384632E+03  0.47000000000E+01 0. -1.
         -5    1    6    6    0  503  0.52927130980E+03 -0.11928173017E+03  0.36044746180E+02  0.54376241526E+03  0.47000000000E+01 0.  1.
<mgrwt>
<rscale>  0 0.13975181E+04</rscale>
<asrwt>0</asrwt>
<pdfrwt beam="1">  1        1 0.19765353E+00 0.13975181E+04</pdfrwt>
<pdfrwt beam="2">  1       -1 0.25280231E+00 0.13975181E+04</pdfrwt>
<totfact> 0.59414576E-01</totfact>
</mgrwt>
</event>
<event>
12    1  0.3166324E-008  0.1065396E+04  0.7818608E-02  0.9239591E-01
         -2   -1    0    0    0  501 -0.00000000000E+00  0.00000000000E+00  0.83439127684E+03  0.83439127684E+03  0.00000000000E+00 0.  1.
          2   -1    0    0  501    0  0.00000000000E+00 -0.00000000000E+00 -0.14644202837E+04  0.14644202837E+04  0.00000000000E+00 0. -1.
         23    2    1    2    0    0  0.98336612184E+03  0.36063146731E+02 -0.39404146836E+01  0.98724210912E+03  0.79510848321E+02 0.  0.
    5000000    2    1    2    0    0 -0.98336612184E+03 -0.36063146731E+02 -0.62608859213E+03  0.13115694514E+04  0.59993167983E+03 0.  0.
         23    2    4    4    0    0 -0.20062494590E+03 -0.24962582432E+03 -0.13716078050E+03  0.36021614293E+03  0.91537800008E+02 0.  0.
         23    2    4    4    0    0 -0.78274117594E+03  0.21356267759E+03 -0.48892781162E+03  0.95135330845E+03  0.87920115728E+02 0.  0.
          3    1    3    3  502    0  0.24829979605E+03 -0.15817490196E+02 -0.24925026234E+02  0.25004847260E+03  0.00000000000E+00 0. -1.
         -3    1    3    3    0  502  0.73506632579E+03  0.51880636927E+02  0.20984611550E+02  0.73719363652E+03  0.00000000000E+00 0.  1.
         11    1    5    5    0    0 -0.23544748860E+02 -0.95364996682E+02 -0.41203780483E+02  0.10652037043E+03  0.00000000000E+00 0.  1.
        -11    1    5    5    0    0 -0.17708019704E+03 -0.15426082764E+03 -0.95957000021E+02  0.25369577249E+03  0.00000000000E+00 0. -1.
          5    1    6    6  503    0 -0.74666053801E+03  0.20880676414E+03 -0.48482767247E+03  0.91442997860E+03  0.47000000000E+01 0. -1.
         -5    1    6    6    0  503 -0.36080637931E+02  0.47559134509E+01 -0.41001391567E+01  0.36923329852E+02  0.47000000000E+01 0.  1.
<mgrwt>
<rscale>  0 0.10653960E+04</rscale>
<asrwt>0</asrwt>
<pdfrwt beam="1">  1        2 0.22529543E+00 0.10653960E+04</pdfrwt>
<pdfrwt beam="2">  1       -2 0.12836789E+00 0.10653960E+04</pdfrwt>
<totfact> 0.58823175E+00</totfact>
</mgrwt>
</event>
<event>
12    1  0.3166324E-008  0.7105405E+03  0.7818608E-02  0.9699374E-01
          2   -1    0    0  501    0  0.00000000000E+00  0.00000000000E+00  0.13779516820E+04  0.13779516820E+04  0.00000000000E+00 0. -1.
         -2   -1    0    0    0  501 -0.00000000000E+00 -0.00000000000E+00 -0.40260634329E+03  0.40260634329E+03  0.00000000000E+00 0.  1.
         23    2    1    2    0    0  0.23065374081E+03 -0.55030777717E+03  0.61309432996E+03  0.86016580368E+03  0.89223061004E+02 0.  0.
    5000000    2    1    2    0    0 -0.23065374081E+03  0.55030777717E+03  0.36225100874E+03  0.92039222161E+03  0.59988019679E+03 0.  0.
         23    2    4    4    0    0  0.17227419933E+03  0.58050338182E+02  0.96039572806E+02  0.22501919433E+03  0.91442860604E+02 0.  0.
         23    2    4    4    0    0 -0.40292794015E+03  0.49225743899E+03  0.26621143593E+03  0.69537302727E+03  0.89480764677E+02 0.  0.
          4    1    3    3  502    0  0.15240218297E+03 -0.27458922519E+03  0.36079937419E+03  0.47833237020E+03  0.00000000000E+00 0. -1.
         -4    1    3    3    0  502  0.78251557844E+02 -0.27571855199E+03  0.25229495577E+03  0.38183343348E+03  0.00000000000E+00 0.  1.
         11    1    5    5    0    0  0.10116280221E+03  0.44939025911E+02  0.78478110312E+01  0.11097304510E+03  0.00000000000E+00 0. -1.
        -11    1    5    5    0    0  0.71111397122E+02  0.13111312271E+02  0.88191761775E+02  0.11404614923E+03  0.00000000000E+00 0.  1.
          5    1    6    6  503    0 -0.16319568181E+02  0.11639603785E+02 -0.55573317504E+01  0.21325632888E+02  0.47000000000E+01 0. -1.
         -5    1    6    6    0  503 -0.38660837196E+03  0.48061783521E+03  0.27176876768E+03  0.67404739439E+03  0.47000000000E+01 0.  1.
<mgrwt>
<rscale>  0 0.71054049E+03</rscale>
<asrwt>0</asrwt>
<pdfrwt beam="1">  1        2 0.21199256E+00 0.71054049E+03</pdfrwt>
<pdfrwt beam="2">  1       -2 0.61939438E-01 0.71054049E+03</pdfrwt>
<totfact> 0.36976744E+01</totfact>
</mgrwt>
</event>
<event>
12    1  0.3166324E-008  0.1361118E+04  0.7818608E-02  0.8982455E-01
         -1   -1    0    0    0  501 -0.00000000000E+00  0.00000000000E+00  0.68103453921E+03  0.68103453921E+03  0.00000000000E+00 0.  1.
          1   -1    0    0  501    0  0.00000000000E+00 -0.00000000000E+00 -0.28571521627E+04  0.28571521627E+04  0.00000000000E+00 0. -1.
         23    2    1    2    0    0 -0.11769802428E+04  0.59714013461E+03 -0.12337379071E+04  0.18093118233E+04  0.98189705059E+02 0.  0.
    5000000    2    1    2    0    0  0.11769802428E+04 -0.59714013461E+03 -0.94237971637E+03  0.17288748786E+04  0.59922448538E+03 0.  0.
         23    2    4    4    0    0  0.67631872861E+03 -0.95363253323E+02 -0.67834640526E+03  0.96696756737E+03  0.91494579432E+02 0.  0.
         23    2    4    4    0    0  0.50066151415E+03 -0.50177688129E+03 -0.26403331111E+03  0.76190731125E+03  0.91362854634E+02 0.  0.
          1    1    3    3  502    0 -0.54667419134E+03  0.22351391304E+03 -0.56262334475E+03  0.81569367342E+03  0.00000000000E+00 0. -1.
         -1    1    3    3    0  502 -0.63030605142E+03  0.37362622158E+03 -0.67111456236E+03  0.99361814985E+03  0.00000000000E+00 0.  1.
         13    1    5    5    0    0  0.17772830600E+03 -0.59718573514E+02 -0.15509160857E+03  0.24332502096E+03  0.00000000000E+00 0.  1.
        -13    1    5    5    0    0  0.49859042261E+03 -0.35644679809E+02 -0.52325479669E+03  0.72364254641E+03  0.00000000000E+00 0. -1.
          5    1    6    6  503    0  0.97085447303E+02 -0.13383545583E+03 -0.92187537490E+02  0.18936247089E+03  0.47000000000E+01 0. -1.
         -5    1    6    6    0  503  0.40357606685E+03 -0.36794142546E+03 -0.17184577362E+03  0.57254484035E+03  0.47000000000E+01 0.  1.
<mgrwt>
<rscale>  0 0.13611177E+04</rscale>
<asrwt>0</asrwt>
<pdfrwt beam="1">  1        1 0.43956188E+00 0.13611177E+04</pdfrwt>
<pdfrwt beam="2">  1       -1 0.10477454E+00 0.13611177E+04</pdfrwt>
<totfact> 0.63152550E-01</totfact>
</mgrwt>
</event>
<event>
12    1  0.3166324E-008  0.1214206E+04  0.7818608E-02  0.9100512E-01
          1   -1    0    0  501    0  0.00000000000E+00  0.00000000000E+00  0.82774537371E+03  0.82774537371E+03  0.00000000000E+00 0. -1.
         -1   -1    0    0    0  501 -0.00000000000E+00 -0.00000000000E+00 -0.19352590349E+04  0.19352590349E+04  0.00000000000E+00 0.  1.
         23    2    1    2    0    0  0.11416690454E+04  0.17694021054E+03 -0.19972792972E+03  0.11760410057E+04  0.92006271121E+02 0.  0.
    5000000    2    1    2    0    0 -0.11416690454E+04 -0.17694021054E+03 -0.90778573148E+03  0.15869634029E+04  0.59971815090E+03 0.  0.
         23    2    4    4    0    0 -0.28568116748E+03  0.17297034086E+03 -0.39978833542E+03  0.52817653922E+03  0.87219694852E+02 0.  0.
         23    2    4    4    0    0 -0.85598787791E+03 -0.34991055141E+03 -0.50799739606E+03  0.10587868637E+04  0.88406035758E+02 0.  0.
          3    1    3    3  502    0  0.28873905657E+03  0.49175602195E+02 -0.10528588315E+02  0.29308588129E+03  0.00000000000E+00 0. -1.
         -3    1    3    3    0  502  0.85292998882E+03  0.12776460835E+03 -0.18919934141E+03  0.88295512444E+03  0.00000000000E+00 0.  1.
         11    1    5    5    0    0 -0.11931313510E+03  0.24475120696E+02 -0.15300838448E+03  0.19556641190E+03  0.00000000000E+00 0. -1.
        -11    1    5    5    0    0 -0.16636803238E+03  0.14849522017E+03 -0.24677995094E+03  0.33261012732E+03  0.00000000000E+00 0.  1.
          5    1    6    6  503    0 -0.12509760140E+03 -0.21682805440E+02 -0.55772480467E+02  0.13875234595E+03  0.47000000000E+01 0. -1.
         -5    1    6    6    0  503 -0.73089027651E+03 -0.32822774597E+03 -0.45222491559E+03  0.92003451772E+03  0.47000000000E+01 0.  1.
<mgrwt>
<rscale>  0 0.12142061E+04</rscale>
<asrwt>0</asrwt>
<pdfrwt beam="1">  1        1 0.12734544E+00 0.12142061E+04</pdfrwt>
<pdfrwt beam="2">  1       -1 0.29773216E+00 0.12142061E+04</pdfrwt>
<totfact> 0.70381303E-01</totfact>
</mgrwt>
</event>
<event>
12    1  0.3166324E-008  0.1173721E+04  0.7818608E-02  0.9136174E-01
          2   -1    0    0  501    0  0.00000000000E+00  0.00000000000E+00  0.41837384142E+04  0.41837384142E+04  0.00000000000E+00 0. -1.
         -2   -1    0    0    0  501 -0.00000000000E+00 -0.00000000000E+00 -0.39519308437E+03  0.39519308437E+03  0.00000000000E+00 0.  1.
         23    2    1    2    0    0  0.84360243898E+03  0.78430748935E+03  0.24764095295E+04  0.27327177366E+04  0.91316794419E+02 0.  0.
    5000000    2    1    2    0    0 -0.84360243898E+03 -0.78430748935E+03  0.13121358003E+04  0.18462137620E+04  0.60000131967E+03 0.  0.
         23    2    4    4    0    0 -0.68562774311E+03 -0.46555115207E+03  0.54521191810E+03  0.99637664872E+03  0.93204684227E+02 0.  0.
         23    2    4    4    0    0 -0.15797469587E+03 -0.31875633729E+03  0.76692388221E+03  0.84983711328E+03  0.86540573723E+02 0.  0.
          3    1    3    3  502    0  0.29766437013E+02  0.49044092021E+02  0.15424295597E+03  0.16456686544E+03  0.00000000000E+00 0. -1.
         -3    1    3    3    0  502  0.81383600197E+03  0.73526339733E+03  0.23221665735E+04  0.25681508711E+04  0.00000000000E+00 0.  1.
         13    1    5    5    0    0 -0.17760360148E+03 -0.11578167832E+03  0.18956033709E+03  0.28439683136E+03  0.00000000000E+00 0. -1.
        -13    1    5    5    0    0 -0.50802414163E+03 -0.34976947375E+03  0.35565158102E+03  0.71197981736E+03  0.00000000000E+00 0.  1.
          5    1    6    6  503    0 -0.67674151664E+02 -0.60635035912E+02  0.15831466533E+03  0.18259797820E+03  0.47000000000E+01 0. -1.
         -5    1    6    6    0  503 -0.90300544208E+02 -0.25812130137E+03  0.60860921688E+03  0.66723913508E+03  0.47000000000E+01 0.  1.
<mgrwt>
<rscale>  0 0.11737214E+04</rscale>
<asrwt>0</asrwt>
<pdfrwt beam="1">  1        2 0.64365203E+00 0.11737214E+04</pdfrwt>
<pdfrwt beam="2">  1       -2 0.60798939E-01 0.11737214E+04</pdfrwt>
<totfact> 0.62278260E-01</totfact>
</mgrwt>
</event>
<event>
12    1  0.3166324E-008  0.1046838E+04  0.7818608E-02  0.9258615E-01
         -1   -1    0    0    0  501 -0.00000000000E+00  0.00000000000E+00  0.17608576497E+04  0.17608576497E+04  0.00000000000E+00 0.  1.
          1   -1    0    0  501    0  0.00000000000E+00 -0.00000000000E+00 -0.82042308276E+03  0.82042308276E+03  0.00000000000E+00 0. -1.
         23    2    1    2    0    0 -0.49860900526E+03 -0.85786078813E+03 -0.12777963263E+03  0.10044033685E+04  0.89232394001E+02 0.  0.
    5000000    2    1    2    0    0  0.49860900526E+03  0.85786078813E+03  0.10682141996E+04  0.15768773640E+04  0.60076998342E+03 0.  0.
         23    2    4    4    0    0  0.26818635061E+03  0.76098345323E+02  0.10439841042E+03  0.31194923460E+03  0.93265320746E+02 0.  0.
         23    2    4    4    0    0  0.23042265465E+03  0.78176244281E+03  0.96381578917E+03  0.12649281294E+04  0.82796016544E+02 0.  0.
          2    1    3    3  502    0 -0.19518130546E+03 -0.39698981367E+03 -0.89108500160E+02  0.45126154164E+03  0.00000000000E+00 0. -1.
         -2    1    3    3    0  502 -0.30342769980E+03 -0.46087097446E+03 -0.38671132472E+02  0.55314182683E+03  0.00000000000E+00 0.  1.
         13    1    5    5    0    0  0.22605446591E+03  0.50307849830E+02  0.11909122109E+03  0.26041163617E+03  0.00000000000E+00 0.  1.
        -13    1    5    5    0    0  0.42131884700E+02  0.25790495493E+02 -0.14692810672E+02  0.51537598427E+02  0.00000000000E+00 0. -1.
          5    1    6    6  503    0  0.47671057769E+02  0.28907386474E+03  0.36997662426E+03  0.47195446976E+03  0.47000000000E+01 0. -1.
         -5    1    6    6    0  503  0.18275159688E+03  0.49268857807E+03  0.59383916490E+03  0.79297365965E+03  0.47000000000E+01 0.  1.
<mgrwt>
<rscale>  0 0.10468377E+04</rscale>
<asrwt>0</asrwt>
<pdfrwt beam="1">  1        1 0.12621894E+00 0.10468377E+04</pdfrwt>
<pdfrwt beam="2">  1       -1 0.27090118E+00 0.10468377E+04</pdfrwt>
<totfact> 0.10860618E+00</totfact>
</mgrwt>
</event>
<event>
12    1  0.3166324E-008  0.1068877E+04  0.7818608E-02  0.9236069E-01
         -2   -1    0    0    0  501 -0.00000000000E+00  0.00000000000E+00  0.89200663913E+03  0.89200663913E+03  0.00000000000E+00 0. -1.
          2   -1    0    0  501    0  0.00000000000E+00 -0.00000000000E+00 -0.18621748240E+04  0.18621748240E+04  0.00000000000E+00 0.  1.
         23    2    1    2    0    0 -0.82400058460E+03 -0.59171296248E+03 -0.11780893589E+04  0.15573705231E+04  0.91690868029E+02 0.  0.
    5000000    2    1    2    0    0  0.82400058460E+03  0.59171296248E+03  0.20792117401E+03  0.11968109400E+04  0.60002001485E+03 0.  0.
         23    2    4    4    0    0  0.77330354116E+03  0.64214585898E+03  0.29715153830E+03  0.10522213643E+04  0.92309760479E+02 0.  0.
         23    2    4    4    0    0  0.50697043440E+02 -0.50432896496E+02 -0.89230364294E+02  0.14458957571E+03  0.88489661707E+02 0.  0.
          3    1    3    3  502    0 -0.46396590276E+03 -0.38070841736E+03 -0.65905534611E+03  0.89137938456E+03  0.00000000000E+00 0. -1.
         -3    1    3    3    0  502 -0.36003468184E+03 -0.21100454512E+03 -0.51903401279E+03  0.66599113855E+03  0.00000000000E+00 0.  1.
         11    1    5    5    0    0  0.73545999917E+03  0.58347265420E+03  0.26590277244E+03  0.97572846272E+03  0.00000000000E+00 0. -1.
        -11    1    5    5    0    0  0.37843541989E+02  0.58673204781E+02  0.31248765860E+02  0.76492901614E+02  0.00000000000E+00 0.  1.
          5    1    6    6  503    0  0.24895872846E+02 -0.72866158661E+02 -0.48157506468E+02  0.90942382815E+02  0.47000000000E+01 0. -1.
         -5    1    6    6    0  503  0.25801170595E+02  0.22433262165E+02 -0.41072857826E+02  0.53647192894E+02  0.47000000000E+01 0.  1.
<mgrwt>
<rscale>  0 0.10688766E+04</rscale>
<asrwt>0</asrwt>
<pdfrwt beam="1">  1        2 0.28648843E+00 0.10688766E+04</pdfrwt>
<pdfrwt beam="2">  1       -2 0.13723179E+00 0.10688766E+04</pdfrwt>
<totfact> 0.29784410E+00</totfact>
</mgrwt>
</event>
<event>
12    1  0.3166324E-008  0.9000370E+03  0.7818608E-02  0.9425535E-01
          2   -1    0    0  501    0  0.00000000000E+00  0.00000000000E+00  0.11932146247E+04  0.11932146247E+04  0.00000000000E+00 0. -1.
         -2   -1    0    0    0  501 -0.00000000000E+00 -0.00000000000E+00 -0.71850466263E+03  0.71850466263E+03  0.00000000000E+00 0.  1.
         23    2    1    2    0    0  0.82575091859E+03  0.85846471087E+01  0.21854740318E+03  0.85935704844E+03  0.93772562890E+02 0.  0.
    5000000    2    1    2    0    0 -0.82575091859E+03 -0.85846471087E+01  0.25616255890E+03  0.10523622389E+04  0.59992395316E+03 0.  0.
         23    2    4    4    0    0 -0.80227529224E+03  0.12565222387E+03  0.32052887081E+03  0.87787347199E+03  0.92135497542E+02 0.  0.
         23    2    4    4    0    0 -0.23475626350E+02 -0.13423687098E+03 -0.64366311907E+02  0.17448876692E+03  0.87935573625E+02 0.  0.
          4    1    3    3  502    0  0.63785529474E+03  0.72802109681E+01  0.12730821131E+03  0.65047656312E+03  0.00000000000E+00 0. -1.
         -4    1    3    3    0  502  0.18789562385E+03  0.13044361406E+01  0.91239191869E+02  0.20888048532E+03  0.00000000000E+00 0.  1.
         11    1    5    5    0    0 -0.34085103128E+02  0.93494024982E+01  0.36049589834E+02  0.50485428685E+02  0.00000000000E+00 0.  1.
        -11    1    5    5    0    0 -0.76819018911E+03  0.11630282137E+03  0.28447928097E+03  0.82738804331E+03  0.00000000000E+00 0. -1.
          5    1    6    6  503    0 -0.21537424594E+02 -0.14679468044E+03 -0.56548001671E+02  0.15884679838E+03  0.47000000000E+01 0. -1.
         -5    1    6    6    0  503 -0.19382017563E+01  0.12557809464E+02 -0.78183102355E+01  0.15641968531E+02  0.47000000000E+01 0.  1.
<mgrwt>
<rscale>  0 0.90003699E+03</rscale>
<asrwt>0</asrwt>
<pdfrwt beam="1">  1        2 0.18357148E+00 0.90003699E+03</pdfrwt>
<pdfrwt beam="2">  1       -2 0.11053918E+00 0.90003699E+03</pdfrwt>
<totfact> 0.12448169E+01</totfact>
</mgrwt>
</event>
<event>
12    1  0.3166324E-008  0.1312321E+04  0.7818608E-02  0.9019851E-01
          1   -1    0    0  501    0  0.00000000000E+00  0.00000000000E+00  0.16394285617E+04  0.16394285617E+04  0.00000000000E+00 0. -1.
         -1   -1    0    0    0  501 -0.00000000000E+00 -0.00000000000E+00 -0.10600995303E+04  0.10600995303E+04  0.00000000000E+00 0.  1.
         23    2    1    2    0    0  0.48974587364E+03  0.11481260574E+04  0.29865414760E+03  0.12864324304E+04  0.87576445112E+02 0.  0.
    5000000    2    1    2    0    0 -0.48974587364E+03 -0.11481260574E+04  0.28067488376E+03  0.14130956616E+04  0.60001374501E+03 0.  0.
         23    2    4    4    0    0 -0.60764302348E+03 -0.88961660639E+03  0.26787460478E+03  0.11143059736E+04  0.96297708108E+02 0.  0.
         23    2    4    4    0    0  0.11789714984E+03 -0.25850945096E+03  0.12800278988E+02  0.29878968802E+03  0.91567223090E+02 0.  0.
          2    1    3    3  502    0  0.15677070497E+03  0.38906281802E+03  0.58938855983E+02  0.42358082941E+03  0.00000000000E+00 0. -1.
         -2    1    3    3    0  502  0.33297516867E+03  0.75906323934E+03  0.23971529162E+03  0.86285160098E+03  0.00000000000E+00 0.  1.
         13    1    5    5    0    0 -0.57779090663E+03 -0.82446968852E+03  0.22788482307E+03  0.10322422640E+04  0.00000000000E+00 0.  1.
        -13    1    5    5    0    0 -0.29852116852E+02 -0.65146917873E+02  0.39989781704E+02  0.82063709577E+02  0.00000000000E+00 0. -1.
          5    1    6    6  503    0  0.88644346456E+02 -0.88705925934E+02  0.15149438040E+02  0.12640473459E+03  0.47000000000E+01 0.  1.
         -5    1    6    6    0  503  0.29252803382E+02 -0.16980352503E+03 -0.23491590527E+01  0.17238495342E+03  0.47000000000E+01 0. -1.
<mgrwt>
<rscale>  0 0.13123207E+04</rscale>
<asrwt>0</asrwt>
<pdfrwt beam="1">  1        1 0.25221978E+00 0.13123207E+04</pdfrwt>
<pdfrwt beam="2">  1       -1 0.16309224E+00 0.13123207E+04</pdfrwt>
<totfact> 0.14058872E+00</totfact>
</mgrwt>
</event>
<event>
12    1  0.3166324E-008  0.8202848E+03  0.7818608E-02  0.9531111E-01
          2   -1    0    0  501    0  0.00000000000E+00  0.00000000000E+00  0.21006902470E+04  0.21006902470E+04  0.00000000000E+00 0. -1.
         -2   -1    0    0    0  501 -0.00000000000E+00 -0.00000000000E+00 -0.42897902178E+03  0.42897902178E+03  0.00000000000E+00 0.  1.
         23    2    1    2    0    0  0.72229972448E+03 -0.50165590945E+02  0.13522244420E+04  0.15365297744E+04  0.90439634155E+02 0.  0.
    5000000    2    1    2    0    0 -0.72229972448E+03  0.50165590945E+02  0.31948678318E+03  0.99313949440E+03  0.60001730991E+03 0.  0.
         23    2    4    4    0    0 -0.70058291060E+03 -0.14402785925E+03  0.23104788722E+03  0.75686234382E+03  0.88865305030E+02 0.  0.
         23    2    4    4    0    0 -0.21716813883E+02  0.19419345019E+03  0.88438895963E+02  0.23627715057E+03  0.99109724357E+02 0.  0.
          4    1    3    3  502    0  0.42783986534E+03 -0.53096471466E+02  0.72242846342E+03  0.84129012262E+03  0.00000000000E+00 0.  1.
         -4    1    3    3    0  502  0.29445985915E+03  0.29308805210E+01  0.62979597859E+03  0.69523965175E+03  0.00000000000E+00 0. -1.
         11    1    5    5    0    0 -0.39555588810E+03 -0.11563160432E+03  0.10268783501E+03  0.42471157270E+03  0.00000000000E+00 0.  1.
        -11    1    5    5    0    0 -0.30502702250E+03 -0.28396254924E+02  0.12836005222E+03  0.33215077112E+03  0.00000000000E+00 0. -1.
          5    1    6    6  503    0 -0.11091170818E+02  0.15898291795E+03  0.10970340038E+03  0.19353425621E+03  0.47000000000E+01 0. -1.
         -5    1    6    6    0  503 -0.10625643065E+02  0.35210532238E+02 -0.21264504414E+02  0.42742894368E+02  0.47000000000E+01 0.  1.
<mgrwt>
<rscale>  0 0.82028478E+03</rscale>
<asrwt>0</asrwt>
<pdfrwt beam="1">  1        2 0.32318311E+00 0.82028478E+03</pdfrwt>
<pdfrwt beam="2">  1       -2 0.65996774E-01 0.82028478E+03</pdfrwt>
<totfact> 0.12738718E+01</totfact>
</mgrwt>
</event>
<event>
12    1  0.3166324E-008  0.4361078E+03  0.7818608E-02  0.1031948E+00
         -2   -1    0    0    0  501 -0.00000000000E+00  0.00000000000E+00  0.19470933109E+03  0.19470933109E+03  0.00000000000E+00 0.  1.
          2   -1    0    0  501    0  0.00000000000E+00 -0.00000000000E+00 -0.11207276937E+04  0.11207276937E+04  0.00000000000E+00 0. -1.
         23    2    1    2    0    0  0.12804356320E+03 -0.23002965154E+03 -0.29724796247E+03  0.40734771238E+03  0.90923115441E+02 0.  0.
    5000000    2    1    2    0    0 -0.12804356320E+03  0.23002965154E+03 -0.62877040015E+03  0.90808931242E+03  0.59997098976E+03 0.  0.
         23    2    4    4    0    0 -0.29456182961E+03  0.29090701067E+03 -0.54896099992E+03  0.69396907103E+03  0.94028356334E+02 0.  0.
         23    2    4    4    0    0  0.16651826641E+03 -0.60877359130E+02 -0.79809400229E+02  0.21412024139E+03  0.89685848965E+02 0.  0.
          3    1    3    3  502    0  0.70081678113E+02 -0.17846465308E+03 -0.16013352926E+03  0.24980756834E+03  0.00000000000E+00 0. -1.
         -3    1    3    3    0  502  0.57961885091E+02 -0.51564998460E+02 -0.13711443321E+03  0.15754014404E+03  0.00000000000E+00 0.  1.
         13    1    5    5    0    0 -0.12883397674E+03  0.15050924867E+03 -0.19056737370E+03  0.27489480063E+03  0.00000000000E+00 0.  1.
        -13    1    5    5    0    0 -0.16572785288E+03  0.14039776200E+03 -0.35839362622E+03  0.41907427040E+03  0.00000000000E+00 0. -1.
          5    1    6    6  503    0  0.27793056861E+02 -0.37357591006E+02 -0.53181667252E+02  0.70840831073E+02  0.47000000000E+01 0. -1.
         -5    1    6    6    0  503  0.13872520955E+03 -0.23519768124E+02 -0.26627732978E+02  0.14327941031E+03  0.47000000000E+01 0.  1.
<mgrwt>
<rscale>  0 0.43610783E+03</rscale>
<asrwt>0</asrwt>
<pdfrwt beam="1">  1        2 0.17241965E+00 0.43610783E+03</pdfrwt>
<pdfrwt beam="2">  1       -2 0.29955281E-01 0.43610783E+03</pdfrwt>
<totfact> 0.22516058E+02</totfact>
</mgrwt>
</event>
<event>
12    1  0.3166324E-008  0.5960509E+03  0.7818608E-02  0.9913633E-01
         -2   -1    0    0    0  501 -0.00000000000E+00  0.00000000000E+00  0.23491773740E+03  0.23491773740E+03  0.00000000000E+00 0.  1.
          2   -1    0    0  501    0  0.00000000000E+00 -0.00000000000E+00 -0.19200043022E+04  0.19200043022E+04  0.00000000000E+00 0. -1.
         23    2    1    2    0    0 -0.41466224087E+03 -0.33269896607E+03 -0.64403723090E+03  0.84011246771E+03  0.91496598806E+02 0.  0.
    5000000    2    1    2    0    0  0.41466224087E+03  0.33269896607E+03 -0.10410493339E+04  0.13148095719E+04  0.60191952842E+03 0.  0.
         23    2    4    4    0    0  0.30462546690E+03  0.41415793938E+03 -0.41140054632E+03  0.66479269129E+03  0.91517424838E+02 0.  0.
         23    2    4    4    0    0  0.11003677397E+03 -0.81458973312E+02 -0.62964878759E+03  0.65001688060E+03  0.85561050707E+02 0.  0.
          2    1    3    3  502    0 -0.22367123241E+03 -0.12144870251E+03 -0.31365354948E+03  0.40392716751E+03  0.00000000000E+00 0. -1.
         -2    1    3    3    0  502 -0.19099100845E+03 -0.21125026355E+03 -0.33038368142E+03  0.43618530020E+03  0.00000000000E+00 0.  1.
         13    1    5    5    0    0  0.17044312038E+03  0.21817763162E+03 -0.16378604497E+03  0.32168028343E+03  0.00000000000E+00 0. -1.
        -13    1    5    5    0    0  0.13418234652E+03  0.19598030776E+03 -0.24761450135E+03  0.34311240786E+03  0.00000000000E+00 0.  1.
          5    1    6    6  503    0  0.16049122011E+02 -0.58913761360E+01 -0.13840007358E+02  0.22492630655E+02  0.47000000000E+01 0. -1.
         -5    1    6    6    0  503  0.93987651957E+02 -0.75567597176E+02 -0.61580878023E+03  0.62752424995E+03  0.47000000000E+01 0.  1.
<mgrwt>
<rscale>  0 0.59605093E+03</rscale>
<asrwt>0</asrwt>
<pdfrwt beam="1">  1        2 0.29538528E+00 0.59605093E+03</pdfrwt>
<pdfrwt beam="2">  1       -2 0.36141190E-01 0.59605093E+03</pdfrwt>
<totfact> 0.55905965E+01</totfact>
</mgrwt>
</event>
<event>
12    1  0.3166324E-008  0.7912540E+03  0.7818608E-02  0.9572764E-01
         -1   -1    0    0    0  501 -0.00000000000E+00  0.00000000000E+00  0.35831994633E+03  0.35831994633E+03  0.00000000000E+00 0.  1.
          1   -1    0    0  501    0  0.00000000000E+00 -0.00000000000E+00 -0.18590800866E+04  0.18590800866E+04  0.00000000000E+00 0. -1.
         23    2    1    2    0    0 -0.39411229178E+03 -0.56661653393E+03 -0.82826458543E+03  0.10823364330E+04  0.95137456219E+02 0.  0.
    5000000    2    1    2    0    0  0.39411229178E+03  0.56661653393E+03 -0.67249555486E+03  0.11350636000E+04  0.59978355235E+03 0.  0.
         23    2    4    4    0    0  0.16127575083E+03  0.61478164696E+03 -0.37047742850E+03  0.74006214821E+03  0.80449468212E+02 0.  0.
         23    2    4    4    0    0  0.23283654095E+03 -0.48165113027E+02 -0.30201812635E+03  0.39500145179E+03  0.90986072307E+02 0.  0.
          2    1    3    3  502    0 -0.11819656529E+03 -0.22403289573E+03 -0.35635644677E+03  0.43720828397E+03  0.00000000000E+00 0. -1.
         -2    1    3    3    0  502 -0.27591572649E+03 -0.34258363820E+03 -0.47190813866E+03  0.64512814899E+03  0.00000000000E+00 0.  1.
         13    1    5    5    0    0  0.13834853683E+03  0.39513891083E+03 -0.26350260968E+03  0.49468040370E+03  0.00000000000E+00 0. -1.
        -13    1    5    5    0    0  0.22927214001E+02  0.21964273613E+03 -0.10697481882E+03  0.24538174451E+03  0.00000000000E+00 0.  1.
          5    1    6    6  503    0  0.32396830288E+02 -0.36457567703E+02 -0.32154404224E+02  0.58606352612E+02  0.47000000000E+01 0. -1.
         -5    1    6    6    0  503  0.20043971066E+03 -0.11707545324E+02 -0.26986372213E+03  0.33639509917E+03  0.47000000000E+01 0.  1.
<mgrwt>
<rscale>  0 0.79125402E+03</rscale>
<asrwt>0</asrwt>
<pdfrwt beam="1">  1        1 0.28601232E+00 0.79125402E+03</pdfrwt>
<pdfrwt beam="2">  1       -1 0.55126146E-01 0.79125402E+03</pdfrwt>
<totfact> 0.12798779E+01</totfact>
</mgrwt>
</event>
<event>
12    1  0.3535521E-008  0.8608211E+03  0.7818608E-02  0.9475927E-01
         -1   -1    0    0    0  501 -0.00000000000E+00  0.00000000000E+00  0.72344858484E+03  0.72344858484E+03  0.00000000000E+00 0.  1.
          1   -1    0    0  501    0  0.00000000000E+00 -0.00000000000E+00 -0.14524059000E+04  0.14524059000E+04  0.00000000000E+00 0. -1.
         23    2    1    2    0    0  0.69959307208E+02  0.81821107768E+03 -0.80828002047E+03  0.11557842710E+04  0.90316207021E+02 0.  0.
    5000000    2    1    2    0    0 -0.69959307208E+02 -0.81821107768E+03  0.79322705353E+02  0.10200702138E+04  0.59990622371E+03 0.  0.
         23    2    4    4    0    0  0.13498363297E+02 -0.77004279730E+03 -0.11542206218E+03  0.78408179589E+03  0.91180561048E+02 0.  0.
         23    2    4    4    0    0 -0.83457670505E+02 -0.48168280376E+02  0.19474476754E+03  0.23598841793E+03  0.92084976604E+02 0.  0.
          2    1    3    3  502    0  0.12776941996E+02  0.48148726781E+03 -0.42437737729E+03  0.64194189587E+03  0.00000000000E+00 0. -1.
         -2    1    3    3    0  502  0.57182365212E+02  0.33672380987E+03 -0.38390264317E+03  0.51384237511E+03  0.00000000000E+00 0.  1.
         13    1    5    5    0    0  0.13065351971E+02 -0.47929092373E+03 -0.11611539726E+03  0.49332877321E+03  0.00000000000E+00 0. -1.
        -13    1    5    5    0    0  0.43301132566E+00 -0.29075187357E+03  0.69333507433E+00  0.29075302268E+03  0.00000000000E+00 0.  1.
          5    1    6    6  503    0 -0.50891956385E+02  0.18111069765E+02  0.11533957032E+03  0.12744923912E+03  0.47000000000E+01 0. -1.
         -5    1    6    6    0  503 -0.32565714120E+02 -0.66279350141E+02  0.79405197220E+02  0.10853917881E+03  0.47000000000E+01 0.  1.
<mgrwt>
<rscale>  0 0.86082114E+03</rscale>
<asrwt>0</asrwt>
<pdfrwt beam="1">  1        1 0.22344706E+00 0.86082114E+03</pdfrwt>
<pdfrwt beam="2">  1       -1 0.11129978E+00 0.86082114E+03</pdfrwt>
<totfact> 0.53629687E+00</totfact>
</mgrwt>
</event>
<event>
12    1  0.3166324E-008  0.1299230E+04  0.7818608E-02  0.9030176E-01
          2   -1    0    0  501    0  0.00000000000E+00  0.00000000000E+00  0.24869856970E+04  0.24869856970E+04  0.00000000000E+00 0.  1.
         -2   -1    0    0    0  501 -0.00000000000E+00 -0.00000000000E+00 -0.86299268827E+03  0.86299268827E+03  0.00000000000E+00 0. -1.
         23    2    1    2    0    0 -0.12162909638E+04 -0.34741594694E+03  0.14698661176E+04  0.19414488441E+04  0.93035808534E+02 0.  0.
    5000000    2    1    2    0    0  0.12162909638E+04  0.34741594694E+03  0.15412689115E+03  0.14085295412E+04  0.60011567304E+03 0.  0.
         23    2    4    4    0    0  0.70818403937E+03  0.49568727863E+01 -0.13242122128E+03  0.72587014822E+03  0.88333957413E+02 0.  0.
         23    2    4    4    0    0  0.50810692444E+03  0.34245907415E+03  0.28654811243E+03  0.68265939298E+03  0.91995445259E+02 0.  0.
          1    1    3    3  502    0 -0.16748784177E+03 -0.80700327554E+02  0.20204126642E+03  0.27456400592E+03  0.00000000000E+00 0.  1.
         -1    1    3    3    0  502 -0.10488031220E+04 -0.26671561938E+03  0.12678248512E+04  0.16668848381E+04  0.00000000000E+00 0. -1.
         13    1    5    5    0    0  0.25800118441E+03 -0.32877422230E+02 -0.73504023905E+02  0.27027463362E+03  0.00000000000E+00 0. -1.
        -13    1    5    5    0    0  0.45018285496E+03  0.37834295017E+02 -0.58917197377E+02  0.45559551460E+03  0.00000000000E+00 0.  1.
          5    1    6    6  503    0  0.23044823371E+03  0.20578345540E+03  0.12276151342E+03  0.33248413212E+03  0.47000000000E+01 0. -1.
         -5    1    6    6    0  503  0.27765869073E+03  0.13667561876E+03  0.16378659901E+03  0.35017526086E+03  0.47000000000E+01 0.  1.
<mgrwt>
<rscale>  0 0.12992299E+04</rscale>
<asrwt>0</asrwt>
<pdfrwt beam="1">  1        2 0.38261318E+00 0.12992299E+04</pdfrwt>
<pdfrwt beam="2">  1       -2 0.13276811E+00 0.12992299E+04</pdfrwt>
<totfact> 0.14110615E+00</totfact>
</mgrwt>
</event>
<event>
12    1  0.3166324E-008  0.1073548E+04  0.7818608E-02  0.9231364E-01
         -1   -1    0    0    0  501 -0.00000000000E+00  0.00000000000E+00  0.80814942158E+03  0.80814942158E+03  0.00000000000E+00 0.  1.
          1   -1    0    0  501    0  0.00000000000E+00 -0.00000000000E+00 -0.16262458046E+04  0.16262458046E+04  0.00000000000E+00 0. -1.
         23    2    1    2    0    0 -0.58905819326E+03 -0.88724911953E+03 -0.41603933019E+03  0.11472419838E+04  0.94206634749E+02 0.  0.
    5000000    2    1    2    0    0  0.58905819326E+03  0.88724911953E+03 -0.40205705283E+03  0.12871532424E+04  0.60076038518E+03 0.  0.
         23    2    4    4    0    0  0.14361039144E+03  0.23613006462E+03 -0.39801457606E+03  0.49273873597E+03  0.89412008270E+02 0.  0.
         23    2    4    4    0    0  0.44544780183E+03  0.65111905492E+03 -0.40424767705E+01  0.79441450638E+03  0.93264669125E+02 0.  0.
          3    1    3    3  502    0 -0.29431317179E+03 -0.35889504364E+03 -0.18130035677E+03  0.49829280027E+03  0.00000000000E+00 0. -1.
         -3    1    3    3    0  502 -0.29474502148E+03 -0.52835407590E+03 -0.23473897342E+03  0.64894918356E+03  0.00000000000E+00 0.  1.
         13    1    5    5    0    0  0.45965591988E+02  0.14377478774E+03 -0.16412109675E+03  0.22297928073E+03  0.00000000000E+00 0. -1.
        -13    1    5    5    0    0  0.97644799451E+02  0.92355276875E+02 -0.23389347931E+03  0.26975945524E+03  0.00000000000E+00 0.  1.
          5    1    6    6  503    0  0.18676988708E+03  0.20885629784E+03 -0.26987878792E+02  0.28152154353E+03  0.47000000000E+01 0.  1.
         -5    1    6    6    0  503  0.25867791474E+03  0.44226275708E+03  0.22945402022E+02  0.51289296286E+03  0.47000000000E+01 0. -1.
<mgrwt>
<rscale>  0 0.10735484E+04</rscale>
<asrwt>0</asrwt>
<pdfrwt beam="1">  1        1 0.25019166E+00 0.10735484E+04</pdfrwt>
<pdfrwt beam="2">  1       -1 0.12433068E+00 0.10735484E+04</pdfrwt>
<totfact> 0.30276431E+00</totfact>
</mgrwt>
</event>
<event>
12    1  0.3166324E-008  0.3988803E+03  0.7818608E-02  0.1044168E+00
         -2   -1    0    0    0  501 -0.00000000000E+00  0.00000000000E+00  0.43963532827E+03  0.43963532827E+03  0.00000000000E+00 0.  1.
          2   -1    0    0  501    0  0.00000000000E+00 -0.00000000000E+00 -0.94094961307E+03  0.94094961307E+03  0.00000000000E+00 0. -1.
         23    2    1    2    0    0  0.37792426847E+03 -0.61220144989E+02 -0.54008587006E+03  0.66780578913E+03  0.87733494777E+02 0.  0.
    5000000    2    1    2    0    0 -0.37792426847E+03  0.61220144989E+02  0.38771585248E+02  0.71277915221E+03  0.59998018731E+03 0.  0.
         23    2    4    4    0    0 -0.14123147142E+03 -0.70805744063E+01  0.29812142233E+03  0.34332222445E+03  0.94854121127E+02 0.  0.
         23    2    4    4    0    0 -0.23669279705E+03  0.68300719396E+02 -0.25934983708E+03  0.36945692777E+03  0.92453312714E+02 0.  0.
          4    1    3    3  502    0  0.12788209480E+03  0.10457498165E+01 -0.12234003785E+03  0.17698024925E+03  0.00000000000E+00 0.  1.
         -4    1    3    3    0  502  0.25004217367E+03 -0.62265894806E+02 -0.41774583221E+03  0.49082553988E+03  0.00000000000E+00 0. -1.
         13    1    5    5    0    0 -0.12800812782E+03 -0.35692781278E+02  0.19885978142E+03  0.23917622810E+03  0.00000000000E+00 0.  1.
        -13    1    5    5    0    0 -0.13223343594E+02  0.28612206872E+02  0.99261640916E+02  0.10414599635E+03  0.00000000000E+00 0. -1.
          5    1    6    6  503    0 -0.12991323136E+03  0.50332442909E+02 -0.20579450805E+03  0.24856442230E+03  0.47000000000E+01 0. -1.
         -5    1    6    6    0  503 -0.10677956569E+03  0.17968276487E+02 -0.53555329038E+02  0.12089250546E+03  0.47000000000E+01 0.  1.
<mgrwt>
<rscale>  0 0.39888031E+03</rscale>
<asrwt>0</asrwt>
<pdfrwt beam="1">  1        2 0.14476148E+00 0.39888031E+03</pdfrwt>
<pdfrwt beam="2">  1       -2 0.67636205E-01 0.39888031E+03</pdfrwt>
<totfact> 0.58176823E+01</totfact>
</mgrwt>
</event>
<event>
12    1  0.3166324E-008  0.3690210E+03  0.7818608E-02  0.1055068E+00
          2   -1    0    0  501    0  0.00000000000E+00  0.00000000000E+00  0.78455807247E+03  0.78455807247E+03  0.00000000000E+00 0. -1.
         -2   -1    0    0    0  501 -0.00000000000E+00 -0.00000000000E+00 -0.22108498822E+03  0.22108498822E+03  0.00000000000E+00 0.  1.
         23    2    1    2    0    0 -0.83609234115E+02  0.13469466670E+03  0.26469661491E+02  0.18498863751E+03  0.91580542485E+02 0.  0.
    5000000    2    1    2    0    0  0.83609234115E+02 -0.13469466670E+03  0.53700342277E+03  0.82065442318E+03  0.59997320686E+03 0.  0.
         23    2    4    4    0    0  0.25237154138E+03 -0.26117747544E+03  0.23168063887E+03  0.44029080705E+03  0.90967069724E+02 0.  0.
         23    2    4    4    0    0 -0.16876230726E+03  0.12648280873E+03  0.30532278389E+03  0.38036361612E+03  0.83521619039E+02 0.  0.
          3    1    3    3  502    0 -0.53815780769E+02  0.51291021667E+02 -0.29762867474E+02  0.80079556965E+02  0.00000000000E+00 0. -1.
         -3    1    3    3    0  502 -0.29793453347E+02  0.83403645037E+02  0.56232528965E+02  0.10490908055E+03  0.00000000000E+00 0.  1.
         13    1    5    5    0    0  0.19688353298E+03 -0.20782524151E+03  0.22288887632E+03  0.36281387481E+03  0.00000000000E+00 0.  1.
        -13    1    5    5    0    0  0.55488008399E+02 -0.53352233931E+02  0.87917625528E+01  0.77476932246E+02  0.00000000000E+00 0. -1.
          5    1    6    6  503    0 -0.55397489207E+02  0.31439885327E+02  0.36700598792E+02  0.73663913496E+02  0.47000000000E+01 0. -1.
         -5    1    6    6    0  503 -0.11336481806E+03  0.95042923406E+02  0.26862218510E+03  0.30669970262E+03  0.47000000000E+01 0.  1.
<mgrwt>
<rscale>  0 0.36902096E+03</rscale>
<asrwt>0</asrwt>
<pdfrwt beam="1">  1        2 0.12070124E+00 0.36902096E+03</pdfrwt>
<pdfrwt beam="2">  1       -2 0.34013076E-01 0.36902096E+03</pdfrwt>
<totfact> 0.29460111E+02</totfact>
</mgrwt>
</event>
<event>
12    1  0.3166324E-008  0.1086018E+04  0.7818608E-02  0.9218928E-01
          2   -1    0    0  501    0  0.00000000000E+00  0.00000000000E+00  0.91162464501E+03  0.91162464501E+03  0.00000000000E+00 0. -1.
         -2   -1    0    0    0  501 -0.00000000000E+00 -0.00000000000E+00 -0.13947563406E+04  0.13947563406E+04  0.00000000000E+00 0.  1.
         23    2    1    2    0    0  0.97132466832E+03 -0.32209491234E+03 -0.44304330770E+03  0.11189717051E+04  0.92701459028E+02 0.  0.
    5000000    2    1    2    0    0 -0.97132466832E+03  0.32209491234E+03 -0.40088387878E+02  0.11874092805E+04  0.60093009304E+03 0.  0.
         23    2    4    4    0    0 -0.12156585977E+03 -0.11098926252E+03 -0.12316027368E+03  0.22590125229E+03  0.93627176158E+02 0.  0.
         23    2    4    4    0    0 -0.84975880855E+03  0.43308417485E+03  0.83071885805E+02  0.96150802821E+03  0.89133691075E+02 0.  0.
          2    1    3    3  502    0  0.83887191240E+03 -0.25679973185E+03 -0.35066197486E+03  0.94478357749E+03  0.00000000000E+00 0. -1.
         -2    1    3    3    0  502  0.13245275592E+03 -0.65295180488E+02 -0.92381332845E+02  0.17418812762E+03  0.00000000000E+00 0.  1.
         13    1    5    5    0    0  0.11641454183E+02 -0.32863266817E+02 -0.20120681133E+02  0.40253690149E+02  0.00000000000E+00 0. -1.
        -13    1    5    5    0    0 -0.13320731396E+03 -0.78125995700E+02 -0.10303959255E+03  0.18564756214E+03  0.00000000000E+00 0.  1.
          5    1    6    6  503    0 -0.76824747539E+03  0.36096421732E+03  0.78823185896E+02  0.85248726340E+03  0.47000000000E+01 0.  1.
         -5    1    6    6    0  503 -0.81511333157E+02  0.72119957536E+02  0.42486999092E+01  0.10902076481E+03  0.47000000000E+01 0. -1.
<mgrwt>
<rscale>  0 0.10860180E+04</rscale>
<asrwt>0</asrwt>
<pdfrwt beam="1">  1        2 0.14024995E+00 0.10860180E+04</pdfrwt>
<pdfrwt beam="2">  1       -2 0.21457790E+00 0.10860180E+04</pdfrwt>
<totfact> 0.30335505E+00</totfact>
</mgrwt>
</event>
<event>
12    1  0.3166324E-008  0.3621085E+03  0.7818608E-02  0.1057752E+00
         -3   -1    0    0    0  501 -0.00000000000E+00  0.00000000000E+00  0.17876705847E+03  0.17876705847E+03  0.00000000000E+00 0.  1.
          3   -1    0    0  501    0  0.00000000000E+00 -0.00000000000E+00 -0.12939975814E+04  0.12939975814E+04  0.00000000000E+00 0. -1.
         23    2    1    2    0    0 -0.41666126751E+02 -0.19857222332E+03 -0.41602495071E+02  0.22625277553E+03  0.91063477004E+02 0.  0.
    5000000    2    1    2    0    0  0.41666126751E+02  0.19857222332E+03 -0.10736280278E+04  0.12465118643E+04  0.59995640819E+03 0.  0.
         23    2    4    4    0    0 -0.19579261078E+03  0.10694488585E+03 -0.14950183182E+03  0.28340655804E+03  0.90534658420E+02 0.  0.
         23    2    4    4    0    0  0.23745873753E+03  0.91627337470E+02 -0.92412619599E+03  0.96310530626E+03  0.93703702273E+02 0.  0.
          3    1    3    3  502    0 -0.66368792160E+02 -0.94824236227E+02 -0.22300166922E+02  0.11787175147E+03  0.00000000000E+00 0. -1.
         -3    1    3    3    0  502  0.24702665409E+02 -0.10374798710E+03 -0.19302328149E+02  0.10838102406E+03  0.00000000000E+00 0.  1.
         13    1    5    5    0    0 -0.87424013530E+02  0.98823896576E+02 -0.86955109117E+02  0.15801997240E+03  0.00000000000E+00 0.  1.
        -13    1    5    5    0    0 -0.10836859725E+03  0.81209892764E+01 -0.62546722707E+02  0.12538658564E+03  0.00000000000E+00 0. -1.
          5    1    6    6  503    0  0.11303581806E+03  0.12829234995E+02 -0.53576824279E+03  0.54773295083E+03  0.47000000000E+01 0. -1.
         -5    1    6    6    0  503  0.12442291947E+03  0.78798102475E+02 -0.38835795320E+03  0.41537235543E+03  0.47000000000E+01 0.  1.
<mgrwt>
<rscale>  0 0.36210848E+03</rscale>
<asrwt>0</asrwt>
<pdfrwt beam="1">  1        3 0.19907656E+00 0.36210848E+03</pdfrwt>
<pdfrwt beam="2">  1       -3 0.27502623E-01 0.36210848E+03</pdfrwt>
<totfact> 0.50568921E+00</totfact>
</mgrwt>
</event>
<event>
12    1  0.3166324E-008  0.4834616E+03  0.7818608E-02  0.1018188E+00
          2   -1    0    0  501    0  0.00000000000E+00  0.00000000000E+00  0.13689586250E+04  0.13689586250E+04  0.00000000000E+00 0.  1.
         -2   -1    0    0    0  501 -0.00000000000E+00 -0.00000000000E+00 -0.18470344150E+03  0.18470344150E+03  0.00000000000E+00 0. -1.
         23    2    1    2    0    0  0.24390939963E+03  0.19720304669E+03  0.34038923446E+03  0.47175896539E+03  0.91163883389E+02 0.  0.
    5000000    2    1    2    0    0 -0.24390939963E+03 -0.19720304669E+03  0.84386594899E+03  0.10819031011E+04  0.60001978583E+03 0.  0.
         23    2    4    4    0    0 -0.36391925450E+03  0.37090135380E+02  0.33800642414E+03  0.50430213008E+03  0.79116330182E+02 0.  0.
         23    2    4    4    0    0  0.12000985487E+03 -0.23429318207E+03  0.50585952485E+03  0.57760097099E+03  0.91833340209E+02 0.  0.
          2    1    3    3  502    0  0.19317861543E+03  0.12204249764E+03  0.19493053704E+03  0.30035023383E+03  0.00000000000E+00 0. -1.
         -2    1    3    3    0  502  0.50730784200E+02  0.75160549049E+02  0.14545869743E+03  0.17140873156E+03  0.00000000000E+00 0.  1.
         11    1    5    5    0    0 -0.22623064905E+03 -0.13402672590E+02  0.22283614404E+03  0.31782996286E+03  0.00000000000E+00 0.  1.
        -11    1    5    5    0    0 -0.13768860546E+03  0.50492807970E+02  0.11517028010E+03  0.18647216722E+03  0.00000000000E+00 0. -1.
          5    1    6    6  503    0  0.21332986280E+02 -0.18814944665E+01  0.18454300746E+02  0.28658114751E+02  0.47000000000E+01 0. -1.
         -5    1    6    6    0  503  0.98676868591E+02 -0.23241168760E+03  0.48740522411E+03  0.54894285624E+03  0.47000000000E+01 0.  1.
<mgrwt>
<rscale>  0 0.48346156E+03</rscale>
<asrwt>0</asrwt>
<pdfrwt beam="1">  1        2 0.21060901E+00 0.48346156E+03</pdfrwt>
<pdfrwt beam="2">  1       -2 0.28415915E-01 0.48346156E+03</pdfrwt>
<totfact> 0.17757845E+02</totfact>
</mgrwt>
</event>
<event>
12    1  0.3166324E-008  0.9577601E+03  0.7818608E-02  0.9356126E-01
         -1   -1    0    0    0  501 -0.00000000000E+00  0.00000000000E+00  0.95810579269E+03  0.95810579269E+03  0.00000000000E+00 0.  1.
          1   -1    0    0  501    0  0.00000000000E+00 -0.00000000000E+00 -0.10202682714E+04  0.10202682714E+04  0.00000000000E+00 0. -1.
         23    2    1    2    0    0  0.57677516406E+03  0.66871386722E+03 -0.17443706335E+03  0.90482744945E+03  0.91850955949E+02 0.  0.
    5000000    2    1    2    0    0 -0.57677516406E+03 -0.66871386722E+03  0.11227458462E+03  0.10735466147E+04  0.60004076979E+03 0.  0.
         23    2    4    4    0    0  0.88057341153E+02 -0.10352385512E+03 -0.65645022580E+02  0.17866168958E+03  0.95600452007E+02 0.  0.
         23    2    4    4    0    0 -0.66483250522E+03 -0.56519001211E+03  0.17791960720E+03  0.89488492509E+03  0.87872821430E+02 0.  0.
          3    1    3    3  502    0  0.65040743945E+02  0.47707933557E+02 -0.35951919211E+02  0.88311300478E+02  0.00000000000E+00 0. -1.
         -3    1    3    3    0  502  0.51173442012E+03  0.62100593367E+03 -0.13848514414E+03  0.81651614897E+03  0.00000000000E+00 0.  1.
         13    1    5    5    0    0 -0.10991460334E+02  0.31179098720E+01  0.95041282360E+01  0.14861427111E+02  0.00000000000E+00 0.  1.
        -13    1    5    5    0    0  0.99048801487E+02 -0.10664176499E+03 -0.75149150816E+02  0.16380026247E+03  0.00000000000E+00 0. -1.
          5    1    6    6  503    0 -0.29962648603E+03 -0.23465678315E+03  0.11901133778E+03  0.39878017194E+03  0.47000000000E+01 0.  1.
         -5    1    6    6    0  503 -0.36520601919E+03 -0.33053322895E+03  0.58908269419E+02  0.49610475315E+03  0.47000000000E+01 0. -1.
<mgrwt>
<rscale>  0 0.95776005E+03</rscale>
<asrwt>0</asrwt>
<pdfrwt beam="1">  1        1 0.15696435E+00 0.95776005E+03</pdfrwt>
<pdfrwt beam="2">  1       -1 0.14740089E+00 0.95776005E+03</pdfrwt>
<totfact> 0.53759662E+00</totfact>
</mgrwt>
</event>
<event>
12    1  0.4001180E-008  0.1207553E+04  0.7818608E-02  0.9106271E-01
          1   -1    0    0  501    0  0.00000000000E+00  0.00000000000E+00  0.23675229951E+04  0.23675229951E+04  0.00000000000E+00 0. -1.
         -1   -1    0    0    0  501 -0.00000000000E+00 -0.00000000000E+00 -0.65856346781E+03  0.65856346781E+03  0.00000000000E+00 0.  1.
         23    2    1    2    0    0  0.10976366212E+04  0.40684013621E+03  0.68693442824E+03  0.13603159540E+04  0.90859987022E+02 0.  0.
    5000000    2    1    2    0    0 -0.10976366212E+04 -0.40684013621E+03  0.10220250990E+04  0.16657705089E+04  0.59994252784E+03 0.  0.
         23    2    4    4    0    0 -0.99011350840E+03 -0.21044836891E+03  0.99620345816E+03  0.14231425335E+04  0.91104693884E+02 0.  0.
         23    2    4    4    0    0 -0.10752311281E+03 -0.19639176730E+03  0.25821640839E+02  0.24262797536E+03  0.89836692063E+02 0.  0.
          3    1    3    3  502    0  0.42496814018E+03  0.18399493607E+03  0.31446868829E+03  0.55977014263E+03  0.00000000000E+00 0. -1.
         -3    1    3    3    0  502  0.67266848103E+03  0.22284520014E+03  0.37246573995E+03  0.80054581133E+03  0.00000000000E+00 0.  1.
         13    1    5    5    0    0 -0.69465613262E+03 -0.10587302993E+03  0.70273327405E+03  0.99377577727E+03  0.00000000000E+00 0. -1.
        -13    1    5    5    0    0 -0.29545737578E+03 -0.10457533897E+03  0.29347018412E+03  0.42936675627E+03  0.00000000000E+00 0.  1.
          5    1    6    6  503    0 -0.80490043652E+01 -0.45939034851E+02 -0.27679911745E+02  0.54437568907E+02  0.47000000000E+01 0. -1.
         -5    1    6    6    0  503 -0.99474108448E+02 -0.15045273245E+03  0.53501552584E+02  0.18819040645E+03  0.47000000000E+01 0.  1.
<mgrwt>
<rscale>  0 0.12075532E+04</rscale>
<asrwt>0</asrwt>
<pdfrwt beam="1">  1        1 0.36423430E+00 0.12075532E+04</pdfrwt>
<pdfrwt beam="2">  1       -1 0.10131746E+00 0.12075532E+04</pdfrwt>
<totfact> 0.15282694E+00</totfact>
</mgrwt>
</event>
<event>
12    1  0.3166324E-008  0.8908212E+03  0.7818608E-02  0.9437129E-01
          1   -1    0    0  501    0  0.00000000000E+00  0.00000000000E+00  0.36819121193E+04  0.36819121193E+04  0.00000000000E+00 0. -1.
         -1   -1    0    0    0  501 -0.00000000000E+00 -0.00000000000E+00 -0.25511390019E+03  0.25511390019E+03  0.00000000000E+00 0.  1.
         23    2    1    2    0    0  0.84781654324E+03 -0.15447938651E+03  0.12611982266E+04  0.15300887630E+04  0.88847533121E+02 0.  0.
    5000000    2    1    2    0    0 -0.84781654324E+03  0.15447938651E+03  0.21655999925E+04  0.24069372565E+04  0.60072194659E+03 0.  0.
         23    2    4    4    0    0 -0.43521539407E+03 -0.62753023496E+02  0.16316644345E+04  0.16922973966E+04  0.90505638292E+02 0.  0.
         23    2    4    4    0    0 -0.41260114917E+03  0.21723241001E+03  0.53393555801E+03  0.71463985985E+03  0.90516964825E+02 0.  0.
          3    1    3    3  502    0  0.65235129410E+03 -0.15595978494E+03  0.98786774223E+03  0.11940554181E+04  0.00000000000E+00 0. -1.
         -3    1    3    3    0  502  0.19546524914E+03  0.14803984301E+01  0.27333048434E+03  0.33603334488E+03  0.00000000000E+00 0.  1.
         13    1    5    5    0    0 -0.26783384998E+03  0.59306842489E+01  0.99213289431E+03  0.10276662027E+04  0.00000000000E+00 0.  1.
        -13    1    5    5    0    0 -0.16738154409E+03 -0.68683707745E+02  0.63953154018E+03  0.66463119390E+03  0.00000000000E+00 0. -1.
          5    1    6    6  503    0 -0.12498059372E+03  0.73070418764E+02  0.10725313407E+03  0.18023528976E+03  0.47000000000E+01 0. -1.
         -5    1    6    6    0  503 -0.28762055545E+03  0.14416199124E+03  0.42668242394E+03  0.53440457009E+03  0.47000000000E+01 0.  1.
<mgrwt>
<rscale>  0 0.89082118E+03</rscale>
<asrwt>0</asrwt>
<pdfrwt beam="1">  1        1 0.56644798E+00 0.89082118E+03</pdfrwt>
<pdfrwt beam="2">  1       -1 0.39248295E-01 0.89082118E+03</pdfrwt>
<totfact> 0.11973527E+00</totfact>
</mgrwt>
</event>
<event>
12    1  0.3166324E-008  0.8351918E+03  0.7818608E-02  0.9510430E-01
         -2   -1    0    0    0  501 -0.00000000000E+00  0.00000000000E+00  0.63991838081E+03  0.63991838081E+03  0.00000000000E+00 0.  1.
          2   -1    0    0  501    0  0.00000000000E+00 -0.00000000000E+00 -0.12917867799E+04  0.12917867799E+04  0.00000000000E+00 0. -1.
         23    2    1    2    0    0  0.61374067728E+03 -0.40632269728E+03 -0.64668822980E+03  0.98208590822E+03  0.67166295847E+02 0.  0.
    5000000    2    1    2    0    0 -0.61374067728E+03  0.40632269728E+03 -0.51801692906E+01  0.94961925248E+03  0.59997844733E+03 0.  0.
         23    2    4    4    0    0  0.46751234957E+02  0.23831287081E+03 -0.30841149293E+02  0.26158613659E+03  0.92181494902E+02 0.  0.
         23    2    4    4    0    0 -0.66049191224E+03  0.16800982646E+03  0.25660980002E+02  0.68803311589E+03  0.90852709070E+02 0.  0.
          3    1    3    3  502    0  0.38717143072E+03 -0.29446414692E+03 -0.42779115993E+03  0.64777783777E+03  0.00000000000E+00 0. -1.
         -3    1    3    3    0  502  0.22656924656E+03 -0.11185855036E+03 -0.21889706987E+03  0.33430807045E+03  0.00000000000E+00 0.  1.
         11    1    5    5    0    0  0.13124359659E+02  0.12122341429E+03 -0.60630685992E+02  0.13617431870E+03  0.00000000000E+00 0. -1.
        -11    1    5    5    0    0  0.33626875298E+02  0.11708945652E+03  0.29789536699E+02  0.12541181790E+03  0.00000000000E+00 0.  1.
          5    1    6    6  503    0 -0.24913508159E+03  0.18685867469E+02  0.62771380786E+01  0.24995788242E+03  0.47000000000E+01 0. -1.
         -5    1    6    6    0  503 -0.41135683065E+03  0.14932395899E+03  0.19383841924E+02  0.43807523347E+03  0.47000000000E+01 0.  1.
<mgrwt>
<rscale>  0 0.83519183E+03</rscale>
<asrwt>0</asrwt>
<pdfrwt beam="1">  1        2 0.19873642E+00 0.83519183E+03</pdfrwt>
<pdfrwt beam="2">  1       -2 0.98448983E-01 0.83519183E+03</pdfrwt>
<totfact> 0.14482132E+01</totfact>
</mgrwt>
</event>
<event>
12    1  0.3166324E-008  0.6506852E+03  0.7818608E-02  0.9805494E-01
         -1   -1    0    0    0  501 -0.00000000000E+00  0.00000000000E+00  0.14149962486E+03  0.14149962486E+03  0.00000000000E+00 0.  1.
          1   -1    0    0  501    0  0.00000000000E+00 -0.00000000000E+00 -0.37687018274E+04  0.37687018274E+04  0.00000000000E+00 0. -1.
         23    2    1    2    0    0  0.41483407666E+03  0.43509801851E+03 -0.13895697331E+04  0.15167795360E+04  0.91205925794E+02 0.  0.
    5000000    2    1    2    0    0 -0.41483407666E+03 -0.43509801851E+03 -0.22376324694E+04  0.23934219162E+04  0.60005983363E+03 0.  0.
         23    2    4    4    0    0  0.17153486890E+02  0.19437239170E+02 -0.98596132765E+03  0.99049191739E+03  0.91007968907E+02 0.  0.
         23    2    4    4    0    0 -0.43198756355E+03 -0.45453525768E+03 -0.12516711418E+04  0.14029299988E+04  0.91194182567E+02 0.  0.
          4    1    3    3  502    0  0.23187782006E+03  0.27520786438E+03 -0.73012962089E+03  0.81399997257E+03  0.00000000000E+00 0. -1.
         -4    1    3    3    0  502  0.18295625660E+03  0.15989015414E+03 -0.65944011221E+03  0.70277956345E+03  0.00000000000E+00 0.  1.
         11    1    5    5    0    0 -0.18370527461E+02 -0.98057117048E+01 -0.73824187818E+03  0.73853550962E+03  0.00000000000E+00 0.  1.
        -11    1    5    5    0    0  0.35524014351E+02  0.29242950874E+02 -0.24771944947E+03  0.25195640777E+03  0.00000000000E+00 0. -1.
          5    1    6    6  503    0 -0.27609659665E+03 -0.34095717012E+03 -0.81680950476E+03  0.92718982933E+03  0.47000000000E+01 0. -1.
         -5    1    6    6    0  503 -0.15589096689E+03 -0.11357808756E+03 -0.43486163702E+03  0.47574016951E+03  0.47000000000E+01 0.  1.
<mgrwt>
<rscale>  0 0.65068524E+03</rscale>
<asrwt>0</asrwt>
<pdfrwt beam="1">  1        1 0.57980028E+00 0.65068524E+03</pdfrwt>
<pdfrwt beam="2">  1       -1 0.21769173E-01 0.65068524E+03</pdfrwt>
<totfact> 0.29889774E+00</totfact>
</mgrwt>
</event>
<event>
12    1  0.3166324E-008  0.1482448E+04  0.7818608E-02  0.8896209E-01
         -2   -1    0    0    0  501 -0.00000000000E+00  0.00000000000E+00  0.14312993704E+04  0.14312993704E+04  0.00000000000E+00 0.  1.
          2   -1    0    0  501    0  0.00000000000E+00 -0.00000000000E+00 -0.15858704245E+04  0.15858704245E+04  0.00000000000E+00 0. -1.
         23    2    1    2    0    0 -0.33762930282E+02  0.14380008436E+04  0.70972804631E+02  0.14429261184E+04  0.89511354985E+02 0.  0.
    5000000    2    1    2    0    0  0.33762930282E+02 -0.14380008436E+04 -0.22554385864E+03  0.15742436764E+04  0.59865412306E+03 0.  0.
         23    2    4    4    0    0  0.24843795068E+03 -0.54688912329E+03  0.57456268242E+02  0.61053243026E+03  0.92948895246E+02 0.  0.
         23    2    4    4    0    0 -0.21467502040E+03 -0.89111172029E+03 -0.28300012689E+03  0.96371124619E+03  0.92113146623E+02 0.  0.
          4    1    3    3  502    0  0.22521223625E+02  0.16857141303E+03  0.19821724025E+02  0.17122040634E+03  0.00000000000E+00 0. -1.
         -4    1    3    3    0  502 -0.56284153907E+02  0.12694294306E+04  0.51151080605E+02  0.12717057121E+04  0.00000000000E+00 0.  1.
         13    1    5    5    0    0  0.21058630672E+03 -0.38271114659E+03  0.16467555885E+02  0.43713338319E+03  0.00000000000E+00 0.  1.
        -13    1    5    5    0    0  0.37851643958E+02 -0.16417797670E+03  0.40988712357E+02  0.17339904707E+03  0.00000000000E+00 0. -1.
          5    1    6    6  503    0 -0.16928744928E+03 -0.57389266944E+03 -0.15107342601E+03  0.61713556580E+03  0.47000000000E+01 0. -1.
         -5    1    6    6    0  503 -0.45387571123E+02 -0.31721905085E+03 -0.13192670087E+03  0.34657568039E+03  0.47000000000E+01 0.  1.
<mgrwt>
<rscale>  0 0.14824483E+04</rscale>
<asrwt>0</asrwt>
<pdfrwt beam="1">  1        2 0.24398006E+00 0.14824483E+04</pdfrwt>
<pdfrwt beam="2">  1       -2 0.22019990E+00 0.14824483E+04</pdfrwt>
<totfact> 0.10542961E+00</totfact>
</mgrwt>
</event>
<event>
12    1  0.3166324E-008  0.4826241E+03  0.7818608E-02  0.1018416E+00
         -2   -1    0    0    0  501 -0.00000000000E+00  0.00000000000E+00  0.62000034287E+03  0.62000034287E+03  0.00000000000E+00 0.  1.
          2   -1    0    0  501    0  0.00000000000E+00 -0.00000000000E+00 -0.19919583832E+04  0.19919583832E+04  0.00000000000E+00 0. -1.
         23    2    1    2    0    0  0.14280651128E+03  0.41966343664E+03 -0.17276743652E+04  0.17855153528E+04  0.81824588505E+02 0.  0.
    5000000    2    1    2    0    0 -0.14280651128E+03 -0.41966343664E+03  0.35571632484E+03  0.82644337328E+03  0.59996953737E+03 0.  0.
         23    2    4    4    0    0 -0.10473737657E+03 -0.41155970380E+02  0.40693212572E+03  0.43202427070E+03  0.91583205780E+02 0.  0.
         23    2    4    4    0    0 -0.38069134713E+02 -0.37850746626E+03 -0.51215800880E+02  0.39441910258E+03  0.90698451967E+02 0.  0.
          4    1    3    3  502    0  0.11494539612E+03  0.32423540775E+03 -0.11898955300E+04  0.12386252121E+04  0.00000000000E+00 0. -1.
         -4    1    3    3    0  502  0.27861115159E+02  0.95428028890E+02 -0.53777883518E+03  0.54689014071E+03  0.00000000000E+00 0.  1.
         11    1    5    5    0    0 -0.21565174448E+02 -0.44608377477E+02  0.24487521648E+03  0.24983761874E+03  0.00000000000E+00 0. -1.
        -11    1    5    5    0    0 -0.83172202120E+02  0.34524070970E+01  0.16205690924E+03  0.18218665196E+03  0.00000000000E+00 0.  1.
          5    1    6    6  503    0 -0.51271442795E+02 -0.12561713664E+03  0.12452871979E+01  0.13576474728E+03  0.47000000000E+01 0. -1.
         -5    1    6    6    0  503  0.13202308082E+02 -0.25289032962E+03 -0.52461088078E+02  0.25865435530E+03  0.47000000000E+01 0.  1.
<mgrwt>
<rscale>  0 0.48262407E+03</rscale>
<asrwt>0</asrwt>
<pdfrwt beam="1">  1        2 0.30645513E+00 0.48262407E+03</pdfrwt>
<pdfrwt beam="2">  1       -2 0.95384670E-01 0.48262407E+03</pdfrwt>
<totfact> 0.68087965E+00</totfact>
</mgrwt>
</event>
<event>
12    1  0.3166324E-008  0.4997591E+03  0.7818608E-02  0.1013842E+00
         -1   -1    0    0    0  501 -0.00000000000E+00  0.00000000000E+00  0.11403112849E+04  0.11403112849E+04  0.00000000000E+00 0.  1.
          1   -1    0    0  501    0  0.00000000000E+00 -0.00000000000E+00 -0.25565997769E+03  0.25565997769E+03  0.00000000000E+00 0. -1.
         23    2    1    2    0    0  0.20887703230E+03  0.24175618811E+03  0.53757360890E+03  0.63276000361E+03  0.96561731920E+02 0.  0.
    5000000    2    1    2    0    0 -0.20887703230E+03 -0.24175618811E+03  0.34707769827E+03  0.76321125894E+03  0.59996068873E+03 0.  0.
         23    2    4    4    0    0 -0.28000525426E+02 -0.40773649870E+03  0.20394968094E+03  0.46485471169E+03  0.86379099496E+02 0.  0.
         23    2    4    4    0    0 -0.18087650688E+03  0.16598031059E+03  0.14312801734E+03  0.29835654725E+03  0.90913286696E+02 0.  0.
          4    1    3    3  502    0  0.16858745688E+03  0.15449366816E+03  0.30575767018E+03  0.38180856066E+03  0.00000000000E+00 0. -1.
         -4    1    3    3    0  502  0.40289575428E+02  0.87262519953E+02  0.23181593872E+03  0.25095144296E+03  0.00000000000E+00 0.  1.
         13    1    5    5    0    0 -0.49177271330E+02 -0.16358071336E+03  0.10537055997E+03  0.20069880096E+03  0.00000000000E+00 0. -1.
        -13    1    5    5    0    0  0.21176745904E+02 -0.24415578534E+03  0.98579120967E+02  0.26415591073E+03  0.00000000000E+00 0.  1.
          5    1    6    6  503    0  0.73880402028E+01  0.15442188688E+02  0.22815386005E+02  0.28908064067E+02  0.47000000000E+01 0. -1.
         -5    1    6    6    0  503 -0.18826454708E+03  0.15053812190E+03  0.12031263133E+03  0.26944848319E+03  0.47000000000E+01 0.  1.
<mgrwt>
<rscale>  0 0.49975908E+03</rscale>
<asrwt>0</asrwt>
<pdfrwt beam="1">  1        1 0.39332305E-01 0.49975908E+03</pdfrwt>
<pdfrwt beam="2">  1       -1 0.17543250E+00 0.49975908E+03</pdfrwt>
<totfact> 0.25570605E+01</totfact>
</mgrwt>
</event>
<event>
12    1  0.3166324E-008  0.9337574E+03  0.7818608E-02  0.9384340E-01
         -1   -1    0    0    0  501 -0.00000000000E+00  0.00000000000E+00  0.38946355450E+03  0.38946355450E+03  0.00000000000E+00 0.  1.
          1   -1    0    0  501    0  0.00000000000E+00 -0.00000000000E+00 -0.28900336661E+04  0.28900336661E+04  0.00000000000E+00 0. -1.
         23    2    1    2    0    0 -0.49380936683E+03 -0.77919617544E+03 -0.67059129968E+03  0.11441023053E+04  0.91011115285E+02 0.  0.
    5000000    2    1    2    0    0  0.49380936683E+03  0.77919617544E+03 -0.18299788119E+04  0.21353949154E+04  0.60007884632E+03 0.  0.
         23    2    4    4    0    0  0.90265702388E+02  0.17923885556E+03 -0.10297184261E+04  0.10530722406E+04  0.91469353208E+02 0.  0.
         23    2    4    4    0    0  0.40354366445E+03  0.59995731988E+03 -0.80026038588E+03  0.10823226748E+04  0.90605807244E+02 0.  0.
          4    1    3    3  502    0 -0.33566810314E+03 -0.52538618098E+03 -0.50461169737E+03  0.80208271379E+03  0.00000000000E+00 0. -1.
         -4    1    3    3    0  502 -0.15814126369E+03 -0.25380999446E+03 -0.16597960231E+03  0.34201959147E+03  0.00000000000E+00 0.  1.
         11    1    5    5    0    0  0.80464910233E+02  0.18856512105E+03 -0.92269280337E+03  0.94519490903E+03  0.00000000000E+00 0.  1.
        -11    1    5    5    0    0  0.98007921553E+01 -0.93262654887E+01 -0.10702562268E+03  0.10787733156E+03  0.00000000000E+00 0. -1.
          5    1    6    6  503    0  0.27164027588E+03  0.34271925259E+03 -0.52275820207E+03  0.68157402636E+03  0.47000000000E+01 0. -1.
         -5    1    6    6    0  503  0.13190338856E+03  0.25723806729E+03 -0.27750218381E+03  0.40074864841E+03  0.47000000000E+01 0.  1.
<mgrwt>
<rscale>  0 0.93375743E+03</rscale>
<asrwt>0</asrwt>
<pdfrwt beam="1">  1        1 0.44462058E+00 0.93375743E+03</pdfrwt>
<pdfrwt beam="2">  1       -1 0.59917468E-01 0.93375743E+03</pdfrwt>
<totfact> 0.21027984E+00</totfact>
</mgrwt>
</event>
<event>
12    1  0.3166324E-008  0.5097213E+03  0.7818608E-02  0.1011272E+00
         -2   -1    0    0    0  501 -0.00000000000E+00  0.00000000000E+00  0.22594200794E+03  0.22594200794E+03  0.00000000000E+00 0. -1.
          2   -1    0    0  501    0  0.00000000000E+00 -0.00000000000E+00 -0.15896907297E+04  0.15896907297E+04  0.00000000000E+00 0.  1.
         23    2    1    2    0    0 -0.33818220154E+03 -0.21717425118E+03 -0.23085180714E+03  0.47214663622E+03  0.89989068331E+02 0.  0.
    5000000    2    1    2    0    0  0.33818220154E+03  0.21717425118E+03 -0.11328969146E+04  0.13434861014E+04  0.59997302334E+03 0.  0.
         23    2    4    4    0    0  0.12340741235E+03 -0.12366774732E+03 -0.76383260229E+03  0.78867139989E+03  0.89661761820E+02 0.  0.
         23    2    4    4    0    0  0.21477478919E+03  0.34084199850E+03 -0.36906431236E+03  0.55481470155E+03  0.96485275521E+02 0.  0.
          3    1    3    3  502    0 -0.21934930153E+03 -0.18177174888E+03 -0.18632447885E+03  0.34039961250E+03  0.00000000000E+00 0. -1.
         -3    1    3    3    0  502 -0.11883290001E+03 -0.35402502302E+02 -0.44527328294E+02  0.13174702372E+03  0.00000000000E+00 0.  1.
         11    1    5    5    0    0  0.11486259100E+03 -0.13804788631E+03 -0.70404439194E+03  0.72658732410E+03  0.00000000000E+00 0. -1.
        -11    1    5    5    0    0  0.85448213462E+01  0.14380138992E+02 -0.59788210353E+02  0.62084075788E+02  0.00000000000E+00 0.  1.
          5    1    6    6  503    0  0.22318906504E+03  0.33618738421E+03 -0.35940133684E+03  0.54039497312E+03  0.47000000000E+01 0. -1.
         -5    1    6    6    0  503 -0.84142758439E+01  0.46546142821E+01 -0.96629755213E+01  0.14419728431E+02  0.47000000000E+01 0.  1.
<mgrwt>
<rscale>  0 0.50972129E+03</rscale>
<asrwt>0</asrwt>
<pdfrwt beam="1">  1        2 0.24456780E+00 0.50972129E+03</pdfrwt>
<pdfrwt beam="2">  1       -2 0.34760309E-01 0.50972129E+03</pdfrwt>
<totfact> 0.91986502E+01</totfact>
</mgrwt>
</event>
<event>
12    1  0.3166324E-008  0.1542428E+04  0.7818608E-02  0.8856719E-01
          2   -1    0    0  501    0  0.00000000000E+00  0.00000000000E+00  0.36341554257E+04  0.36341554257E+04  0.00000000000E+00 0. -1.
         -2   -1    0    0    0  501 -0.00000000000E+00 -0.00000000000E+00 -0.72287323356E+03  0.72287323356E+03  0.00000000000E+00 0.  1.
         23    2    1    2    0    0 -0.40798560720E+03  0.14588970819E+04  0.19297803679E+04  0.24549090040E+04  0.87709739050E+02 0.  0.
    5000000    2    1    2    0    0  0.40798560720E+03 -0.14588970819E+04  0.98150182432E+03  0.19021196553E+04  0.59990032570E+03 0.  0.
         23    2    4    4    0    0  0.47477782158E+03 -0.11691808981E+04  0.56991339483E+03  0.13876816859E+04  0.91984951397E+02 0.  0.
         23    2    4    4    0    0 -0.66792214387E+02 -0.28971618377E+03  0.41158842949E+03  0.51443796945E+03  0.82732835564E+02 0.  0.
          4    1    3    3  502    0 -0.35082421395E+03  0.12597681270E+04  0.16147394162E+04  0.20778538796E+04  0.00000000000E+00 0. -1.
         -4    1    3    3    0  502 -0.57161393252E+02  0.19912895488E+03  0.31504095168E+03  0.37705512434E+03  0.00000000000E+00 0.  1.
         13    1    5    5    0    0  0.27680739628E+03 -0.77158032358E+03  0.33874521579E+03  0.88696496638E+03  0.00000000000E+00 0.  1.
        -13    1    5    5    0    0  0.19797042530E+03 -0.39760057456E+03  0.23116817904E+03  0.50071671950E+03  0.00000000000E+00 0. -1.
          5    1    6    6  503    0  0.97600315857E+01 -0.11207488234E+03  0.12061151312E+03  0.16500080171E+03  0.47000000000E+01 0. -1.
         -5    1    6    6    0  503 -0.76552245973E+02 -0.17764130143E+03  0.29097691637E+03  0.34943716774E+03  0.47000000000E+01 0.  1.
<mgrwt>
<rscale>  0 0.15424278E+04</rscale>
<asrwt>0</asrwt>
<pdfrwt beam="1">  1        2 0.55910082E+00 0.15424278E+04</pdfrwt>
<pdfrwt beam="2">  1       -2 0.11121127E+00 0.15424278E+04</pdfrwt>
<totfact> 0.39922425E-01</totfact>
</mgrwt>
</event>
<event>
12    1  0.3166324E-008  0.6505973E+03  0.7818608E-02  0.9805659E-01
          1   -1    0    0  501    0  0.00000000000E+00  0.00000000000E+00  0.10050457820E+04  0.10050457820E+04  0.00000000000E+00 0. -1.
         -1   -1    0    0    0  501 -0.00000000000E+00 -0.00000000000E+00 -0.51560041322E+03  0.51560041322E+03  0.00000000000E+00 0.  1.
         23    2    1    2    0    0 -0.14884644955E+03 -0.55718117703E+03  0.33646113987E+03  0.67469634321E+03  0.96968692459E+02 0.  0.
    5000000    2    1    2    0    0  0.14884644955E+03  0.55718117703E+03  0.15298422892E+03  0.84594985203E+03  0.59968395698E+03 0.  0.
         23    2    4    4    0    0  0.10325352415E+03 -0.12864332597E+02  0.22230131730E+03  0.26244405451E+03  0.92909766844E+02 0.  0.
         23    2    4    4    0    0  0.45592925404E+02  0.57004550963E+03 -0.69317088374E+02  0.58350579751E+03  0.92970743210E+02 0.  0.
          2    1    3    3  502    0 -0.89726349296E+02 -0.16161852923E+03  0.10753937179E+03  0.21385996173E+03  0.00000000000E+00 0. -1.
         -2    1    3    3    0  502 -0.59120100255E+02 -0.39556264781E+03  0.22892176808E+03  0.46083638148E+03  0.00000000000E+00 0.  1.
         13    1    5    5    0    0  0.88800096656E+02 -0.46652914282E+02  0.13917535241E+03  0.17155678446E+03  0.00000000000E+00 0.  1.
        -13    1    5    5    0    0  0.14453427491E+02  0.33788581685E+02  0.83125964888E+02  0.90887270049E+02  0.00000000000E+00 0. -1.
          5    1    6    6  503    0 -0.27264484493E+02  0.10506405370E+03 -0.15993097732E+02  0.10981655918E+03  0.47000000000E+01 0. -1.
         -5    1    6    6    0  503  0.72857409897E+02  0.46498145593E+03 -0.53323990643E+02  0.47368923834E+03  0.47000000000E+01 0.  1.
<mgrwt>
<rscale>  0 0.65059732E+03</rscale>
<asrwt>0</asrwt>
<pdfrwt beam="1">  1        1 0.15462243E+00 0.65059732E+03</pdfrwt>
<pdfrwt beam="2">  1       -1 0.79323141E-01 0.65059732E+03</pdfrwt>
<totfact> 0.24792699E+01</totfact>
</mgrwt>
</event>
<event>
12    1  0.3166324E-008  0.1791531E+04  0.7818608E-02  0.8710816E-01
          2   -1    0    0  501    0  0.00000000000E+00  0.00000000000E+00  0.25553447289E+04  0.25553447289E+04  0.00000000000E+00 0.  1.
         -2   -1    0    0    0  501 -0.00000000000E+00 -0.00000000000E+00 -0.13928143442E+04  0.13928143442E+04  0.00000000000E+00 0. -1.
         23    2    1    2    0    0 -0.12590906347E+04 -0.12205539344E+04  0.11418739858E+04  0.20946425543E+04  0.92682779637E+02 0.  0.
    5000000    2    1    2    0    0  0.12590906347E+04  0.12205539344E+04  0.20656398902E+02  0.18535165187E+04  0.60002972030E+03 0.  0.
         23    2    4    4    0    0  0.76613146197E+03  0.10633618430E+04  0.11714843127E+03  0.13186239280E+04  0.85729121818E+02 0.  0.
         23    2    4    4    0    0  0.49295917272E+03  0.15719209141E+03 -0.96492032366E+02  0.53489259075E+03  0.95295706934E+02 0.  0.
          4    1    3    3  502    0 -0.57150241560E+03 -0.53048791119E+03  0.55892290484E+03  0.95938899749E+03  0.00000000000E+00 0. -1.
         -4    1    3    3    0  502 -0.68758821909E+03 -0.69006602324E+03  0.58295108095E+03  0.11352535568E+04  0.00000000000E+00 0.  1.
         13    1    5    5    0    0  0.71924751218E+03  0.10113342350E+04  0.12859916054E+03  0.12476584720E+04  0.00000000000E+00 0. -1.
        -13    1    5    5    0    0  0.46883949792E+02  0.52027608017E+02 -0.11450729270E+02  0.70965455997E+02  0.00000000000E+00 0.  1.
          5    1    6    6  503    0  0.41666704022E+03  0.12387939294E+03 -0.45349005797E+02  0.43707682246E+03  0.47000000000E+01 0. -1.
         -5    1    6    6    0  503  0.76292132498E+02  0.33312698464E+02 -0.51143026569E+02  0.97815768293E+02  0.47000000000E+01 0.  1.
<mgrwt>
<rscale>  0 0.17915309E+04</rscale>
<asrwt>0</asrwt>
<pdfrwt beam="1">  1        2 0.39312996E+00 0.17915309E+04</pdfrwt>
<pdfrwt beam="2">  1       -2 0.21427913E+00 0.17915309E+04</pdfrwt>
<totfact> 0.31635997E-01</totfact>
</mgrwt>
</event>
<event>
12    1  0.3166324E-008  0.3728015E+03  0.7818608E-02  0.1053627E+00
          2   -1    0    0  501    0  0.00000000000E+00  0.00000000000E+00  0.37060593695E+04  0.37060593695E+04  0.00000000000E+00 0. -1.
         -2   -1    0    0    0  501 -0.00000000000E+00 -0.00000000000E+00 -0.57426579883E+02  0.57426579883E+02  0.00000000000E+00 0.  1.
         23    2    1    2    0    0  0.11126572871E+03 -0.10091688288E+03  0.19105491040E+04  0.19186341491E+04  0.91623357552E+02 0.  0.
    5000000    2    1    2    0    0 -0.11126572871E+03  0.10091688288E+03  0.17380836856E+04  0.18448518003E+04  0.59998248906E+03 0.  0.
         23    2    4    4    0    0  0.46369615222E+02 -0.22294664429E+03  0.64744039034E+03  0.69254545537E+03  0.92654202760E+02 0.  0.
         23    2    4    4    0    0 -0.15763534393E+03  0.32386352717E+03  0.10906432953E+04  0.11523063449E+04  0.92577692375E+02 0.  0.
          4    1    3    3  502    0  0.95567325707E+02 -0.91146730737E+02  0.11036701178E+04  0.11115433277E+04  0.00000000000E+00 0. -1.
         -4    1    3    3    0  502  0.15698402999E+02 -0.97701521393E+01  0.80687898617E+03  0.80709082144E+03  0.00000000000E+00 0.  1.
         11    1    5    5    0    0 -0.87931212377E+01 -0.88692609088E+02  0.35566164111E+03  0.36665910713E+03  0.00000000000E+00 0.  1.
        -11    1    5    5    0    0  0.55162736460E+02 -0.13425403520E+03  0.29177874924E+03  0.32588634824E+03  0.00000000000E+00 0. -1.
          5    1    6    6  503    0 -0.58438643887E+02  0.14064313812E+03  0.32737772659E+03  0.36110086301E+03  0.47000000000E+01 0. -1.
         -5    1    6    6    0  503 -0.99196700041E+02  0.18322038905E+03  0.76326556866E+03  0.79120548188E+03  0.47000000000E+01 0.  1.
<mgrwt>
<rscale>  0 0.37280149E+03</rscale>
<asrwt>0</asrwt>
<pdfrwt beam="1">  1        2 0.57016279E+00 0.37280149E+03</pdfrwt>
<pdfrwt beam="2">  1       -2 0.88348614E-02 0.37280149E+03</pdfrwt>
<totfact> 0.57211673E+01</totfact>
</mgrwt>
</event>
<event>
12    1  0.3166324E-008  0.9717869E+03  0.7818608E-02  0.9340041E-01
         -2   -1    0    0    0  501 -0.00000000000E+00  0.00000000000E+00  0.18088439912E+04  0.18088439912E+04  0.00000000000E+00 0.  1.
          2   -1    0    0  501    0  0.00000000000E+00 -0.00000000000E+00 -0.53683725961E+03  0.53683725961E+03  0.00000000000E+00 0. -1.
         23    2    1    2    0    0 -0.38265916022E+03  0.80137223075E+03  0.67189044261E+03  0.11173489796E+04  0.91686914259E+02 0.  0.
    5000000    2    1    2    0    0  0.38265916022E+03 -0.80137223075E+03  0.60011628896E+03  0.12283322712E+04  0.60002926846E+03 0.  0.
         23    2    4    4    0    0  0.14370035295E+03 -0.79754683586E+03  0.43582512928E+03  0.92456438019E+03  0.90249670175E+02 0.  0.
         23    2    4    4    0    0  0.23895880727E+03 -0.38253948919E+01  0.16429115968E+03  0.30376789099E+03  0.90373675527E+02 0.  0.
          3    1    3    3  502    0 -0.27237535954E+03  0.46801326720E+03  0.39803126712E+03  0.67205181673E+03  0.00000000000E+00 0. -1.
         -3    1    3    3    0  502 -0.11028380068E+03  0.33335896355E+03  0.27385917548E+03  0.44529716288E+03  0.00000000000E+00 0.  1.
         11    1    5    5    0    0  0.64791398922E+02 -0.37132497489E+03  0.25388638124E+03  0.45446502278E+03  0.00000000000E+00 0. -1.
        -11    1    5    5    0    0  0.78908954029E+02 -0.42622186097E+03  0.18193874804E+03  0.47009935740E+03  0.00000000000E+00 0.  1.
          5    1    6    6  503    0  0.16095590709E+03 -0.14489281094E+02  0.58760897289E+02  0.17202231351E+03  0.47000000000E+01 0. -1.
         -5    1    6    6    0  503  0.78002900179E+02  0.10663886202E+02  0.10553026239E+03  0.13174557748E+03  0.47000000000E+01 0.  1.
<mgrwt>
<rscale>  0 0.97178689E+03</rscale>
<asrwt>0</asrwt>
<pdfrwt beam="1">  1        2 0.82590348E-01 0.97178689E+03</pdfrwt>
<pdfrwt beam="2">  1       -2 0.27828369E+00 0.97178689E+03</pdfrwt>
<totfact> 0.24603291E+00</totfact>
</mgrwt>
</event>
<event>
12    1  0.3166324E-008  0.1112944E+04  0.7818608E-02  0.9192667E-01
          2   -1    0    0  501    0  0.00000000000E+00  0.00000000000E+00  0.49934156259E+04  0.49934156259E+04  0.00000000000E+00 0. -1.
         -2   -1    0    0    0  501 -0.00000000000E+00 -0.00000000000E+00 -0.26156650520E+03  0.26156650520E+03  0.00000000000E+00 0.  1.
         23    2    1    2    0    0  0.98036333623E+03 -0.39387685576E+03  0.19563081392E+04  0.22252261750E+04  0.90767537665E+02 0.  0.
    5000000    2    1    2    0    0 -0.98036333623E+03  0.39387685576E+03  0.27755409815E+04  0.30297559561E+04  0.59961834948E+03 0.  0.
         23    2    4    4    0    0 -0.19788683025E+03  0.30667632308E+03  0.13178586058E+04  0.13705407885E+04  0.91767006145E+02 0.  0.
         23    2    4    4    0    0 -0.78247650597E+03  0.87200532674E+02  0.14576823757E+04  0.16592151675E+04  0.91014551423E+02 0.  0.
          4    1    3    3  502    0  0.23238012450E+03 -0.74808631369E+02  0.38301406842E+03  0.45419888837E+03  0.00000000000E+00 0. -1.
         -4    1    3    3    0  502  0.74798321173E+03 -0.31906822439E+03  0.15732940708E+04  0.17710272866E+04  0.00000000000E+00 0.  1.
         11    1    5    5    0    0 -0.11616232103E+03  0.97219622904E+02  0.52260864980E+03  0.54411868260E+03  0.00000000000E+00 0.  1.
        -11    1    5    5    0    0 -0.81724509220E+02  0.20945670018E+03  0.79524995599E+03  0.82642210592E+03  0.00000000000E+00 0. -1.
          5    1    6    6  503    0 -0.48302587382E+03  0.96637005194E+02  0.92863880905E+03  0.10512111269E+04  0.47000000000E+01 0. -1.
         -5    1    6    6    0  503 -0.29945063215E+03 -0.94364725198E+01  0.52904356660E+03  0.60800404067E+03  0.47000000000E+01 0.  1.
<mgrwt>
<rscale>  0 0.11129436E+04</rscale>
<asrwt>0</asrwt>
<pdfrwt beam="1">  1        2 0.76821772E+00 0.11129436E+04</pdfrwt>
<pdfrwt beam="2">  1       -2 0.40241004E-01 0.11129436E+04</pdfrwt>
<totfact> 0.22056372E-01</totfact>
</mgrwt>
</event>
<event>
12    1  0.3166324E-008  0.1162423E+04  0.7818608E-02  0.9146398E-01
          2   -1    0    0  501    0  0.00000000000E+00  0.00000000000E+00  0.12309164248E+04  0.12309164248E+04  0.00000000000E+00 0.  1.
         -2   -1    0    0    0  501 -0.00000000000E+00 -0.00000000000E+00 -0.11482089873E+04  0.11482089873E+04  0.00000000000E+00 0. -1.
         23    2    1    2    0    0 -0.78319465560E+03  0.75217523730E+03 -0.19678236282E+03  0.11074040901E+04  0.91973171035E+02 0.  0.
    5000000    2    1    2    0    0  0.78319465560E+03 -0.75217523730E+03  0.27948980030E+03  0.12717213220E+04  0.59999926351E+03 0.  0.
         23    2    4    4    0    0  0.44783626124E+03 -0.57600079259E+02  0.59057911752E+02  0.46463780022E+03  0.92332889254E+02 0.  0.
         23    2    4    4    0    0  0.33535839436E+03 -0.69457515805E+03  0.22043188854E+03  0.80708352179E+03  0.88846445150E+02 0.  0.
          3    1    3    3  502    0 -0.78192028762E+03  0.73728113298E+03 -0.19605554393E+03  0.10924379074E+04  0.00000000000E+00 0. -1.
         -3    1    3    3    0  502 -0.12743679774E+01  0.14894104324E+02 -0.72681888957E+00  0.14966182648E+02  0.00000000000E+00 0.  1.
         13    1    5    5    0    0  0.16761172337E+03  0.18327541314E+02  0.42246157401E+02  0.17382268666E+03  0.00000000000E+00 0.  1.
        -13    1    5    5    0    0  0.28022453787E+03 -0.75927620572E+02  0.16811754351E+02  0.29081511356E+03  0.00000000000E+00 0. -1.
          5    1    6    6  503    0  0.82382852176E+02 -0.97166484915E+02  0.41919174882E+02  0.13419227752E+03  0.47000000000E+01 0. -1.
         -5    1    6    6    0  503  0.25297554218E+03 -0.59740867313E+03  0.17851271366E+03  0.67289124427E+03  0.47000000000E+01 0.  1.
<mgrwt>
<rscale>  0 0.11624232E+04</rscale>
<asrwt>0</asrwt>
<pdfrwt beam="1">  1        2 0.18937176E+00 0.11624232E+04</pdfrwt>
<pdfrwt beam="2">  1       -2 0.17664754E+00 0.11624232E+04</pdfrwt>
<totfact> 0.33858378E+00</totfact>
</mgrwt>
</event>
<event>
12    1  0.3166324E-008  0.5449106E+03  0.7818608E-02  0.1002679E+00
          1   -1    0    0  501    0  0.00000000000E+00  0.00000000000E+00  0.23431998065E+04  0.23431998065E+04  0.00000000000E+00 0. -1.
         -1   -1    0    0    0  501 -0.00000000000E+00 -0.00000000000E+00 -0.25619634257E+03  0.25619634257E+03  0.00000000000E+00 0.  1.
         23    2    1    2    0    0  0.49548088611E+02 -0.45204968205E+03  0.99630893377E+02  0.47417438913E+03  0.90061691442E+02 0.  0.
    5000000    2    1    2    0    0 -0.49548088611E+02  0.45204968205E+03  0.19873725705E+04  0.21252217599E+04  0.60009488130E+03 0.  0.
         23    2    4    4    0    0 -0.22085640891E+03  0.15865785068E+03  0.14728324330E+04  0.15003464676E+04  0.88624376524E+02 0.  0.
         23    2    4    4    0    0  0.17130832030E+03  0.29339183137E+03  0.51454013754E+03  0.62487529235E+03  0.10145082813E+03 0.  0.
          2    1    3    3  502    0  0.39571966145E+02 -0.33065138366E+03  0.11294108904E+03  0.35164181721E+03  0.00000000000E+00 0.  1.
         -2    1    3    3    0  502  0.99761224666E+01 -0.12139829839E+03 -0.13310195663E+02  0.12253257192E+03  0.00000000000E+00 0. -1.
         11    1    5    5    0    0 -0.74829416344E+02  0.95713938301E+02  0.49644629217E+03  0.51109639066E+03  0.00000000000E+00 0. -1.
        -11    1    5    5    0    0 -0.14602699257E+03  0.62943912381E+02  0.97638614083E+03  0.98925007692E+03  0.00000000000E+00 0.  1.
          5    1    6    6  503    0  0.60381987236E+02  0.20140093718E+03  0.29904082139E+03  0.36558969452E+03  0.47000000000E+01 0. -1.
         -5    1    6    6    0  503  0.11092633306E+03  0.91990894186E+02  0.21549931616E+03  0.25928559783E+03  0.47000000000E+01 0.  1.
<mgrwt>
<rscale>  0 0.54491061E+03</rscale>
<asrwt>0</asrwt>
<pdfrwt beam="1">  1        1 0.36049226E+00 0.54491061E+03</pdfrwt>
<pdfrwt beam="2">  1       -1 0.39414824E-01 0.54491061E+03</pdfrwt>
<totfact> 0.11868682E+01</totfact>
</mgrwt>
</event>
<event>
12    1  0.3166324E-008  0.4097656E+03  0.7818608E-02  0.1040450E+00
         -1   -1    0    0    0  501 -0.00000000000E+00  0.00000000000E+00  0.26457138679E+03  0.26457138679E+03  0.00000000000E+00 0.  1.
          1   -1    0    0  501    0  0.00000000000E+00 -0.00000000000E+00 -0.70661578236E+03  0.70661578236E+03  0.00000000000E+00 0. -1.
         23    2    1    2    0    0 -0.16748067098E+03  0.11704218655E+03 -0.18258553699E+03  0.28601050508E+03  0.81950485763E+02 0.  0.
    5000000    2    1    2    0    0  0.16748067098E+03 -0.11704218655E+03 -0.25945885857E+03  0.68517666407E+03  0.60033283527E+03 0.  0.
         23    2    4    4    0    0  0.33923567529E+03  0.52913219807E+02 -0.23432047178E+03  0.42544435858E+03  0.90643072160E+02 0.  0.
         23    2    4    4    0    0 -0.17175500431E+03 -0.16995540636E+03 -0.25138386790E+02  0.25973230549E+03  0.91892928842E+02 0.  0.
          3    1    3    3  502    0 -0.17375970380E+03  0.11034239348E+03 -0.15714660191E+03  0.25896511918E+03  0.00000000000E+00 0.  1.
         -3    1    3    3    0  502  0.62790328203E+01  0.66997930731E+01 -0.25438935084E+02  0.27045385902E+02  0.00000000000E+00 0. -1.
         13    1    5    5    0    0  0.14877085216E+03  0.45685360860E+02 -0.58886360379E+02  0.16639567929E+03  0.00000000000E+00 0. -1.
        -13    1    5    5    0    0  0.19046482313E+03  0.72278589468E+01 -0.17543411141E+03  0.25904867929E+03  0.00000000000E+00 0.  1.
          5    1    6    6  503    0 -0.11368022034E+03 -0.16415784842E+03 -0.23995646112E+02  0.20116876678E+03  0.47000000000E+01 0. -1.
         -5    1    6    6    0  503 -0.58074783962E+02 -0.57975579386E+01 -0.11427406780E+01  0.58563538713E+02  0.47000000000E+01 0.  1.
<mgrwt>
<rscale>  0 0.40976558E+03</rscale>
<asrwt>0</asrwt>
<pdfrwt beam="1">  1        1 0.10871012E+00 0.40976558E+03</pdfrwt>
<pdfrwt beam="2">  1       -1 0.40703290E-01 0.40976558E+03</pdfrwt>
<totfact> 0.16521462E+02</totfact>
</mgrwt>
</event>
<event>
12    1  0.3166324E-008  0.8021927E+03  0.7818608E-02  0.9556849E-01
          2   -1    0    0  501    0  0.00000000000E+00  0.00000000000E+00  0.13916799584E+04  0.13916799584E+04  0.00000000000E+00 0.  1.
         -2   -1    0    0    0  501 -0.00000000000E+00 -0.00000000000E+00 -0.68267075502E+03  0.68267075502E+03  0.00000000000E+00 0. -1.
         23    2    1    2    0    0  0.55361303172E+03 -0.52024670602E+03 -0.15059245607E+03  0.77976931782E+03  0.90653610933E+02 0.  0.
    5000000    2    1    2    0    0 -0.55361303172E+03  0.52024670602E+03  0.85960165944E+03  0.12945813956E+04  0.59990161933E+03 0.  0.
         23    2    4    4    0    0  0.44446900595E+01  0.21529544451E+02  0.40200692075E+03  0.41259891503E+03  0.90249785587E+02 0.  0.
         23    2    4    4    0    0 -0.55805772178E+03  0.49871716157E+03  0.45759473869E+03  0.88198248056E+03  0.91394327273E+02 0.  0.
          1    1    3    3  502    0  0.50993438325E+03 -0.49937987856E+03 -0.15741167983E+03  0.73088424205E+03  0.00000000000E+00 0.  1.
         -1    1    3    3    0  502  0.43678648464E+02 -0.20866827461E+02  0.68192237637E+01  0.48885075766E+02  0.00000000000E+00 0. -1.
         11    1    5    5    0    0 -0.29371979618E+02 -0.22437199431E+02  0.18124641421E+03  0.18497676549E+03  0.00000000000E+00 0. -1.
        -11    1    5    5    0    0  0.33816669678E+02  0.43966743883E+02  0.22076050654E+03  0.22762214954E+03  0.00000000000E+00 0.  1.
          5    1    6    6  503    0 -0.18491663194E+03  0.19386790191E+03  0.20867122357E+03  0.33962434204E+03  0.47000000000E+01 0. -1.
         -5    1    6    6    0  503 -0.37314108983E+03  0.30484925966E+03  0.24892351512E+03  0.54235813852E+03  0.47000000000E+01 0.  1.
<mgrwt>
<rscale>  0 0.80219271E+03</rscale>
<asrwt>0</asrwt>
<pdfrwt beam="1">  1        2 0.21410461E+00 0.80219271E+03</pdfrwt>
<pdfrwt beam="2">  1       -2 0.10502627E+00 0.80219271E+03</pdfrwt>
<totfact> 0.10920092E+01</totfact>
</mgrwt>
</event>
<event>
12    1  0.3166324E-008  0.9219417E+03  0.7818608E-02  0.9398561E-01
          1   -1    0    0  501    0  0.00000000000E+00  0.00000000000E+00  0.71127356445E+03  0.71127356445E+03  0.00000000000E+00 0. -1.
         -1   -1    0    0    0  501 -0.00000000000E+00 -0.00000000000E+00 -0.15268760358E+04  0.15268760358E+04  0.00000000000E+00 0.  1.
         23    2    1    2    0    0  0.61951395028E+03 -0.62238180676E+03  0.23160181621E+02  0.88377101523E+03  0.96737610986E+02 0.  0.
    5000000    2    1    2    0    0 -0.61951395028E+03  0.62238180676E+03 -0.83876265294E+03  0.13543785850E+04  0.59971819676E+03 0.  0.
         23    2    4    4    0    0 -0.61691803350E+03  0.60932426681E+03 -0.89197137371E+03  0.12472614779E+04  0.90467345846E+02 0.  0.
         23    2    4    4    0    0 -0.25959167768E+01  0.13057539948E+02  0.53208720768E+02  0.10711710704E+03  0.92009067605E+02 0.  0.
          2    1    3    3  502    0  0.49124903064E+03 -0.46398033555E+03 -0.17424294963E+02  0.67594893885E+03  0.00000000000E+00 0. -1.
         -2    1    3    3    0  502  0.12826491964E+03 -0.15840147121E+03  0.40584476584E+02  0.20782207638E+03  0.00000000000E+00 0.  1.
         13    1    5    5    0    0 -0.27801673622E+03  0.21428971305E+03 -0.34319083641E+03  0.49091072196E+03  0.00000000000E+00 0.  1.
        -13    1    5    5    0    0 -0.33890129728E+03  0.39503455376E+03 -0.54878053730E+03  0.75635075598E+03  0.00000000000E+00 0. -1.
          5    1    6    6  503    0  0.43506254877E+02  0.15513270728E+02  0.29476855070E+02  0.54994824911E+02  0.47000000000E+01 0. -1.
         -5    1    6    6    0  503 -0.46102171654E+02 -0.24557307795E+01  0.23731865698E+02  0.52122282130E+02  0.47000000000E+01 0.  1.
<mgrwt>
<rscale>  0 0.92194173E+03</rscale>
<asrwt>0</asrwt>
<pdfrwt beam="1">  1        1 0.10942670E+00 0.92194173E+03</pdfrwt>
<pdfrwt beam="2">  1       -1 0.23490400E+00 0.92194173E+03</pdfrwt>
<totfact> 0.23680635E+00</totfact>
</mgrwt>
</event>
<event>
12    1  0.3166324E-008  0.9932939E+03  0.7818608E-02  0.9315931E-01
         -2   -1    0    0    0  501 -0.00000000000E+00  0.00000000000E+00  0.41889855096E+03  0.41889855096E+03  0.00000000000E+00 0.  1.
          2   -1    0    0  501    0  0.00000000000E+00 -0.00000000000E+00 -0.24141092396E+04  0.24141092396E+04  0.00000000000E+00 0. -1.
         23    2    1    2    0    0 -0.70436913022E+03  0.58146018767E+03 -0.93692341935E+03  0.13116200278E+04  0.91048241250E+02 0.  0.
    5000000    2    1    2    0    0  0.70436913022E+03 -0.58146018767E+03 -0.10582872693E+04  0.15213877628E+04  0.60034736513E+03 0.  0.
         23    2    4    4    0    0  0.12087673996E+03 -0.45990062945E+03 -0.39290963945E+03  0.62338257260E+03  0.90044832278E+02 0.  0.
         23    2    4    4    0    0  0.58349239026E+03 -0.12155955822E+03 -0.66537762986E+03  0.89800519015E+03  0.91901227047E+02 0.  0.
          3    1    3    3  502    0 -0.10208985636E+03  0.66480946578E+02 -0.16736270698E+03  0.20700804505E+03  0.00000000000E+00 0. -1.
         -3    1    3    3    0  502 -0.60227927385E+03  0.51497924109E+03 -0.76956071238E+03  0.11046119828E+04  0.00000000000E+00 0.  1.
         13    1    5    5    0    0  0.63012347399E+02 -0.28055462880E+03 -0.29118144805E+03  0.40922865412E+03  0.00000000000E+00 0.  1.
        -13    1    5    5    0    0  0.57864392560E+02 -0.17934600065E+03 -0.10172819141E+03  0.21415391848E+03  0.00000000000E+00 0. -1.
          5    1    6    6  503    0  0.22993233760E+03 -0.56348285452E+02 -0.20024053356E+03  0.31010058115E+03  0.47000000000E+01 0. -1.
         -5    1    6    6    0  503  0.35356005266E+03 -0.65211272766E+02 -0.46513709629E+03  0.58790460900E+03  0.47000000000E+01 0.  1.
<mgrwt>
<rscale>  0 0.99329387E+03</rscale>
<asrwt>0</asrwt>
<pdfrwt beam="1">  1        2 0.37140142E+00 0.99329387E+03</pdfrwt>
<pdfrwt beam="2">  1       -2 0.64445931E-01 0.99329387E+03</pdfrwt>
<totfact> 0.87700716E+00</totfact>
</mgrwt>
</event>
<event>
12    1  0.3166324E-008  0.6223510E+03  0.7818608E-02  0.9860090E-01
          3   -1    0    0  501    0  0.00000000000E+00  0.00000000000E+00  0.55324052967E+03  0.55324052967E+03  0.00000000000E+00 0. -1.
         -3   -1    0    0    0  501 -0.00000000000E+00 -0.00000000000E+00 -0.91715663999E+03  0.91715663999E+03  0.00000000000E+00 0.  1.
         23    2    1    2    0    0 -0.35650467486E+03 -0.45425024428E+03 -0.78375388339E+02  0.58992062219E+03  0.91786553287E+02 0.  0.
    5000000    2    1    2    0    0  0.35650467486E+03  0.45425024428E+03 -0.28554072197E+03  0.88047654747E+03  0.60022210815E+03 0.  0.
         23    2    4    4    0    0  0.37724123282E+03  0.38684270790E+03  0.25614036778E+02  0.54847124857E+03  0.90589200397E+02 0.  0.
         23    2    4    4    0    0 -0.20736557959E+02  0.67407536376E+02 -0.31115475875E+03  0.33200529890E+03  0.91850170442E+02 0.  0.
          2    1    3    3  502    0 -0.16120171941E+03 -0.14642402489E+03 -0.55023002708E+02  0.22461861061E+03  0.00000000000E+00 0. -1.
         -2    1    3    3    0  502 -0.19530295545E+03 -0.30782621939E+03 -0.23352385632E+02  0.36530201158E+03  0.00000000000E+00 0.  1.
         11    1    5    5    0    0  0.33212451892E+03  0.37442342556E+03  0.30464812255E+02  0.50142566993E+03  0.00000000000E+00 0. -1.
        -11    1    5    5    0    0  0.45116713898E+02  0.12419282344E+02 -0.48507754769E+01  0.47045578640E+02  0.00000000000E+00 0.  1.
          5    1    6    6  503    0 -0.55255747300E+02  0.54979146317E+02 -0.22778548701E+03  0.24079913254E+03  0.47000000000E+01 0. -1.
         -5    1    6    6    0  503  0.34519189341E+02  0.12428390059E+02 -0.83369271744E+02  0.91206166367E+02  0.47000000000E+01 0.  1.
<mgrwt>
<rscale>  0 0.62235099E+03</rscale>
<asrwt>0</asrwt>
<pdfrwt beam="1">  1        3 0.85113929E-01 0.62235099E+03</pdfrwt>
<pdfrwt beam="2">  1       -3 0.14110102E+00 0.62235099E+03</pdfrwt>
<totfact> 0.12484113E+00</totfact>
</mgrwt>
</event>
<event>
12    1  0.3166324E-008  0.7101703E+03  0.7818608E-02  0.9699996E-01
         -3   -1    0    0    0  501 -0.00000000000E+00  0.00000000000E+00  0.45914961957E+03  0.45914961957E+03  0.00000000000E+00 0.  1.
          3   -1    0    0  501    0  0.00000000000E+00 -0.00000000000E+00 -0.13135406005E+04  0.13135406005E+04  0.00000000000E+00 0. -1.
         23    2    1    2    0    0 -0.36027906632E+03  0.52996690180E+03 -0.52965509658E+03  0.83635672761E+03  0.91061143435E+02 0.  0.
    5000000    2    1    2    0    0  0.36027906632E+03 -0.52996690180E+03 -0.32473588434E+03  0.93633349246E+03  0.60050070099E+03 0.  0.
         23    2    4    4    0    0 -0.81613122101E+02 -0.15328071360E+03 -0.28639233533E+03  0.34721562645E+03  0.91555680608E+02 0.  0.
         23    2    4    4    0    0  0.44189218842E+03 -0.37668618820E+03 -0.38343549016E+02  0.58911786602E+03  0.91806545201E+02 0.  0.
          3    1    3    3  502    0  0.56587049024E-01  0.23497823547E+02 -0.77887698342E+01  0.24755117634E+02  0.00000000000E+00 0. -1.
         -3    1    3    3    0  502 -0.36033565337E+03  0.50646907826E+03 -0.52186632675E+03  0.81160160998E+03  0.00000000000E+00 0.  1.
         11    1    5    5    0    0 -0.14215849841E+02 -0.10259221111E+03 -0.20665196696E+03  0.23115425070E+03  0.00000000000E+00 0. -1.
        -11    1    5    5    0    0 -0.67397272260E+02 -0.50688502491E+02 -0.79740368370E+02  0.11606137575E+03  0.00000000000E+00 0.  1.
          5    1    6    6  503    0  0.33562545399E+03 -0.23304343953E+03 -0.37865265647E+02  0.41037733662E+03  0.47000000000E+01 0. -1.
         -5    1    6    6    0  503  0.10626673443E+03 -0.14364274867E+03 -0.47828336874E+00  0.17874052939E+03  0.47000000000E+01 0.  1.
<mgrwt>
<rscale>  0 0.71017035E+03</rscale>
<asrwt>0</asrwt>
<pdfrwt beam="1">  1        3 0.20208317E+00 0.71017035E+03</pdfrwt>
<pdfrwt beam="2">  1       -3 0.70638404E-01 0.71017035E+03</pdfrwt>
<totfact> 0.71525304E-01</totfact>
</mgrwt>
</event>
<event>
12    1  0.3166324E-008  0.7504424E+03  0.7818608E-02  0.9634657E-01
         -2   -1    0    0    0  501 -0.00000000000E+00  0.00000000000E+00  0.95121201900E+03  0.95121201900E+03  0.00000000000E+00 0. -1.
          2   -1    0    0  501    0  0.00000000000E+00 -0.00000000000E+00 -0.10510886233E+04  0.10510886233E+04  0.00000000000E+00 0.  1.
         23    2    1    2    0    0 -0.31860426509E+03 -0.56495818746E+03 -0.68089929608E+03  0.94482266080E+03  0.91540033092E+02 0.  0.
    5000000    2    1    2    0    0  0.31860426509E+03  0.56495818746E+03  0.58102269178E+03  0.10574779815E+04  0.59998823461E+03 0.  0.
         23    2    4    4    0    0 -0.11823561735E+03 -0.11925347293E+02  0.13917153183E+03  0.20390115862E+03  0.89917140184E+02 0.  0.
         23    2    4    4    0    0  0.43683988244E+03  0.57688353475E+03  0.44185115995E+03  0.85357682287E+03  0.98677502181E+02 0.  0.
          1    1    3    3  502    0 -0.88024018491E+02 -0.17931306910E+03 -0.15314608021E+03  0.25170444268E+03  0.00000000000E+00 0. -1.
         -1    1    3    3    0  502 -0.23058024660E+03 -0.38564511836E+03 -0.52775321587E+03  0.69311821812E+03  0.00000000000E+00 0.  1.
         11    1    5    5    0    0 -0.56907343964E+02  0.14192958563E+02  0.12153872912E+03  0.13495017061E+03  0.00000000000E+00 0.  1.
        -11    1    5    5    0    0 -0.61328273384E+02 -0.26118305856E+02  0.17632802702E+02  0.68950988014E+02  0.00000000000E+00 0. -1.
          5    1    6    6  503    0  0.10865927917E+03  0.10110356346E+03  0.56442704218E+02  0.15886043671E+03  0.47000000000E+01 0. -1.
         -5    1    6    6    0  503  0.32818060327E+03  0.47577997129E+03  0.38540845573E+03  0.69471638616E+03  0.47000000000E+01 0.  1.
<mgrwt>
<rscale>  0 0.75044237E+03</rscale>
<asrwt>0</asrwt>
<pdfrwt beam="1">  1        2 0.16170594E+00 0.75044237E+03</pdfrwt>
<pdfrwt beam="2">  1       -2 0.14634031E+00 0.75044237E+03</pdfrwt>
<totfact> 0.76157817E+00</totfact>
</mgrwt>
</event>
<event>
12    1  0.3166324E-008  0.1316789E+04  0.7818608E-02  0.9016357E-01
         -1   -1    0    0    0  501 -0.00000000000E+00  0.00000000000E+00  0.23086900292E+04  0.23086900292E+04  0.00000000000E+00 0.  1.
          1   -1    0    0  501    0  0.00000000000E+00 -0.00000000000E+00 -0.89395651379E+03  0.89395651379E+03  0.00000000000E+00 0. -1.
         23    2    1    2    0    0  0.12190457242E+04 -0.45685200105E+03  0.11612511966E+04  0.17469535544E+04  0.92499466230E+02 0.  0.
    5000000    2    1    2    0    0 -0.12190457242E+04  0.45685200105E+03  0.25348231876E+03  0.14556929885E+04  0.60000213536E+03 0.  0.
         23    2    4    4    0    0 -0.76940987386E+03  0.17011165936E+03 -0.11445662256E+03  0.80147627940E+03  0.91292811010E+02 0.  0.
         23    2    4    4    0    0 -0.44963585030E+03  0.28674034169E+03  0.36793894131E+03  0.65421670912E+03  0.90708414870E+02 0.  0.
          3    1    3    3  502    0  0.47228274838E+03 -0.20141849512E+03  0.51034668724E+03  0.72392965526E+03  0.00000000000E+00 0. -1.
         -3    1    3    3    0  502  0.74676297578E+03 -0.25543350592E+03  0.65090450938E+03  0.10230238992E+04  0.00000000000E+00 0.  1.
         13    1    5    5    0    0 -0.46363800499E+03  0.74387332347E+02 -0.10374701813E+03  0.48089200311E+03  0.00000000000E+00 0.  1.
        -13    1    5    5    0    0 -0.30577186888E+03  0.95724327014E+02 -0.10709604433E+02  0.32058427629E+03  0.00000000000E+00 0. -1.
          5    1    6    6  503    0 -0.18066212669E+03  0.64187055785E+02  0.12774017214E+03  0.23043095220E+03  0.47000000000E+01 0. -1.
         -5    1    6    6    0  503 -0.26897372360E+03  0.22255328590E+03  0.24019876917E+03  0.42378575692E+03  0.47000000000E+01 0.  1.
<mgrwt>
<rscale>  0 0.13167886E+04</rscale>
<asrwt>0</asrwt>
<pdfrwt beam="1">  1        1 0.13753177E+00 0.13167886E+04</pdfrwt>
<pdfrwt beam="2">  1       -1 0.35518308E+00 0.13167886E+04</pdfrwt>
<totfact> 0.25762114E-01</totfact>
</mgrwt>
</event>
<event>
12    1  0.3166324E-008  0.7278733E+03  0.7818608E-02  0.9670718E-01
         -2   -1    0    0    0  501 -0.00000000000E+00  0.00000000000E+00  0.93223197970E+03  0.93223197970E+03  0.00000000000E+00 0.  1.
          2   -1    0    0  501    0  0.00000000000E+00 -0.00000000000E+00 -0.16586702474E+04  0.16586702474E+04  0.00000000000E+00 0. -1.
         23    2    1    2    0    0 -0.24162712994E+03  0.56135586593E+03  0.69595750770E+03  0.93055538565E+03  0.89846508570E+02 0.  0.
    5000000    2    1    2    0    0  0.24162712994E+03 -0.56135586593E+03 -0.14223957754E+04  0.16603468414E+04  0.60003151074E+03 0.  0.
         23    2    4    4    0    0 -0.17595628255E+03 -0.27766987402E+03 -0.62932409611E+03  0.71564368629E+03  0.89643156334E+02 0.  0.
         23    2    4    4    0    0  0.41758341250E+03 -0.28368599191E+03 -0.79307167930E+03  0.94470315516E+03  0.92993088241E+02 0.  0.
          2    1    3    3  502    0 -0.75658300521E+02  0.95312270100E+02  0.11411564825E+03  0.16682622229E+03  0.00000000000E+00 0.  1.
         -2    1    3    3    0  502 -0.16596882942E+03  0.46604359583E+03  0.58184185946E+03  0.76372916336E+03  0.00000000000E+00 0. -1.
         11    1    5    5    0    0 -0.66226675367E+02 -0.89222418655E+02 -0.13154054168E+03  0.17219037902E+03  0.00000000000E+00 0.  1.
        -11    1    5    5    0    0 -0.10972960719E+03 -0.18844745537E+03 -0.49778355443E+03  0.54345330728E+03  0.00000000000E+00 0. -1.
          5    1    6    6  503    0  0.16271766267E+03 -0.68667626675E+02 -0.32601136444E+03  0.37080693149E+03  0.47000000000E+01 0. -1.
         -5    1    6    6    0  503  0.25486574982E+03 -0.21501836523E+03 -0.46706031486E+03  0.57389622367E+03  0.47000000000E+01 0.  1.
<mgrwt>
<rscale>  0 0.72787334E+03</rscale>
<asrwt>0</asrwt>
<pdfrwt beam="1">  1        2 0.25518004E+00 0.72787334E+03</pdfrwt>
<pdfrwt beam="2">  1       -2 0.14342031E+00 0.72787334E+03</pdfrwt>
<totfact> 0.36030214E+00</totfact>
</mgrwt>
</event>
<event>
12    1  0.3166324E-008  0.7363154E+03  0.7818608E-02  0.9657067E-01
         -1   -1    0    0    0  501 -0.00000000000E+00  0.00000000000E+00  0.70634442625E+03  0.70634442625E+03  0.00000000000E+00 0.  1.
          1   -1    0    0  501    0  0.00000000000E+00 -0.00000000000E+00 -0.21615069724E+04  0.21615069724E+04  0.00000000000E+00 0. -1.
         23    2    1    2    0    0  0.57921596166E+03 -0.25376112834E+03 -0.18153424605E+04  0.19245944006E+04  0.93324796943E+02 0.  0.
    5000000    2    1    2    0    0 -0.57921596166E+03  0.25376112834E+03  0.36017991434E+03  0.94325699799E+03  0.60009861945E+03 0.  0.
         23    2    4    4    0    0 -0.67952326356E+03  0.20385440196E+03  0.23940255130E+03  0.75433027745E+03  0.91608422025E+02 0.  0.
         23    2    4    4    0    0  0.10030730190E+03  0.49906726381E+02  0.12077736305E+03  0.18892672054E+03  0.92487286463E+02 0.  0.
          2    1    3    3  502    0  0.12942105914E+03 -0.15980795628E+02 -0.37827030153E+03  0.40011700464E+03  0.00000000000E+00 0.  1.
         -2    1    3    3    0  502  0.44979490251E+03 -0.23778033272E+03 -0.14370721589E+04  0.15244773960E+04  0.00000000000E+00 0. -1.
         13    1    5    5    0    0 -0.37060387168E+03  0.10339330299E+03  0.82161810541E+02  0.39343102053E+03  0.00000000000E+00 0. -1.
        -13    1    5    5    0    0 -0.30891939188E+03  0.10046109897E+03  0.15724074075E+03  0.36089925691E+03  0.00000000000E+00 0.  1.
          5    1    6    6  503    0  0.62066537476E+02  0.57316708413E+02  0.29559217627E+02  0.89628664412E+02  0.47000000000E+01 0. -1.
         -5    1    6    6    0  503  0.38240764427E+02 -0.74099820316E+01  0.91218145419E+02  0.99298056131E+02  0.47000000000E+01 0.  1.
<mgrwt>
<rscale>  0 0.73631544E+03</rscale>
<asrwt>0</asrwt>
<pdfrwt beam="1">  1        1 0.33253954E+00 0.73631544E+03</pdfrwt>
<pdfrwt beam="2">  1       -1 0.10866837E+00 0.73631544E+03</pdfrwt>
<totfact> 0.19278979E+00</totfact>
</mgrwt>
</event>
<event>
12    1  0.3166324E-008  0.5754303E+03  0.7818608E-02  0.9957734E-01
          2   -1    0    0  501    0  0.00000000000E+00  0.00000000000E+00  0.27677754178E+04  0.27677754178E+04  0.00000000000E+00 0. -1.
         -2   -1    0    0    0  501 -0.00000000000E+00 -0.00000000000E+00 -0.15177758439E+03  0.15177758439E+03  0.00000000000E+00 0.  1.
         23    2    1    2    0    0 -0.47706890256E+03  0.10984067177E+03  0.13023226025E+04  0.13946308729E+04  0.96391905616E+02 0.  0.
    5000000    2    1    2    0    0  0.47706890256E+03 -0.10984067177E+03  0.13136752309E+04  0.15249221293E+04  0.59998764770E+03 0.  0.
         23    2    4    4    0    0  0.25003802897E+03  0.14792297021E+03  0.10181862035E+04  0.10627387997E+04  0.91161342338E+02 0.  0.
         23    2    4    4    0    0  0.22703087359E+03 -0.25776364198E+03  0.29548902739E+03  0.46218332966E+03  0.91184166517E+02 0.  0.
          3    1    3    3  502    0 -0.11039365859E+03 -0.14084814572E+02  0.26297007271E+03  0.28554929697E+03  0.00000000000E+00 0. -1.
         -3    1    3    3    0  502 -0.36667524397E+03  0.12392548634E+03  0.10393525298E+04  0.11090815759E+04  0.00000000000E+00 0.  1.
         13    1    5    5    0    0  0.13169125251E+03  0.41735655761E+02  0.59072463066E+03  0.60666303680E+03  0.00000000000E+00 0.  1.
        -13    1    5    5    0    0  0.11834677646E+03  0.10618731445E+03  0.42746157282E+03  0.45607576287E+03  0.00000000000E+00 0. -1.
          5    1    6    6  503    0  0.23501690395E+03 -0.24426179051E+03  0.28272259234E+03  0.44141921307E+03  0.47000000000E+01 0. -1.
         -5    1    6    6    0  503 -0.79860303663E+01 -0.13501851464E+02  0.12766435050E+02  0.20764116592E+02  0.47000000000E+01 0.  1.
<mgrwt>
<rscale>  0 0.57543030E+03</rscale>
<asrwt>0</asrwt>
<pdfrwt beam="1">  1        2 0.42581156E+00 0.57543030E+03</pdfrwt>
<pdfrwt beam="2">  1       -2 0.23350400E-01 0.57543030E+03</pdfrwt>
<totfact> 0.42321962E+01</totfact>
</mgrwt>
</event>
<event>
12    1  0.3166324E-008  0.6714754E+03  0.7818608E-02  0.9767296E-01
         -2   -1    0    0    0  501 -0.00000000000E+00  0.00000000000E+00  0.55653099267E+03  0.55653099267E+03  0.00000000000E+00 0.  1.
          2   -1    0    0  501    0  0.00000000000E+00 -0.00000000000E+00 -0.12161960979E+04  0.12161960979E+04  0.00000000000E+00 0. -1.
         23    2    1    2    0    0 -0.45209014144E+03 -0.36464103279E+03 -0.72695740425E+03  0.93499251065E+03  0.91626134859E+02 0.  0.
    5000000    2    1    2    0    0  0.45209014144E+03  0.36464103279E+03  0.67292299023E+02  0.83773457992E+03  0.59993532493E+03 0.  0.
         23    2    4    4    0    0 -0.83026749470E+02  0.56723390262E+02 -0.12126525692E+03  0.18401430720E+03  0.95105302634E+02 0.  0.
         23    2    4    4    0    0  0.53511689091E+03  0.30791764253E+03  0.18855755594E+03  0.65372027271E+03  0.10311586462E+03 0.  0.
          3    1    3    3  502    0 -0.15098161943E+03 -0.13037431810E+03 -0.32074531598E+03  0.37771744723E+03  0.00000000000E+00 0. -1.
         -3    1    3    3    0  502 -0.30110852201E+03 -0.23426671469E+03 -0.40621208827E+03  0.55727506341E+03  0.00000000000E+00 0.  1.
         13    1    5    5    0    0 -0.12000502381E+01  0.54145947172E+02 -0.65343637260E+02  0.84870575856E+02  0.00000000000E+00 0.  1.
        -13    1    5    5    0    0 -0.81826699232E+02  0.25774430902E+01 -0.55921619659E+02  0.99143731347E+02  0.00000000000E+00 0. -1.
          5    1    6    6  503    0  0.41849897959E+03  0.18869817214E+03  0.13803989847E+03  0.47940118862E+03  0.47000000000E+01 0. -1.
         -5    1    6    6    0  503  0.11661791133E+03  0.11921947039E+03  0.50517657475E+02  0.17431908409E+03  0.47000000000E+01 0.  1.
<mgrwt>
<rscale>  0 0.67147536E+03</rscale>
<asrwt>0</asrwt>
<pdfrwt beam="1">  1        2 0.18710709E+00 0.67147536E+03</pdfrwt>
<pdfrwt beam="2">  1       -2 0.85620152E-01 0.67147536E+03</pdfrwt>
<totfact> 0.22580376E+01</totfact>
</mgrwt>
</event>
<event>
12    1  0.3166324E-008  0.1151729E+04  0.7818608E-02  0.9156190E-01
         -2   -1    0    0    0  501 -0.00000000000E+00  0.00000000000E+00  0.92852408513E+03  0.92852408513E+03  0.00000000000E+00 0.  1.
          2   -1    0    0  501    0  0.00000000000E+00 -0.00000000000E+00 -0.21739973063E+04  0.21739973063E+04  0.00000000000E+00 0. -1.
         23    2    1    2    0    0 -0.36386655072E+02 -0.10968935601E+04 -0.14646823077E+04  0.18325682658E+04  0.92264377385E+02 0.  0.
    5000000    2    1    2    0    0  0.36386655072E+02  0.10968935601E+04  0.21920908649E+03  0.12699531257E+04  0.60019067553E+03 0.  0.
         23    2    4    4    0    0 -0.20510452043E+03  0.75089627275E+03 -0.47134945459E+01  0.78397979686E+03  0.93214956540E+02 0.  0.
         23    2    4    4    0    0  0.24149117550E+03  0.34599728736E+03  0.22392258103E+03  0.48597332884E+03  0.89423952844E+02 0.  0.
          3    1    3    3  502    0 -0.53188340610E+02 -0.32839141534E+03 -0.44629077182E+03  0.55663756095E+03  0.00000000000E+00 0. -1.
         -3    1    3    3    0  502  0.16801685538E+02 -0.76850214477E+03 -0.10183915359E+04  0.12759307048E+04  0.00000000000E+00 0.  1.
         11    1    5    5    0    0 -0.59367198053E+02  0.28640881369E+03  0.39544591404E+02  0.29515800425E+03  0.00000000000E+00 0.  1.
        -11    1    5    5    0    0 -0.14573732237E+03  0.46448745906E+03 -0.44258085950E+02  0.48882179261E+03  0.00000000000E+00 0. -1.
          5    1    6    6  503    0  0.50618620100E+02  0.90948606800E+02  0.99107097248E+02  0.14379916726E+03  0.47000000000E+01 0. -1.
         -5    1    6    6    0  503  0.19087255540E+03  0.25504868056E+03  0.12481548378E+03  0.34217416158E+03  0.47000000000E+01 0.  1.
<mgrwt>
<rscale>  0 0.11517286E+04</rscale>
<asrwt>0</asrwt>
<pdfrwt beam="1">  1        2 0.33446112E+00 0.11517286E+04</pdfrwt>
<pdfrwt beam="2">  1       -2 0.14284986E+00 0.11517286E+04</pdfrwt>
<totfact> 0.17849233E+00</totfact>
</mgrwt>
</event>
<event>
12    1  0.3166324E-008  0.1600556E+04  0.7818608E-02  0.8820207E-01
          1   -1    0    0  501    0  0.00000000000E+00  0.00000000000E+00  0.10291845456E+04  0.10291845456E+04  0.00000000000E+00 0. -1.
         -1   -1    0    0    0  501 -0.00000000000E+00 -0.00000000000E+00 -0.25088498828E+04  0.25088498828E+04  0.00000000000E+00 0.  1.
         23    2    1    2    0    0 -0.13096096949E+04  0.82771698342E+03 -0.74367353057E+03  0.17208753943E+04  0.90381663768E+02 0.  0.
    5000000    2    1    2    0    0  0.13096096949E+04 -0.82771698342E+03 -0.73599180658E+03  0.18171590341E+04  0.60015836103E+03 0.  0.
         23    2    4    4    0    0  0.53712928327E+03 -0.66433391403E+03 -0.29828927087E+03  0.90964570523E+03  0.92905347733E+02 0.  0.
         23    2    4    4    0    0  0.77248041162E+03 -0.16338306939E+03 -0.43770253571E+03  0.90751332889E+03  0.92611655006E+02 0.  0.
          3    1    3    3  502    0 -0.44776264511E+03  0.23942354344E+03 -0.22023298273E+03  0.55345965182E+03  0.00000000000E+00 0. -1.
         -3    1    3    3    0  502 -0.86184704978E+03  0.58829343998E+03 -0.52344054784E+03  0.11674157425E+04  0.00000000000E+00 0.  1.
         11    1    5    5    0    0  0.66276721425E+02 -0.12960548219E+03 -0.32156117537E+02  0.14907783441E+03  0.00000000000E+00 0.  1.
        -11    1    5    5    0    0  0.47085256185E+03 -0.53472843185E+03 -0.26613315334E+03  0.76056787082E+03  0.00000000000E+00 0. -1.
          5    1    6    6  503    0  0.72567786945E+03 -0.16691910805E+03 -0.42951646360E+03  0.85963762211E+03  0.47000000000E+01 0. -1.
         -5    1    6    6    0  503  0.46802542173E+02  0.35360386643E+01 -0.81860721130E+01  0.47875706782E+02  0.47000000000E+01 0.  1.
<mgrwt>
<rscale>  0 0.16005559E+04</rscale>
<asrwt>0</asrwt>
<pdfrwt beam="1">  1        1 0.15833609E+00 0.16005559E+04</pdfrwt>
<pdfrwt beam="2">  1       -1 0.38597690E+00 0.16005559E+04</pdfrwt>
<totfact> 0.12050842E-01</totfact>
</mgrwt>
</event>
<event>
12    1  0.3166324E-008  0.4373853E+03  0.7818608E-02  0.1031552E+00
          2   -1    0    0  501    0  0.00000000000E+00  0.00000000000E+00  0.11192572444E+04  0.11192572444E+04  0.00000000000E+00 0. -1.
         -2   -1    0    0    0  501 -0.00000000000E+00 -0.00000000000E+00 -0.21691583286E+03  0.21691583286E+03  0.00000000000E+00 0.  1.
         23    2    1    2    0    0  0.12991102999E+03  0.25863404988E+03  0.39849984353E+03  0.50097079957E+03  0.91657892494E+02 0.  0.
    5000000    2    1    2    0    0 -0.12991102999E+03 -0.25863404988E+03  0.50384156799E+03  0.83520227768E+03  0.59994839072E+03 0.  0.
         23    2    4    4    0    0 -0.31554676279E+03 -0.17598666416E+03  0.12118901552E+03  0.39247600108E+03  0.93859301483E+02 0.  0.
         23    2    4    4    0    0  0.18563573280E+03 -0.82647385725E+02  0.38265255247E+03  0.44272627660E+03  0.91062420454E+02 0.  0.
          3    1    3    3  502    0  0.13628741642E+03  0.18734755329E+03  0.31439703339E+03  0.39053663106E+03  0.00000000000E+00 0. -1.
         -3    1    3    3    0  502 -0.63763864261E+01  0.71286496598E+02  0.84102810142E+02  0.11043416851E+03  0.00000000000E+00 0.  1.
         11    1    5    5    0    0 -0.10651262669E+03 -0.23330464212E+02  0.61206374155E+01  0.10920948863E+03  0.00000000000E+00 0. -1.
        -11    1    5    5    0    0 -0.20903413610E+03 -0.15265619995E+03  0.11506837810E+03  0.28326651245E+03  0.00000000000E+00 0.  1.
          5    1    6    6  503    0  0.89260101957E+02 -0.34520939550E+02  0.27129924364E+03  0.28772283654E+03  0.47000000000E+01 0. -1.
         -5    1    6    6    0  503  0.96375630840E+02 -0.48126446174E+02  0.11135330883E+03  0.15500344006E+03  0.47000000000E+01 0.  1.
<mgrwt>
<rscale>  0 0.43738534E+03</rscale>
<asrwt>0</asrwt>
<pdfrwt beam="1">  1        2 0.17219342E+00 0.43738534E+03</pdfrwt>
<pdfrwt beam="2">  1       -2 0.33371667E-01 0.43738534E+03</pdfrwt>
<totfact> 0.18462323E+02</totfact>
</mgrwt>
</event>
<event>
12    1  0.3166324E-008  0.5560842E+03  0.7818608E-02  0.1000095E+00
          3   -1    0    0  501    0  0.00000000000E+00  0.00000000000E+00  0.41099246187E+03  0.41099246187E+03  0.00000000000E+00 0. -1.
         -3   -1    0    0    0  501 -0.00000000000E+00 -0.00000000000E+00 -0.13415443601E+04  0.13415443601E+04  0.00000000000E+00 0.  1.
         23    2    1    2    0    0 -0.47047538435E+03 -0.72249920958E+02 -0.85508255784E+03  0.98290315147E+03  0.91461937956E+02 0.  0.
    5000000    2    1    2    0    0  0.47047538435E+03  0.72249920958E+02 -0.75469340438E+02  0.76963367054E+03  0.60006101950E+03 0.  0.
         23    2    4    4    0    0  0.52442765965E+03  0.10677434483E+01  0.11094171591E+03  0.54366692806E+03  0.90775294320E+02 0.  0.
         23    2    4    4    0    0 -0.53952275298E+02  0.71182177510E+02 -0.18641105634E+03  0.22596674247E+03  0.91291491238E+02 0.  0.
          4    1    3    3  502    0 -0.74323418173E+02  0.45331877820E+01 -0.81458567213E+02  0.11036312089E+03  0.00000000000E+00 0.  1.
         -4    1    3    3    0  502 -0.39615196618E+03 -0.76783108740E+02 -0.77362399063E+03  0.87254003058E+03  0.00000000000E+00 0. -1.
         13    1    5    5    0    0  0.16471431716E+03  0.40186697178E+02  0.21166509843E+02  0.17086192685E+03  0.00000000000E+00 0. -1.
        -13    1    5    5    0    0  0.35971334249E+03 -0.39118953730E+02  0.89775206064E+02  0.37280500121E+03  0.00000000000E+00 0.  1.
          5    1    6    6  503    0 -0.12430611775E+02  0.57222713977E+02 -0.16843180425E+03  0.17838251537E+03  0.47000000000E+01 0. -1.
         -5    1    6    6    0  503 -0.41521663522E+02  0.13959463533E+02 -0.17979252090E+02  0.47584227108E+02  0.47000000000E+01 0.  1.
<mgrwt>
<rscale>  0 0.55608425E+03</rscale>
<asrwt>0</asrwt>
<pdfrwt beam="1">  1        3 0.63229610E-01 0.55608425E+03</pdfrwt>
<pdfrwt beam="2">  1       -3 0.20639144E+00 0.55608425E+03</pdfrwt>
<totfact> 0.85802535E-01</totfact>
</mgrwt>
</event>
<event>
12    1  0.3166324E-008  0.7309620E+03  0.7818608E-02  0.9665701E-01
          2   -1    0    0  501    0  0.00000000000E+00  0.00000000000E+00  0.25839545377E+04  0.25839545377E+04  0.00000000000E+00 0. -1.
         -2   -1    0    0    0  501 -0.00000000000E+00 -0.00000000000E+00 -0.28090736168E+03  0.28090736168E+03  0.00000000000E+00 0.  1.
         23    2    1    2    0    0 -0.36951175456E+03 -0.54665449066E+03  0.43683494787E+03  0.79649235420E+03  0.90582722966E+02 0.  0.
    5000000    2    1    2    0    0  0.36951175456E+03  0.54665449066E+03  0.18662122282E+04  0.20683695452E+04  0.60002868764E+03 0.  0.
         23    2    4    4    0    0 -0.19695222173E+01  0.38075070949E+03  0.13458287584E+04  0.14016303349E+04  0.91310278709E+02 0.  0.
         23    2    4    4    0    0  0.37148127678E+03  0.16590378117E+03  0.52038346971E+03  0.66673921023E+03  0.90663197076E+02 0.  0.
          3    1    3    3  502    0 -0.35205725729E+03 -0.47199413042E+03  0.37629590980E+03  0.69879995943E+03  0.00000000000E+00 0. -1.
         -3    1    3    3    0  502 -0.17454497273E+02 -0.74660360241E+02  0.60539038073E+02  0.97692394777E+02  0.00000000000E+00 0.  1.
         13    1    5    5    0    0  0.34869123497E+02  0.21855306490E+03  0.66871298579E+03  0.70438509021E+03  0.00000000000E+00 0.  1.
        -13    1    5    5    0    0 -0.36838645714E+02  0.16219764459E+03  0.67711577266E+03  0.69724524474E+03  0.00000000000E+00 0. -1.
          5    1    6    6  503    0  0.75257651192E+02  0.50889094543E+02  0.66627412257E+02  0.11275954980E+03  0.47000000000E+01 0. -1.
         -5    1    6    6    0  503  0.29622362559E+03  0.11501468662E+03  0.45375605746E+03  0.55397966043E+03  0.47000000000E+01 0.  1.
<mgrwt>
<rscale>  0 0.73096197E+03</rscale>
<asrwt>0</asrwt>
<pdfrwt beam="1">  1        2 0.39753145E+00 0.73096197E+03</pdfrwt>
<pdfrwt beam="2">  1       -2 0.43216519E-01 0.73096197E+03</pdfrwt>
<totfact> 0.16610045E+01</totfact>
</mgrwt>
</event>
<event>
12    1  0.3166324E-008  0.3798147E+03  0.7818608E-02  0.1051002E+00
          2   -1    0    0  501    0  0.00000000000E+00  0.00000000000E+00  0.70990181612E+03  0.70990181612E+03  0.00000000000E+00 0.  1.
         -2   -1    0    0    0  501 -0.00000000000E+00 -0.00000000000E+00 -0.34050941592E+03  0.34050941592E+03  0.00000000000E+00 0. -1.
         23    2    1    2    0    0 -0.15611665731E+03  0.20839127306E+03 -0.43223367981E+02  0.27664545400E+03  0.82855985316E+02 0.  0.
    5000000    2    1    2    0    0  0.15611665731E+03 -0.20839127306E+03  0.41261576818E+03  0.77376577804E+03  0.60055172444E+03 0.  0.
         23    2    4    4    0    0  0.81915269366E+02  0.12147174740E+03 -0.66105825928E+02  0.18044858803E+03  0.82013510641E+02 0.  0.
         23    2    4    4    0    0  0.74201387945E+02 -0.32986302047E+03  0.47872159411E+03  0.59331719001E+03  0.92387580574E+02 0.  0.
          4    1    3    3  502    0 -0.97447822219E+02  0.12207657519E+03  0.15371857327E+02  0.15695560603E+03  0.00000000000E+00 0. -1.
         -4    1    3    3    0  502 -0.58668835092E+02  0.86314697870E+02 -0.58595225308E+02  0.11968984798E+03  0.00000000000E+00 0.  1.
         11    1    5    5    0    0  0.44591414606E+02  0.11228182002E+03 -0.73346422443E+02  0.14133399820E+03  0.00000000000E+00 0. -1.
        -11    1    5    5    0    0  0.37323854760E+02  0.91899273896E+01  0.72405965151E+01  0.39114589828E+02  0.00000000000E+00 0.  1.
          5    1    6    6  503    0  0.60279012545E+02 -0.19520521107E+03  0.35626345170E+03  0.41071202904E+03  0.47000000000E+01 0. -1.
         -5    1    6    6    0  503  0.13922375400E+02 -0.13465780939E+03  0.12245814241E+03  0.18260516096E+03  0.47000000000E+01 0.  1.
<mgrwt>
<rscale>  0 0.37981474E+03</rscale>
<asrwt>0</asrwt>
<pdfrwt beam="1">  1        2 0.10921566E+00 0.37981474E+03</pdfrwt>
<pdfrwt beam="2">  1       -2 0.52386064E-01 0.37981474E+03</pdfrwt>
<totfact> 0.14384516E+02</totfact>
</mgrwt>
</event>
<event>
12    1  0.3166324E-008  0.6650066E+03  0.7818608E-02  0.9779021E-01
         -1   -1    0    0    0  501 -0.00000000000E+00  0.00000000000E+00  0.25156875478E+03  0.25156875478E+03  0.00000000000E+00 0.  1.
          1   -1    0    0  501    0  0.00000000000E+00 -0.00000000000E+00 -0.20676262226E+04  0.20676262226E+04  0.00000000000E+00 0. -1.
         23    2    1    2    0    0  0.41879127629E+03  0.38403661238E+03 -0.48552023698E+03  0.75296134795E+03  0.91381826737E+02 0.  0.
    5000000    2    1    2    0    0 -0.41879127629E+03 -0.38403661238E+03 -0.13305372308E+04  0.15662336294E+04  0.59990683157E+03 0.  0.
         23    2    4    4    0    0 -0.12945377483E+03  0.11414309671E+03 -0.14038061292E+03  0.24058459009E+03  0.91582215320E+02 0.  0.
         23    2    4    4    0    0 -0.28933750146E+03 -0.49817970908E+03 -0.11901566179E+04  0.13256490393E+04  0.94727968516E+02 0.  0.
          2    1    3    3  502    0  0.96710392148E+02  0.12547740065E+03 -0.96032990566E+02  0.18525607493E+03  0.00000000000E+00 0.  1.
         -2    1    3    3    0  502  0.32208088414E+03  0.25855921173E+03 -0.38948724641E+03  0.56770527302E+03  0.00000000000E+00 0. -1.
         13    1    5    5    0    0 -0.37245428823E+02  0.99422863312E+01  0.55550423093E+01  0.38947779407E+02  0.00000000000E+00 0.  1.
        -13    1    5    5    0    0 -0.92208346004E+02  0.10420081038E+03 -0.14593565523E+03  0.20163681068E+03  0.00000000000E+00 0. -1.
          5    1    6    6  503    0 -0.10520857594E+03 -0.11629067137E+03 -0.38356155861E+03  0.41440791974E+03  0.47000000000E+01 0. -1.
         -5    1    6    6    0  503 -0.18412892552E+03 -0.38188903772E+03 -0.80659505927E+03  0.91124111956E+03  0.47000000000E+01 0.  1.
<mgrwt>
<rscale>  0 0.66500660E+03</rscale>
<asrwt>0</asrwt>
<pdfrwt beam="1">  1        1 0.31809634E+00 0.66500660E+03</pdfrwt>
<pdfrwt beam="2">  1       -1 0.38702885E-01 0.66500660E+03</pdfrwt>
<totfact> 0.18317975E+01</totfact>
</mgrwt>
</event>
<event>
12    1  0.3166324E-008  0.5893868E+03  0.7818608E-02  0.9927673E-01
          1   -1    0    0  501    0  0.00000000000E+00  0.00000000000E+00  0.12220293654E+04  0.12220293654E+04  0.00000000000E+00 0. -1.
         -1   -1    0    0    0  501 -0.00000000000E+00 -0.00000000000E+00 -0.75471204010E+03  0.75471204010E+03  0.00000000000E+00 0.  1.
         23    2    1    2    0    0  0.20263846129E+03  0.40470553597E+03  0.96912573551E+03  0.10730462959E+04  0.85876336052E+02 0.  0.
    5000000    2    1    2    0    0 -0.20263846129E+03 -0.40470553597E+03 -0.50180841026E+03  0.90369510956E+03  0.60000354465E+03 0.  0.
         23    2    4    4    0    0 -0.29613630266E+03 -0.48753737523E+03 -0.47123687843E+03  0.74523601997E+03  0.89011953516E+02 0.  0.
         23    2    4    4    0    0  0.93497841371E+02  0.82831839255E+02 -0.30571531823E+02  0.15845908959E+03  0.92583500577E+02 0.  0.
          4    1    3    3  502    0  0.80043726868E+02  0.19454996258E+03  0.54342297087E+03  0.58272224209E+03  0.00000000000E+00 0. -1.
         -4    1    3    3    0  502  0.12259473442E+03  0.21015557339E+03  0.42570276463E+03  0.49032405382E+03  0.00000000000E+00 0.  1.
         13    1    5    5    0    0 -0.13599454768E+03 -0.21621616101E+03 -0.26848236032E+03  0.37057620415E+03  0.00000000000E+00 0. -1.
        -13    1    5    5    0    0 -0.16014175498E+03 -0.27132121422E+03 -0.20275451811E+03  0.37465981582E+03  0.00000000000E+00 0.  1.
          5    1    6    6  503    0  0.79847599962E+02  0.10282842671E+02 -0.75927725051E+01  0.81000717697E+02  0.47000000000E+01 0. -1.
         -5    1    6    6    0  503  0.13650241409E+02  0.72548996584E+02 -0.22978759317E+02  0.77458371888E+02  0.47000000000E+01 0.  1.
<mgrwt>
<rscale>  0 0.58938678E+03</rscale>
<asrwt>0</asrwt>
<pdfrwt beam="1">  1        1 0.18800452E+00 0.58938678E+03</pdfrwt>
<pdfrwt beam="2">  1       -1 0.11610954E+00 0.58938678E+03</pdfrwt>
<totfact> 0.73591484E+00</totfact>
</mgrwt>
</event>
<event>
12    1  0.3166324E-008  0.2183677E+04  0.7818608E-02  0.8525253E-01
          2   -1    0    0  501    0  0.00000000000E+00  0.00000000000E+00  0.49748327513E+04  0.49748327513E+04  0.00000000000E+00 0. -1.
         -2   -1    0    0    0  501 -0.00000000000E+00 -0.00000000000E+00 -0.10416192459E+04  0.10416192459E+04  0.00000000000E+00 0.  1.
         23    2    1    2    0    0  0.14944418722E+04  0.15787489861E+04  0.12423351027E+04  0.25055236397E+04  0.91909362504E+02 0.  0.
    5000000    2    1    2    0    0 -0.14944418722E+04 -0.15787489861E+04  0.26908784027E+04  0.35109283575E+04  0.59998873562E+03 0.  0.
         23    2    4    4    0    0 -0.44696018202E+03 -0.34272041892E+03  0.37396514854E+03  0.68222806555E+03  0.91403015514E+02 0.  0.
         23    2    4    4    0    0 -0.10474816902E+04 -0.12360285672E+04  0.23169132542E+04  0.28287002920E+04  0.92053268369E+02 0.  0.
          2    1    3    3  502    0  0.13114019890E+04  0.13455014290E+04  0.10907169447E+04  0.21725129978E+04  0.00000000000E+00 0. -1.
         -2    1    3    3    0  502  0.18303988319E+03  0.23324755716E+03  0.15161815797E+03  0.33301064185E+03  0.00000000000E+00 0.  1.
         13    1    5    5    0    0 -0.16128962652E+03 -0.18052782452E+03  0.16102327863E+03  0.29074582595E+03  0.00000000000E+00 0. -1.
        -13    1    5    5    0    0 -0.28567055550E+03 -0.16219259440E+03  0.21294186991E+03  0.39148223960E+03  0.00000000000E+00 0.  1.
          5    1    6    6  503    0 -0.24192826235E+03 -0.32709752753E+03  0.53166570695E+03  0.66948681136E+03  0.47000000000E+01 0. -1.
         -5    1    6    6    0  503 -0.80555342786E+03 -0.90893103966E+03  0.17852475472E+04  0.21592134806E+04  0.47000000000E+01 0.  1.
<mgrwt>
<rscale>  0 0.21836772E+04</rscale>
<asrwt>0</asrwt>
<pdfrwt beam="1">  1        2 0.76535887E+00 0.21836772E+04</pdfrwt>
<pdfrwt beam="2">  1       -2 0.16024912E+00 0.21836772E+04</pdfrwt>
<totfact> 0.82636887E-03</totfact>
</mgrwt>
</event>
<event>
12    1  0.3166324E-008  0.8580319E+03  0.7818608E-02  0.9479620E-01
          2   -1    0    0  501    0  0.00000000000E+00  0.00000000000E+00  0.48958714113E+03  0.48958714113E+03  0.00000000000E+00 0. -1.
         -2   -1    0    0    0  501 -0.00000000000E+00 -0.00000000000E+00 -0.17903054357E+04  0.17903054357E+04  0.00000000000E+00 0.  1.
         23    2    1    2    0    0 -0.18780509498E+03  0.80465513793E+03 -0.75230317968E+03  0.11207518592E+04  0.85930268987E+02 0.  0.
    5000000    2    1    2    0    0  0.18780509498E+03 -0.80465513793E+03 -0.54841511488E+03  0.11591407176E+04  0.60008951017E+03 0.  0.
         23    2    4    4    0    0 -0.85199066350E+02 -0.29494389745E+03 -0.47075090751E+03  0.56909093404E+03  0.89483466313E+02 0.  0.
         23    2    4    4    0    0  0.27300416133E+03 -0.50971124049E+03 -0.77664207373E+02  0.59004978354E+03  0.88262093569E+02 0.  0.
          1    1    3    3  502    0 -0.17012752952E+03  0.55742920384E+03 -0.53434355577E+03  0.79069193065E+03  0.00000000000E+00 0. -1.
         -1    1    3    3    0  502 -0.17677565465E+02  0.24722593409E+03 -0.21795962391E+03  0.33005992859E+03  0.00000000000E+00 0.  1.
         11    1    5    5    0    0 -0.16996581218E+02 -0.60265175255E+02 -0.17243026465E+03  0.18344746193E+03  0.00000000000E+00 0. -1.
        -11    1    5    5    0    0 -0.68202485132E+02 -0.23467872219E+03 -0.29832064285E+03  0.38564347211E+03  0.00000000000E+00 0.  1.
          5    1    6    6  503    0  0.10496313082E+03 -0.18561412942E+03  0.13578059350E+02  0.21372018521E+03  0.47000000000E+01 0. -1.
         -5    1    6    6    0  503  0.16804103052E+03 -0.32409711107E+03 -0.91242266723E+02  0.37632959833E+03  0.47000000000E+01 0.  1.
<mgrwt>
<rscale>  0 0.85803194E+03</rscale>
<asrwt>0</asrwt>
<pdfrwt beam="1">  1        2 0.75321097E-01 0.85803194E+03</pdfrwt>
<pdfrwt beam="2">  1       -2 0.27543161E+00 0.85803194E+03</pdfrwt>
<totfact> 0.28909193E+00</totfact>
</mgrwt>
</event>
<event>
12    1  0.3166324E-008  0.2300406E+04  0.7818608E-02  0.8477761E-01
         -2   -1    0    0    0  501 -0.00000000000E+00  0.00000000000E+00  0.12805575467E+04  0.12805575467E+04  0.00000000000E+00 0.  1.
          2   -1    0    0  501    0  0.00000000000E+00 -0.00000000000E+00 -0.42091232354E+04  0.42091232354E+04  0.00000000000E+00 0. -1.
         23    2    1    2    0    0  0.17507470091E+04 -0.14599561394E+04 -0.13186516959E+04  0.26351017556E+04  0.91279509470E+02 0.  0.
    5000000    2    1    2    0    0 -0.17507470091E+04  0.14599561394E+04 -0.16099139929E+04  0.28545790265E+04  0.60017608691E+03 0.  0.
         23    2    4    4    0    0 -0.33370416225E+03  0.51904880423E+03 -0.64340875897E+03  0.89596537962E+03  0.89493023615E+02 0.  0.
         23    2    4    4    0    0 -0.14170428468E+04  0.94090733515E+03 -0.96650523388E+03  0.19586136468E+04  0.93370270772E+02 0.  0.
          2    1    3    3  502    0  0.60250002778E+03 -0.53174993030E+03 -0.50810689852E+03  0.95075595827E+03  0.00000000000E+00 0.  1.
         -2    1    3    3    0  502  0.11482469813E+04 -0.92820620908E+03 -0.81054479737E+03  0.16843457974E+04  0.00000000000E+00 0. -1.
         11    1    5    5    0    0 -0.11939678681E+03  0.19700815731E+03 -0.30341307899E+03  0.38095577598E+03  0.00000000000E+00 0.  1.
        -11    1    5    5    0    0 -0.21430737544E+03  0.32204064692E+03 -0.33999567998E+03  0.51500960364E+03  0.00000000000E+00 0. -1.
          5    1    6    6  503    0 -0.92109002349E+03  0.66404040364E+03 -0.64707982321E+03  0.13069395076E+04  0.47000000000E+01 0. -1.
         -5    1    6    6    0  503 -0.49595282332E+03  0.27686693151E+03 -0.31942541068E+03  0.65167413920E+03  0.47000000000E+01 0.  1.
<mgrwt>
<rscale>  0 0.23004063E+04</rscale>
<asrwt>0</asrwt>
<pdfrwt beam="1">  1        2 0.64755743E+00 0.23004063E+04</pdfrwt>
<pdfrwt beam="2">  1       -2 0.19700885E+00 0.23004063E+04</pdfrwt>
<totfact> 0.27641778E-02</totfact>
</mgrwt>
</event>
<event>
12    1  0.3166324E-008  0.1842299E+04  0.7818608E-02  0.8684123E-01
         -2   -1    0    0    0  501 -0.00000000000E+00  0.00000000000E+00  0.18417537201E+04  0.18417537201E+04  0.00000000000E+00 0.  1.
          2   -1    0    0  501    0  0.00000000000E+00 -0.00000000000E+00 -0.21797694835E+04  0.21797694835E+04  0.00000000000E+00 0. -1.
         23    2    1    2    0    0 -0.18384926502E+04 -0.13214804487E+02  0.50876107222E+03  0.19101553995E+04  0.98112007233E+02 0.  0.
    5000000    2    1    2    0    0  0.18384926502E+04  0.13214804487E+02 -0.84677683565E+03  0.21113678040E+04  0.60051073149E+03 0.  0.
         23    2    4    4    0    0  0.83966147889E+03  0.67021004442E+02 -0.69304270847E+03  0.10952400817E+04  0.98587152010E+02 0.  0.
         23    2    4    4    0    0  0.99883117129E+03 -0.53806199956E+02 -0.15373412718E+03  0.10161277224E+04  0.91228013219E+02 0.  0.
          1    1    3    3  502    0 -0.13017840245E+04  0.19607150046E+02  0.39510190499E+03  0.13605629725E+04  0.00000000000E+00 0. -1.
         -1    1    3    3    0  502 -0.53670862567E+03 -0.32821954532E+02  0.11365916722E+03  0.54959242704E+03  0.00000000000E+00 0.  1.
         13    1    5    5    0    0  0.58268119094E+03  0.19074644519E+02 -0.43023421701E+03  0.72455689481E+03  0.00000000000E+00 0. -1.
        -13    1    5    5    0    0  0.25698028795E+03  0.47946359924E+02 -0.26280849147E+03  0.37068318685E+03  0.00000000000E+00 0.  1.
          5    1    6    6  503    0  0.73680703428E+03 -0.30636579066E+02 -0.15237269546E+03  0.75303567914E+03  0.47000000000E+01 0. -1.
         -5    1    6    6    0  503  0.26202413701E+03 -0.23169620889E+02 -0.13614317212E+01  0.26309204322E+03  0.47000000000E+01 0.  1.
<mgrwt>
<rscale>  0 0.18422992E+04</rscale>
<asrwt>0</asrwt>
<pdfrwt beam="1">  1        2 0.33534915E+00 0.18422992E+04</pdfrwt>
<pdfrwt beam="2">  1       -2 0.28334673E+00 0.18422992E+04</pdfrwt>
<totfact> 0.19236318E-01</totfact>
</mgrwt>
</event>
<event>
12    1  0.3166324E-008  0.6800590E+03  0.7818608E-02  0.9751955E-01
          2   -1    0    0  501    0  0.00000000000E+00  0.00000000000E+00  0.13083934320E+04  0.13083934320E+04  0.00000000000E+00 0. -1.
         -2   -1    0    0    0  501 -0.00000000000E+00 -0.00000000000E+00 -0.43189626869E+03  0.43189626869E+03  0.00000000000E+00 0.  1.
         23    2    1    2    0    0  0.29765286074E+03 -0.55309154644E+03  0.34055962736E+03  0.72012598964E+03  0.89961641339E+02 0.  0.
    5000000    2    1    2    0    0 -0.29765286074E+03  0.55309154644E+03  0.53593753600E+03  0.10201637111E+04  0.59916397646E+03 0.  0.
         23    2    4    4    0    0  0.78541890394E+02  0.16959437310E+03  0.41217200744E+03  0.46179226328E+03  0.91843621294E+02 0.  0.
         23    2    4    4    0    0 -0.37619475114E+03  0.38349717335E+03  0.12376552856E+03  0.55837144782E+03  0.88702846255E+02 0.  0.
          1    1    3    3  502    0  0.10687966062E+03 -0.11991117882E+03  0.99477496359E+02  0.18893841574E+03  0.00000000000E+00 0. -1.
         -1    1    3    3    0  502  0.19077320013E+03 -0.43318036762E+03  0.24108213100E+03  0.53118757390E+03  0.00000000000E+00 0.  1.
         11    1    5    5    0    0  0.47984964589E+02  0.83057026320E+02  0.10979158015E+03  0.14579169222E+03  0.00000000000E+00 0.  1.
        -11    1    5    5    0    0  0.30556925805E+02  0.86537346775E+02  0.30238042729E+03  0.31600057106E+03  0.00000000000E+00 0. -1.
          5    1    6    6  503    0 -0.12886648005E+03  0.10799669952E+03  0.73302048361E+00  0.16820369826E+03  0.47000000000E+01 0. -1.
         -5    1    6    6    0  503 -0.24732827109E+03  0.27550047382E+03  0.12303250808E+03  0.39016774957E+03  0.47000000000E+01 0.  1.
<mgrwt>
<rscale>  0 0.68005897E+03</rscale>
<asrwt>0</asrwt>
<pdfrwt beam="1">  1        2 0.20129130E+00 0.68005897E+03</pdfrwt>
<pdfrwt beam="2">  1       -2 0.66445580E-01 0.68005897E+03</pdfrwt>
<totfact> 0.34981053E+01</totfact>
</mgrwt>
</event>
<event>
12    1  0.3166324E-008  0.1766119E+04  0.7818608E-02  0.8724527E-01
         -1   -1    0    0    0  501 -0.00000000000E+00  0.00000000000E+00  0.10597651840E+04  0.10597651840E+04  0.00000000000E+00 0.  1.
          1   -1    0    0  501    0  0.00000000000E+00 -0.00000000000E+00 -0.30884295219E+04  0.30884295219E+04  0.00000000000E+00 0. -1.
         23    2    1    2    0    0  0.11186519335E+04 -0.13561886925E+04 -0.95446518483E+03  0.20025109289E+04  0.91740465612E+02 0.  0.
    5000000    2    1    2    0    0 -0.11186519335E+04  0.13561886925E+04 -0.10741991531E+04  0.21456837770E+04  0.59952075223E+03 0.  0.
         23    2    4    4    0    0 -0.69741466629E+03  0.71878099158E+03 -0.91454050528E+03  0.13595103076E+04  0.94077681279E+02 0.  0.
         23    2    4    4    0    0 -0.42123726725E+03  0.63740770095E+03 -0.15965864781E+03  0.78617346941E+03  0.94066081195E+02 0.  0.
          2    1    3    3  502    0  0.71305307079E+03 -0.93240680815E+03 -0.63699174091E+03  0.13355094966E+04  0.00000000000E+00 0. -1.
         -2    1    3    3    0  502  0.40559886275E+03 -0.42378188439E+03 -0.31747344393E+03  0.66700143223E+03  0.00000000000E+00 0.  1.
         13    1    5    5    0    0 -0.29906926230E+03  0.35094138772E+03 -0.37150873104E+03  0.59213260213E+03  0.00000000000E+00 0. -1.
        -13    1    5    5    0    0 -0.39834540399E+03  0.36783960386E+03 -0.54303177424E+03  0.76737770549E+03  0.00000000000E+00 0.  1.
          5    1    6    6  503    0 -0.29605707064E+03  0.51090639121E+03 -0.14147598619E+03  0.60721715583E+03  0.47000000000E+01 0. -1.
         -5    1    6    6    0  503 -0.12518019661E+03  0.12650130974E+03 -0.18182661613E+02  0.17895631358E+03  0.47000000000E+01 0.  1.
<mgrwt>
<rscale>  0 0.17661193E+04</rscale>
<asrwt>0</asrwt>
<pdfrwt beam="1">  1        1 0.47514301E+00 0.17661193E+04</pdfrwt>
<pdfrwt beam="2">  1       -1 0.16304080E+00 0.17661193E+04</pdfrwt>
<totfact> 0.13153236E-01</totfact>
</mgrwt>
</event>
<event>
12    1  0.3166324E-008  0.1318689E+04  0.7818608E-02  0.9014875E-01
         -1   -1    0    0    0  501 -0.00000000000E+00  0.00000000000E+00  0.83543857355E+03  0.83543857355E+03  0.00000000000E+00 0.  1.
          1   -1    0    0  501    0  0.00000000000E+00 -0.00000000000E+00 -0.22668822714E+04  0.22668822714E+04  0.00000000000E+00 0. -1.
         23    2    1    2    0    0 -0.12712677452E+04 -0.51250315334E+02 -0.10292317203E+04  0.16391128264E+04  0.92868988322E+02 0.  0.
    5000000    2    1    2    0    0  0.12712677452E+04  0.51250315334E+02 -0.40221197757E+03  0.14632080185E+04  0.60037901006E+03 0.  0.
         23    2    4    4    0    0  0.17634279275E+03  0.17156197281E+03 -0.22122063334E+03  0.34298982932E+03  0.90405549238E+02 0.  0.
         23    2    4    4    0    0  0.10949249524E+04 -0.12031165748E+03 -0.18099134423E+03  0.11202181892E+04  0.93783678108E+02 0.  0.
          4    1    3    3  502    0 -0.10272268192E+04 -0.38762995872E+02 -0.78293036794E+03  0.12921600013E+04  0.00000000000E+00 0. -1.
         -4    1    3    3    0  502 -0.24404092600E+03 -0.12487319462E+02 -0.24630135234E+03  0.34695282514E+03  0.00000000000E+00 0.  1.
         11    1    5    5    0    0  0.35486676174E+02  0.95416343403E+02 -0.92402496130E+02  0.13748383201E+03  0.00000000000E+00 0. -1.
        -11    1    5    5    0    0  0.14085611658E+03  0.76145629408E+02 -0.12881813721E+03  0.20550599731E+03  0.00000000000E+00 0.  1.
          5    1    6    6  503    0  0.65294959074E+03 -0.42577428381E+02 -0.71321401426E+02  0.65822856043E+03  0.47000000000E+01 0. -1.
         -5    1    6    6    0  503  0.44197536170E+03 -0.77734229097E+02 -0.10966994280E+03  0.46198962876E+03  0.47000000000E+01 0.  1.
<mgrwt>
<rscale>  0 0.13186887E+04</rscale>
<asrwt>0</asrwt>
<pdfrwt beam="1">  1        1 0.34875111E+00 0.13186887E+04</pdfrwt>
<pdfrwt beam="2">  1       -1 0.12852901E+00 0.13186887E+04</pdfrwt>
<totfact> 0.99432232E-01</totfact>
</mgrwt>
</event>
<event>
12    1  0.3166324E-008  0.9184729E+03  0.7818608E-02  0.9402780E-01
          2   -1    0    0  501    0  0.00000000000E+00  0.00000000000E+00  0.18111459496E+04  0.18111459496E+04  0.00000000000E+00 0.  1.
         -2   -1    0    0    0  501 -0.00000000000E+00 -0.00000000000E+00 -0.71613202308E+03  0.71613202308E+03  0.00000000000E+00 0. -1.
         23    2    1    2    0    0 -0.27485556188E+03 -0.85983227788E+03  0.11212225737E+04  0.14429289198E+04  0.10023313673E+03 0.  0.
    5000000    2    1    2    0    0  0.27485556188E+03  0.85983227788E+03 -0.26208647174E+02  0.10843490529E+04  0.60022399942E+03 0.  0.
         23    2    4    4    0    0  0.24683532257E+03  0.58851648938E+03 -0.27802437610E+03  0.70212394437E+03  0.91657759136E+02 0.  0.
         23    2    4    4    0    0  0.28020239309E+02  0.27131578849E+03  0.25181572893E+03  0.38222510858E+03  0.91035605096E+02 0.  0.
          3    1    3    3  502    0 -0.12411110419E+03 -0.53223783098E+03  0.71015261373E+03  0.89610122737E+03  0.00000000000E+00 0. -1.
         -3    1    3    3    0  502 -0.15074445769E+03 -0.32759444690E+03  0.41106995999E+03  0.54682769239E+03  0.00000000000E+00 0.  1.
         11    1    5    5    0    0  0.15804274417E+03  0.26882084280E+03 -0.15519376396E+03  0.34832062655E+03  0.00000000000E+00 0. -1.
        -11    1    5    5    0    0  0.88792578401E+02  0.31969564658E+03 -0.12283061214E+03  0.35380331782E+03  0.00000000000E+00 0.  1.
          5    1    6    6  503    0 -0.29606191348E+02  0.59618171704E+02  0.75133469483E+02  0.10048871180E+03  0.47000000000E+01 0. -1.
         -5    1    6    6    0  503  0.57626430658E+02  0.21169761679E+03  0.17668225945E+03  0.28173639678E+03  0.47000000000E+01 0.  1.
<mgrwt>
<rscale>  0 0.91847285E+03</rscale>
<asrwt>0</asrwt>
<pdfrwt beam="1">  1        2 0.27863784E+00 0.91847285E+03</pdfrwt>
<pdfrwt beam="2">  1       -2 0.11017416E+00 0.91847285E+03</pdfrwt>
<totfact> 0.56087682E+00</totfact>
</mgrwt>
</event>
<event>
12    1  0.3166324E-008  0.5805283E+03  0.7818608E-02  0.9946648E-01
         -2   -1    0    0    0  501 -0.00000000000E+00  0.00000000000E+00  0.23114818335E+03  0.23114818335E+03  0.00000000000E+00 0.  1.
          2   -1    0    0  501    0  0.00000000000E+00 -0.00000000000E+00 -0.22749199018E+04  0.22749199018E+04  0.00000000000E+00 0. -1.
         23    2    1    2    0    0 -0.30585513111E+03 -0.45750815982E+03 -0.12502204951E+04  0.13691781666E+04  0.93469182398E+02 0.  0.
    5000000    2    1    2    0    0  0.30585513111E+03  0.45750815982E+03 -0.79355122335E+03  0.11368899185E+04  0.59994505186E+03 0.  0.
         23    2    4    4    0    0  0.86256416401E+01  0.19840461695E+03 -0.68302771072E+03  0.71735224201E+03  0.92890213570E+02 0.  0.
         23    2    4    4    0    0  0.29722948947E+03  0.25910354286E+03 -0.11052351263E+03  0.41953767652E+03  0.91194297203E+02 0.  0.
          2    1    3    3  502    0 -0.80275188427E+02 -0.19625604911E+03 -0.43641900377E+03  0.48520314255E+03  0.00000000000E+00 0. -1.
         -2    1    3    3    0  502 -0.22557994268E+03 -0.26125211070E+03 -0.81380149128E+03  0.88397502402E+03  0.00000000000E+00 0.  1.
         11    1    5    5    0    0  0.13672648621E+02  0.15612667011E+03 -0.37554450702E+03  0.40693507492E+03  0.00000000000E+00 0. -1.
        -11    1    5    5    0    0 -0.50470069812E+01  0.42277946837E+02 -0.30748320370E+03  0.31041716709E+03  0.00000000000E+00 0.  1.
          5    1    6    6  503    0  0.23333679681E+03  0.24612430927E+03 -0.88190356900E+02  0.35046093279E+03  0.47000000000E+01 0. -1.
         -5    1    6    6    0  503  0.63892692663E+02  0.12979233591E+02 -0.22333155726E+02  0.69076743735E+02  0.47000000000E+01 0.  1.
<mgrwt>
<rscale>  0 0.58052834E+03</rscale>
<asrwt>0</asrwt>
<pdfrwt beam="1">  1        2 0.34998769E+00 0.58052834E+03</pdfrwt>
<pdfrwt beam="2">  1       -2 0.35561258E-01 0.58052834E+03</pdfrwt>
<totfact> 0.37051964E+01</totfact>
</mgrwt>
</event>
<event>
12    1  0.3166324E-008  0.6394198E+03  0.7818608E-02  0.9826837E-01
          1   -1    0    0  501    0  0.00000000000E+00  0.00000000000E+00  0.84652032593E+03  0.84652032593E+03  0.00000000000E+00 0. -1.
         -1   -1    0    0    0  501 -0.00000000000E+00 -0.00000000000E+00 -0.54922320864E+03  0.54922320864E+03  0.00000000000E+00 0.  1.
         23    2    1    2    0    0  0.46298215690E+03 -0.27731398424E+03  0.19913912480E+03  0.58254677361E+03  0.91917511678E+02 0.  0.
    5000000    2    1    2    0    0 -0.46298215690E+03  0.27731398424E+03  0.98157992492E+02  0.81319676097E+03  0.60033195576E+03 0.  0.
         23    2    4    4    0    0 -0.35084135341E+03  0.40428025815E+03 -0.82599303325E+02  0.54914226845E+03  0.90567122635E+02 0.  0.
         23    2    4    4    0    0 -0.11214080349E+03 -0.12696627391E+03  0.18075729582E+03  0.26405449252E+03  0.91408864506E+02 0.  0.
          2    1    3    3  502    0  0.79642032961E+02 -0.87616232410E+02  0.60255884070E+02  0.13285416501E+03  0.00000000000E+00 0. -1.
         -2    1    3    3    0  502  0.38334012394E+03 -0.18969775183E+03  0.13888324073E+03  0.44969260859E+03  0.00000000000E+00 0.  1.
         11    1    5    5    0    0 -0.68712909255E+02  0.12934502687E+03 -0.45961329572E+02  0.15350584253E+03  0.00000000000E+00 0. -1.
        -11    1    5    5    0    0 -0.28212844415E+03  0.27493523128E+03 -0.36637973753E+02  0.39563642593E+03  0.00000000000E+00 0.  1.
          5    1    6    6  503    0 -0.72158355590E+02 -0.13322627510E+03  0.14679106477E+03  0.21101131571E+03  0.47000000000E+01 0. -1.
         -5    1    6    6    0  503 -0.39982447901E+02  0.62600011917E+01  0.33966231044E+02  0.53043176813E+02  0.47000000000E+01 0.  1.
<mgrwt>
<rscale>  0 0.63941985E+03</rscale>
<asrwt>0</asrwt>
<pdfrwt beam="1">  1        1 0.13023390E+00 0.63941985E+03</pdfrwt>
<pdfrwt beam="2">  1       -1 0.84495878E-01 0.63941985E+03</pdfrwt>
<totfact> 0.29067681E+01</totfact>
</mgrwt>
</event>
<event>
12    1  0.3166324E-008  0.6104886E+03  0.7818608E-02  0.9883881E-01
          2   -1    0    0  501    0  0.00000000000E+00  0.00000000000E+00  0.19198919546E+04  0.19198919546E+04  0.00000000000E+00 0. -1.
         -2   -1    0    0    0  501 -0.00000000000E+00 -0.00000000000E+00 -0.20815610776E+03  0.20815610776E+03  0.00000000000E+00 0.  1.
         23    2    1    2    0    0 -0.38993053870E+03 -0.28756161282E+03  0.64963051234E+03  0.81549980734E+03  0.91008939316E+02 0.  0.
    5000000    2    1    2    0    0  0.38993053870E+03  0.28756161282E+03  0.10621053345E+04  0.13125482551E+04  0.59998139475E+03 0.  0.
         23    2    4    4    0    0  0.24450592356E+03  0.44636975853E+03  0.86351238879E+03  0.10061366654E+04  0.87339773147E+02 0.  0.
         23    2    4    4    0    0  0.14542461514E+03 -0.15880814572E+03  0.19859294575E+03  0.30641158962E+03  0.89891925761E+02 0.  0.
          3    1    3    3  502    0 -0.80572841764E+02 -0.88985619268E+02  0.11179222386E+03  0.16403635140E+03  0.00000000000E+00 0. -1.
         -3    1    3    3    0  502 -0.30935769693E+03 -0.19857599355E+03  0.53783828848E+03  0.65146345593E+03  0.00000000000E+00 0.  1.
         13    1    5    5    0    0  0.11654910687E+03  0.17580491640E+03  0.43510373603E+03  0.48353523558E+03  0.00000000000E+00 0. -1.
        -13    1    5    5    0    0  0.12795681669E+03  0.27056484214E+03  0.42840865276E+03  0.52260142987E+03  0.00000000000E+00 0.  1.
          5    1    6    6  503    0  0.30334775172E+02 -0.52476313275E+01  0.66391758606E+02  0.73332747324E+02  0.47000000000E+01 0. -1.
         -5    1    6    6    0  503  0.11508983997E+03 -0.15356051439E+03  0.13220118714E+03  0.23307884230E+03  0.47000000000E+01 0.  1.
<mgrwt>
<rscale>  0 0.61048864E+03</rscale>
<asrwt>0</asrwt>
<pdfrwt beam="1">  1        2 0.29536798E+00 0.61048864E+03</pdfrwt>
<pdfrwt beam="2">  1       -2 0.32024018E-01 0.61048864E+03</pdfrwt>
<totfact> 0.70120445E+01</totfact>
</mgrwt>
</event>
<event>
12    1  0.3166324E-008  0.9124031E+03  0.7818608E-02  0.9410208E-01
          4   -1    0    0  501    0  0.00000000000E+00  0.00000000000E+00  0.58473635542E+03  0.58473635542E+03  0.00000000000E+00 0. -1.
         -4   -1    0    0    0  501 -0.00000000000E+00 -0.00000000000E+00 -0.15183841756E+04  0.15183841756E+04  0.00000000000E+00 0.  1.
         23    2    1    2    0    0 -0.40964419880E+03 -0.72853169901E+03 -0.28875195920E+03  0.88885463067E+03  0.90100246689E+02 0.  0.
    5000000    2    1    2    0    0  0.40964419880E+03  0.72853169901E+03 -0.64489586099E+03  0.12142659004E+04  0.59998683253E+03 0.  0.
         23    2    4    4    0    0  0.52098871890E+03  0.67767706498E+03 -0.46214361746E+03  0.97585945634E+03  0.89719037777E+02 0.  0.
         23    2    4    4    0    0 -0.11134452010E+03  0.50854634029E+02 -0.18275224353E+03  0.23840644403E+03  0.91953543063E+02 0.  0.
          2    1    3    3  502    0 -0.33482748950E+02 -0.69655842741E+02 -0.60980049287E+00  0.77287791804E+02  0.00000000000E+00 0. -1.
         -2    1    3    3    0  502 -0.37616144985E+03 -0.65887585627E+03 -0.28814215871E+03  0.81156683887E+03  0.00000000000E+00 0.  1.
         13    1    5    5    0    0  0.54690988736E+02  0.59003322858E+02 -0.16556890960E+02  0.82137853608E+02  0.00000000000E+00 0.  1.
        -13    1    5    5    0    0  0.46629773017E+03  0.61867374212E+03 -0.44558672650E+03  0.89372160273E+03  0.00000000000E+00 0. -1.
          5    1    6    6  503    0 -0.85086796535E+02  0.11321258684E+02 -0.16760905563E+03  0.18836883865E+03  0.47000000000E+01 0. -1.
         -5    1    6    6    0  503 -0.26257723568E+02  0.39533375345E+02 -0.15143187897E+02  0.50037605387E+02  0.47000000000E+01 0.  1.
<mgrwt>
<rscale>  0 0.91240313E+03</rscale>
<asrwt>0</asrwt>
<pdfrwt beam="1">  1        4 0.89959441E-01 0.91240313E+03</pdfrwt>
<pdfrwt beam="2">  1       -4 0.23359756E+00 0.91240313E+03</pdfrwt>
<totfact> 0.16545349E-01</totfact>
</mgrwt>
</event>
<event>
12    1  0.3166324E-008  0.1330000E+04  0.7818608E-02  0.9006108E-01
         -2   -1    0    0    0  501 -0.00000000000E+00  0.00000000000E+00  0.12329247088E+04  0.12329247088E+04  0.00000000000E+00 0. -1.
          2   -1    0    0  501    0  0.00000000000E+00 -0.00000000000E+00 -0.16893203261E+04  0.16893203261E+04  0.00000000000E+00 0.  1.
         23    2    1    2    0    0 -0.11285938062E+04  0.58981685144E+03  0.31719989494E+03  0.13159154556E+04  0.97004203433E+02 0.  0.
    5000000    2    1    2    0    0  0.11285938062E+04 -0.58981685144E+03 -0.77359551227E+03  0.16063295793E+04  0.60019730345E+03 0.  0.
         23    2    4    4    0    0  0.54814939353E+03  0.62423668201E+01 -0.19892418970E+03  0.59117546667E+03  0.97009661218E+02 0.  0.
         23    2    4    4    0    0  0.58044441263E+03 -0.59605921826E+03 -0.57467132257E+03  0.10151541126E+04  0.89935729919E+02 0.  0.
          2    1    3    3  502    0 -0.79645303184E+03  0.37839056247E+03  0.18851727021E+03  0.90169596365E+03  0.00000000000E+00 0. -1.
         -2    1    3    3    0  502 -0.33214077432E+03  0.21142628898E+03  0.12868262473E+03  0.41421949199E+03  0.00000000000E+00 0.  1.
         11    1    5    5    0    0  0.27171274808E+03 -0.19386988943E+02 -0.52900799426E+02  0.27749264385E+03  0.00000000000E+00 0. -1.
        -11    1    5    5    0    0  0.27643664545E+03  0.25629355763E+02 -0.14602339028E+03  0.31368282282E+03  0.00000000000E+00 0.  1.
          5    1    6    6  503    0  0.27057848412E+03 -0.32356243936E+03 -0.25243373379E+03  0.49157934069E+03  0.47000000000E+01 0. -1.
         -5    1    6    6    0  503  0.30986592851E+03 -0.27249677890E+03 -0.32223758878E+03  0.52357477191E+03  0.47000000000E+01 0.  1.
<mgrwt>
<rscale>  0 0.13299998E+04</rscale>
<asrwt>0</asrwt>
<pdfrwt beam="1">  1        2 0.25989543E+00 0.13299998E+04</pdfrwt>
<pdfrwt beam="2">  1       -2 0.18968073E+00 0.13299998E+04</pdfrwt>
<totfact> 0.14819227E+00</totfact>
</mgrwt>
</event>
<event>
12    1  0.3166324E-008  0.3890749E+03  0.7818608E-02  0.1047630E+00
          2   -1    0    0  501    0  0.00000000000E+00  0.00000000000E+00  0.52685338822E+03  0.52685338822E+03  0.00000000000E+00 0. -1.
         -2   -1    0    0    0  501 -0.00000000000E+00 -0.00000000000E+00 -0.31550558727E+03  0.31550558727E+03  0.00000000000E+00 0.  1.
         23    2    1    2    0    0  0.10907851902E+03  0.12844266019E+03  0.27087525121E+02  0.19283330993E+03  0.89751385136E+02 0.  0.
    5000000    2    1    2    0    0 -0.10907851902E+03 -0.12844266019E+03  0.18426027582E+03  0.64952566556E+03  0.59961329264E+03 0.  0.
         23    2    4    4    0    0  0.22500597076E+03 -0.12260340633E+03  0.10018424009E+03  0.29007828723E+03  0.91919794584E+02 0.  0.
         23    2    4    4    0    0 -0.33408448978E+03 -0.58392538604E+01  0.84076035728E+02  0.35944737833E+03  0.10240651743E+03 0.  0.
          2    1    3    3  502    0  0.15531417804E+02  0.37341173684E+02  0.45599384952E+02  0.60949914677E+02  0.00000000000E+00 0. -1.
         -2    1    3    3    0  502  0.93547101216E+02  0.91101486508E+02 -0.18511859831E+02  0.13188339526E+03  0.00000000000E+00 0.  1.
         11    1    5    5    0    0  0.97517441597E+02 -0.21628293490E+02  0.16017816704E+01  0.99899950949E+02  0.00000000000E+00 0.  1.
        -11    1    5    5    0    0  0.12748852916E+03 -0.10097511284E+03  0.98582458422E+02  0.19017833628E+03  0.00000000000E+00 0. -1.
          5    1    6    6  503    0 -0.12299099276E+03  0.38295813143E+02  0.60691925259E+02  0.14247439558E+03  0.47000000000E+01 0. -1.
         -5    1    6    6    0  503 -0.21109349702E+03 -0.44135067004E+02  0.23384110469E+02  0.21697298276E+03  0.47000000000E+01 0.  1.
<mgrwt>
<rscale>  0 0.38907487E+03</rscale>
<asrwt>0</asrwt>
<pdfrwt beam="1">  1        2 0.81054368E-01 0.38907487E+03</pdfrwt>
<pdfrwt beam="2">  1       -2 0.48539321E-01 0.38907487E+03</pdfrwt>
<totfact> 0.23907465E+02</totfact>
</mgrwt>
</event>
<event>
12    1  0.3166324E-008  0.9406307E+03  0.7818608E-02  0.9376169E-01
          2   -1    0    0  501    0  0.00000000000E+00  0.00000000000E+00  0.98794746703E+03  0.98794746703E+03  0.00000000000E+00 0. -1.
         -2   -1    0    0    0  501 -0.00000000000E+00 -0.00000000000E+00 -0.10065004825E+04  0.10065004825E+04  0.00000000000E+00 0.  1.
         23    2    1    2    0    0 -0.25718747624E+03 -0.80904229714E+03  0.30342890950E+03  0.90616387865E+03  0.91482432012E+02 0.  0.
    5000000    2    1    2    0    0  0.25718747624E+03  0.80904229714E+03 -0.32198192499E+03  0.10882840709E+04  0.59999585202E+03 0.  0.
         23    2    4    4    0    0  0.42174838995E+03  0.43874225527E+03 -0.25972578320E+03  0.66786934540E+03  0.90694592300E+02 0.  0.
         23    2    4    4    0    0 -0.16456091371E+03  0.37030004186E+03 -0.62256141795E+02  0.42041472549E+03  0.93114439783E+02 0.  0.
          3    1    3    3  502    0 -0.14819996064E+03 -0.57979030721E+03  0.18761332052E+03  0.62715132680E+03  0.00000000000E+00 0. -1.
         -3    1    3    3    0  502 -0.10898751560E+03 -0.22925198992E+03  0.11581558898E+03  0.27901255185E+03  0.00000000000E+00 0.  1.
         11    1    5    5    0    0  0.20002611802E+03  0.26818116491E+03 -0.12244927765E+03  0.35626592694E+03  0.00000000000E+00 0. -1.
        -11    1    5    5    0    0  0.22172227194E+03  0.17056109037E+03 -0.13727650555E+03  0.31160341846E+03  0.00000000000E+00 0.  1.
          5    1    6    6  503    0  0.68065796120E+00  0.83709192598E+02 -0.46670946709E+00  0.83845095494E+02  0.47000000000E+01 0. -1.
         -5    1    6    6    0  503 -0.16524157167E+03  0.28659084926E+03 -0.61789432327E+02  0.33656963000E+03  0.47000000000E+01 0.  1.
<mgrwt>
<rscale>  0 0.94063070E+03</rscale>
<asrwt>0</asrwt>
<pdfrwt beam="1">  1        2 0.15199192E+00 0.94063070E+03</pdfrwt>
<pdfrwt beam="2">  1       -2 0.15484623E+00 0.94063070E+03</pdfrwt>
<totfact> 0.70372771E+00</totfact>
</mgrwt>
</event>
<event>
12    1  0.3166324E-008  0.1558120E+04  0.7818608E-02  0.8846698E-01
          2   -1    0    0  501    0  0.00000000000E+00  0.00000000000E+00  0.25112246111E+04  0.25112246111E+04  0.00000000000E+00 0. -1.
         -2   -1    0    0    0  501 -0.00000000000E+00 -0.00000000000E+00 -0.13070167008E+04  0.13070167008E+04  0.00000000000E+00 0.  1.
         23    2    1    2    0    0  0.14975733244E+04  0.35304111591E+03 -0.31629254327E+03  0.15734142382E+04  0.90705570698E+02 0.  0.
    5000000    2    1    2    0    0 -0.14975733244E+04 -0.35304111591E+03  0.15205004536E+04  0.22448270737E+04  0.59996922408E+03 0.  0.
         23    2    4    4    0    0 -0.95229281243E+02 -0.26086021349E+01  0.37676293501E+03  0.39922547175E+03  0.91407041773E+02 0.  0.
         23    2    4    4    0    0 -0.14023440432E+04 -0.35043251377E+03  0.11437375186E+04  0.18456016019E+04  0.93477267354E+02 0.  0.
          2    1    3    3  502    0  0.12659690528E+04  0.30283147560E+03 -0.23401491814E+03  0.13225534118E+04  0.00000000000E+00 0. -1.
         -2    1    3    3    0  502  0.23160427161E+03  0.50209640308E+02 -0.82277625124E+02  0.25086082637E+03  0.00000000000E+00 0.  1.
         13    1    5    5    0    0 -0.79544560306E+02 -0.41631697455E+02  0.24646304656E+03  0.26230624969E+03  0.00000000000E+00 0. -1.
        -13    1    5    5    0    0 -0.15684720937E+02  0.39023095320E+02  0.13029988846E+03  0.13691922207E+03  0.00000000000E+00 0.  1.
          5    1    6    6  503    0 -0.12362787395E+04 -0.31674390818E+03  0.10446635021E+04  0.16492591512E+04  0.47000000000E+01 0. -1.
         -5    1    6    6    0  503 -0.16606530362E+03 -0.33688605593E+02  0.99074016489E+02  0.19634245072E+03  0.47000000000E+01 0.  1.
<mgrwt>
<rscale>  0 0.15581195E+04</rscale>
<asrwt>0</asrwt>
<pdfrwt beam="1">  1        2 0.38634225E+00 0.15581195E+04</pdfrwt>
<pdfrwt beam="2">  1       -2 0.20107949E+00 0.15581195E+04</pdfrwt>
<totfact> 0.41893944E-01</totfact>
</mgrwt>
</event>
<event>
12    1  0.3166324E-008  0.7723462E+03  0.7818608E-02  0.9600931E-01
         -2   -1    0    0    0  501 -0.00000000000E+00  0.00000000000E+00  0.11962474916E+04  0.11962474916E+04  0.00000000000E+00 0.  1.
          2   -1    0    0  501    0  0.00000000000E+00 -0.00000000000E+00 -0.54272861263E+03  0.54272861263E+03  0.00000000000E+00 0. -1.
         23    2    1    2    0    0 -0.26204983062E+03 -0.63676736071E+03  0.34023345356E+03  0.77342148728E+03  0.90990156980E+02 0.  0.
    5000000    2    1    2    0    0  0.26204983062E+03  0.63676736071E+03  0.31328542544E+03  0.96555461698E+03  0.60000431263E+03 0.  0.
         23    2    4    4    0    0  0.31731480855E+03  0.68424664876E+03  0.17233173474E+03  0.77979789319E+03  0.97490324403E+02 0.  0.
         23    2    4    4    0    0 -0.55264977932E+02 -0.47479288047E+02  0.14095369070E+03  0.18575672379E+03  0.96587353895E+02 0.  0.
          4    1    3    3  502    0 -0.28508089949E+02 -0.17274138756E+03  0.87134292885E+02  0.19556247893E+03  0.00000000000E+00 0.  1.
         -4    1    3    3    0  502 -0.23354174067E+03 -0.46402597315E+03  0.25309916068E+03  0.57785900835E+03  0.00000000000E+00 0. -1.
         11    1    5    5    0    0  0.29361273837E+03  0.60556266192E+03  0.12355918010E+03  0.68423785969E+03  0.00000000000E+00 0. -1.
        -11    1    5    5    0    0  0.23702070179E+02  0.78683986844E+02  0.48772554635E+02  0.95560033497E+02  0.00000000000E+00 0.  1.
          5    1    6    6  503    0 -0.60940387225E+02 -0.56557454054E+02  0.56814506085E+02  0.10080900012E+03  0.47000000000E+01 0. -1.
         -5    1    6    6    0  503  0.56754092938E+01  0.90781660075E+01  0.84139184613E+02  0.84947723666E+02  0.47000000000E+01 0.  1.
<mgrwt>
<rscale>  0 0.77234621E+03</rscale>
<asrwt>0</asrwt>
<pdfrwt beam="1">  1        2 0.83496710E-01 0.77234621E+03</pdfrwt>
<pdfrwt beam="2">  1       -2 0.18403808E+00 0.77234621E+03</pdfrwt>
<totfact> 0.96561841E+00</totfact>
</mgrwt>
</event>
<event>
12    1  0.3166324E-008  0.2531735E+04  0.7818608E-02  0.8391766E-01
          2   -1    0    0  501    0  0.00000000000E+00  0.00000000000E+00  0.18429850990E+04  0.18429850990E+04  0.00000000000E+00 0. -1.
         -2   -1    0    0    0  501 -0.00000000000E+00 -0.00000000000E+00 -0.35746117361E+04  0.35746117361E+04  0.00000000000E+00 0.  1.
         23    2    1    2    0    0  0.10850408466E+04  0.22476497800E+04 -0.41187266440E+03  0.25312489299E+04  0.91317474787E+02 0.  0.
    5000000    2    1    2    0    0 -0.10850408466E+04 -0.22476497800E+04 -0.13197539726E+04  0.28863479052E+04  0.60000875765E+03 0.  0.
         23    2    4    4    0    0 -0.26223582666E+03 -0.12026104401E+04 -0.62560803671E+03  0.13834852131E+04  0.87214791223E+02 0.  0.
         23    2    4    4    0    0 -0.82280501990E+03 -0.10450393399E+04 -0.69414593593E+03  0.15028626921E+04  0.87420639752E+02 0.  0.
          2    1    3    3  502    0  0.72048242735E+03  0.14002138463E+04 -0.27822272496E+03  0.15990940023E+04  0.00000000000E+00 0. -1.
         -2    1    3    3    0  502  0.36455841921E+03  0.84743593376E+03 -0.13364993944E+03  0.93215492766E+03  0.00000000000E+00 0.  1.
         11    1    5    5    0    0 -0.15940679602E+03 -0.89466518948E+03 -0.44277965309E+03  0.10108858240E+04  0.00000000000E+00 0. -1.
        -11    1    5    5    0    0 -0.10282903064E+03 -0.30794525061E+03 -0.18282838362E+03  0.37259938912E+03  0.00000000000E+00 0.  1.
          5    1    6    6  503    0 -0.66192855103E+03 -0.89159825838E+03 -0.57065109277E+03  0.12485037528E+04  0.47000000000E+01 0.  1.
         -5    1    6    6    0  503 -0.16087646887E+03 -0.15344108157E+03 -0.12349484316E+03  0.25435893937E+03  0.47000000000E+01 0. -1.
<mgrwt>
<rscale>  0 0.25317352E+04</rscale>
<asrwt>0</asrwt>
<pdfrwt beam="1">  1        2 0.28353617E+00 0.25317352E+04</pdfrwt>
<pdfrwt beam="2">  1       -2 0.54994027E+00 0.25317352E+04</pdfrwt>
<totfact> 0.57900847E-03</totfact>
</mgrwt>
</event>
<event>
12    1  0.3166324E-008  0.8082423E+03  0.7818608E-02  0.9548163E-01
          1   -1    0    0  501    0  0.00000000000E+00  0.00000000000E+00  0.10825449235E+04  0.10825449235E+04  0.00000000000E+00 0. -1.
         -1   -1    0    0    0  501 -0.00000000000E+00 -0.00000000000E+00 -0.88524393109E+03  0.88524393109E+03  0.00000000000E+00 0.  1.
         23    2    1    2    0    0  0.11006823096E+03 -0.69723949080E+03 -0.44600804980E+03  0.83991114411E+03  0.90937486878E+02 0.  0.
    5000000    2    1    2    0    0 -0.11006823096E+03  0.69723949080E+03  0.64330904220E+03  0.11278777105E+04  0.60000306917E+03 0.  0.
         23    2    4    4    0    0 -0.33085649522E+03  0.54313112994E+03  0.46628005555E+03  0.79383465112E+03  0.91098399440E+02 0.  0.
         23    2    4    4    0    0  0.22078826426E+03  0.15410836086E+03  0.17702898665E+03  0.33404305936E+03  0.88026466864E+02 0.  0.
          3    1    3    3  502    0  0.29193382573E+02 -0.36265880711E+03 -0.18660474516E+03  0.40889484575E+03  0.00000000000E+00 0. -1.
         -3    1    3    3    0  502  0.80874848384E+02 -0.33458068369E+03 -0.25940330464E+03  0.43101629837E+03  0.00000000000E+00 0.  1.
         13    1    5    5    0    0 -0.23911315237E+03  0.36379192127E+03  0.26822102400E+03  0.51133372599E+03  0.00000000000E+00 0.  1.
        -13    1    5    5    0    0 -0.91743342850E+02  0.17933920867E+03  0.19805903155E+03  0.28250092513E+03  0.00000000000E+00 0. -1.
          5    1    6    6  503    0  0.14315340353E+03  0.11945791001E+03  0.74671784778E+02  0.20090060888E+03  0.47000000000E+01 0. -1.
         -5    1    6    6    0  503  0.77634860727E+02  0.34650450856E+02  0.10235720187E+03  0.13314245048E+03  0.47000000000E+01 0.  1.
<mgrwt>
<rscale>  0 0.80824225E+03</rscale>
<asrwt>0</asrwt>
<pdfrwt beam="1">  1        1 0.16654537E+00 0.80824225E+03</pdfrwt>
<pdfrwt beam="2">  1       -1 0.13619138E+00 0.80824225E+03</pdfrwt>
<totfact> 0.60462747E+00</totfact>
</mgrwt>
</event>
<event>
12    1  0.3166324E-008  0.2110024E+04  0.7818608E-02  0.8556840E-01
          2   -1    0    0  501    0  0.00000000000E+00  0.00000000000E+00  0.84056505621E+03  0.84056505621E+03  0.00000000000E+00 0.  1.
         -2   -1    0    0    0  501 -0.00000000000E+00 -0.00000000000E+00 -0.54326743864E+04  0.54326743864E+04  0.00000000000E+00 0. -1.
         23    2    1    2    0    0  0.89888287771E+03 -0.18885975870E+04 -0.21008040620E+04  0.29654819258E+04  0.76903004594E+02 0.  0.
    5000000    2    1    2    0    0 -0.89888287771E+03  0.18885975870E+04 -0.24913052682E+04  0.33077575168E+04  0.59988880383E+03 0.  0.
         23    2    4    4    0    0 -0.75904325354E+03  0.11910561462E+04 -0.13257312777E+04  0.19391777104E+04  0.89918672555E+02 0.  0.
         23    2    4    4    0    0 -0.13983962417E+03  0.69754144080E+03 -0.11655739905E+04  0.13685798064E+04  0.91262133293E+02 0.  0.
          4    1    3    3  502    0  0.73348749057E+03 -0.15122252787E+04 -0.17267935064E+04  0.24096981151E+04  0.00000000000E+00 0. -1.
         -4    1    3    3    0  502  0.16539538714E+03 -0.37637230826E+03 -0.37401055563E+03  0.55578381070E+03  0.00000000000E+00 0.  1.
         11    1    5    5    0    0 -0.54404981923E+03  0.83172292597E+03 -0.87783240477E+03  0.13260252495E+04  0.00000000000E+00 0. -1.
        -11    1    5    5    0    0 -0.21499343431E+03  0.35933322023E+03 -0.44789887292E+03  0.61315246091E+03  0.00000000000E+00 0.  1.
          5    1    6    6  503    0 -0.14226347669E+03  0.55445837787E+03 -0.96773482048E+03  0.11243646038E+04  0.47000000000E+01 0. -1.
         -5    1    6    6    0  503  0.24238525201E+01  0.14308306293E+03 -0.19783917004E+03  0.24421520256E+03  0.47000000000E+01 0.  1.
<mgrwt>
<rscale>  0 0.21100244E+04</rscale>
<asrwt>0</asrwt>
<pdfrwt beam="1">  1        2 0.12931770E+00 0.21100244E+04</pdfrwt>
<pdfrwt beam="2">  1       -2 0.83579606E+00 0.21100244E+04</pdfrwt>
<totfact> 0.12774232E-03</totfact>
</mgrwt>
</event>
<event>
12    1  0.3166324E-008  0.4819491E+03  0.7818608E-02  0.1018601E+00
         -2   -1    0    0    0  501 -0.00000000000E+00  0.00000000000E+00  0.15397512848E+04  0.15397512848E+04  0.00000000000E+00 0.  1.
          2   -1    0    0  501    0  0.00000000000E+00 -0.00000000000E+00 -0.22870023154E+03  0.22870023154E+03  0.00000000000E+00 0. -1.
         23    2    1    2    0    0  0.42443003564E+03  0.73258843270E+02  0.58985756708E+03  0.73611996383E+03  0.91831032021E+02 0.  0.
    5000000    2    1    2    0    0 -0.42443003564E+03 -0.73258843270E+02  0.72119348619E+03  0.10323315525E+04  0.60006722670E+03 0.  0.
         23    2    4    4    0    0 -0.20478615392E+03  0.10908581177E+03 -0.61069456566E+00  0.25054396990E+03  0.94524201881E+02 0.  0.
         23    2    4    4    0    0 -0.21964388172E+03 -0.18234465504E+03  0.72180418076E+03  0.78178758263E+03  0.93260607926E+02 0.  0.
          1    1    3    3  502    0  0.13740871206E+03 -0.85459507613E+01  0.14074522078E+03  0.19688424161E+03  0.00000000000E+00 0. -1.
         -1    1    3    3    0  502  0.28702132358E+03  0.81804794031E+02  0.44911234631E+03  0.53923572222E+03  0.00000000000E+00 0.  1.
         13    1    5    5    0    0 -0.70337297471E+02  0.61544377414E+02  0.40899385803E+02  0.10201865303E+03  0.00000000000E+00 0.  1.
        -13    1    5    5    0    0 -0.13444885645E+03  0.47541434357E+02 -0.41510080369E+02  0.14852531688E+03  0.00000000000E+00 0. -1.
          5    1    6    6  503    0 -0.17618129375E+03 -0.17307569571E+03  0.52838843837E+03  0.58327650091E+03  0.47000000000E+01 0. -1.
         -5    1    6    6    0  503 -0.43462587972E+02 -0.92689593313E+01  0.19341574239E+03  0.19851108172E+03  0.47000000000E+01 0.  1.
<mgrwt>
<rscale>  0 0.48194907E+03</rscale>
<asrwt>0</asrwt>
<pdfrwt beam="1">  1        2 0.35184652E-01 0.48194907E+03</pdfrwt>
<pdfrwt beam="2">  1       -2 0.23688481E+00 0.48194907E+03</pdfrwt>
<totfact> 0.12175361E+01</totfact>
</mgrwt>
</event>
<event>
12    1  0.3166324E-008  0.4373368E+03  0.7818608E-02  0.1031567E+00
         -2   -1    0    0    0  501 -0.00000000000E+00  0.00000000000E+00  0.11937215322E+04  0.11937215322E+04  0.00000000000E+00 0.  1.
          2   -1    0    0  501    0  0.00000000000E+00 -0.00000000000E+00 -0.30707754435E+03  0.30707754435E+03  0.00000000000E+00 0. -1.
         23    2    1    2    0    0  0.37953194126E+03 -0.15572586647E+03  0.10462082711E+03  0.43281919880E+03  0.89954996873E+02 0.  0.
    5000000    2    1    2    0    0 -0.37953194126E+03  0.15572586647E+03  0.78202316071E+03  0.10679798777E+04  0.60060449167E+03 0.  0.
         23    2    4    4    0    0 -0.35456460916E+03  0.97522030365E+02  0.12069417741E+03  0.39734245534E+03  0.89929605152E+02 0.  0.
         23    2    4    4    0    0 -0.24967332099E+02  0.58203836110E+02  0.66132898329E+03  0.67063742238E+03  0.91583153156E+02 0.  0.
          1    1    3    3  502    0  0.28879349168E+03 -0.92748083690E+02  0.10891659241E+03  0.32228358935E+03  0.00000000000E+00 0. -1.
         -1    1    3    3    0  502  0.90738449578E+02 -0.62977782785E+02 -0.42957653025E+01  0.11053560945E+03  0.00000000000E+00 0.  1.
         13    1    5    5    0    0 -0.16786538079E+03  0.74509968135E-01  0.48948580535E+02  0.17485638437E+03  0.00000000000E+00 0.  1.
        -13    1    5    5    0    0 -0.18669922837E+03  0.97447520396E+02  0.71745596879E+02  0.22248607097E+03  0.00000000000E+00 0. -1.
          5    1    6    6  503    0 -0.79493546274E+01  0.63369400809E+02  0.22540171487E+03  0.23432220609E+03  0.47000000000E+01 0. -1.
         -5    1    6    6    0  503 -0.17017977471E+02 -0.51655646984E+01  0.43592726842E+03  0.43631521629E+03  0.47000000000E+01 0.  1.
<mgrwt>
<rscale>  0 0.43733677E+03</rscale>
<asrwt>0</asrwt>
<pdfrwt beam="1">  1        2 0.47242700E-01 0.43733677E+03</pdfrwt>
<pdfrwt beam="2">  1       -2 0.18364946E+00 0.43733677E+03</pdfrwt>
<totfact> 0.19223413E+01</totfact>
</mgrwt>
</event>
<event>
12    1  0.3166324E-008  0.3914276E+03  0.7818608E-02  0.1046789E+00
         -1   -1    0    0    0  501 -0.00000000000E+00  0.00000000000E+00  0.73513193875E+03  0.73513193875E+03  0.00000000000E+00 0.  1.
          1   -1    0    0  501    0  0.00000000000E+00 -0.00000000000E+00 -0.25670460010E+03  0.25670460010E+03  0.00000000000E+00 0. -1.
         23    2    1    2    0    0  0.19996637730E+03 -0.70924125871E+02  0.11321759289E+03  0.25804219146E+03  0.93545526640E+02 0.  0.
    5000000    2    1    2    0    0 -0.19996637730E+03  0.70924125871E+02  0.36520974576E+03  0.73379434739E+03  0.60004933313E+03 0.  0.
         23    2    4    4    0    0  0.14368085325E+03 -0.79948062258E+02  0.28244679789E+03  0.33929968931E+03  0.91171296358E+02 0.  0.
         23    2    4    4    0    0 -0.34364723054E+03  0.15087218813E+03  0.82762947874E+02  0.39449465808E+03  0.88997154475E+02 0.  0.
          1    1    3    3  502    0  0.89347575975E+02 -0.53351052827E+02  0.80067759104E+01  0.10437160836E+03  0.00000000000E+00 0. -1.
         -1    1    3    3    0  502  0.11061880132E+03 -0.17573073044E+02  0.10521081698E+03  0.15367058311E+03  0.00000000000E+00 0.  1.
         11    1    5    5    0    0  0.70474302587E+02 -0.81953614142E+02  0.12240064662E+03  0.16329403078E+03  0.00000000000E+00 0.  1.
        -11    1    5    5    0    0  0.73206550660E+02  0.20055518838E+01  0.16004615127E+03  0.17600565853E+03  0.00000000000E+00 0. -1.
          5    1    6    6  503    0 -0.12719404263E+03  0.10298483540E+03  0.28112121000E+02  0.16612219042E+03  0.47000000000E+01 0. -1.
         -5    1    6    6    0  503 -0.21645318791E+03  0.47887352732E+02  0.54650826873E+02  0.22837246766E+03  0.47000000000E+01 0.  1.
<mgrwt>
<rscale>  0 0.39142762E+03</rscale>
<asrwt>0</asrwt>
<pdfrwt beam="1">  1        1 0.39493016E-01 0.39142762E+03</pdfrwt>
<pdfrwt beam="2">  1       -1 0.11309722E+00 0.39142762E+03</pdfrwt>
<totfact> 0.80591157E+01</totfact>
</mgrwt>
</event>
<event>
12    1  0.3166324E-008  0.7467957E+03  0.7818608E-02  0.9640391E-01
          2   -1    0    0  501    0  0.00000000000E+00  0.00000000000E+00  0.64535345397E+03  0.64535345397E+03  0.00000000000E+00 0. -1.
         -2   -1    0    0    0  501 -0.00000000000E+00 -0.00000000000E+00 -0.95304484756E+03  0.95304484756E+03  0.00000000000E+00 0.  1.
         23    2    1    2    0    0  0.44298999402E+03  0.47371283198E+03 -0.28781982713E+03  0.71462926313E+03  0.84916128266E+02 0.  0.
    5000000    2    1    2    0    0 -0.44298999402E+03 -0.47371283198E+03 -0.19871566454E+02  0.88376903840E+03  0.60000737670E+03 0.  0.
         23    2    4    4    0    0 -0.48238782729E+03 -0.15114725116E+03  0.10332338316E+03  0.52461130506E+03  0.94856694174E+02 0.  0.
         23    2    4    4    0    0  0.39397833269E+02 -0.32256558082E+03 -0.12319494962E+03  0.35915773335E+03  0.90645124625E+02 0.  0.
          2    1    3    3  502    0  0.16007568142E+03  0.16844700425E+03 -0.59336592903E+02  0.23983212520E+03  0.00000000000E+00 0. -1.
         -2    1    3    3    0  502  0.28291431261E+03  0.30526582773E+03 -0.22848323423E+03  0.47479713793E+03  0.00000000000E+00 0.  1.
         13    1    5    5    0    0 -0.28752557907E+03 -0.61554938408E+02  0.20677288690E+02  0.29476688981E+03  0.00000000000E+00 0. -1.
        -13    1    5    5    0    0 -0.19486224823E+03 -0.89592312756E+02  0.82646094471E+02  0.22984441525E+03  0.00000000000E+00 0.  1.
          5    1    6    6  503    0 -0.27315755443E+02 -0.71744918768E+02 -0.17486138055E+02  0.78875464426E+02  0.47000000000E+01 0. -1.
         -5    1    6    6    0  503  0.66713588712E+02 -0.25082066205E+03 -0.10570881156E+03  0.28028226892E+03  0.47000000000E+01 0.  1.
<mgrwt>
<rscale>  0 0.74679572E+03</rscale>
<asrwt>0</asrwt>
<pdfrwt beam="1">  1        2 0.99285147E-01 0.74679572E+03</pdfrwt>
<pdfrwt beam="2">  1       -2 0.14662228E+00 0.74679572E+03</pdfrwt>
<totfact> 0.14650544E+01</totfact>
</mgrwt>
</event>
<event>
12    1  0.3166324E-008  0.1524645E+04  0.7818608E-02  0.8868228E-01
          2   -1    0    0  501    0  0.00000000000E+00  0.00000000000E+00  0.16095823458E+04  0.16095823458E+04  0.00000000000E+00 0. -1.
         -2   -1    0    0    0  501 -0.00000000000E+00 -0.00000000000E+00 -0.17062202029E+04  0.17062202029E+04  0.00000000000E+00 0.  1.
         23    2    1    2    0    0  0.31813835551E+03 -0.14873887693E+04  0.45481245509E+03  0.15902437604E+04  0.92105830184E+02 0.  0.
    5000000    2    1    2    0    0 -0.31813835551E+03  0.14873887693E+04 -0.55145031227E+03  0.17255587883E+04  0.59993192987E+03 0.  0.
         23    2    4    4    0    0 -0.41182844358E+02  0.38092886692E+03 -0.41631433061E+03  0.57322460583E+03  0.92010860966E+02 0.  0.
         23    2    4    4    0    0 -0.27695551115E+03  0.11064599024E+04 -0.13513598166E+03  0.11523341824E+04  0.93029369907E+02 0.  0.
          3    1    3    3  502    0  0.89053240226E+02 -0.35023879215E+03  0.70116931348E+02  0.36812236442E+03  0.00000000000E+00 0. -1.
         -3    1    3    3    0  502  0.22908511528E+03 -0.11371499772E+04  0.38469552374E+03  0.12221213960E+04  0.00000000000E+00 0.  1.
         11    1    5    5    0    0 -0.42038970696E+01  0.22710010478E+03 -0.30270906196E+03  0.37845066592E+03  0.00000000000E+00 0.  1.
        -11    1    5    5    0    0 -0.36978947288E+02  0.15382876213E+03 -0.11360526865E+03  0.19477393991E+03  0.00000000000E+00 0. -1.
          5    1    6    6  503    0 -0.14511132139E+03  0.44541341953E+03 -0.87413114892E+02  0.47656432153E+03  0.47000000000E+01 0. -1.
         -5    1    6    6    0  503 -0.13184418976E+03  0.66104648287E+03 -0.47722866768E+02  0.67576986090E+03  0.47000000000E+01 0.  1.
<mgrwt>
<rscale>  0 0.15246452E+04</rscale>
<asrwt>0</asrwt>
<pdfrwt beam="1">  1        2 0.24762805E+00 0.15246452E+04</pdfrwt>
<pdfrwt beam="2">  1       -2 0.26249542E+00 0.15246452E+04</pdfrwt>
<totfact> 0.55600351E-01</totfact>
</mgrwt>
</event>
<event>
12    1  0.3166324E-008  0.7207138E+03  0.7818608E-02  0.9682450E-01
          1   -1    0    0  501    0  0.00000000000E+00  0.00000000000E+00  0.94037694858E+03  0.94037694858E+03  0.00000000000E+00 0. -1.
         -1   -1    0    0    0  501 -0.00000000000E+00 -0.00000000000E+00 -0.57834056741E+03  0.57834056741E+03  0.00000000000E+00 0.  1.
         23    2    1    2    0    0  0.58296537173E+03 -0.13075944344E+03  0.28615158072E+03  0.66852257619E+03  0.89961386393E+02 0.  0.
    5000000    2    1    2    0    0 -0.58296537173E+03  0.13075944344E+03  0.75884800448E+02  0.85019493981E+03  0.60010522082E+03 0.  0.
         23    2    4    4    0    0  0.22989530870E+02 -0.14392150961E+03  0.21363526919E+02  0.17640265322E+03  0.97054501810E+02 0.  0.
         23    2    4    4    0    0 -0.60595490260E+03  0.27468095305E+03  0.54521273528E+02  0.67379228659E+03  0.91610623011E+02 0.  0.
          3    1    3    3  502    0  0.34538835125E+03 -0.10855400021E+03  0.20743917011E+03  0.41726261926E+03  0.00000000000E+00 0. -1.
         -3    1    3    3    0  502  0.23757702048E+03 -0.22205443225E+02  0.78712410614E+02  0.25125995693E+03  0.00000000000E+00 0.  1.
         13    1    5    5    0    0  0.53862334174E+02 -0.54415515114E+02  0.27915952084E+02  0.81495396855E+02  0.00000000000E+00 0. -1.
        -13    1    5    5    0    0 -0.30872803304E+02 -0.89505994500E+02 -0.65524251645E+01  0.94907256365E+02  0.00000000000E+00 0.  1.
          5    1    6    6  503    0 -0.40820330164E+03  0.22259452806E+03  0.62098026365E+02  0.46910181653E+03  0.47000000000E+01 0. -1.
         -5    1    6    6    0  503 -0.19775160096E+03  0.52086424987E+02 -0.75767528371E+01  0.20469047006E+03  0.47000000000E+01 0.  1.
<mgrwt>
<rscale>  0 0.72071383E+03</rscale>
<asrwt>0</asrwt>
<pdfrwt beam="1">  1        1 0.14467338E+00 0.72071383E+03</pdfrwt>
<pdfrwt beam="2">  1       -1 0.88975472E-01 0.72071383E+03</pdfrwt>
<totfact> 0.21567763E+01</totfact>
</mgrwt>
</event>
<event>
12    1  0.3166324E-008  0.7373357E+03  0.7818608E-02  0.9655431E-01
          1   -1    0    0  501    0  0.00000000000E+00  0.00000000000E+00  0.94860790106E+03  0.94860790106E+03  0.00000000000E+00 0. -1.
         -1   -1    0    0    0  501 -0.00000000000E+00 -0.00000000000E+00 -0.92283581789E+03  0.92283581789E+03  0.00000000000E+00 0.  1.
         23    2    1    2    0    0  0.56409802818E+03 -0.41369503027E+03  0.47082074456E+03  0.84804208950E+03  0.90294233422E+02 0.  0.
    5000000    2    1    2    0    0 -0.56409802818E+03  0.41369503027E+03 -0.44504866139E+03  0.10234016294E+04  0.59994368125E+03 0.  0.
         23    2    4    4    0    0 -0.56623036594E+03  0.31564834158E+03 -0.11134451750E+03  0.66406118910E+03  0.91263127448E+02 0.  0.
         23    2    4    4    0    0  0.21323377650E+01  0.98046688698E+02 -0.33370414389E+03  0.35934044035E+03  0.90274007272E+02 0.  0.
          1    1    3    3  502    0  0.41127429504E+03 -0.30488208818E+03  0.29468079234E+03  0.59070839069E+03  0.00000000000E+00 0. -1.
         -1    1    3    3    0  502  0.15282373314E+03 -0.10881294209E+03  0.17613995222E+03  0.25733369882E+03  0.00000000000E+00 0.  1.
         11    1    5    5    0    0 -0.23065499736E+03  0.17243685266E+03 -0.24604461941E+02  0.28903559557E+03  0.00000000000E+00 0.  1.
        -11    1    5    5    0    0 -0.33557536859E+03  0.14321148892E+03 -0.86740055555E+02  0.37502559352E+03  0.00000000000E+00 0. -1.
          5    1    6    6  503    0 -0.30915987637E+02  0.76216114682E+02 -0.14782959106E+03  0.16923466673E+03  0.47000000000E+01 0. -1.
         -5    1    6    6    0  503  0.33048325402E+02  0.21830574016E+02 -0.18587455283E+03  0.19010577362E+03  0.47000000000E+01 0.  1.
<mgrwt>
<rscale>  0 0.73733573E+03</rscale>
<asrwt>0</asrwt>
<pdfrwt beam="1">  1        1 0.14593968E+00 0.73733573E+03</pdfrwt>
<pdfrwt beam="2">  1       -1 0.14197474E+00 0.73733573E+03</pdfrwt>
<totfact> 0.69561609E+00</totfact>
</mgrwt>
</event>
<event>
12    1  0.3166324E-008  0.7323727E+03  0.7818608E-02  0.9663418E-01
          1   -1    0    0  501    0  0.00000000000E+00  0.00000000000E+00  0.37363770800E+04  0.37363770800E+04  0.00000000000E+00 0. -1.
         -1   -1    0    0    0  501 -0.00000000000E+00 -0.00000000000E+00 -0.25514512081E+03  0.25514512081E+03  0.00000000000E+00 0.  1.
         23    2    1    2    0    0 -0.57404096307E+03 -0.30273386664E+03  0.36060497882E+03  0.74813884253E+03  0.92222316490E+02 0.  0.
    5000000    2    1    2    0    0  0.57404096307E+03  0.30273386664E+03  0.31206269804E+04  0.32433833583E+04  0.60004336247E+03 0.  0.
         23    2    4    4    0    0  0.13815055685E+03  0.34896985990E+03  0.19921718712E+04  0.20293712436E+04  0.93452341850E+02 0.  0.
         23    2    4    4    0    0  0.43589040621E+03 -0.46235993261E+02  0.11284551092E+04  0.12140121147E+04  0.90973996457E+02 0.  0.
          3    1    3    3  502    0 -0.98493783439E+02 -0.59233249509E+02  0.26303128449E+02  0.11790444347E+03  0.00000000000E+00 0. -1.
         -3    1    3    3    0  502 -0.47554717963E+03 -0.24350061713E+03  0.33430185037E+03  0.63023439906E+03  0.00000000000E+00 0.  1.
         11    1    5    5    0    0  0.20011312180E+02  0.51625200393E+02  0.15606166537E+03  0.16559244345E+03  0.00000000000E+00 0.  1.
        -11    1    5    5    0    0  0.11813924467E+03  0.29734465951E+03  0.18361102059E+04  0.18637788001E+04  0.00000000000E+00 0. -1.
          5    1    6    6  503    0  0.26977406620E+03 -0.47907475400E+02  0.59085285151E+03  0.65130818752E+03  0.47000000000E+01 0. -1.
         -5    1    6    6    0  503  0.16611634001E+03  0.16714821395E+01  0.53760225765E+03  0.56270392721E+03  0.47000000000E+01 0.  1.
<mgrwt>
<rscale>  0 0.73237266E+03</rscale>
<asrwt>0</asrwt>
<pdfrwt beam="1">  1        1 0.57482720E+00 0.73237266E+03</pdfrwt>
<pdfrwt beam="2">  1       -1 0.39253098E-01 0.73237266E+03</pdfrwt>
<totfact> 0.11179941E+00</totfact>
</mgrwt>
</event>
<event>
12    1  0.3166324E-008  0.1347822E+04  0.7818608E-02  0.8992478E-01
          2   -1    0    0  501    0  0.00000000000E+00  0.00000000000E+00  0.22604526132E+04  0.22604526132E+04  0.00000000000E+00 0. -1.
         -2   -1    0    0    0  501 -0.00000000000E+00 -0.00000000000E+00 -0.85297095476E+03  0.85297095476E+03  0.00000000000E+00 0.  1.
         23    2    1    2    0    0  0.22768752013E+03  0.12905150337E+04  0.86774003770E+03  0.15743537385E+04  0.91357877596E+02 0.  0.
    5000000    2    1    2    0    0 -0.22768752013E+03 -0.12905150337E+04  0.53974162075E+03  0.15390698295E+04  0.60012020764E+03 0.  0.
         23    2    4    4    0    0  0.91119246803E+02 -0.70559135260E+02 -0.37918050195E+02  0.14922750045E+03  0.86889352942E+02 0.  0.
         23    2    4    4    0    0 -0.31880676693E+03 -0.12199558985E+04  0.57765967095E+03  0.13898423290E+04  0.89670815488E+02 0.  0.
          1    1    3    3  502    0  0.22029003868E+03  0.10469811981E+04  0.70017430798E+03  0.12786482675E+04  0.00000000000E+00 0. -1.
         -1    1    3    3    0  502  0.73974814477E+01  0.24353383564E+03  0.16756572971E+03  0.29570547105E+03  0.00000000000E+00 0.  1.
         13    1    5    5    0    0  0.23089083515E+02 -0.42304531462E+01 -0.48246829618E+02  0.53654068621E+02  0.00000000000E+00 0. -1.
        -13    1    5    5    0    0  0.68030163288E+02 -0.66328682114E+02  0.10328779423E+02  0.95573431833E+02  0.00000000000E+00 0.  1.
          5    1    6    6  503    0 -0.29404137107E+03 -0.10039859759E+04  0.49291571293E+03  0.11564757489E+04  0.47000000000E+01 0. -1.
         -5    1    6    6    0  503 -0.24765395861E+02 -0.21596992261E+03  0.84743958016E+02  0.23336658013E+03  0.47000000000E+01 0.  1.
<mgrwt>
<rscale>  0 0.13478220E+04</rscale>
<asrwt>0</asrwt>
<pdfrwt beam="1">  1        2 0.34776194E+00 0.13478220E+04</pdfrwt>
<pdfrwt beam="2">  1       -2 0.13122630E+00 0.13478220E+04</pdfrwt>
<totfact> 0.19462620E+00</totfact>
</mgrwt>
</event>
<event>
12    1  0.3166324E-008  0.3765235E+03  0.7818608E-02  0.1052226E+00
          1   -1    0    0  501    0  0.00000000000E+00  0.00000000000E+00  0.22607605177E+04  0.22607605177E+04  0.00000000000E+00 0. -1.
         -1   -1    0    0    0  501 -0.00000000000E+00 -0.00000000000E+00 -0.12333725565E+03  0.12333725565E+03  0.00000000000E+00 0.  1.
         23    2    1    2    0    0  0.10949575710E+03 -0.12820416212E+03  0.14241699314E+04  0.14370301030E+04  0.91487132521E+02 0.  0.
    5000000    2    1    2    0    0 -0.10949575710E+03  0.12820416212E+03  0.71325333056E+03  0.94706767026E+03  0.59981766437E+03 0.  0.
         23    2    4    4    0    0 -0.17473596925E+03 -0.18675775830E+03  0.44142323303E+03  0.51797918686E+03  0.89648469760E+02 0.  0.
         23    2    4    4    0    0  0.65240212154E+02  0.31496192042E+03  0.27183009753E+03  0.42908848340E+03  0.82268025752E+02 0.  0.
          4    1    3    3  502    0  0.41342985625E+02 -0.59354065024E+02  0.96736516524E+03  0.97006572479E+03  0.00000000000E+00 0.  1.
         -4    1    3    3    0  502  0.68152771474E+02 -0.68850097099E+02  0.45680476621E+03  0.46696437825E+03  0.00000000000E+00 0. -1.
         13    1    5    5    0    0 -0.34001371049E+02 -0.48112466287E+02  0.18577469110E+03  0.19489263326E+03  0.00000000000E+00 0. -1.
        -13    1    5    5    0    0 -0.14073459821E+03 -0.13864529201E+03  0.25564854192E+03  0.32308655360E+03  0.00000000000E+00 0.  1.
          5    1    6    6  503    0  0.27311474534E+01  0.16153591820E+03  0.98527014297E+02  0.18929071446E+03  0.47000000000E+01 0. -1.
         -5    1    6    6    0  503  0.62509064701E+02  0.15342600223E+03  0.17330308324E+03  0.23979776894E+03  0.47000000000E+01 0.  1.
<mgrwt>
<rscale>  0 0.37652347E+03</rscale>
<asrwt>0</asrwt>
<pdfrwt beam="1">  1        1 0.34780928E+00 0.37652347E+03</pdfrwt>
<pdfrwt beam="2">  1       -1 0.18974964E-01 0.37652347E+03</pdfrwt>
<totfact> 0.48945091E+01</totfact>
</mgrwt>
</event>
<event>
12    1  0.3166324E-008  0.5994870E+03  0.7818608E-02  0.9906471E-01
          2   -1    0    0  501    0  0.00000000000E+00  0.00000000000E+00  0.18547355324E+04  0.18547355324E+04  0.00000000000E+00 0.  1.
         -2   -1    0    0    0  501 -0.00000000000E+00 -0.00000000000E+00 -0.41100477554E+03  0.41100477554E+03  0.00000000000E+00 0. -1.
         23    2    1    2    0    0  0.40985109943E+03  0.22320699998E+03  0.14283733047E+04  0.15054640430E+04  0.91500811253E+02 0.  0.
    5000000    2    1    2    0    0 -0.40985109943E+03 -0.22320699998E+03  0.15357452175E+02  0.76027626501E+03  0.59998738258E+03 0.  0.
         23    2    4    4    0    0 -0.45724769486E+03 -0.35236664067E+03  0.62228772163E+02  0.58810308226E+03  0.93568752085E+02 0.  0.
         23    2    4    4    0    0  0.47396595426E+02  0.12915964070E+03 -0.46871319987E+02  0.17217318275E+03  0.92293196820E+02 0.  0.
          1    1    3    3  502    0  0.29249492336E+03  0.11217934525E+03  0.90155005216E+03  0.95442652009E+03  0.00000000000E+00 0. -1.
         -1    1    3    3    0  502  0.11735617607E+03  0.11102765473E+03  0.52682325255E+03  0.55103752287E+03  0.00000000000E+00 0.  1.
         11    1    5    5    0    0 -0.39984876094E+03 -0.27387722101E+03  0.29672347351E+02  0.48555968944E+03  0.00000000000E+00 0. -1.
        -11    1    5    5    0    0 -0.57398933916E+02 -0.78489419666E+02  0.32556424812E+02  0.10254339282E+03  0.00000000000E+00 0.  1.
          5    1    6    6  503    0  0.11820791360E+02  0.82104637023E+02 -0.69995533369E+02  0.10863870038E+03  0.47000000000E+01 0. -1.
         -5    1    6    6    0  503  0.35575804066E+02  0.47055003673E+02  0.23124213382E+02  0.63534482371E+02  0.47000000000E+01 0.  1.
<mgrwt>
<rscale>  0 0.59948704E+03</rscale>
<asrwt>0</asrwt>
<pdfrwt beam="1">  1        2 0.28534392E+00 0.59948704E+03</pdfrwt>
<pdfrwt beam="2">  1       -2 0.63231505E-01 0.59948704E+03</pdfrwt>
<totfact> 0.19655005E+01</totfact>
</mgrwt>
</event>
<event>
12    1  0.3166324E-008  0.9932930E+03  0.7818608E-02  0.9315932E-01
          2   -1    0    0  501    0  0.00000000000E+00  0.00000000000E+00  0.17157007657E+04  0.17157007657E+04  0.00000000000E+00 0. -1.
         -2   -1    0    0    0  501 -0.00000000000E+00 -0.00000000000E+00 -0.59671305324E+03  0.59671305324E+03  0.00000000000E+00 0.  1.
         23    2    1    2    0    0 -0.87794660794E+03  0.27129915052E+03  0.45169902730E+03  0.10280063611E+04  0.91496402552E+02 0.  0.
    5000000    2    1    2    0    0  0.87794660794E+03 -0.27129915052E+03  0.66728868517E+03  0.12844074579E+04  0.60002904349E+03 0.  0.
         23    2    4    4    0    0  0.60723604679E+03 -0.43600441101E+03  0.55599996360E+03  0.93638357917E+03  0.94036082783E+02 0.  0.
         23    2    4    4    0    0  0.27071056115E+03  0.16470526049E+03  0.11128872157E+03  0.34802387871E+03  0.91232723582E+02 0.  0.
          1    1    3    3  502    0 -0.55187035367E+03  0.20803093086E+03  0.26046579887E+03  0.64473264834E+03  0.00000000000E+00 0. -1.
         -1    1    3    3    0  502 -0.32607625427E+03  0.63268219663E+02  0.19123322844E+03  0.38327371274E+03  0.00000000000E+00 0.  1.
         13    1    5    5    0    0  0.12922038252E+03 -0.89244823649E+02  0.71635336441E+02  0.17260987003E+03  0.00000000000E+00 0. -1.
        -13    1    5    5    0    0  0.47801566428E+03 -0.34675958736E+03  0.48436462716E+03  0.76377370914E+03  0.00000000000E+00 0.  1.
          5    1    6    6  503    0  0.17843452355E+03  0.11097511790E+03  0.27009170046E+02  0.21191021980E+03  0.47000000000E+01 0. -1.
         -5    1    6    6    0  503  0.92276037597E+02  0.53730142592E+02  0.84279551521E+02  0.13611365891E+03  0.47000000000E+01 0.  1.
<mgrwt>
<rscale>  0 0.99329299E+03</rscale>
<asrwt>0</asrwt>
<pdfrwt beam="1">  1        2 0.26395396E+00 0.99329299E+03</pdfrwt>
<pdfrwt beam="2">  1       -2 0.91802009E-01 0.99329299E+03</pdfrwt>
<totfact> 0.96886410E+00</totfact>
</mgrwt>
</event>
<event>
12    1  0.3166324E-008  0.7272136E+03  0.7818608E-02  0.9671793E-01
          2   -1    0    0  501    0  0.00000000000E+00  0.00000000000E+00  0.45724284941E+04  0.45724284941E+04  0.00000000000E+00 0. -1.
         -2   -1    0    0    0  501 -0.00000000000E+00 -0.00000000000E+00 -0.15029229160E+03  0.15029229160E+03  0.00000000000E+00 0.  1.
         23    2    1    2    0    0  0.36777276944E+03 -0.52366419715E+03  0.28499195684E+04  0.29222986924E+04  0.91143293406E+02 0.  0.
    5000000    2    1    2    0    0 -0.36777276944E+03  0.52366419715E+03  0.15722166342E+04  0.18004220934E+04  0.60014462277E+03 0.  0.
         23    2    4    4    0    0 -0.37365648249E+03  0.61176256000E+03  0.14589374726E+04  0.16281318832E+04  0.91881899374E+02 0.  0.
         23    2    4    4    0    0  0.58837130445E+01 -0.88098362854E+02  0.11327916160E+03  0.17229021019E+03  0.95162011640E+02 0.  0.
          3    1    3    3  502    0  0.32449066036E+03 -0.40629249422E+03  0.22204457130E+04  0.22805146226E+04  0.00000000000E+00 0. -1.
         -3    1    3    3    0  502  0.43282109084E+02 -0.11737170293E+03  0.62947385533E+03  0.64178406973E+03  0.00000000000E+00 0.  1.
         13    1    5    5    0    0 -0.20749041334E+03  0.29888907108E+03  0.83080140489E+03  0.90698286797E+03  0.00000000000E+00 0.  1.
        -13    1    5    5    0    0 -0.16616606915E+03  0.31287348893E+03  0.62813606771E+03  0.72114901523E+03  0.00000000000E+00 0. -1.
          5    1    6    6  503    0  0.12462862239E+02 -0.72139149802E+02  0.18253891617E+02  0.75595465661E+02  0.47000000000E+01 0. -1.
         -5    1    6    6    0  503 -0.65791491950E+01 -0.15959213052E+02  0.95025269978E+02  0.96694744531E+02  0.47000000000E+01 0.  1.
<mgrwt>
<rscale>  0 0.72721361E+03</rscale>
<asrwt>0</asrwt>
<pdfrwt beam="1">  1        2 0.70345043E+00 0.72721361E+03</pdfrwt>
<pdfrwt beam="2">  1       -2 0.23121895E-01 0.72721361E+03</pdfrwt>
<totfact> 0.19704851E+00</totfact>
</mgrwt>
</event>
<event>
12    1  0.3166324E-008  0.3641954E+03  0.7818608E-02  0.1056935E+00
          2   -1    0    0  501    0  0.00000000000E+00  0.00000000000E+00  0.64907809370E+03  0.64907809370E+03  0.00000000000E+00 0. -1.
         -2   -1    0    0    0  501 -0.00000000000E+00 -0.00000000000E+00 -0.30483879046E+03  0.30483879046E+03  0.00000000000E+00 0.  1.
         23    2    1    2    0    0  0.11272453437E+03 -0.79429902904E+01  0.31011272745E+03  0.34252106980E+03  0.91547079628E+02 0.  0.
    5000000    2    1    2    0    0 -0.11272453437E+03  0.79429902904E+01  0.34126575796E+02  0.61139581436E+03  0.59989191268E+03 0.  0.
         23    2    4    4    0    0  0.19259191635E+03 -0.14450058130E+03  0.36580172095E+01  0.25695031202E+03  0.89654991577E+02 0.  0.
         23    2    4    4    0    0 -0.30531645072E+03  0.15244357159E+03  0.30468558587E+02  0.35444550234E+03  0.90808058391E+02 0.  0.
          2    1    3    3  502    0  0.79053003823E+02  0.30002953118E+02  0.12747730843E+03  0.15297064677E+03  0.00000000000E+00 0.  1.
         -2    1    3    3    0  502  0.33671530547E+02 -0.37945943409E+02  0.18263541902E+03  0.18955042303E+03  0.00000000000E+00 0. -1.
         11    1    5    5    0    0  0.12581254129E+03 -0.13090777684E+03 -0.24506778071E+02  0.18321087237E+03  0.00000000000E+00 0.  1.
        -11    1    5    5    0    0  0.66779375056E+02 -0.13592804468E+02  0.28164795281E+02  0.73739439646E+02  0.00000000000E+00 0. -1.
          5    1    6    6  503    0 -0.10536225232E+03  0.72572686799E+02  0.51626576251E+02  0.13804127085E+03  0.47000000000E+01 0. -1.
         -5    1    6    6    0  503 -0.19995419840E+03  0.79870884795E+02 -0.21158017664E+02  0.21640423149E+03  0.47000000000E+01 0.  1.
<mgrwt>
<rscale>  0 0.36419536E+03</rscale>
<asrwt>0</asrwt>
<pdfrwt beam="1">  1        2 0.99858168E-01 0.36419536E+03</pdfrwt>
<pdfrwt beam="2">  1       -2 0.46898276E-01 0.36419536E+03</pdfrwt>
<totfact> 0.20076068E+02</totfact>
</mgrwt>
</event>
<event>
12    1  0.3166324E-008  0.7727594E+03  0.7818608E-02  0.9600306E-01
         -2   -1    0    0    0  501 -0.00000000000E+00  0.00000000000E+00  0.60114599278E+03  0.60114599278E+03  0.00000000000E+00 0.  1.
          2   -1    0    0  501    0  0.00000000000E+00 -0.00000000000E+00 -0.24494258857E+04  0.24494258857E+04  0.00000000000E+00 0. -1.
         23    2    1    2    0    0 -0.62591623708E+03  0.40300959839E+03 -0.19496789065E+04  0.20888786109E+04  0.89320435007E+02 0.  0.
    5000000    2    1    2    0    0  0.62591623708E+03 -0.40300959839E+03  0.10139901360E+03  0.96169326763E+03  0.60032017191E+03 0.  0.
         23    2    4    4    0    0  0.50571433456E+03 -0.20227059302E+03  0.31141626636E+03  0.63381999810E+03  0.89929517211E+02 0.  0.
         23    2    4    4    0    0  0.12020190252E+03 -0.20073900537E+03 -0.21001725276E+03  0.32787326952E+03  0.92999939593E+02 0.  0.
          1    1    3    3  502    0 -0.32336602823E+03  0.21627909322E+03 -0.89523053712E+03  0.97610447646E+03  0.00000000000E+00 0. -1.
         -1    1    3    3    0  502 -0.30255020885E+03  0.18673050517E+03 -0.10544483694E+04  0.11127741344E+04  0.00000000000E+00 0.  1.
         13    1    5    5    0    0  0.41454068035E+03 -0.19876344123E+03  0.27412305454E+03  0.53525165134E+03  0.00000000000E+00 0. -1.
        -13    1    5    5    0    0  0.91173654211E+02 -0.35071517886E+01  0.37293211817E+02  0.98568346763E+02  0.00000000000E+00 0.  1.
          5    1    6    6  503    0  0.58296886670E+02 -0.17181433394E+03 -0.16926207277E+03  0.24817419612E+03  0.47000000000E+01 0. -1.
         -5    1    6    6    0  503  0.61905015855E+02 -0.28924671437E+02 -0.40755179982E+02  0.79699073402E+02  0.47000000000E+01 0.  1.
<mgrwt>
<rscale>  0 0.77275936E+03</rscale>
<asrwt>0</asrwt>
<pdfrwt beam="1">  1        2 0.37683475E+00 0.77275936E+03</pdfrwt>
<pdfrwt beam="2">  1       -2 0.92484000E-01 0.77275936E+03</pdfrwt>
<totfact> 0.38583350E+00</totfact>
</mgrwt>
</event>
<event>
12    1  0.3166324E-008  0.1057754E+04  0.7818608E-02  0.9247375E-01
          1   -1    0    0  501    0  0.00000000000E+00  0.00000000000E+00  0.20709650219E+04  0.20709650219E+04  0.00000000000E+00 0. -1.
         -1   -1    0    0    0  501 -0.00000000000E+00 -0.00000000000E+00 -0.60807511613E+03  0.60807511613E+03  0.00000000000E+00 0.  1.
         23    2    1    2    0    0  0.28912584418E+03 -0.94630490461E+03  0.10619981996E+04  0.14543511744E+04  0.90611457063E+02 0.  0.
    5000000    2    1    2    0    0 -0.28912584418E+03  0.94630490461E+03  0.40089170611E+03  0.12246889636E+04  0.60005180721E+03 0.  0.
         23    2    4    4    0    0 -0.42610929666E+03  0.78847108199E+03  0.42497342751E+03  0.99619334453E+03  0.92428273537E+02 0.  0.
         23    2    4    4    0    0  0.13698345248E+03  0.15783382262E+03 -0.24081721402E+02  0.22849561910E+03  0.89187088897E+02 0.  0.
          2    1    3    3  502    0  0.27394316758E+03 -0.79417871575E+03  0.91698004530E+03  0.12436306104E+04  0.00000000000E+00 0. -1.
         -2    1    3    3    0  502  0.15182676599E+02 -0.15212618886E+03  0.14501815434E+03  0.21072056400E+03  0.00000000000E+00 0.  1.
         13    1    5    5    0    0 -0.86297487532E+02  0.17563554696E+03  0.52510495369E+02  0.20261405142E+03  0.00000000000E+00 0.  1.
        -13    1    5    5    0    0 -0.33981180913E+03  0.61283553503E+03  0.37246293214E+03  0.79357929311E+03  0.00000000000E+00 0. -1.
          5    1    6    6  503    0  0.13619417858E+03  0.10240854973E+03 -0.82856761597E+01  0.17066665686E+03  0.47000000000E+01 0. -1.
         -5    1    6    6    0  503  0.78927390497E+00  0.55425272884E+02 -0.15796045243E+02  0.57828962232E+02  0.47000000000E+01 0.  1.
<mgrwt>
<rscale>  0 0.10577543E+04</rscale>
<asrwt>0</asrwt>
<pdfrwt beam="1">  1        1 0.31861000E+00 0.10577543E+04</pdfrwt>
<pdfrwt beam="2">  1       -1 0.93550019E-01 0.10577543E+04</pdfrwt>
<totfact> 0.29687339E+00</totfact>
</mgrwt>
</event>
<event>
12    1  0.3911456E-008  0.1057150E+04  0.7818608E-02  0.9247994E-01
          1   -1    0    0  501    0  0.00000000000E+00  0.00000000000E+00  0.80022903989E+03  0.80022903989E+03  0.00000000000E+00 0. -1.
         -1   -1    0    0    0  501 -0.00000000000E+00 -0.00000000000E+00 -0.16108933090E+04  0.16108933090E+04  0.00000000000E+00 0.  1.
         23    2    1    2    0    0  0.78501656926E+03  0.62069865604E+03 -0.26367752839E+02  0.10051933921E+04  0.90557504221E+02 0.  0.
    5000000    2    1    2    0    0 -0.78501656926E+03 -0.62069865604E+03 -0.78429651624E+03  0.14059289567E+04  0.59999780861E+03 0.  0.
         23    2    4    4    0    0 -0.79356154602E+03 -0.44182500993E+03 -0.78562353049E+03  0.12042468333E+04  0.89759886016E+02 0.  0.
         23    2    4    4    0    0  0.85449767654E+01 -0.17887364611E+03  0.13270142477E+01  0.20168212342E+03  0.92763786249E+02 0.  0.
          4    1    3    3  502    0  0.37671809485E+03  0.30376525067E+03 -0.57786021126E+02  0.48736954638E+03  0.00000000000E+00 0. -1.
         -4    1    3    3    0  502  0.40829847441E+03  0.31693340537E+03  0.31418268287E+02  0.51782384575E+03  0.00000000000E+00 0.  1.
         11    1    5    5    0    0 -0.53919511650E+03 -0.25645714791E+03 -0.48920680825E+03  0.77189697733E+03  0.00000000000E+00 0. -1.
        -11    1    5    5    0    0 -0.25436642952E+03 -0.18536786202E+03 -0.29641672224E+03  0.43234985597E+03  0.00000000000E+00 0.  1.
          5    1    6    6  503    0  0.13218841416E+02  0.70039515072E+01  0.30113972244E+00  0.15683551582E+02  0.47000000000E+01 0. -1.
         -5    1    6    6    0  503 -0.46738646509E+01 -0.18587759761E+03  0.10258745253E+01  0.18599857183E+03  0.47000000000E+01 0.  1.
<mgrwt>
<rscale>  0 0.10571495E+04</rscale>
<asrwt>0</asrwt>
<pdfrwt beam="1">  1        1 0.12311216E+00 0.10571495E+04</pdfrwt>
<pdfrwt beam="2">  1       -1 0.24782974E+00 0.10571495E+04</pdfrwt>
<totfact> 0.15924488E+00</totfact>
</mgrwt>
</event>
<event>
12    1  0.3166324E-008  0.4894416E+03  0.7818608E-02  0.1016572E+00
          2   -1    0    0  501    0  0.00000000000E+00  0.00000000000E+00  0.13035037678E+04  0.13035037678E+04  0.00000000000E+00 0. -1.
         -2   -1    0    0    0  501 -0.00000000000E+00 -0.00000000000E+00 -0.21121613249E+03  0.21121613249E+03  0.00000000000E+00 0.  1.
         23    2    1    2    0    0  0.27530999999E+03 -0.19651362457E+03  0.47431798455E+03  0.58931974605E+03  0.88921380349E+02 0.  0.
    5000000    2    1    2    0    0 -0.27530999999E+03  0.19651362457E+03  0.61796965079E+03  0.92540015427E+03  0.60005479374E+03 0.  0.
         23    2    4    4    0    0 -0.41873076643E+03  0.19050661599E+03  0.27753930905E+03  0.54498283861E+03  0.91378338884E+02 0.  0.
         23    2    4    4    0    0  0.14342076644E+03  0.60070085750E+01  0.34043034174E+03  0.38041731566E+03  0.90658237770E+02 0.  0.
          2    1    3    3  502    0  0.20389583583E+03 -0.17860588984E+03  0.32788876572E+03  0.42542287014E+03  0.00000000000E+00 0.  1.
         -2    1    3    3    0  502  0.71414164163E+02 -0.17907734727E+02  0.14642921883E+03  0.16389687591E+03  0.00000000000E+00 0. -1.
         13    1    5    5    0    0 -0.35863507944E+03  0.13610565973E+03  0.19911018028E+03  0.43219062311E+03  0.00000000000E+00 0.  1.
        -13    1    5    5    0    0 -0.60095686998E+02  0.54400956263E+02  0.78429128771E+02  0.11279221550E+03  0.00000000000E+00 0. -1.
          5    1    6    6  503    0 -0.28825269698E+01  0.21640585749E+02  0.51960443176E+02  0.56556180638E+02  0.47000000000E+01 0. -1.
         -5    1    6    6    0  503  0.14630329341E+03 -0.15633577174E+02  0.28846989857E+03  0.32386113502E+03  0.47000000000E+01 0.  1.
<mgrwt>
<rscale>  0 0.48944162E+03</rscale>
<asrwt>0</asrwt>
<pdfrwt beam="1">  1        2 0.20053904E+00 0.48944162E+03</pdfrwt>
<pdfrwt beam="2">  1       -2 0.32494790E-01 0.48944162E+03</pdfrwt>
<totfact> 0.15079934E+02</totfact>
</mgrwt>
</event>
<event>
12    1  0.3166324E-008  0.4638074E+03  0.7818608E-02  0.1023683E+00
         -1   -1    0    0    0  501 -0.00000000000E+00  0.00000000000E+00  0.45075457816E+03  0.45075457816E+03  0.00000000000E+00 0.  1.
          1   -1    0    0  501    0  0.00000000000E+00 -0.00000000000E+00 -0.85289874524E+03  0.85289874524E+03  0.00000000000E+00 0. -1.
         23    2    1    2    0    0  0.41596650515E+03 -0.16695104323E+03 -0.54111985031E+01  0.45626548094E+03  0.85135913563E+02 0.  0.
    5000000    2    1    2    0    0 -0.41596650515E+03  0.16695104323E+03 -0.39673296857E+03  0.84738784247E+03  0.59980690473E+03 0.  0.
         23    2    4    4    0    0 -0.21120412924E+03  0.14435541867E+03 -0.52293268500E+03  0.58917741143E+03  0.90695964563E+02 0.  0.
         23    2    4    4    0    0 -0.20476237591E+03  0.22595624560E+02  0.12619971643E+03  0.25821043103E+03  0.91148589840E+02 0.  0.
          3    1    3    3  502    0  0.13376568883E+03 -0.74244683144E+02  0.33720057215E+02  0.15666069941E+03  0.00000000000E+00 0. -1.
         -3    1    3    3    0  502  0.28220081633E+03 -0.92706360089E+02 -0.39131255718E+02  0.29960478152E+03  0.00000000000E+00 0.  1.
         13    1    5    5    0    0 -0.15719347197E+03  0.14869159124E+03 -0.39838510574E+03  0.45335380159E+03  0.00000000000E+00 0. -1.
        -13    1    5    5    0    0 -0.54010657271E+02 -0.43361725703E+01 -0.12454757926E+03  0.13582360985E+03  0.00000000000E+00 0.  1.
          5    1    6    6  503    0 -0.32514051387E+02  0.95940011062E+01  0.67552232152E+02  0.75727158032E+02  0.47000000000E+01 0. -1.
         -5    1    6    6    0  503 -0.17224832452E+03  0.13001623454E+02  0.58647484280E+02  0.18248327300E+03  0.47000000000E+01 0.  1.
<mgrwt>
<rscale>  0 0.46380743E+03</rscale>
<asrwt>0</asrwt>
<pdfrwt beam="1">  1        1 0.13121519E+00 0.46380743E+03</pdfrwt>
<pdfrwt beam="2">  1       -1 0.69346859E-01 0.46380743E+03</pdfrwt>
<totfact> 0.44443947E+01</totfact>
</mgrwt>
</event>
<event>
12    1  0.3166324E-008  0.1110093E+04  0.7818608E-02  0.9195410E-01
          2   -1    0    0  501    0  0.00000000000E+00  0.00000000000E+00  0.17023174563E+04  0.17023174563E+04  0.00000000000E+00 0. -1.
         -2   -1    0    0    0  501 -0.00000000000E+00 -0.00000000000E+00 -0.83807989617E+03  0.83807989617E+03  0.00000000000E+00 0.  1.
         23    2    1    2    0    0 -0.38704755937E+03 -0.10288497762E+04  0.19413629385E+03  0.11200354827E+04  0.91939690933E+02 0.  0.
    5000000    2    1    2    0    0  0.38704755937E+03  0.10288497762E+04  0.67010126627E+03  0.14203618697E+04  0.60004538045E+03 0.  0.
         23    2    4    4    0    0  0.26045565494E+03  0.44856047614E+03  0.62611749092E+03  0.81792679781E+03  0.89092565310E+02 0.  0.
         23    2    4    4    0    0  0.12659190443E+03  0.58028930008E+03  0.43983775350E+02  0.60243507189E+03  0.90731809729E+02 0.  0.
          1    1    3    3  502    0 -0.31159778970E+03 -0.83142421806E+03  0.11954578445E+03  0.89590770033E+03  0.00000000000E+00 0. -1.
         -1    1    3    3    0  502 -0.75449769673E+02 -0.19742555816E+03  0.74590509403E+02  0.22412778242E+03  0.00000000000E+00 0.  1.
         11    1    5    5    0    0  0.21179926726E+03  0.28356686313E+03  0.40745248715E+03  0.53970975974E+03  0.00000000000E+00 0. -1.
        -11    1    5    5    0    0  0.48656387678E+02  0.16499361301E+03  0.21866500377E+03  0.27821703807E+03  0.00000000000E+00 0.  1.
          5    1    6    6  503    0  0.11041136934E+03  0.43903367869E+03 -0.26278713184E+01  0.45273638821E+03  0.47000000000E+01 0. -1.
         -5    1    6    6    0  503  0.16180535081E+02  0.14125562140E+03  0.46611646668E+02  0.14969868369E+03  0.47000000000E+01 0.  1.
<mgrwt>
<rscale>  0 0.11100928E+04</rscale>
<asrwt>0</asrwt>
<pdfrwt beam="1">  1        2 0.26189499E+00 0.11100928E+04</pdfrwt>
<pdfrwt beam="2">  1       -2 0.12893537E+00 0.11100928E+04</pdfrwt>
<totfact> 0.42622812E+00</totfact>
</mgrwt>
</event>
<event>
12    1  0.3166324E-008  0.5602152E+03  0.7818608E-02  0.9991568E-01
          1   -1    0    0  501    0  0.00000000000E+00  0.00000000000E+00  0.81786553353E+03  0.81786553353E+03  0.00000000000E+00 0. -1.
         -1   -1    0    0    0  501 -0.00000000000E+00 -0.00000000000E+00 -0.42501332331E+03  0.42501332331E+03  0.00000000000E+00 0.  1.
         23    2    1    2    0    0  0.20613195309E+03  0.37671638716E+03  0.11996666430E+03  0.45619525717E+03  0.96521985504E+02 0.  0.
    5000000    2    1    2    0    0 -0.20613195309E+03 -0.37671638716E+03  0.27288554593E+03  0.78668359966E+03  0.59999912197E+03 0.  0.
         23    2    4    4    0    0  0.13762437840E+03 -0.27250343201E+03  0.26719525566E+03  0.41613172010E+03  0.92594351005E+02 0.  0.
         23    2    4    4    0    0 -0.34375633149E+03 -0.10421295515E+03  0.56902902702E+01  0.37055187957E+03  0.90816081106E+02 0.  0.
          4    1    3    3  502    0  0.19877280304E+03  0.29101247556E+03  0.80201687760E+02  0.36142938298E+03  0.00000000000E+00 0. -1.
         -4    1    3    3    0  502  0.73591500464E+01  0.85703911596E+02  0.39764976535E+02  0.94765874190E+02  0.00000000000E+00 0.  1.
         13    1    5    5    0    0  0.10369906649E+02 -0.11070877003E+03  0.11631929445E+03  0.16091657773E+03  0.00000000000E+00 0. -1.
        -13    1    5    5    0    0  0.12725447175E+03 -0.16179466198E+03  0.15087596121E+03  0.25521514237E+03  0.00000000000E+00 0.  1.
          5    1    6    6  503    0 -0.25825271168E+03 -0.48539058028E+02  0.32852783111E+02  0.26486203692E+03  0.47000000000E+01 0. -1.
         -5    1    6    6    0  503 -0.85503619810E+02 -0.55673897120E+02 -0.27162492841E+02  0.10568984265E+03  0.47000000000E+01 0.  1.
<mgrwt>
<rscale>  0 0.56021522E+03</rscale>
<asrwt>0</asrwt>
<pdfrwt beam="1">  1        1 0.12582547E+00 0.56021522E+03</pdfrwt>
<pdfrwt beam="2">  1       -1 0.65386665E-01 0.56021522E+03</pdfrwt>
<totfact> 0.52793802E+01</totfact>
</mgrwt>
</event>
<event>
12    1  0.3166324E-008  0.5749371E+03  0.7818608E-02  0.9958813E-01
          2   -1    0    0  501    0  0.00000000000E+00  0.00000000000E+00  0.15757853205E+04  0.15757853205E+04  0.00000000000E+00 0. -1.
         -2   -1    0    0    0  501 -0.00000000000E+00 -0.00000000000E+00 -0.26579273760E+03  0.26579273760E+03  0.00000000000E+00 0.  1.
         23    2    1    2    0    0 -0.33960116009E+03  0.32918330143E+03  0.76130823212E+03  0.90092649783E+03  0.91584585659E+02 0.  0.
    5000000    2    1    2    0    0  0.33960116009E+03 -0.32918330143E+03  0.54868435076E+03  0.94065156024E+03  0.60006686889E+03 0.  0.
         23    2    4    4    0    0  0.36542246369E+03 -0.28739247263E+02  0.97722701679E+02  0.39026577878E+03  0.91641313611E+02 0.  0.
         23    2    4    4    0    0 -0.25821303606E+02 -0.30044405416E+03  0.45096164908E+03  0.55038578146E+03  0.92869424945E+02 0.  0.
          4    1    3    3  502    0 -0.19171261102E+03  0.15800718269E+03  0.47490952856E+03  0.53596553557E+03  0.00000000000E+00 0.  1.
         -4    1    3    3    0  502 -0.14788854907E+03  0.17117611874E+03  0.28639870356E+03  0.36496096226E+03  0.00000000000E+00 0. -1.
         13    1    5    5    0    0  0.30276409026E+03 -0.71702859596E+01  0.11124308250E+03  0.32263374088E+03  0.00000000000E+00 0. -1.
        -13    1    5    5    0    0  0.62658373431E+02 -0.21568961304E+02 -0.13520380820E+02  0.67632037898E+02  0.00000000000E+00 0.  1.
          5    1    6    6  503    0  0.11028617347E+02 -0.17159112192E+03  0.31801224796E+03  0.36155085863E+03  0.47000000000E+01 0. -1.
         -5    1    6    6    0  503 -0.36849920953E+02 -0.12885293225E+03  0.13294940112E+03  0.18883492283E+03  0.47000000000E+01 0.  1.
<mgrwt>
<rscale>  0 0.57493712E+03</rscale>
<asrwt>0</asrwt>
<pdfrwt beam="1">  1        2 0.24242851E+00 0.57493712E+03</pdfrwt>
<pdfrwt beam="2">  1       -2 0.40891191E-01 0.57493712E+03</pdfrwt>
<totfact> 0.67924376E+01</totfact>
</mgrwt>
</event>
<event>
12    1  0.3166324E-008  0.6455978E+03  0.7818608E-02  0.9815075E-01
         -2   -1    0    0    0  501 -0.00000000000E+00  0.00000000000E+00  0.97573752780E+03  0.97573752780E+03  0.00000000000E+00 0. -1.
          2   -1    0    0  501    0  0.00000000000E+00 -0.00000000000E+00 -0.46942061487E+03  0.46942061487E+03  0.00000000000E+00 0.  1.
         23    2    1    2    0    0 -0.13589711965E+03 -0.52204685853E+03  0.21223713906E+03  0.58647934979E+03  0.88952093304E+02 0.  0.
    5000000    2    1    2    0    0  0.13589711965E+03  0.52204685853E+03  0.29407977388E+03  0.85867879288E+03  0.59987115809E+03 0.  0.
         23    2    4    4    0    0 -0.10350165594E+03 -0.56061661436E+02  0.14248102447E+03  0.20758982664E+03  0.94536718399E+02 0.  0.
         23    2    4    4    0    0  0.23939877559E+03  0.57810851996E+03  0.15159874941E+03  0.65108896624E+03  0.97022814479E+02 0.  0.
          2    1    3    3  502    0 -0.68421489568E+02 -0.32942264655E+03  0.88873498037E+02  0.34799321681E+03  0.00000000000E+00 0. -1.
         -2    1    3    3    0  502 -0.67475630082E+02 -0.19262421198E+03  0.12336364102E+03  0.23848613297E+03  0.00000000000E+00 0.  1.
         11    1    5    5    0    0 -0.39516601417E+02 -0.24128021120E+02  0.12595307893E+03  0.13419352176E+03  0.00000000000E+00 0. -1.
        -11    1    5    5    0    0 -0.63985054524E+02 -0.31933640316E+02  0.16527945538E+02  0.73396304879E+02  0.00000000000E+00 0.  1.
          5    1    6    6  503    0  0.10538327635E+03  0.14415022222E+03  0.32894488655E+02  0.18162890432E+03  0.47000000000E+01 0. -1.
         -5    1    6    6    0  503  0.13401549924E+03  0.43395829775E+03  0.11870426075E+03  0.46946006192E+03  0.47000000000E+01 0.  1.
<mgrwt>
<rscale>  0 0.64559776E+03</rscale>
<asrwt>0</asrwt>
<pdfrwt beam="1">  1        2 0.72218556E-01 0.64559776E+03</pdfrwt>
<pdfrwt beam="2">  1       -2 0.15011347E+00 0.64559776E+03</pdfrwt>
<totfact> 0.20271238E+01</totfact>
</mgrwt>
</event>
<event>
12    1  0.3166324E-008  0.7917127E+03  0.7818608E-02  0.9572091E-01
         -2   -1    0    0    0  501 -0.00000000000E+00  0.00000000000E+00  0.71223992335E+03  0.71223992335E+03  0.00000000000E+00 0.  1.
          2   -1    0    0  501    0  0.00000000000E+00 -0.00000000000E+00 -0.10583501241E+04  0.10583501241E+04  0.00000000000E+00 0. -1.
         23    2    1    2    0    0 -0.51521880920E+03 -0.44891484376E+03  0.18930820977E+03  0.71529429454E+03  0.93986016090E+02 0.  0.
    5000000    2    1    2    0    0  0.51521880920E+03  0.44891484376E+03 -0.53541841049E+03  0.10552957529E+04  0.60000107788E+03 0.  0.
         23    2    4    4    0    0  0.28982664195E+03 -0.88367728210E+02 -0.19786953187E+03  0.37584668841E+03  0.10148913130E+03 0.  0.
         23    2    4    4    0    0  0.22539216725E+03  0.53728257197E+03 -0.33754887862E+03  0.67944906447E+03  0.90761195215E+02 0.  0.
          1    1    3    3  502    0 -0.10290414297E+03 -0.12642865502E+03  0.75333305445E+02  0.17957888061E+03  0.00000000000E+00 0. -1.
         -1    1    3    3    0  502 -0.41231466622E+03 -0.32248618874E+03  0.11397490432E+03  0.53571541393E+03  0.00000000000E+00 0.  1.
         11    1    5    5    0    0  0.18375904203E+03 -0.25637326523E+02 -0.70113761128E+02  0.19834464333E+03  0.00000000000E+00 0. -1.
        -11    1    5    5    0    0  0.10606759992E+03 -0.62730401687E+02 -0.12775577074E+03  0.17750204508E+03  0.00000000000E+00 0.  1.
          5    1    6    6  503    0  0.12787348634E+03  0.20317036101E+03 -0.11431458116E+03  0.26593182880E+03  0.47000000000E+01 0. -1.
         -5    1    6    6    0  503  0.97518680907E+02  0.33411221095E+03 -0.22323429746E+03  0.41351723567E+03  0.47000000000E+01 0.  1.
<mgrwt>
<rscale>  0 0.79171268E+03</rscale>
<asrwt>0</asrwt>
<pdfrwt beam="1">  1        2 0.16282310E+00 0.79171268E+03</pdfrwt>
<pdfrwt beam="2">  1       -2 0.10957537E+00 0.79171268E+03</pdfrwt>
<totfact> 0.15535397E+01</totfact>
</mgrwt>
</event>
<event>
12    1  0.3166324E-008  0.3656736E+03  0.7818608E-02  0.1056360E+00
         -2   -1    0    0    0  501 -0.00000000000E+00  0.00000000000E+00  0.15501553759E+03  0.15501553759E+03  0.00000000000E+00 0.  1.
          2   -1    0    0  501    0  0.00000000000E+00 -0.00000000000E+00 -0.19640784853E+04  0.19640784853E+04  0.00000000000E+00 0. -1.
         23    2    1    2    0    0 -0.27313661810E+03  0.14440045480E+03 -0.21285115332E+03  0.38602620785E+03  0.90859871151E+02 0.  0.
    5000000    2    1    2    0    0  0.27313661810E+03 -0.14440045480E+03 -0.15962117944E+04  0.17330678151E+04  0.60014736149E+03 0.  0.
         23    2    4    4    0    0  0.21627328311E+03 -0.20427128768E+03 -0.30052334932E+03  0.43147876696E+03  0.85783162053E+02 0.  0.
         23    2    4    4    0    0  0.56863334995E+02  0.59870832877E+02 -0.12956884451E+04  0.13015890481E+04  0.92236369829E+02 0.  0.
          2    1    3    3  502    0 -0.69152775976E+02  0.65676776544E+02 -0.27147263230E+02  0.99159060621E+02  0.00000000000E+00 0. -1.
         -2    1    3    3    0  502 -0.20398384213E+03  0.78723678255E+02 -0.18570389009E+03  0.28686714723E+03  0.00000000000E+00 0.  1.
         13    1    5    5    0    0  0.93780447749E+02 -0.12695120039E+03 -0.11108926531E+03  0.19300830171E+03  0.00000000000E+00 0.  1.
        -13    1    5    5    0    0  0.12249283536E+03 -0.77320087288E+02 -0.18943408401E+03  0.23847046525E+03  0.00000000000E+00 0. -1.
          5    1    6    6  503    0  0.16862116379E+02 -0.19151655858E+02 -0.55548562252E+03  0.55609125485E+03  0.47000000000E+01 0. -1.
         -5    1    6    6    0  503  0.40001218616E+02  0.79022488735E+02 -0.74020282258E+03  0.74549779327E+03  0.47000000000E+01 0.  1.
<mgrwt>
<rscale>  0 0.36567364E+03</rscale>
<asrwt>0</asrwt>
<pdfrwt beam="1">  1        2 0.30216588E+00 0.36567364E+03</pdfrwt>
<pdfrwt beam="2">  1       -2 0.23848547E-01 0.36567364E+03</pdfrwt>
<totfact> 0.11822901E+02</totfact>
</mgrwt>
</event>
<event>
12    1  0.3166324E-008  0.5727662E+03  0.7818608E-02  0.9963576E-01
         -2   -1    0    0    0  501 -0.00000000000E+00  0.00000000000E+00  0.15048464200E+03  0.15048464200E+03  0.00000000000E+00 0.  1.
          2   -1    0    0  501    0  0.00000000000E+00 -0.00000000000E+00 -0.23897516839E+04  0.23897516839E+04  0.00000000000E+00 0. -1.
         23    2    1    2    0    0 -0.36849185976E+03 -0.21144373536E+03 -0.57023349050E+03  0.71699883478E+03  0.91795378195E+02 0.  0.
    5000000    2    1    2    0    0  0.36849185976E+03  0.21144373536E+03 -0.16690335514E+04  0.18232374911E+04  0.59835378280E+03 0.  0.
         23    2    4    4    0    0  0.43692289834E+03 -0.35392690076E+02 -0.84247458640E+03  0.95331518089E+03  0.83018936393E+02 0.  0.
         23    2    4    4    0    0 -0.68431038574E+02  0.24683642544E+03 -0.82655896503E+03  0.86992231025E+03  0.89185622354E+02 0.  0.
          4    1    3    3  502    0 -0.13795728239E+03 -0.13159080658E+03 -0.25398872656E+03  0.31758247017E+03  0.00000000000E+00 0. -1.
         -4    1    3    3    0  502 -0.23053457738E+03 -0.79852928781E+02 -0.31624476394E+03  0.39941636462E+03  0.00000000000E+00 0.  1.
         11    1    5    5    0    0  0.34443034744E+03 -0.66427997230E+01 -0.59456781785E+03  0.68715884703E+03  0.00000000000E+00 0. -1.
        -11    1    5    5    0    0  0.92492550897E+02 -0.28749890353E+02 -0.24790676855E+03  0.26615633387E+03  0.00000000000E+00 0.  1.
          5    1    6    6  503    0  0.17135289838E+02  0.18422284983E+02 -0.11121945272E+03  0.11412648862E+03  0.47000000000E+01 0. -1.
         -5    1    6    6    0  503 -0.85566328412E+02  0.22841414046E+03 -0.71533951231E+03  0.75579582163E+03  0.47000000000E+01 0.  1.
<mgrwt>
<rscale>  0 0.57276624E+03</rscale>
<asrwt>0</asrwt>
<pdfrwt beam="1">  1        2 0.36765408E+00 0.57276624E+03</pdfrwt>
<pdfrwt beam="2">  1       -2 0.23151485E-01 0.57276624E+03</pdfrwt>
<totfact> 0.70504807E+01</totfact>
</mgrwt>
</event>
<event>
12    1  0.3166324E-008  0.1962140E+04  0.7818608E-02  0.8624529E-01
          1   -1    0    0  501    0  0.00000000000E+00  0.00000000000E+00  0.31764952609E+04  0.31764952609E+04  0.00000000000E+00 0. -1.
         -1   -1    0    0    0  501 -0.00000000000E+00 -0.00000000000E+00 -0.16020382542E+04  0.16020382542E+04  0.00000000000E+00 0.  1.
         23    2    1    2    0    0 -0.18625945512E+04  0.52177407173E+03 -0.36951101643E+03  0.19713526712E+04  0.90478278796E+02 0.  0.
    5000000    2    1    2    0    0  0.18625945512E+04 -0.52177407173E+03  0.19439680231E+04  0.28071808439E+04  0.59978827228E+03 0.  0.
         23    2    4    4    0    0  0.65554722200E+03  0.23699045788E+02  0.90382271494E+03  0.11206373717E+04  0.92891408356E+02 0.  0.
         23    2    4    4    0    0  0.12070473292E+04 -0.54547311752E+03  0.10401453082E+04  0.16865434722E+04  0.89568101375E+02 0.  0.
          2    1    3    3  502    0 -0.11557285336E+03  0.55657766681E+02 -0.25122154048E+02  0.13071340425E+03  0.00000000000E+00 0. -1.
         -2    1    3    3    0  502 -0.17470216978E+04  0.46611630505E+03 -0.34438886238E+03  0.18406392669E+04  0.00000000000E+00 0.  1.
         13    1    5    5    0    0  0.55720713258E+03 -0.13490923378E+02  0.75790345915E+03  0.94078661077E+03  0.00000000000E+00 0.  1.
        -13    1    5    5    0    0  0.98340089413E+02  0.37189969166E+02  0.14591925579E+03  0.17985076092E+03  0.00000000000E+00 0. -1.
          5    1    6    6  503    0  0.37810137780E+03 -0.14837915171E+03  0.27430356821E+03  0.49014442983E+03  0.47000000000E+01 0. -1.
         -5    1    6    6    0  503  0.82894595138E+03 -0.39709396581E+03  0.76584173997E+03  0.11963990424E+04  0.47000000000E+01 0.  1.
<mgrwt>
<rscale>  0 0.19621402E+04</rscale>
<asrwt>0</asrwt>
<pdfrwt beam="1">  1        1 0.48869158E+00 0.19621402E+04</pdfrwt>
<pdfrwt beam="2">  1       -1 0.24646742E+00 0.19621402E+04</pdfrwt>
<totfact> 0.29067395E-02</totfact>
</mgrwt>
</event>
<event>
12    1  0.3166324E-008  0.1292516E+04  0.7818608E-02  0.9035521E-01
          1   -1    0    0  501    0  0.00000000000E+00  0.00000000000E+00  0.12620902651E+04  0.12620902651E+04  0.00000000000E+00 0. -1.
         -1   -1    0    0    0  501 -0.00000000000E+00 -0.00000000000E+00 -0.25745270963E+04  0.25745270963E+04  0.00000000000E+00 0.  1.
         23    2    1    2    0    0  0.43178289440E+03 -0.11789238304E+04 -0.19379283938E+04  0.23108783311E+04  0.91073245304E+02 0.  0.
    5000000    2    1    2    0    0 -0.43178289440E+03  0.11789238304E+04  0.62549156262E+03  0.15257390303E+04  0.60028495548E+03 0.  0.
         23    2    4    4    0    0 -0.14360924348E+03  0.92166448161E+03  0.22726426215E+03  0.96395065608E+03  0.86387447242E+02 0.  0.
         23    2    4    4    0    0 -0.28817365092E+03  0.25725934881E+03  0.39822730047E+03  0.56178837420E+03  0.88287988463E+02 0.  0.
          2    1    3    3  502    0  0.11733140689E+03 -0.21733305914E+03 -0.36752021235E+03  0.44279953040E+03  0.00000000000E+00 0. -1.
         -2    1    3    3    0  502  0.31445148752E+03 -0.96159077128E+03 -0.15704081814E+04  0.18680788007E+04  0.00000000000E+00 0.  1.
         13    1    5    5    0    0 -0.27994291872E+02  0.14883017306E+03  0.50044891227E+01  0.15152275639E+03  0.00000000000E+00 0. -1.
        -13    1    5    5    0    0 -0.11561495161E+03  0.77283430854E+03  0.22225977303E+03  0.81242789969E+03  0.00000000000E+00 0.  1.
          5    1    6    6  503    0 -0.44873013012E+02  0.93253105405E+01  0.70350266989E+02  0.84093987769E+02  0.47000000000E+01 0. -1.
         -5    1    6    6    0  503 -0.24330063791E+03  0.24793403827E+03  0.32787703348E+03  0.47769438643E+03  0.47000000000E+01 0.  1.
<mgrwt>
<rscale>  0 0.12925157E+04</rscale>
<asrwt>0</asrwt>
<pdfrwt beam="1">  1        1 0.19416774E+00 0.12925157E+04</pdfrwt>
<pdfrwt beam="2">  1       -1 0.39608109E+00 0.12925157E+04</pdfrwt>
<totfact> 0.71563974E-02</totfact>
</mgrwt>
</event>
<event>
12    1  0.3166324E-008  0.1048806E+04  0.7818608E-02  0.9256577E-01
          2   -1    0    0  501    0  0.00000000000E+00  0.00000000000E+00  0.41824846046E+04  0.41824846046E+04  0.00000000000E+00 0. -1.
         -2   -1    0    0    0  501 -0.00000000000E+00 -0.00000000000E+00 -0.34898615082E+03  0.34898615082E+03  0.00000000000E+00 0.  1.
         23    2    1    2    0    0  0.96964768229E+03  0.37529124215E+03  0.96304612533E+03  0.14201073465E+04  0.90481444475E+02 0.  0.
    5000000    2    1    2    0    0 -0.96964768229E+03 -0.37529124215E+03  0.28704523284E+04  0.31113634089E+04  0.60002128994E+03 0.  0.
         23    2    4    4    0    0 -0.24667170844E+03 -0.75228855897E+02  0.23570325095E+03  0.36103966274E+03  0.91034625596E+02 0.  0.
         23    2    4    4    0    0 -0.72297597385E+03 -0.30006238626E+03  0.26347490775E+04  0.27503237462E+04  0.98215645968E+02 0.  0.
          4    1    3    3  502    0  0.20555892071E+03  0.10509308728E+03  0.25430652938E+03  0.34346883085E+03  0.00000000000E+00 0.  1.
         -4    1    3    3    0  502  0.76408876158E+03  0.27019815487E+03  0.70873959595E+03  0.10766385156E+04  0.00000000000E+00 0. -1.
         13    1    5    5    0    0 -0.30270602756E+02  0.15899018407E+02  0.10688093237E+02  0.35823505057E+02  0.00000000000E+00 0.  1.
        -13    1    5    5    0    0 -0.21640110569E+03 -0.91127874304E+02  0.22501515771E+03  0.32521615768E+03  0.00000000000E+00 0. -1.
          5    1    6    6  503    0 -0.64628763358E+03 -0.23873976565E+03  0.22434054667E+04  0.23468222257E+04  0.47000000000E+01 0. -1.
         -5    1    6    6    0  503 -0.76688340271E+02 -0.61322620609E+02  0.39134361080E+03  0.40350152050E+03  0.47000000000E+01 0.  1.
<mgrwt>
<rscale>  0 0.10488063E+04</rscale>
<asrwt>0</asrwt>
<pdfrwt beam="1">  1        2 0.64345913E+00 0.10488063E+04</pdfrwt>
<pdfrwt beam="2">  1       -2 0.53690180E-01 0.10488063E+04</pdfrwt>
<totfact> 0.82827627E-01</totfact>
</mgrwt>
</event>
<event>
12    1  0.3166324E-008  0.9752180E+03  0.7818608E-02  0.9336151E-01
         -1   -1    0    0    0  501 -0.00000000000E+00  0.00000000000E+00  0.15650114930E+04  0.15650114930E+04  0.00000000000E+00 0.  1.
          1   -1    0    0  501    0  0.00000000000E+00 -0.00000000000E+00 -0.94232693277E+03  0.94232693277E+03  0.00000000000E+00 0. -1.
         23    2    1    2    0    0  0.17070940307E+03  0.91606941892E+03 -0.38229075831E+03  0.10112442106E+04  0.90242722632E+02 0.  0.
    5000000    2    1    2    0    0 -0.17070940307E+03 -0.91606941892E+03  0.10049753186E+04  0.14960942152E+04  0.59999802438E+03 0.  0.
         23    2    4    4    0    0 -0.12345079895E+03 -0.91028281684E+03  0.65436483808E+03  0.11307932145E+04  0.81517152801E+02 0.  0.
         23    2    4    4    0    0 -0.47258604118E+02 -0.57866020805E+01  0.35061048051E+03  0.36530100074E+03  0.90830896022E+02 0.  0.
          3    1    3    3  502    0  0.11000078542E+03  0.58760272009E+03 -0.19799049558E+03  0.62974388904E+03  0.00000000000E+00 0. -1.
         -3    1    3    3    0  502  0.60708617645E+02  0.32846669884E+03 -0.18430026273E+03  0.38150032155E+03  0.00000000000E+00 0.  1.
         13    1    5    5    0    0 -0.10816894494E+03 -0.71898043054E+03  0.55495198756E+03  0.91466118790E+03  0.00000000000E+00 0. -1.
        -13    1    5    5    0    0 -0.15281854007E+02 -0.19130238630E+03  0.99412850527E+02  0.21613202659E+03  0.00000000000E+00 0.  1.
          5    1    6    6  503    0 -0.33298785526E+02 -0.45888096529E+02  0.15582470649E+03  0.16588536908E+03  0.47000000000E+01 0. -1.
         -5    1    6    6    0  503 -0.13959818592E+02  0.40101494449E+02  0.19478577401E+03  0.19941563166E+03  0.47000000000E+01 0.  1.
<mgrwt>
<rscale>  0 0.97521804E+03</rscale>
<asrwt>0</asrwt>
<pdfrwt beam="1">  1        1 0.14497337E+00 0.97521804E+03</pdfrwt>
<pdfrwt beam="2">  1       -1 0.24077100E+00 0.97521804E+03</pdfrwt>
<totfact> 0.13616351E+00</totfact>
</mgrwt>
</event>
<event>
12    1  0.3166324E-008  0.1441458E+04  0.7818608E-02  0.8924344E-01
          2   -1    0    0  501    0  0.00000000000E+00  0.00000000000E+00  0.17738525578E+04  0.17738525578E+04  0.00000000000E+00 0.  1.
         -2   -1    0    0    0  501 -0.00000000000E+00 -0.00000000000E+00 -0.28489643266E+04  0.28489643266E+04  0.00000000000E+00 0. -1.
         23    2    1    2    0    0  0.16878510466E+03  0.14167485177E+04  0.12031335387E+04  0.18685330049E+04  0.90666997463E+02 0.  0.
    5000000    2    1    2    0    0 -0.16878510466E+03 -0.14167485177E+04 -0.22782453075E+04  0.27542838794E+04  0.60001102773E+03 0.  0.
         23    2    4    4    0    0 -0.93720092161E+02 -0.23639747692E+03 -0.88128031874E+03  0.92163617764E+03  0.89950102680E+02 0.  0.
         23    2    4    4    0    0 -0.75065012504E+02 -0.11803510408E+04 -0.13969649887E+04  0.18326477018E+04  0.90681218811E+02 0.  0.
          3    1    3    3  502    0  0.69909499816E+02  0.93454366280E+03  0.80543797911E+03  0.12357141798E+04  0.00000000000E+00 0. -1.
         -3    1    3    3    0  502  0.98875604849E+02  0.48220485495E+03  0.39769555958E+03  0.63281882516E+03  0.00000000000E+00 0.  1.
         13    1    5    5    0    0 -0.77043039893E+02 -0.75978797783E+02 -0.37341161172E+03  0.38877324944E+03  0.00000000000E+00 0.  1.
        -13    1    5    5    0    0 -0.16677052268E+02 -0.16041867913E+03 -0.50786870702E+03  0.53286292821E+03  0.00000000000E+00 0. -1.
          5    1    6    6  503    0  0.13206444186E+01 -0.38033520739E+03 -0.39790364372E+03  0.55045982031E+03  0.47000000000E+01 0. -1.
         -5    1    6    6    0  503 -0.76385656922E+02 -0.80001583344E+03 -0.99906134500E+03  0.12821878815E+04  0.47000000000E+01 0.  1.
<mgrwt>
<rscale>  0 0.14414578E+04</rscale>
<asrwt>0</asrwt>
<pdfrwt beam="1">  1        2 0.27290039E+00 0.14414578E+04</pdfrwt>
<pdfrwt beam="2">  1       -2 0.43830220E+00 0.14414578E+04</pdfrwt>
<totfact> 0.35057279E-02</totfact>
</mgrwt>
</event>
<event>
12    1  0.3166324E-008  0.8873522E+03  0.7818608E-02  0.9441531E-01
          1   -1    0    0  501    0  0.00000000000E+00  0.00000000000E+00  0.25782493722E+04  0.25782493722E+04  0.00000000000E+00 0. -1.
         -1   -1    0    0    0  501 -0.00000000000E+00 -0.00000000000E+00 -0.39950771419E+03  0.39950771419E+03  0.00000000000E+00 0.  1.
         23    2    1    2    0    0  0.77543636298E+03 -0.34099615513E+03  0.15369096364E+04  0.17572615794E+04  0.91088402292E+02 0.  0.
    5000000    2    1    2    0    0 -0.77543636298E+03  0.34099615513E+03  0.64183202165E+03  0.12204955071E+04  0.60006750275E+03 0.  0.
         23    2    4    4    0    0 -0.78926593028E+03  0.28658779129E+03  0.69933841275E+03  0.10965859906E+04  0.91396653886E+02 0.  0.
         23    2    4    4    0    0  0.13829567297E+02  0.54408363843E+02 -0.57506391096E+02  0.12390951648E+03  0.94313605969E+02 0.  0.
          4    1    3    3  502    0  0.70975323209E+03 -0.32217800153E+03  0.13586819644E+04  0.15663859664E+04  0.00000000000E+00 0. -1.
         -4    1    3    3    0  502  0.65683130890E+02 -0.18818153605E+02  0.17822767196E+03  0.19087561301E+03  0.00000000000E+00 0.  1.
         11    1    5    5    0    0 -0.65742823413E+03  0.20161001595E+03  0.57733540160E+03  0.89787228908E+03  0.00000000000E+00 0. -1.
        -11    1    5    5    0    0 -0.13183769615E+03  0.84977775338E+02  0.12200301115E+03  0.19871370149E+03  0.00000000000E+00 0.  1.
          5    1    6    6  503    0 -0.19394202259E+02  0.18113264647E+01 -0.58162472698E+02  0.61517308257E+02  0.47000000000E+01 0. -1.
         -5    1    6    6    0  503  0.33223769556E+02  0.52597037378E+02  0.65608160144E+00  0.62392208228E+02  0.47000000000E+01 0.  1.
<mgrwt>
<rscale>  0 0.88735224E+03</rscale>
<asrwt>0</asrwt>
<pdfrwt beam="1">  1        1 0.39665374E+00 0.88735224E+03</pdfrwt>
<pdfrwt beam="2">  1       -1 0.61462727E-01 0.88735224E+03</pdfrwt>
<totfact> 0.33284459E+00</totfact>
</mgrwt>
</event>
<event>
12    1  0.3166324E-008  0.8762864E+03  0.7818608E-02  0.9455720E-01
         -2   -1    0    0    0  501 -0.00000000000E+00  0.00000000000E+00  0.59433634261E+03  0.59433634261E+03  0.00000000000E+00 0.  1.
          2   -1    0    0  501    0  0.00000000000E+00 -0.00000000000E+00 -0.13450616998E+04  0.13450616998E+04  0.00000000000E+00 0. -1.
         23    2    1    2    0    0 -0.45096295784E+03  0.64539701620E+03 -0.25728329829E+03  0.83333746195E+03  0.91387811217E+02 0.  0.
    5000000    2    1    2    0    0  0.45096295784E+03 -0.64539701620E+03 -0.49344205890E+03  0.11060605805E+04  0.59998337002E+03 0.  0.
         23    2    4    4    0    0 -0.10971697885E+03 -0.11561182446E+03  0.39160518758E+01  0.18374642129E+03  0.91342774608E+02 0.  0.
         23    2    4    4    0    0  0.56067993670E+03 -0.52978519174E+03 -0.49735811078E+03  0.92231415917E+03  0.90906419172E+02 0.  0.
          3    1    3    3  502    0 -0.13701497350E+03  0.27327140379E+03 -0.94186179345E+02  0.31987716310E+03  0.00000000000E+00 0. -1.
         -3    1    3    3    0  502 -0.31394798435E+03  0.37212561241E+03 -0.16309711895E+03  0.51346029885E+03  0.00000000000E+00 0.  1.
         13    1    5    5    0    0 -0.68867112550E+02 -0.92155105722E+01 -0.32097983108E+01  0.69555069055E+02  0.00000000000E+00 0. -1.
        -13    1    5    5    0    0 -0.40849866304E+02 -0.10639631388E+03  0.71258501865E+01  0.11419135224E+03  0.00000000000E+00 0.  1.
          5    1    6    6  503    0  0.51684989637E+02 -0.18508205863E+02 -0.30500092027E+02  0.62978071197E+02  0.47000000000E+01 0. -1.
         -5    1    6    6    0  503  0.50899494706E+03 -0.51127698588E+03 -0.46685801875E+03  0.85933608797E+03  0.47000000000E+01 0.  1.
<mgrwt>
<rscale>  0 0.87628636E+03</rscale>
<asrwt>0</asrwt>
<pdfrwt beam="1">  1        2 0.20693257E+00 0.87628636E+03</pdfrwt>
<pdfrwt beam="2">  1       -2 0.91436361E-01 0.87628636E+03</pdfrwt>
<totfact> 0.15970861E+01</totfact>
</mgrwt>
</event>
<event>
12    1  0.3166324E-008  0.5495919E+03  0.7818608E-02  0.1001588E+00
          1   -1    0    0  501    0  0.00000000000E+00  0.00000000000E+00  0.18007752902E+04  0.18007752902E+04  0.00000000000E+00 0. -1.
         -1   -1    0    0    0  501 -0.00000000000E+00 -0.00000000000E+00 -0.28569971045E+03  0.28569971045E+03  0.00000000000E+00 0.  1.
         23    2    1    2    0    0 -0.48526188962E+03  0.42169937493E+02  0.11067693126E+04  0.12124368492E+04  0.88359475002E+02 0.  0.
    5000000    2    1    2    0    0  0.48526188962E+03 -0.42169937493E+02  0.40830626715E+03  0.87403815145E+03  0.59997606390E+03 0.  0.
         23    2    4    4    0    0  0.84317388983E+02  0.12173520798E+03  0.39435938406E+03  0.43086252080E+03  0.90522401020E+02 0.  0.
         23    2    4    4    0    0  0.40094450063E+03 -0.16390514547E+03  0.13946883094E+02  0.44317563066E+03  0.92675426933E+02 0.  0.
          1    1    3    3  502    0 -0.30400429434E+03  0.12541075457E+02  0.78557954092E+03  0.84244353203E+03  0.00000000000E+00 0. -1.
         -1    1    3    3    0  502 -0.18125759528E+03  0.29628862036E+02  0.32118977169E+03  0.36999331717E+03  0.00000000000E+00 0.  1.
         13    1    5    5    0    0  0.86271235419E+02  0.47705969227E+02  0.20293875393E+03  0.22561631902E+03  0.00000000000E+00 0.  1.
        -13    1    5    5    0    0 -0.19538464352E+01  0.74029238754E+02  0.19142063013E+03  0.20524620178E+03  0.00000000000E+00 0. -1.
          5    1    6    6  503    0  0.18640672623E+03 -0.11314534077E+03 -0.23993409993E+02  0.21942449600E+03  0.47000000000E+01 0. -1.
         -5    1    6    6    0  503  0.21453777440E+03 -0.50759804702E+02  0.37940293087E+02  0.22375113465E+03  0.47000000000E+01 0.  1.
<mgrwt>
<rscale>  0 0.54959188E+03</rscale>
<asrwt>0</asrwt>
<pdfrwt beam="1">  1        1 0.27704235E+00 0.54959188E+03</pdfrwt>
<pdfrwt beam="2">  1       -1 0.43953803E-01 0.54959188E+03</pdfrwt>
<totfact> 0.22306295E+01</totfact>
</mgrwt>
</event>
<event>
12    1  0.3166324E-008  0.7089660E+03  0.7818608E-02  0.9702021E-01
         -1   -1    0    0    0  501 -0.00000000000E+00  0.00000000000E+00  0.95859626688E+03  0.95859626688E+03  0.00000000000E+00 0.  1.
          1   -1    0    0  501    0  0.00000000000E+00 -0.00000000000E+00 -0.89976543134E+03  0.89976543134E+03  0.00000000000E+00 0. -1.
         23    2    1    2    0    0 -0.67500625353E+03 -0.53677419297E+02 -0.45216353850E+03  0.81929870135E+03  0.91015321994E+02 0.  0.
    5000000    2    1    2    0    0  0.67500625353E+03  0.53677419297E+02  0.51099437404E+03  0.10390629969E+04  0.60001829432E+03 0.  0.
         23    2    4    4    0    0  0.38108375924E+03  0.16149477094E+03  0.56798143521E+03  0.70757305506E+03  0.82166446353E+02 0.  0.
         23    2    4    4    0    0  0.29392249428E+03 -0.10781735164E+03 -0.56987061173E+02  0.33148994181E+03  0.92860338233E+02 0.  0.
          1    1    3    3  502    0 -0.17948169373E+03 -0.17225477096E+01 -0.75589431131E+02  0.19475730449E+03  0.00000000000E+00 0. -1.
         -1    1    3    3    0  502 -0.49552455980E+03 -0.51954871587E+02 -0.37657410737E+03  0.62454139686E+03  0.00000000000E+00 0.  1.
         11    1    5    5    0    0  0.54884265001E+02  0.49264823309E+02  0.13643775404E+03  0.15509534515E+03  0.00000000000E+00 0. -1.
        -11    1    5    5    0    0  0.32619949424E+03  0.11222994763E+03  0.43154368117E+03  0.55247770991E+03  0.00000000000E+00 0.  1.
          5    1    6    6  503    0  0.18797652462E+03 -0.10506608082E+03 -0.10465182522E+02  0.21565172198E+03  0.47000000000E+01 0. -1.
         -5    1    6    6    0  503  0.10594596966E+03 -0.27512708166E+01 -0.46521878651E+02  0.11583821983E+03  0.47000000000E+01 0.  1.
<mgrwt>
<rscale>  0 0.70896605E+03</rscale>
<asrwt>0</asrwt>
<pdfrwt beam="1">  1        1 0.13842545E+00 0.70896605E+03</pdfrwt>
<pdfrwt beam="2">  1       -1 0.14747635E+00 0.70896605E+03</pdfrwt>
<totfact> 0.69160882E+00</totfact>
</mgrwt>
</event>
<event>
12    1  0.3768411E-008  0.1683161E+04  0.7818608E-02  0.8771027E-01
          2   -1    0    0  501    0  0.00000000000E+00  0.00000000000E+00  0.23060349881E+04  0.23060349881E+04  0.00000000000E+00 0.  1.
         -2   -1    0    0    0  501 -0.00000000000E+00 -0.00000000000E+00 -0.12793276994E+04  0.12793276994E+04  0.00000000000E+00 0. -1.
         23    2    1    2    0    0 -0.16515507202E+04  0.78917684563E+02  0.30329489369E+03  0.16834839488E+04  0.91008960620E+02 0.  0.
    5000000    2    1    2    0    0  0.16515507202E+04 -0.78917684563E+02  0.72341239504E+03  0.19018787387E+04  0.59997455043E+03 0.  0.
         23    2    4    4    0    0  0.60206881116E+03  0.16809670826E+03  0.47858800899E+03  0.79238867764E+03  0.89944301685E+02 0.  0.
         23    2    4    4    0    0  0.10494819091E+04 -0.24701439283E+03  0.24482438605E+03  0.11094900611E+04  0.92740648871E+02 0.  0.
          1    1    3    3  502    0 -0.76416641490E+03 -0.30626158894E+01  0.11738884912E+03  0.77313636001E+03  0.00000000000E+00 0. -1.
         -1    1    3    3    0  502 -0.88738430532E+03  0.81980300452E+02  0.18590604458E+03  0.91034758878E+03  0.00000000000E+00 0.  1.
         13    1    5    5    0    0  0.43695146695E+03  0.79496770923E+02  0.33356022929E+03  0.55543563770E+03  0.00000000000E+00 0. -1.
        -13    1    5    5    0    0  0.16511734421E+03  0.88599937340E+02  0.14502777970E+03  0.23695303995E+03  0.00000000000E+00 0.  1.
          5    1    6    6  503    0  0.61815255375E+03 -0.11893180214E+03  0.18103799118E+03  0.65502228780E+03  0.47000000000E+01 0. -1.
         -5    1    6    6    0  503  0.43132935531E+03 -0.12808259068E+03  0.63786394863E+02  0.45446777328E+03  0.47000000000E+01 0.  1.
<mgrwt>
<rscale>  0 0.16831614E+04</rscale>
<asrwt>0</asrwt>
<pdfrwt beam="1">  1        2 0.35477461E+00 0.16831614E+04</pdfrwt>
<pdfrwt beam="2">  1       -2 0.19681965E+00 0.16831614E+04</pdfrwt>
<totfact> 0.57916614E-01</totfact>
</mgrwt>
</event>
<event>
12    1  0.3166324E-008  0.6510419E+03  0.7818608E-02  0.9804826E-01
         -2   -1    0    0    0  501 -0.00000000000E+00  0.00000000000E+00  0.28377713261E+03  0.28377713261E+03  0.00000000000E+00 0.  1.
          2   -1    0    0  501    0  0.00000000000E+00 -0.00000000000E+00 -0.15384245626E+04  0.15384245626E+04  0.00000000000E+00 0. -1.
         23    2    1    2    0    0  0.49226836554E+03 -0.14270444020E+03 -0.61384617320E+03  0.80560388521E+03  0.97456629072E+02 0.  0.
    5000000    2    1    2    0    0 -0.49226836554E+03  0.14270444020E+03 -0.64080125683E+03  0.10165978100E+04  0.60012678299E+03 0.  0.
         23    2    4    4    0    0 -0.45605647059E+03  0.33488726210E+03 -0.45169763770E+03  0.72964812034E+03  0.90656720264E+02 0.  0.
         23    2    4    4    0    0 -0.36211894944E+02 -0.19218282190E+03 -0.18910361913E+03  0.28694968970E+03  0.91292974980E+02 0.  0.
          3    1    3    3  502    0  0.27716979861E+03 -0.59558481025E+02 -0.40578957376E+03  0.49501059393E+03  0.00000000000E+00 0. -1.
         -3    1    3    3    0  502  0.21509856693E+03 -0.83145959172E+02 -0.20805659944E+03  0.31059329128E+03  0.00000000000E+00 0.  1.
         13    1    5    5    0    0 -0.39585073344E+03  0.24763127224E+03 -0.37301675495E+03  0.59762910708E+03  0.00000000000E+00 0. -1.
        -13    1    5    5    0    0 -0.60205737152E+02  0.87255989857E+02 -0.78680882756E+02  0.13201901326E+03  0.00000000000E+00 0.  1.
          5    1    6    6  503    0 -0.62714255784E+02 -0.92974893532E+02 -0.86487053298E+02  0.14170218451E+03  0.47000000000E+01 0. -1.
         -5    1    6    6    0  503  0.26502360840E+02 -0.99207928371E+02 -0.10261656583E+03  0.14524750519E+03  0.47000000000E+01 0.  1.
<mgrwt>
<rscale>  0 0.65104192E+03</rscale>
<asrwt>0</asrwt>
<pdfrwt beam="1">  1        2 0.23668071E+00 0.65104192E+03</pdfrwt>
<pdfrwt beam="2">  1       -2 0.43658020E-01 0.65104192E+03</pdfrwt>
<totfact> 0.62029029E+01</totfact>
</mgrwt>
</event>
<event>
12    1  0.3166324E-008  0.6291411E+03  0.7818608E-02  0.9846726E-01
         -2   -1    0    0    0  501 -0.00000000000E+00  0.00000000000E+00  0.66909478307E+03  0.66909478307E+03  0.00000000000E+00 0.  1.
          2   -1    0    0  501    0  0.00000000000E+00 -0.00000000000E+00 -0.17266119361E+04  0.17266119361E+04  0.00000000000E+00 0. -1.
         23    2    1    2    0    0  0.30741934838E+03 -0.39050082171E+03  0.46432761932E+03  0.68598501318E+03  0.89318266542E+02 0.  0.
    5000000    2    1    2    0    0 -0.30741934838E+03  0.39050082171E+03 -0.15218447724E+04  0.17097217060E+04  0.60011603322E+03 0.  0.
         23    2    4    4    0    0 -0.43655114609E+03  0.11909454330E+03 -0.10092414017E+04  0.11101563645E+04  0.95491011840E+02 0.  0.
         23    2    4    4    0    0  0.12913179771E+03  0.27140627841E+03 -0.51260337070E+03  0.59956534154E+03  0.79874864551E+02 0.  0.
          4    1    3    3  502    0  0.11998377173E+03 -0.16672214052E+03  0.25154550595E+03  0.32475763145E+03  0.00000000000E+00 0. -1.
         -4    1    3    3    0  502  0.18743557665E+03 -0.22377868118E+03  0.21278211336E+03  0.36122738173E+03  0.00000000000E+00 0.  1.
         13    1    5    5    0    0 -0.29853615220E+03  0.40722127731E+02 -0.71371210934E+03  0.77470452488E+03  0.00000000000E+00 0.  1.
        -13    1    5    5    0    0 -0.13801499388E+03  0.78372415564E+02 -0.29552929235E+03  0.33545183961E+03  0.00000000000E+00 0. -1.
          5    1    6    6  503    0  0.31306075071E+02  0.56033004066E+02 -0.18184490184E+03  0.19289744997E+03  0.47000000000E+01 0. -1.
         -5    1    6    6    0  503  0.97825722635E+02  0.21537327434E+03 -0.33075846886E+03  0.40666789157E+03  0.47000000000E+01 0.  1.
<mgrwt>
<rscale>  0 0.62914113E+03</rscale>
<asrwt>0</asrwt>
<pdfrwt beam="1">  1        2 0.26563260E+00 0.62914113E+03</pdfrwt>
<pdfrwt beam="2">  1       -2 0.10293766E+00 0.62914113E+03</pdfrwt>
<totfact> 0.76713872E+00</totfact>
</mgrwt>
</event>
<event>
12    1  0.3166324E-008  0.2106052E+04  0.7818608E-02  0.8558582E-01
         -2   -1    0    0    0  501 -0.00000000000E+00  0.00000000000E+00  0.18330048050E+04  0.18330048050E+04  0.00000000000E+00 0.  1.
          2   -1    0    0  501    0  0.00000000000E+00 -0.00000000000E+00 -0.26622227368E+04  0.26622227368E+04  0.00000000000E+00 0. -1.
         23    2    1    2    0    0  0.13598892984E+04  0.15540567692E+04  0.26231198480E+03  0.20836527914E+04  0.91706227341E+02 0.  0.
    5000000    2    1    2    0    0 -0.13598892984E+04 -0.15540567692E+04 -0.10915299166E+04  0.24115747503E+04  0.59988654901E+03 0.  0.
         23    2    4    4    0    0 -0.57683169670E+03 -0.27039445599E+03 -0.34514283403E+03  0.73046499488E+03  0.92776962197E+02 0.  0.
         23    2    4    4    0    0 -0.78305760169E+03 -0.12836623132E+04 -0.74638708261E+03  0.16811097554E+04  0.89823108547E+02 0.  0.
          3    1    3    3  502    0  0.76825412143E+03  0.86649927540E+03  0.10181931285E+03  0.11624984137E+04  0.00000000000E+00 0. -1.
         -3    1    3    3    0  502  0.59163517696E+03  0.68755749380E+03  0.16049267195E+03  0.92115437774E+03  0.00000000000E+00 0.  1.
         11    1    5    5    0    0 -0.12465756492E+03 -0.19504462405E+02 -0.79218578809E+02  0.14898159542E+03  0.00000000000E+00 0. -1.
        -11    1    5    5    0    0 -0.45217413178E+03 -0.25088999358E+03 -0.26592425522E+03  0.58148339946E+03  0.00000000000E+00 0.  1.
          5    1    6    6  503    0 -0.16739355148E+03 -0.26794461390E+03 -0.19794745287E+03  0.37285412871E+03  0.47000000000E+01 0. -1.
         -5    1    6    6    0  503 -0.61566405022E+03 -0.10157176993E+04 -0.54843962974E+03  0.13082556267E+04  0.47000000000E+01 0.  1.
<mgrwt>
<rscale>  0 0.21060516E+04</rscale>
<asrwt>0</asrwt>
<pdfrwt beam="1">  1        2 0.40957273E+00 0.21060516E+04</pdfrwt>
<pdfrwt beam="2">  1       -2 0.28200074E+00 0.21060516E+04</pdfrwt>
<totfact> 0.10051680E-01</totfact>
</mgrwt>
</event>
<event>
12    1  0.3166324E-008  0.1910605E+04  0.7818608E-02  0.8649596E-01
         -1   -1    0    0    0  501 -0.00000000000E+00  0.00000000000E+00  0.16997356286E+04  0.16997356286E+04  0.00000000000E+00 0.  1.
          1   -1    0    0  501    0  0.00000000000E+00 -0.00000000000E+00 -0.22170339503E+04  0.22170339503E+04  0.00000000000E+00 0. -1.
         23    2    1    2    0    0  0.95132074675E+03  0.16371679521E+04 -0.22404033197E+03  0.19088266105E+04  0.89971618018E+02 0.  0.
    5000000    2    1    2    0    0 -0.95132074675E+03 -0.16371679521E+04 -0.29325798971E+03  0.20079429684E+04  0.60042039370E+03 0.  0.
         23    2    4    4    0    0 -0.93356444158E+03 -0.15326193269E+04 -0.38936571857E+03  0.18390588897E+04  0.10033628130E+03 0.  0.
         23    2    4    4    0    0 -0.17756305163E+02 -0.10454862525E+03  0.96107728861E+02  0.16888407868E+03  0.89662896851E+02 0.  0.
          1    1    3    3  502    0  0.49162810570E+03  0.90013767656E+03 -0.15720144515E+03  0.10376214750E+04  0.00000000000E+00 0. -1.
         -1    1    3    3    0  502  0.45969264105E+03  0.73703027558E+03 -0.66838886818E+02  0.87120513551E+03  0.00000000000E+00 0.  1.
         11    1    5    5    0    0 -0.63283596181E+03 -0.10669700494E+04 -0.22387450810E+03  0.12605658397E+04  0.00000000000E+00 0.  1.
        -11    1    5    5    0    0 -0.30072847977E+03 -0.46564927753E+03 -0.16549121047E+03  0.57849305005E+03  0.00000000000E+00 0. -1.
          5    1    6    6  503    0 -0.48882935509E+02 -0.67380034761E+02  0.84712669278E+02  0.11886099783E+03  0.47000000000E+01 0. -1.
         -5    1    6    6    0  503  0.31126630346E+02 -0.37168590485E+02  0.11395059583E+02  0.50023080855E+02  0.47000000000E+01 0.  1.
<mgrwt>
<rscale>  0 0.19106048E+04</rscale>
<asrwt>0</asrwt>
<pdfrwt beam="1">  1        1 0.34108214E+00 0.19106048E+04</pdfrwt>
<pdfrwt beam="2">  1       -1 0.26149779E+00 0.19106048E+04</pdfrwt>
<totfact> 0.11206281E-01</totfact>
</mgrwt>
</event>
<event>
12    1  0.3166324E-008  0.1281597E+04  0.7818608E-02  0.9044288E-01
          1   -1    0    0  501    0  0.00000000000E+00  0.00000000000E+00  0.31626665934E+04  0.31626665934E+04  0.00000000000E+00 0. -1.
         -1   -1    0    0    0  501 -0.00000000000E+00 -0.00000000000E+00 -0.55682519077E+03  0.55682519077E+03  0.00000000000E+00 0.  1.
         23    2    1    2    0    0  0.12100583020E+04 -0.25232275459E+03  0.15616507541E+04  0.19937054590E+04  0.90556683227E+02 0.  0.
    5000000    2    1    2    0    0 -0.12100583020E+04  0.25232275459E+03  0.10441906485E+04  0.17257863251E+04  0.60008038040E+03 0.  0.
         23    2    4    4    0    0 -0.66656066361E+02  0.15488858352E+03  0.29449177315E+03  0.35205194186E+03  0.93710516098E+02 0.  0.
         23    2    4    4    0    0 -0.11434022356E+04  0.97434171076E+02  0.74969887533E+03  0.13737343833E+04  0.90750548151E+02 0.  0.
          4    1    3    3  502    0  0.58817975486E+03 -0.13265313244E+03  0.69067465933E+03  0.91683355229E+03  0.00000000000E+00 0. -1.
         -4    1    3    3    0  502  0.62187854710E+03 -0.11966962215E+03  0.87097609479E+03  0.10768719067E+04  0.00000000000E+00 0.  1.
         11    1    5    5    0    0 -0.70116128077E+02  0.15901804557E+03  0.23481239686E+03  0.29212988883E+03  0.00000000000E+00 0. -1.
        -11    1    5    5    0    0  0.34600617161E+01 -0.41294620508E+01  0.59679376298E+02  0.59922053029E+02  0.00000000000E+00 0.  1.
          5    1    6    6  503    0 -0.87728836317E+03  0.83241705609E+02  0.53013730269E+03  0.10284122245E+04  0.47000000000E+01 0. -1.
         -5    1    6    6    0  503 -0.26611387243E+03  0.14192465468E+02  0.21956157264E+03  0.34532215880E+03  0.47000000000E+01 0.  1.
<mgrwt>
<rscale>  0 0.12815967E+04</rscale>
<asrwt>0</asrwt>
<pdfrwt beam="1">  1        1 0.48656408E+00 0.12815967E+04</pdfrwt>
<pdfrwt beam="2">  1       -1 0.85665416E-01 0.12815967E+04</pdfrwt>
<totfact> 0.60325481E-01</totfact>
</mgrwt>
</event>
<event>
12    1  0.3166324E-008  0.5517697E+03  0.7818608E-02  0.1001085E+00
          3   -1    0    0  501    0  0.00000000000E+00  0.00000000000E+00  0.24803980357E+03  0.24803980357E+03  0.00000000000E+00 0. -1.
         -3   -1    0    0    0  501 -0.00000000000E+00 -0.00000000000E+00 -0.21791030625E+04  0.21791030625E+04  0.00000000000E+00 0.  1.
         23    2    1    2    0    0  0.42015491427E+01  0.44454965446E+03 -0.14942794664E+04  0.15620517297E+04  0.97429124616E+02 0.  0.
    5000000    2    1    2    0    0 -0.42015491427E+01 -0.44454965446E+03 -0.43678379254E+03  0.86509113636E+03  0.59996711950E+03 0.  0.
         23    2    4    4    0    0 -0.18136522947E+03 -0.43830531164E+03 -0.45488181313E+03  0.66509944627E+03  0.10215144070E+03 0.  0.
         23    2    4    4    0    0  0.17716368033E+03 -0.62443428167E+01  0.18098020590E+02  0.19999169009E+03  0.90791939677E+02 0.  0.
          1    1    3    3  502    0 -0.79737951221E+01  0.70879738668E+02 -0.38249915834E+03  0.38909269447E+03  0.00000000000E+00 0. -1.
         -1    1    3    3    0  502  0.12175344265E+02  0.37366991579E+03 -0.11117803080E+04  0.11729590352E+04  0.00000000000E+00 0.  1.
         13    1    5    5    0    0 -0.12266912880E+03 -0.29957838560E+03 -0.24137227538E+03  0.40380131204E+03  0.00000000000E+00 0. -1.
        -13    1    5    5    0    0 -0.58696100676E+02 -0.13872692604E+03 -0.21350953776E+03  0.26129813424E+03  0.00000000000E+00 0.  1.
          5    1    6    6  503    0  0.46283108360E+02  0.19631822682E+02  0.40372286679E+02  0.64649409224E+02  0.47000000000E+01 0. -1.
         -5    1    6    6    0  503  0.13088057197E+03 -0.25876165499E+02 -0.22274266089E+02  0.13534228086E+03  0.47000000000E+01 0.  1.
<mgrwt>
<rscale>  0 0.55176970E+03</rscale>
<asrwt>0</asrwt>
<pdfrwt beam="1">  1        3 0.38159969E-01 0.55176970E+03</pdfrwt>
<pdfrwt beam="2">  1       -3 0.33524663E+00 0.55176970E+03</pdfrwt>
<totfact> 0.45157593E-01</totfact>
</mgrwt>
</event>
<event>
12    1  0.3166324E-008  0.1128587E+04  0.7818608E-02  0.9177768E-01
         -1   -1    0    0    0  501 -0.00000000000E+00  0.00000000000E+00  0.89031806340E+03  0.89031806340E+03  0.00000000000E+00 0.  1.
          1   -1    0    0  501    0  0.00000000000E+00 -0.00000000000E+00 -0.18033395821E+04  0.18033395821E+04  0.00000000000E+00 0. -1.
         23    2    1    2    0    0 -0.13424072548E+03  0.11123911288E+04 -0.87089471757E+03  0.14219664282E+04  0.89979543293E+02 0.  0.
    5000000    2    1    2    0    0  0.13424072548E+03 -0.11123911288E+04 -0.42126801104E+02  0.12716912172E+04  0.59999107401E+03 0.  0.
         23    2    4    4    0    0  0.89881323319E+02 -0.79942609557E+03  0.23252103052E+03  0.84313928928E+03  0.98270529338E+02 0.  0.
         23    2    4    4    0    0  0.44359402160E+02 -0.31296503319E+03 -0.27464783163E+03  0.42855192795E+03  0.91161696855E+02 0.  0.
          2    1    3    3  502    0 -0.14693587901E+03  0.96421354496E+03 -0.75447156815E+03  0.12330958032E+04  0.00000000000E+00 0. -1.
         -2    1    3    3    0  502  0.12695153533E+02  0.14817758380E+03 -0.11642314942E+03  0.18887062499E+03  0.00000000000E+00 0.  1.
         13    1    5    5    0    0  0.40717712551E+02 -0.66311230362E+03  0.17326520213E+03  0.68658334498E+03  0.00000000000E+00 0. -1.
        -13    1    5    5    0    0  0.49163610768E+02 -0.13631379195E+03  0.59255828392E+02  0.15655594431E+03  0.00000000000E+00 0.  1.
          5    1    6    6  503    0 -0.17213707063E+02 -0.37379979293E+02 -0.63969216658E+02  0.76208432884E+02  0.47000000000E+01 0. -1.
         -5    1    6    6    0  503  0.61573109223E+02 -0.27558505390E+03 -0.21067861497E+03  0.35234349507E+03  0.47000000000E+01 0.  1.
<mgrwt>
<rscale>  0 0.11285874E+04</rscale>
<asrwt>0</asrwt>
<pdfrwt beam="1">  1        1 0.27743686E+00 0.11285874E+04</pdfrwt>
<pdfrwt beam="2">  1       -1 0.13697201E+00 0.11285874E+04</pdfrwt>
<totfact> 0.17825323E+00</totfact>
</mgrwt>
</event>
<event>
12    1  0.3166324E-008  0.5857744E+03  0.7818608E-02  0.9935367E-01
         -1   -1    0    0    0  501 -0.00000000000E+00  0.00000000000E+00  0.15930513333E+03  0.15930513333E+03  0.00000000000E+00 0.  1.
          1   -1    0    0  501    0  0.00000000000E+00 -0.00000000000E+00 -0.26561972783E+04  0.26561972783E+04  0.00000000000E+00 0. -1.
         23    2    1    2    0    0 -0.36455110395E+03  0.27802783719E+03 -0.51966656173E+03  0.69898817165E+03  0.91291527962E+02 0.  0.
    5000000    2    1    2    0    0  0.36455110395E+03 -0.27802783719E+03 -0.19772255833E+04  0.21165142400E+04  0.60001211272E+03 0.  0.
         23    2    4    4    0    0 -0.66986702140E+02  0.99938782643E+02 -0.26394665181E+03  0.30737210147E+03  0.10166019488E+03 0.  0.
         23    2    4    4    0    0  0.43153780609E+03 -0.37796661983E+03 -0.17132789314E+04  0.18091421385E+04  0.92665725452E+02 0.  0.
          3    1    3    3  502    0 -0.12221583782E+03  0.11078228367E+03 -0.25125412030E+03  0.30056290250E+03  0.00000000000E+00 0. -1.
         -3    1    3    3    0  502 -0.24233526613E+03  0.16724555352E+03 -0.26841244143E+03  0.39842526915E+03  0.00000000000E+00 0.  1.
         13    1    5    5    0    0 -0.46484110701E+02  0.10036620422E+03 -0.12495968179E+03  0.16688040499E+03  0.00000000000E+00 0. -1.
        -13    1    5    5    0    0 -0.20502591439E+02 -0.42742157601E+00 -0.13898697002E+03  0.14049169648E+03  0.00000000000E+00 0.  1.
          5    1    6    6  503    0  0.40264812656E+03 -0.31379329613E+03 -0.15134974732E+04  0.15972753169E+04  0.47000000000E+01 0. -1.
         -5    1    6    6    0  503  0.28889679527E+02 -0.64173323705E+02 -0.19978145823E+03  0.21186682164E+03  0.47000000000E+01 0.  1.
<mgrwt>
<rscale>  0 0.58577443E+03</rscale>
<asrwt>0</asrwt>
<pdfrwt beam="1">  1        1 0.40864578E+00 0.58577443E+03</pdfrwt>
<pdfrwt beam="2">  1       -1 0.24508479E-01 0.58577443E+03</pdfrwt>
<totfact> 0.16528320E+01</totfact>
</mgrwt>
</event>
<event>
12    1  0.3166324E-008  0.5952448E+03  0.7818608E-02  0.9915321E-01
         -1   -1    0    0    0  501 -0.00000000000E+00  0.00000000000E+00  0.38115005287E+03  0.38115005287E+03  0.00000000000E+00 0.  1.
          1   -1    0    0  501    0  0.00000000000E+00 -0.00000000000E+00 -0.12279143625E+04  0.12279143625E+04  0.00000000000E+00 0. -1.
         23    2    1    2    0    0  0.17240598701E+02  0.46320663099E+03 -0.18372321014E+01  0.47385284245E+03  0.98364219301E+02 0.  0.
    5000000    2    1    2    0    0 -0.17240598701E+02 -0.46320663099E+03 -0.84492707751E+03  0.11352115729E+04  0.59995493805E+03 0.  0.
         23    2    4    4    0    0 -0.26015726051E+03 -0.12604171027E+03 -0.50829203818E+03  0.59195502878E+03  0.92095858218E+02 0.  0.
         23    2    4    4    0    0  0.24291666181E+03 -0.33716492072E+03 -0.33663503933E+03  0.54325654411E+03  0.95476880277E+02 0.  0.
          3    1    3    3  502    0  0.53980163461E+02  0.18238018910E+03 -0.10620162663E+02  0.19049718969E+03  0.00000000000E+00 0. -1.
         -3    1    3    3    0  502 -0.36739564760E+02  0.28082644189E+03  0.87829305612E+01  0.28335565276E+03  0.00000000000E+00 0.  1.
         13    1    5    5    0    0 -0.15420086416E+03 -0.10035929264E+03 -0.24037545744E+03  0.30270489700E+03  0.00000000000E+00 0.  1.
        -13    1    5    5    0    0 -0.10595639635E+03 -0.25682417628E+02 -0.26791658073E+03  0.28925013178E+03  0.00000000000E+00 0. -1.
          5    1    6    6  503    0  0.14330205725E+03 -0.26383507363E+03 -0.26339184145E+03  0.39942681161E+03  0.47000000000E+01 0. -1.
         -5    1    6    6    0  503  0.99614604565E+02 -0.73329847092E+02 -0.73243197876E+02  0.14382973250E+03  0.47000000000E+01 0.  1.
<mgrwt>
<rscale>  0 0.59524477E+03</rscale>
<asrwt>0</asrwt>
<pdfrwt beam="1">  1        1 0.18890990E+00 0.59524477E+03</pdfrwt>
<pdfrwt beam="2">  1       -1 0.58638471E-01 0.59524477E+03</pdfrwt>
<totfact> 0.31546712E+01</totfact>
</mgrwt>
</event>
<event>
12    1  0.3166324E-008  0.4758284E+03  0.7818608E-02  0.1020288E+00
         -2   -1    0    0    0  501 -0.00000000000E+00  0.00000000000E+00  0.27334328441E+03  0.27334328441E+03  0.00000000000E+00 0.  1.
          2   -1    0    0  501    0  0.00000000000E+00 -0.00000000000E+00 -0.10184104894E+04  0.10184104894E+04  0.00000000000E+00 0. -1.
         23    2    1    2    0    0  0.10060173859E+03 -0.30886503224E+03 -0.97792780796E+02  0.35120293673E+03  0.90894206870E+02 0.  0.
    5000000    2    1    2    0    0 -0.10060173859E+03  0.30886503224E+03 -0.64727442417E+03  0.94055083706E+03  0.60012780219E+03 0.  0.
         23    2    4    4    0    0 -0.24125199522E+03  0.38321397182E+03 -0.59010985368E+03  0.74947916202E+03  0.91836275530E+02 0.  0.
         23    2    4    4    0    0  0.14065025663E+03 -0.74348939571E+02 -0.57164570487E+02  0.19107167504E+03  0.89052441735E+02 0.  0.
          3    1    3    3  502    0  0.10812747243E+03 -0.19365072047E+03 -0.67454421820E+02  0.23182374955E+03  0.00000000000E+00 0. -1.
         -3    1    3    3    0  502 -0.75257338342E+01 -0.11521431177E+03 -0.30338358975E+02  0.11937918718E+03  0.00000000000E+00 0.  1.
         13    1    5    5    0    0 -0.23354164879E+03  0.36330763801E+03 -0.51882000093E+03  0.67506172675E+03  0.00000000000E+00 0.  1.
        -13    1    5    5    0    0 -0.77103464320E+01  0.19906333804E+02 -0.71289852749E+02  0.74417435273E+02  0.00000000000E+00 0. -1.
          5    1    6    6  503    0  0.27389786949E+02 -0.25531122090E+02 -0.56139623070E+02  0.67644555603E+02  0.47000000000E+01 0. -1.
         -5    1    6    6    0  503  0.11326046968E+03 -0.48817817481E+02 -0.10249474171E+01  0.12342711944E+03  0.47000000000E+01 0.  1.
<mgrwt>
<rscale>  0 0.47582838E+03</rscale>
<asrwt>0</asrwt>
<pdfrwt beam="1">  1        2 0.15667854E+00 0.47582838E+03</pdfrwt>
<pdfrwt beam="2">  1       -2 0.42052813E-01 0.47582838E+03</pdfrwt>
<totfact> 0.13610388E+02</totfact>
</mgrwt>
</event>
<event>
12    1  0.3166324E-008  0.7837239E+03  0.7818608E-02  0.9583879E-01
          2   -1    0    0  501    0  0.00000000000E+00  0.00000000000E+00  0.15495003984E+04  0.15495003984E+04  0.00000000000E+00 0. -1.
         -2   -1    0    0    0  501 -0.00000000000E+00 -0.00000000000E+00 -0.53419500590E+03  0.53419500590E+03  0.00000000000E+00 0.  1.
         23    2    1    2    0    0 -0.76669232752E+03 -0.15581602150E+03  0.68503562420E+03  0.10438305460E+04  0.90623643435E+02 0.  0.
    5000000    2    1    2    0    0  0.76669232752E+03  0.15581602150E+03  0.33026976829E+03  0.10398648583E+04  0.60012085947E+03 0.  0.
         23    2    4    4    0    0  0.13423346111E+03  0.61698291741E+01  0.34804962743E+03  0.38347468073E+03  0.88643097483E+02 0.  0.
         23    2    4    4    0    0  0.63245886641E+03  0.14964619232E+03 -0.17779859146E+02  0.65639017753E+03  0.90187256246E+02 0.  0.
          3    1    3    3  502    0 -0.32353117720E+03 -0.53388711391E+02  0.23060265716E+03  0.40087449734E+03  0.00000000000E+00 0. -1.
         -3    1    3    3    0  502 -0.44316115032E+03 -0.10242731011E+03  0.45443296704E+03  0.64295604868E+03  0.00000000000E+00 0.  1.
         11    1    5    5    0    0  0.34981430097E+02  0.99346536959E+00  0.21266974051E+03  0.21552982613E+03  0.00000000000E+00 0.  1.
        -11    1    5    5    0    0  0.99252031009E+02  0.51763638045E+01  0.13537988693E+03  0.16794485460E+03  0.00000000000E+00 0. -1.
          5    1    6    6  503    0  0.15341015586E+03  0.27638565715E+02  0.33068214815E+02  0.15941820181E+03  0.47000000000E+01 0. -1.
         -5    1    6    6    0  503  0.47904871055E+03  0.12200762661E+03 -0.50848073962E+02  0.49697197572E+03  0.47000000000E+01 0.  1.
<mgrwt>
<rscale>  0 0.78372394E+03</rscale>
<asrwt>0</asrwt>
<pdfrwt beam="1">  1        2 0.23838467E+00 0.78372394E+03</pdfrwt>
<pdfrwt beam="2">  1       -2 0.82183848E-01 0.78372394E+03</pdfrwt>
<totfact> 0.15806405E+01</totfact>
</mgrwt>
</event>
<event>
12    1  0.3166324E-008  0.5972522E+03  0.7818608E-02  0.9911123E-01
          2   -1    0    0  501    0  0.00000000000E+00  0.00000000000E+00  0.15451417183E+04  0.15451417183E+04  0.00000000000E+00 0. -1.
         -2   -1    0    0    0  501 -0.00000000000E+00 -0.00000000000E+00 -0.24319685755E+03  0.24319685755E+03  0.00000000000E+00 0.  1.
         23    2    1    2    0    0  0.45646926783E+03  0.37734457420E+02  0.56990597580E+03  0.73681074493E+03  0.91154653390E+02 0.  0.
    5000000    2    1    2    0    0 -0.45646926783E+03 -0.37734457420E+02  0.73203888496E+03  0.10515278309E+04  0.60003480595E+03 0.  0.
         23    2    4    4    0    0 -0.47226040076E+03 -0.23593899989E+03  0.51787299150E+03  0.74522181081E+03  0.92010945985E+02 0.  0.
         23    2    4    4    0    0  0.15791132922E+02  0.19820454247E+03  0.21416589346E+03  0.30630602012E+03  0.91771169230E+02 0.  0.
          3    1    3    3  502    0  0.10943664920E+03  0.42226282211E+02  0.11145773786E+03  0.16180935210E+03  0.00000000000E+00 0.  1.
         -3    1    3    3    0  502  0.34703261863E+03 -0.44918247916E+01  0.45844823793E+03  0.57500139282E+03  0.00000000000E+00 0. -1.
         11    1    5    5    0    0 -0.24391044965E+03 -0.13806878425E+03  0.33471121106E+03  0.43656258594E+03  0.00000000000E+00 0. -1.
        -11    1    5    5    0    0 -0.22834995111E+03 -0.97870215648E+02  0.18316178044E+03  0.30865922487E+03  0.00000000000E+00 0.  1.
          5    1    6    6  503    0 -0.58305531963E+01  0.11761769045E+03  0.63147699652E+02  0.13370728637E+03  0.47000000000E+01 0. -1.
         -5    1    6    6    0  503  0.21621686119E+02  0.80586852027E+02  0.15101819381E+03  0.17259873375E+03  0.47000000000E+01 0.  1.
<mgrwt>
<rscale>  0 0.59725218E+03</rscale>
<asrwt>0</asrwt>
<pdfrwt beam="1">  1        2 0.23771410E+00 0.59725218E+03</pdfrwt>
<pdfrwt beam="2">  1       -2 0.37414902E-01 0.59725218E+03</pdfrwt>
<totfact> 0.83609554E+01</totfact>
</mgrwt>
</event>
<event>
12    1  0.3166324E-008  0.4926247E+03  0.7818608E-02  0.1015722E+00
          4   -1    0    0  501    0  0.00000000000E+00  0.00000000000E+00  0.31005591901E+03  0.31005591901E+03  0.00000000000E+00 0. -1.
         -4   -1    0    0    0  501 -0.00000000000E+00 -0.00000000000E+00 -0.17103442968E+04  0.17103442968E+04  0.00000000000E+00 0.  1.
         23    2    1    2    0    0 -0.20784991667E+02 -0.32477665623E+03 -0.12843372064E+04  0.13281226894E+04  0.92064791711E+02 0.  0.
    5000000    2    1    2    0    0  0.20784991667E+02  0.32477665623E+03 -0.11595117133E+03  0.69227752641E+03  0.59990966580E+03 0.  0.
         23    2    4    4    0    0 -0.15392452146E+03 -0.93677400135E+02 -0.10983020460E+03  0.22975122567E+03  0.90855590099E+02 0.  0.
         23    2    4    4    0    0  0.17470951312E+03  0.41845405637E+03 -0.61209667262E+01  0.46252630074E+03  0.90917002666E+02 0.  0.
          4    1    3    3  502    0  0.30071705867E+02 -0.77523250349E+02 -0.39483854355E+03  0.40349924078E+03  0.00000000000E+00 0. -1.
         -4    1    3    3    0  502 -0.50856697534E+02 -0.24725340588E+03 -0.88949866289E+03  0.92462344859E+03  0.00000000000E+00 0.  1.
         11    1    5    5    0    0 -0.58215213717E+02 -0.80561529575E+02 -0.82996796142E+02  0.12948991978E+03  0.00000000000E+00 0.  1.
        -11    1    5    5    0    0 -0.95709307739E+02 -0.13115870560E+02 -0.26833408460E+02  0.10026130589E+03  0.00000000000E+00 0. -1.
          5    1    6    6  503    0  0.69227594250E+02  0.17858595619E+03  0.41809411979E+02  0.19610079164E+03  0.47000000000E+01 0. -1.
         -5    1    6    6    0  503  0.10548191887E+03  0.23986810018E+03 -0.47930378705E+02  0.26642550909E+03  0.47000000000E+01 0.  1.
<mgrwt>
<rscale>  0 0.49262472E+03</rscale>
<asrwt>0</asrwt>
<pdfrwt beam="1">  1        4 0.47700911E-01 0.49262472E+03</pdfrwt>
<pdfrwt beam="2">  1       -4 0.26312989E+00 0.49262472E+03</pdfrwt>
<totfact> 0.45188328E-01</totfact>
</mgrwt>
</event>
<event>
12    1  0.3166324E-008  0.8809234E+03  0.7818608E-02  0.9449747E-01
          2   -1    0    0  501    0  0.00000000000E+00  0.00000000000E+00  0.77667239033E+03  0.77667239033E+03  0.00000000000E+00 0. -1.
         -2   -1    0    0    0  501 -0.00000000000E+00 -0.00000000000E+00 -0.11784385286E+04  0.11784385286E+04  0.00000000000E+00 0.  1.
         23    2    1    2    0    0  0.30186731129E+03 -0.77360125016E+03 -0.41224489194E+03  0.93144738368E+03  0.89808739909E+02 0.  0.
    5000000    2    1    2    0    0 -0.30186731129E+03  0.77360125016E+03  0.10478753699E+02  0.10236635352E+04  0.59849349302E+03 0.  0.
         23    2    4    4    0    0 -0.34733474409E+03  0.32941720621E+03 -0.19278510325E+03  0.52422242114E+03  0.92119110893E+02 0.  0.
         23    2    4    4    0    0  0.45467432803E+02  0.44418404395E+03  0.20326385695E+03  0.49944111408E+03  0.93586743426E+02 0.  0.
          3    1    3    3  502    0  0.21706102271E+03 -0.56782478126E+03 -0.25648868372E+03  0.65979308474E+03  0.00000000000E+00 0. -1.
         -3    1    3    3    0  502  0.84806288582E+02 -0.20577646890E+03 -0.15575620822E+03  0.27165429894E+03  0.00000000000E+00 0.  1.
         11    1    5    5    0    0 -0.15822739139E+03  0.18061958434E+03 -0.13970959559E+03  0.27780949000E+03  0.00000000000E+00 0. -1.
        -11    1    5    5    0    0 -0.18910735270E+03  0.14879762187E+03 -0.53075507652E+02  0.24641293114E+03  0.00000000000E+00 0.  1.
          5    1    6    6  503    0  0.58850600720E+02  0.39677518432E+03  0.15421258712E+03  0.42976453101E+03  0.47000000000E+01 0. -1.
         -5    1    6    6    0  503 -0.13383167917E+02  0.47408859636E+02  0.49051269831E+02  0.69676583064E+02  0.47000000000E+01 0.  1.
<mgrwt>
<rscale>  0 0.88092337E+03</rscale>
<asrwt>0</asrwt>
<pdfrwt beam="1">  1        2 0.11948806E+00 0.88092337E+03</pdfrwt>
<pdfrwt beam="2">  1       -2 0.18129824E+00 0.88092337E+03</pdfrwt>
<totfact> 0.63879917E+00</totfact>
</mgrwt>
</event>
<event>
12    1  0.3166324E-008  0.6280335E+03  0.7818608E-02  0.9848894E-01
         -1   -1    0    0    0  501 -0.00000000000E+00  0.00000000000E+00  0.83405783669E+03  0.83405783669E+03  0.00000000000E+00 0. -1.
          1   -1    0    0  501    0  0.00000000000E+00 -0.00000000000E+00 -0.48840905285E+03  0.48840905285E+03  0.00000000000E+00 0.  1.
         23    2    1    2    0    0  0.41838959431E+03 -0.25454973203E+03  0.82515081281E+02  0.50448571760E+03  0.88609716857E+02 0.  0.
    5000000    2    1    2    0    0 -0.41838959431E+03  0.25454973203E+03  0.26313370255E+03  0.81798117194E+03  0.60000702789E+03 0.  0.
         23    2    4    4    0    0 -0.36530420352E+03  0.42416673000E+03  0.24700021382E+03  0.61714711333E+03  0.80603212812E+02 0.  0.
         23    2    4    4    0    0 -0.53085390791E+02 -0.16961699797E+03  0.16133488738E+02  0.20083405861E+03  0.92119731451E+02 0.  0.
          3    1    3    3  502    0  0.38468461013E+03 -0.20036516264E+03  0.67886466939E+02  0.43901824571E+03  0.00000000000E+00 0. -1.
         -3    1    3    3    0  502  0.33704984182E+02 -0.54184569393E+02  0.14628614342E+02  0.65467471896E+02  0.00000000000E+00 0.  1.
         13    1    5    5    0    0 -0.16931110861E+02  0.55989247632E+02  0.20641723361E+02  0.62028534633E+02  0.00000000000E+00 0.  1.
        -13    1    5    5    0    0 -0.34837309266E+03  0.36817748237E+03  0.22635849046E+03  0.55511857870E+03  0.00000000000E+00 0. -1.
          5    1    6    6  503    0 -0.44875250816E+02 -0.32252521302E+02  0.28923667116E+02  0.62551433121E+02  0.47000000000E+01 0. -1.
         -5    1    6    6    0  503 -0.82101399750E+01 -0.13736447667E+03 -0.12790178378E+02  0.13828262549E+03  0.47000000000E+01 0.  1.
<mgrwt>
<rscale>  0 0.62803346E+03</rscale>
<asrwt>0</asrwt>
<pdfrwt beam="1">  1        1 0.75139854E-01 0.62803346E+03</pdfrwt>
<pdfrwt beam="2">  1       -1 0.12831659E+00 0.62803346E+03</pdfrwt>
<totfact> 0.24924928E+01</totfact>
</mgrwt>
</event>
<event>
12    1  0.3166324E-008  0.3871232E+03  0.7818608E-02  0.1048332E+00
         -2   -1    0    0    0  501 -0.00000000000E+00  0.00000000000E+00  0.66880441698E+02  0.66880441698E+02  0.00000000000E+00 0.  1.
          2   -1    0    0  501    0  0.00000000000E+00 -0.00000000000E+00 -0.30587215524E+04  0.30587215524E+04  0.00000000000E+00 0. -1.
         23    2    1    2    0    0 -0.23025688763E+03  0.42690937460E+02 -0.10512987485E+04  0.10809355796E+04  0.91388830356E+02 0.  0.
    5000000    2    1    2    0    0  0.23025688763E+03 -0.42690937460E+02 -0.19405423623E+04  0.20446664145E+04  0.60009610600E+03 0.  0.
         23    2    4    4    0    0  0.88903499947E+01  0.18353934675E+03 -0.25384580358E+03  0.32605790640E+03  0.90057405042E+02 0.  0.
         23    2    4    4    0    0  0.22136653764E+03 -0.22623028421E+03 -0.16866965587E+04  0.17186085081E+04  0.92122948207E+02 0.  0.
          4    1    3    3  502    0 -0.10784017430E+03 -0.19108571082E+02 -0.57271906908E+03  0.58309670962E+03  0.00000000000E+00 0. -1.
         -4    1    3    3    0  502 -0.12241671333E+03  0.61799508541E+02 -0.47857967937E+03  0.49783886998E+03  0.00000000000E+00 0.  1.
         13    1    5    5    0    0 -0.31036131466E+02  0.52510809699E+02 -0.11964467246E+03  0.13429621826E+03  0.00000000000E+00 0. -1.
        -13    1    5    5    0    0  0.39926481461E+02  0.13102853705E+03 -0.13420113112E+03  0.19176168814E+03  0.00000000000E+00 0.  1.
          5    1    6    6  503    0  0.21103543981E+03 -0.16657607798E+03 -0.13669112293E+04  0.13931087343E+04  0.47000000000E+01 0.  1.
         -5    1    6    6    0  503  0.10331097825E+02 -0.59654206228E+02 -0.31978532936E+03  0.32549977385E+03  0.47000000000E+01 0.  1.
<mgrwt>
<rscale>  0 0.38712324E+03</rscale>
<asrwt>0</asrwt>
<pdfrwt beam="1">  1        2 0.47057256E+00 0.38712324E+03</pdfrwt>
<pdfrwt beam="2">  1       -2 0.10289298E-01 0.38712324E+03</pdfrwt>
<totfact> 0.11801780E+02</totfact>
</mgrwt>
</event>
<event>
12    1  0.3166324E-008  0.6310813E+03  0.7818608E-02  0.9842941E-01
         -1   -1    0    0    0  501 -0.00000000000E+00  0.00000000000E+00  0.24272954093E+03  0.24272954093E+03  0.00000000000E+00 0.  1.
          1   -1    0    0  501    0  0.00000000000E+00 -0.00000000000E+00 -0.22286927096E+04  0.22286927096E+04  0.00000000000E+00 0. -1.
         23    2    1    2    0    0 -0.51199144690E+03  0.32112069830E+03 -0.70679974217E+03  0.93470762971E+03  0.94120842223E+02 0.  0.
    5000000    2    1    2    0    0  0.51199144690E+03 -0.32112069830E+03 -0.12791634265E+04  0.15367146208E+04  0.59998250769E+03 0.  0.
         23    2    4    4    0    0  0.40341984166E+03 -0.12089698856E+03 -0.12066326986E+04  0.12813123488E+04  0.91843428564E+02 0.  0.
         23    2    4    4    0    0  0.10857160523E+03 -0.20022370974E+03 -0.72530727958E+02  0.25540227206E+03  0.89957137971E+02 0.  0.
          1    1    3    3  502    0 -0.30242877433E+03  0.21143278916E+03 -0.49348641921E+03  0.61619463956E+03  0.00000000000E+00 0. -1.
         -1    1    3    3    0  502 -0.20956267257E+03  0.10968790914E+03 -0.21331332295E+03  0.31851299015E+03  0.00000000000E+00 0.  1.
         11    1    5    5    0    0  0.18273660020E+03 -0.94747543915E+02 -0.50541800460E+03  0.54572623311E+03  0.00000000000E+00 0.  1.
        -11    1    5    5    0    0  0.22068324146E+03 -0.26149444650E+02 -0.70121469396E+03  0.73558611565E+03  0.00000000000E+00 0. -1.
          5    1    6    6  503    0  0.18079127638E+02 -0.46499456657E+02  0.20525738749E+02  0.54152103160E+02  0.47000000000E+01 0. -1.
         -5    1    6    6    0  503  0.90492477597E+02 -0.15372425308E+03 -0.93056466706E+02  0.20125016890E+03  0.47000000000E+01 0.  1.
<mgrwt>
<rscale>  0 0.63108126E+03</rscale>
<asrwt>0</asrwt>
<pdfrwt beam="1">  1        1 0.34287582E+00 0.63108126E+03</pdfrwt>
<pdfrwt beam="2">  1       -1 0.37343005E-01 0.63108126E+03</pdfrwt>
<totfact> 0.15337946E+01</totfact>
</mgrwt>
</event>
<event>
12    1  0.3166324E-008  0.7596633E+03  0.7818608E-02  0.9620311E-01
         -2   -1    0    0    0  501 -0.00000000000E+00  0.00000000000E+00  0.40346311854E+03  0.40346311854E+03  0.00000000000E+00 0.  1.
          2   -1    0    0  501    0  0.00000000000E+00 -0.00000000000E+00 -0.26219551893E+04  0.26219551893E+04  0.00000000000E+00 0. -1.
         23    2    1    2    0    0 -0.59305630626E+03 -0.30385171406E+03 -0.44705365587E+02  0.67395354999E+03  0.90405593304E+02 0.  0.
    5000000    2    1    2    0    0  0.59305630626E+03  0.30385171406E+03 -0.21737867052E+04  0.23514647578E+04  0.59999685104E+03 0.  0.
         23    2    4    4    0    0  0.53572506745E+03  0.26514188234E+01 -0.16546103221E+04  0.17415643136E+04  0.91118399020E+02 0.  0.
         23    2    4    4    0    0  0.57331238817E+02  0.30120029524E+03 -0.51917638307E+03  0.60990044420E+03  0.91792953443E+02 0.  0.
          1    1    3    3  502    0 -0.19312162855E+03 -0.84964809575E+02 -0.54579012589E+02  0.21793083971E+03  0.00000000000E+00 0. -1.
         -1    1    3    3    0  502 -0.39993467771E+03 -0.21888690449E+03  0.98736470013E+01  0.45602271029E+03  0.00000000000E+00 0.  1.
         11    1    5    5    0    0  0.87431258902E+02  0.18641133805E+02 -0.19366025470E+03  0.21329793987E+03  0.00000000000E+00 0. -1.
        -11    1    5    5    0    0  0.44829380854E+03 -0.15989714981E+02 -0.14609500674E+04  0.15282663738E+04  0.00000000000E+00 0.  1.
          5    1    6    6  503    0  0.15953817314E+02  0.82704340659E+01 -0.10244686446E+02  0.21212448395E+02  0.47000000000E+01 0. -1.
         -5    1    6    6    0  503  0.41377421503E+02  0.29292986117E+03 -0.50893169662E+03  0.58868799580E+03  0.47000000000E+01 0.  1.
<mgrwt>
<rscale>  0 0.75966325E+03</rscale>
<asrwt>0</asrwt>
<pdfrwt beam="1">  1        2 0.40337772E+00 0.75966325E+03</pdfrwt>
<pdfrwt beam="2">  1       -2 0.62071249E-01 0.75966325E+03</pdfrwt>
<totfact> 0.74821251E+00</totfact>
</mgrwt>
</event>
<event>
12    1  0.3166324E-008  0.5632372E+03  0.7818608E-02  0.9984756E-01
         -1   -1    0    0    0  501 -0.00000000000E+00  0.00000000000E+00  0.40521701148E+03  0.40521701148E+03  0.00000000000E+00 0.  1.
          1   -1    0    0  501    0  0.00000000000E+00 -0.00000000000E+00 -0.89215398350E+03  0.89215398350E+03  0.00000000000E+00 0. -1.
         23    2    1    2    0    0 -0.36786483192E+03  0.18935491956E+03 -0.35797554450E+03  0.55733139321E+03  0.10626368745E+03 0.  0.
    5000000    2    1    2    0    0  0.36786483192E+03 -0.18935491956E+03 -0.12896142752E+03  0.74003960177E+03  0.59987310514E+03 0.  0.
         23    2    4    4    0    0 -0.83613138665E+02  0.10541032137E+03  0.38546702310E+02  0.16720234899E+03  0.91478327705E+02 0.  0.
         23    2    4    4    0    0  0.45147797059E+03 -0.29476524092E+03 -0.16750812983E+03  0.57283725278E+03  0.96771067094E+02 0.  0.
          3    1    3    3  502    0 -0.12772997598E+03  0.34500435393E+02 -0.62606572411E+02  0.14637216168E+03  0.00000000000E+00 0. -1.
         -3    1    3    3    0  502 -0.24013485594E+03  0.15485448416E+03 -0.29536897209E+03  0.41095923153E+03  0.00000000000E+00 0.  1.
         11    1    5    5    0    0 -0.54552186119E+02  0.30545641032E+01  0.24495034631E+02  0.59877191766E+02  0.00000000000E+00 0.  1.
        -11    1    5    5    0    0 -0.29060952546E+02  0.10235575726E+03  0.14051667679E+02  0.10732515722E+03  0.00000000000E+00 0. -1.
          5    1    6    6  503    0  0.24681679864E+03 -0.10503927036E+03 -0.71074938414E+02  0.27753471365E+03  0.47000000000E+01 0. -1.
         -5    1    6    6    0  503  0.20466117195E+03 -0.18972597056E+03 -0.96433191413E+02  0.29530253913E+03  0.47000000000E+01 0.  1.
<mgrwt>
<rscale>  0 0.56323716E+03</rscale>
<asrwt>0</asrwt>
<pdfrwt beam="1">  1        1 0.13725446E+00 0.56323716E+03</pdfrwt>
<pdfrwt beam="2">  1       -1 0.62341079E-01 0.56323716E+03</pdfrwt>
<totfact> 0.50357758E+01</totfact>
</mgrwt>
</event>
<event>
12    1  0.3166324E-008  0.1112605E+04  0.7818608E-02  0.9192993E-01
         -1   -1    0    0    0  501 -0.00000000000E+00  0.00000000000E+00  0.55456656983E+03  0.55456656983E+03  0.00000000000E+00 0.  1.
          1   -1    0    0  501    0  0.00000000000E+00 -0.00000000000E+00 -0.29013482927E+04  0.29013482927E+04  0.00000000000E+00 0. -1.
         23    2    1    2    0    0 -0.10878187138E+04 -0.15728526942E+03 -0.17503561765E+04  0.20689161678E+04  0.92623727546E+02 0.  0.
    5000000    2    1    2    0    0  0.10878187138E+04  0.15728526942E+03 -0.59642554638E+03  0.13869986947E+04  0.59996144603E+03 0.  0.
         23    2    4    4    0    0  0.38335576970E+03  0.12848924355E+03 -0.53047843452E+03  0.67295647983E+03  0.89397552498E+02 0.  0.
         23    2    4    4    0    0  0.70446294408E+03  0.28796025873E+02 -0.65947111867E+02  0.71404221488E+03  0.91706119605E+02 0.  0.
          4    1    3    3  502    0 -0.87382805706E+03 -0.15507093077E+03 -0.14521143897E+04  0.17018397890E+04  0.00000000000E+00 0. -1.
         -4    1    3    3    0  502 -0.21399065672E+03 -0.22143386481E+01 -0.29824178681E+03  0.36707637878E+03  0.00000000000E+00 0.  1.
         11    1    5    5    0    0  0.34930540976E+02 -0.12170330521E+02 -0.33371749988E+02  0.49819005762E+02  0.00000000000E+00 0. -1.
        -11    1    5    5    0    0  0.34842522872E+03  0.14065957407E+03 -0.49710668453E+03  0.62313747407E+03  0.00000000000E+00 0.  1.
          5    1    6    6  503    0  0.27081323394E+03 -0.33295019157E+02 -0.25196641920E+02  0.27405351073E+03  0.47000000000E+01 0. -1.
         -5    1    6    6    0  503  0.43364971014E+03  0.62091045031E+02 -0.40750469947E+02  0.43998870415E+03  0.47000000000E+01 0.  1.
<mgrwt>
<rscale>  0 0.11126048E+04</rscale>
<asrwt>0</asrwt>
<pdfrwt beam="1">  1        1 0.44636129E+00 0.11126048E+04</pdfrwt>
<pdfrwt beam="2">  1       -1 0.85317931E-01 0.11126048E+04</pdfrwt>
<totfact> 0.96534413E-01</totfact>
</mgrwt>
</event>
<event>
12    1  0.3166324E-008  0.4425660E+03  0.7818608E-02  0.1029962E+00
         -3   -1    0    0    0  501 -0.00000000000E+00  0.00000000000E+00  0.21380920849E+03  0.21380920849E+03  0.00000000000E+00 0.  1.
          3   -1    0    0  501    0  0.00000000000E+00 -0.00000000000E+00 -0.12593531598E+04  0.12593531598E+04  0.00000000000E+00 0. -1.
         23    2    1    2    0    0  0.96972876643E+01 -0.31899835651E+03 -0.19640488222E+03  0.38569783381E+03  0.91290483627E+02 0.  0.
    5000000    2    1    2    0    0 -0.96972876643E+01  0.31899835651E+03 -0.84913906913E+03  0.10874645345E+04  0.59973991554E+03 0.  0.
         23    2    4    4    0    0 -0.16972751333E+03 -0.23092428465E+02 -0.51353146876E+02  0.20000633503E+03  0.89580686100E+02 0.  0.
         23    2    4    4    0    0  0.16003022567E+03  0.34209078497E+03 -0.79778592225E+03  0.88745819950E+03  0.92108087696E+02 0.  0.
          3    1    3    3  502    0 -0.35592837652E+02 -0.22072025934E+03 -0.13796775093E+03  0.26271540356E+03  0.00000000000E+00 0. -1.
         -3    1    3    3    0  502  0.45290125317E+02 -0.98278097172E+02 -0.58437131293E+02  0.12298243024E+03  0.00000000000E+00 0.  1.
         13    1    5    5    0    0 -0.14775696238E+03 -0.18363933296E+02 -0.55620407421E+01  0.14899761835E+03  0.00000000000E+00 0.  1.
        -13    1    5    5    0    0 -0.21970550955E+02 -0.47284951690E+01 -0.45791106134E+02  0.51008716674E+02  0.00000000000E+00 0. -1.
          5    1    6    6  503    0  0.11196701028E+03  0.17296704884E+03 -0.51149811199E+03  0.55145862940E+03  0.47000000000E+01 0. -1.
         -5    1    6    6    0  503  0.48063215390E+02  0.16912373614E+03 -0.28628781026E+03  0.33599957009E+03  0.47000000000E+01 0.  1.
<mgrwt>
<rscale>  0 0.44256603E+03</rscale>
<asrwt>0</asrwt>
<pdfrwt beam="1">  1        3 0.19374663E+00 0.44256603E+03</pdfrwt>
<pdfrwt beam="2">  1       -3 0.32893725E-01 0.44256603E+03</pdfrwt>
<totfact> 0.38901212E+00</totfact>
</mgrwt>
</event>
<event>
12    1  0.3166324E-008  0.4713928E+03  0.7818608E-02  0.1021528E+00
         -1   -1    0    0    0  501 -0.00000000000E+00  0.00000000000E+00  0.21598337172E+03  0.21598337172E+03  0.00000000000E+00 0.  1.
          1   -1    0    0  501    0  0.00000000000E+00 -0.00000000000E+00 -0.15500692163E+04  0.15500692163E+04  0.00000000000E+00 0. -1.
         23    2    1    2    0    0  0.13675342294E+03  0.35076672761E+03 -0.76414861142E+03  0.85617277720E+03  0.85848285905E+02 0.  0.
    5000000    2    1    2    0    0 -0.13675342294E+03 -0.35076672761E+03 -0.56993723318E+03  0.90987981083E+03  0.60109402302E+03 0.  0.
         23    2    4    4    0    0  0.95938093690E+02  0.54598967749E+01 -0.43310629694E+03  0.45294969087E+03  0.91369741773E+02 0.  0.
         23    2    4    4    0    0 -0.23269151663E+03 -0.35622662439E+03 -0.13683093624E+03  0.45693011997E+03  0.94971993700E+02 0.  0.
          4    1    3    3  502    0  0.52930729080E+02  0.47124697908E+02 -0.15326428960E+03  0.16885597917E+03  0.00000000000E+00 0. -1.
         -4    1    3    3    0  502  0.83822693859E+02  0.30364202971E+03 -0.61088432182E+03  0.68731679803E+03  0.00000000000E+00 0.  1.
         13    1    5    5    0    0  0.94431167550E+02  0.32856536385E+02 -0.27795476137E+03  0.29539066802E+03  0.00000000000E+00 0. -1.
        -13    1    5    5    0    0  0.15069261391E+01 -0.27396639610E+02 -0.15515153558E+03  0.15755902285E+03  0.00000000000E+00 0.  1.
          5    1    6    6  503    0 -0.30776597750E+02 -0.19179501727E+02  0.92621269543E+01  0.37721734468E+02  0.47000000000E+01 0. -1.
         -5    1    6    6    0  503 -0.20191491888E+03 -0.33704712266E+03 -0.14609306319E+03  0.41920838550E+03  0.47000000000E+01 0.  1.
<mgrwt>
<rscale>  0 0.47139277E+03</rscale>
<asrwt>0</asrwt>
<pdfrwt beam="1">  1        1 0.23847219E+00 0.47139277E+03</pdfrwt>
<pdfrwt beam="2">  1       -1 0.33228211E-01 0.47139277E+03</pdfrwt>
<totfact> 0.54919063E+01</totfact>
</mgrwt>
</event>
<event>
12    1  0.3166324E-008  0.4227655E+03  0.7818608E-02  0.1036170E+00
          2   -1    0    0  501    0  0.00000000000E+00  0.00000000000E+00  0.12525823752E+04  0.12525823752E+04  0.00000000000E+00 0. -1.
         -2   -1    0    0    0  501 -0.00000000000E+00 -0.00000000000E+00 -0.50651343386E+03  0.50651343386E+03  0.00000000000E+00 0.  1.
         23    2    1    2    0    0  0.28942994786E+03 -0.25731779575E+03  0.93872700312E+03  0.10194091749E+04  0.89468076602E+02 0.  0.
    5000000    2    1    2    0    0 -0.28942994786E+03  0.25731779575E+03 -0.19265806176E+03  0.73968663419E+03  0.60003087030E+03 0.  0.
         23    2    4    4    0    0 -0.13946429858E+03 -0.83079316036E+01  0.18381174780E+03  0.24740049937E+03  0.88887210265E+02 0.  0.
         23    2    4    4    0    0 -0.14996564928E+03  0.26562572736E+03 -0.37646980957E+03  0.49228613483E+03  0.87002287507E+02 0.  0.
          2    1    3    3  502    0  0.22341002642E+03 -0.18939462705E+03  0.79539930406E+03  0.84760982626E+03  0.00000000000E+00 0.  1.
         -2    1    3    3    0  502  0.66019921442E+02 -0.67923168707E+02  0.14332769906E+03  0.17179934864E+03  0.00000000000E+00 0. -1.
         11    1    5    5    0    0 -0.57480301027E+02 -0.12218564825E+02  0.14530761596E+03  0.15674049122E+03  0.00000000000E+00 0.  1.
        -11    1    5    5    0    0 -0.81983997556E+02  0.39106332211E+01  0.38504131844E+02  0.90660008143E+02  0.00000000000E+00 0. -1.
          5    1    6    6  503    0 -0.12909002428E+03  0.14342313075E+03 -0.22255863622E+03  0.29459949993E+03  0.47000000000E+01 0. -1.
         -5    1    6    6    0  503 -0.20875625001E+02  0.12220259661E+03 -0.15391117335E+03  0.19768663490E+03  0.47000000000E+01 0.  1.
<mgrwt>
<rscale>  0 0.42276555E+03</rscale>
<asrwt>0</asrwt>
<pdfrwt beam="1">  1        2 0.19270498E+00 0.42276555E+03</pdfrwt>
<pdfrwt beam="2">  1       -2 0.77925144E-01 0.42276555E+03</pdfrwt>
<totfact> 0.27614773E+01</totfact>
</mgrwt>
</event>
<event>
12    1  0.3166324E-008  0.5812860E+03  0.7818608E-02  0.9945011E-01
          1   -1    0    0  501    0  0.00000000000E+00  0.00000000000E+00  0.22710025824E+03  0.22710025824E+03  0.00000000000E+00 0. -1.
         -1   -1    0    0    0  501 -0.00000000000E+00 -0.00000000000E+00 -0.17172393841E+04  0.17172393841E+04  0.00000000000E+00 0.  1.
         23    2    1    2    0    0  0.27916101550E+03 -0.33167894481E+03 -0.27496972134E+03  0.52148225225E+03  0.91616574660E+02 0.  0.
    5000000    2    1    2    0    0 -0.27916101550E+03  0.33167894481E+03 -0.12151694045E+04  0.14228573901E+04  0.59995389478E+03 0.  0.
         23    2    4    4    0    0 -0.38238645326E+03  0.17710466467E+02 -0.57897815692E+03  0.70019981970E+03  0.92363526652E+02 0.  0.
         23    2    4    4    0    0  0.10322543776E+03  0.31396847834E+03 -0.63619124760E+03  0.72265757039E+03  0.90900847819E+02 0.  0.
          4    1    3    3  502    0  0.32493864896E+02 -0.72471866283E+01 -0.78973232289E+01  0.34216088088E+02  0.00000000000E+00 0. -1.
         -4    1    3    3    0  502  0.24666715061E+03 -0.32443175818E+03 -0.26707239811E+03  0.48726616416E+03  0.00000000000E+00 0.  1.
         13    1    5    5    0    0 -0.53599541459E+02 -0.20697814849E+01 -0.34285964225E+02  0.63660994202E+02  0.00000000000E+00 0.  1.
        -13    1    5    5    0    0 -0.32878691180E+03  0.19780247952E+02 -0.54469219270E+03  0.63653882550E+03  0.00000000000E+00 0. -1.
          5    1    6    6  503    0  0.34948854816E+02  0.29069703950E+02 -0.12976804945E+03  0.13758018316E+03  0.47000000000E+01 0. -1.
         -5    1    6    6    0  503  0.68276582944E+02  0.28489877439E+03 -0.50642319815E+03  0.58507738723E+03  0.47000000000E+01 0.  1.
<mgrwt>
<rscale>  0 0.58128596E+03</rscale>
<asrwt>0</asrwt>
<pdfrwt beam="1">  1        1 0.34938502E-01 0.58128596E+03</pdfrwt>
<pdfrwt beam="2">  1       -1 0.26419067E+00 0.58128596E+03</pdfrwt>
<totfact> 0.75566670E+00</totfact>
</mgrwt>
</event>
<event>
12    1  0.3166324E-008  0.1053444E+04  0.7818608E-02  0.9251795E-01
          2   -1    0    0  501    0  0.00000000000E+00  0.00000000000E+00  0.11060272073E+04  0.11060272073E+04  0.00000000000E+00 0. -1.
         -2   -1    0    0    0  501 -0.00000000000E+00 -0.00000000000E+00 -0.14190063670E+04  0.14190063670E+04  0.00000000000E+00 0.  1.
         23    2    1    2    0    0 -0.62628363014E+02 -0.10150292999E+04 -0.74855903350E+03  0.12664158205E+04  0.96237271284E+02 0.  0.
    5000000    2    1    2    0    0  0.62628363014E+02  0.10150292999E+04  0.43557987378E+03  0.12586177538E+04  0.60015167442E+03 0.  0.
         23    2    4    4    0    0 -0.46546640398E+02  0.91011004831E+03  0.53158658692E+03  0.10589653958E+04  0.91414004993E+02 0.  0.
         23    2    4    4    0    0  0.10917500341E+03  0.10491925158E+03 -0.96006713141E+02  0.19965235804E+03  0.87843863648E+02 0.  0.
          2    1    3    3  502    0 -0.49356077837E+02 -0.25359973830E+03 -0.15937154930E+03  0.30355912177E+03  0.00000000000E+00 0. -1.
         -2    1    3    3    0  502 -0.13272285177E+02 -0.76142956159E+03 -0.58918748420E+03  0.96285669877E+03  0.00000000000E+00 0.  1.
         13    1    5    5    0    0 -0.19859707992E+02  0.12729303216E+03  0.43084417330E+02  0.13584620368E+03  0.00000000000E+00 0.  1.
        -13    1    5    5    0    0 -0.26686932406E+02  0.78281701615E+03  0.48850216959E+03  0.92311919211E+03  0.00000000000E+00 0. -1.
          5    1    6    6  503    0  0.71468050187E+02  0.95955996418E+01 -0.35317049731E+02  0.80430974952E+02  0.47000000000E+01 0. -1.
         -5    1    6    6    0  503  0.37706953225E+02  0.95323651943E+02 -0.60689663410E+02  0.11922138309E+03  0.47000000000E+01 0.  1.
<mgrwt>
<rscale>  0 0.10534443E+04</rscale>
<asrwt>0</asrwt>
<pdfrwt beam="1">  1        2 0.17015803E+00 0.10534443E+04</pdfrwt>
<pdfrwt beam="2">  1       -2 0.21830867E+00 0.10534443E+04</pdfrwt>
<totfact> 0.21603160E+00</totfact>
</mgrwt>
</event>
<event>
12    1  0.3166324E-008  0.4078601E+03  0.7818608E-02  0.1041091E+00
          2   -1    0    0  501    0  0.00000000000E+00  0.00000000000E+00  0.95628009611E+03  0.95628009611E+03  0.00000000000E+00 0. -1.
         -2   -1    0    0    0  501 -0.00000000000E+00 -0.00000000000E+00 -0.21683899432E+03  0.21683899432E+03  0.00000000000E+00 0.  1.
         23    2    1    2    0    0  0.14894725771E+03  0.11673161519E+03  0.13415224864E+02  0.21232840247E+03  0.95351070659E+02 0.  0.
    5000000    2    1    2    0    0 -0.14894725771E+03 -0.11673161519E+03  0.72602587692E+03  0.96079068796E+03  0.60016132543E+03 0.  0.
         23    2    4    4    0    0  0.21216494686E+03 -0.65920364046E+02  0.38389742861E+03  0.45266801529E+03  0.90397108898E+02 0.  0.
         23    2    4    4    0    0 -0.36111220457E+03 -0.50811251140E+02  0.34212844831E+03  0.50812267267E+03  0.90293786107E+02 0.  0.
          1    1    3    3  502    0  0.57351486445E+02  0.10438905113E+03  0.12923870199E+01  0.11911312798E+03  0.00000000000E+00 0. -1.
         -1    1    3    3    0  502  0.91595771261E+02  0.12342564053E+02  0.12122837844E+02  0.93215274487E+02  0.00000000000E+00 0.  1.
         11    1    5    5    0    0  0.13226540511E+03 -0.76708560251E+02  0.29752248685E+03  0.33451154059E+03  0.00000000000E+00 0.  1.
        -11    1    5    5    0    0  0.79899541750E+02  0.10788196205E+02  0.86374941765E+02  0.11815647470E+03  0.00000000000E+00 0. -1.
          5    1    6    6  503    0 -0.88273095330E+02  0.15739323201E+02  0.49590380300E+02  0.10257271310E+03  0.47000000000E+01 0. -1.
         -5    1    6    6    0  503 -0.27283910924E+03 -0.66550574341E+02  0.29253806801E+03  0.40554995957E+03  0.47000000000E+01 0.  1.
<mgrwt>
<rscale>  0 0.40786005E+03</rscale>
<asrwt>0</asrwt>
<pdfrwt beam="1">  1        2 0.14712001E+00 0.40786005E+03</pdfrwt>
<pdfrwt beam="2">  1       -2 0.33359846E-01 0.40786005E+03</pdfrwt>
<totfact> 0.23346548E+02</totfact>
</mgrwt>
</event>
<event>
12    1  0.3166324E-008  0.1010607E+04  0.7818608E-02  0.9296987E-01
         -1   -1    0    0    0  501 -0.00000000000E+00  0.00000000000E+00  0.96656892348E+03  0.96656892348E+03  0.00000000000E+00 0.  1.
          1   -1    0    0  501    0  0.00000000000E+00 -0.00000000000E+00 -0.15222462464E+04  0.15222462464E+04  0.00000000000E+00 0. -1.
         23    2    1    2    0    0 -0.90480737344E+01  0.99746920964E+03  0.29820201705E+03  0.10451779215E+04  0.91900776319E+02 0.  0.
    5000000    2    1    2    0    0  0.90480737344E+01 -0.99746920964E+03 -0.85387934003E+03  0.14436372485E+04  0.59995990368E+03 0.  0.
         23    2    4    4    0    0  0.86204180860E+02 -0.60317465142E+03 -0.82603606118E+03  0.10304792804E+04  0.91110657737E+02 0.  0.
         23    2    4    4    0    0 -0.77156107125E+02 -0.39429455822E+03 -0.27843278848E+02  0.41315796812E+03  0.92211685444E+02 0.  0.
          2    1    3    3  502    0 -0.24111976827E+02  0.72246949360E+03  0.17669618163E+03  0.74415394726E+03  0.00000000000E+00 0. -1.
         -2    1    3    3    0  502  0.15063903092E+02  0.27499971604E+03  0.12150583542E+03  0.30102397420E+03  0.00000000000E+00 0.  1.
         11    1    5    5    0    0  0.64340256393E+02 -0.23221592644E+03 -0.37961658896E+03  0.44963614145E+03  0.00000000000E+00 0. -1.
        -11    1    5    5    0    0  0.21863924466E+02 -0.37095872498E+03 -0.44641947222E+03  0.58084313890E+03  0.00000000000E+00 0.  1.
          5    1    6    6  503    0 -0.50747479254E+02 -0.79531302930E+02 -0.22987596057E+02  0.97216533414E+02  0.47000000000E+01 0. -1.
         -5    1    6    6    0  503 -0.26408627871E+02 -0.31476325529E+03 -0.48556827911E+01  0.31594143471E+03  0.47000000000E+01 0.  1.
<mgrwt>
<rscale>  0 0.10106073E+04</rscale>
<asrwt>0</asrwt>
<pdfrwt beam="1">  1        1 0.23419173E+00 0.10106073E+04</pdfrwt>
<pdfrwt beam="2">  1       -1 0.14870291E+00 0.10106073E+04</pdfrwt>
<totfact> 0.22645601E+00</totfact>
</mgrwt>
</event>
<event>
12    1  0.3166324E-008  0.3525393E+03  0.7818608E-02  0.1061578E+00
          2   -1    0    0  501    0  0.00000000000E+00  0.00000000000E+00  0.13309820449E+04  0.13309820449E+04  0.00000000000E+00 0. -1.
         -2   -1    0    0    0  501 -0.00000000000E+00 -0.00000000000E+00 -0.14948779951E+03  0.14948779951E+03  0.00000000000E+00 0.  1.
         23    2    1    2    0    0  0.17037270294E+03 -0.36511667261E+02  0.58378561074E+03  0.61581740122E+03  0.89807976215E+02 0.  0.
    5000000    2    1    2    0    0 -0.17037270294E+03  0.36511667261E+02  0.59770863461E+03  0.86465244314E+03  0.60000689645E+03 0.  0.
         23    2    4    4    0    0  0.13381463734E+03  0.98601211656E+02  0.48488658912E+03  0.51948271186E+03  0.84372551838E+02 0.  0.
         23    2    4    4    0    0 -0.30418734027E+03 -0.62089544396E+02  0.11282204549E+03  0.34516973128E+03  0.10014129986E+03 0.  0.
          1    1    3    3  502    0  0.10193969659E+03 -0.64125401068E+02  0.40111743559E+03  0.41880659730E+03  0.00000000000E+00 0. -1.
         -1    1    3    3    0  502  0.68433006348E+02  0.27613733808E+02  0.18266817515E+03  0.19701080393E+03  0.00000000000E+00 0.  1.
         13    1    5    5    0    0  0.26277373069E+02  0.70368789122E+02  0.18682165681E+03  0.20135689278E+03  0.00000000000E+00 0.  1.
        -13    1    5    5    0    0  0.10753726427E+03  0.28232422534E+02  0.29806493231E+03  0.31812581907E+03  0.00000000000E+00 0. -1.
          5    1    6    6  503    0 -0.18410418303E+03 -0.83972154671E+02  0.53392493209E+02  0.20932873979E+03  0.47000000000E+01 0. -1.
         -5    1    6    6    0  503 -0.12008315724E+03  0.21882610275E+02  0.59429552278E+02  0.13584099149E+03  0.47000000000E+01 0.  1.
<mgrwt>
<rscale>  0 0.35253926E+03</rscale>
<asrwt>0</asrwt>
<pdfrwt beam="1">  1        2 0.20476646E+00 0.35253926E+03</pdfrwt>
<pdfrwt beam="2">  1       -2 0.22998124E-01 0.35253926E+03</pdfrwt>
<totfact> 0.27678087E+02</totfact>
</mgrwt>
</event>
<event>
12    1  0.3166324E-008  0.5899551E+03  0.7818608E-02  0.9926468E-01
          2   -1    0    0  501    0  0.00000000000E+00  0.00000000000E+00  0.10538127613E+04  0.10538127613E+04  0.00000000000E+00 0. -1.
         -2   -1    0    0    0  501 -0.00000000000E+00 -0.00000000000E+00 -0.76838913002E+03  0.76838913002E+03  0.00000000000E+00 0.  1.
         23    2    1    2    0    0 -0.47066249726E+03 -0.27077834772E+03  0.71790746341E+03  0.90464780384E+03  0.90290769428E+02 0.  0.
    5000000    2    1    2    0    0  0.47066249726E+03  0.27077834772E+03 -0.43248383214E+03  0.91755408748E+03  0.60001594850E+03 0.  0.
         23    2    4    4    0    0  0.49019084237E+03  0.21017740911E+03 -0.53850226106E+03  0.76334153038E+03  0.90796484553E+02 0.  0.
         23    2    4    4    0    0 -0.19528345108E+02  0.60600938617E+02  0.10601842891E+03  0.15421255709E+03  0.92129123905E+02 0.  0.
          3    1    3    3  502    0 -0.18551281987E+03 -0.14188479757E+03  0.36123744028E+03  0.43016135388E+03  0.00000000000E+00 0. -1.
         -3    1    3    3    0  502 -0.28514967739E+03 -0.12889355015E+03  0.35667002313E+03  0.47448644995E+03  0.00000000000E+00 0.  1.
         13    1    5    5    0    0  0.98998290469E+02  0.47115841886E+02 -0.63292244048E+02  0.12659570383E+03  0.00000000000E+00 0. -1.
        -13    1    5    5    0    0  0.39119255190E+03  0.16306156722E+03 -0.47521001701E+03  0.63674582655E+03  0.00000000000E+00 0.  1.
          5    1    6    6  503    0 -0.43323780785E+02  0.61882370505E+02  0.43859061879E+02  0.87476197161E+02  0.47000000000E+01 0. -1.
         -5    1    6    6    0  503  0.23795435677E+02 -0.12814318874E+01  0.62159367033E+02  0.66736359930E+02  0.47000000000E+01 0.  1.
<mgrwt>
<rscale>  0 0.58995510E+03</rscale>
<asrwt>0</asrwt>
<pdfrwt beam="1">  1        2 0.16212504E+00 0.58995510E+03</pdfrwt>
<pdfrwt beam="2">  1       -2 0.11821371E+00 0.58995510E+03</pdfrwt>
<totfact> 0.13330398E+01</totfact>
</mgrwt>
</event>
<event>
12    1  0.3166324E-008  0.9050987E+03  0.7818608E-02  0.9419230E-01
         -2   -1    0    0    0  501 -0.00000000000E+00  0.00000000000E+00  0.88540178523E+03  0.88540178523E+03  0.00000000000E+00 0.  1.
          2   -1    0    0  501    0  0.00000000000E+00 -0.00000000000E+00 -0.10319896430E+04  0.10319896430E+04  0.00000000000E+00 0. -1.
         23    2    1    2    0    0 -0.10304567302E+03 -0.84479250050E+03  0.52926961721E+02  0.85704527853E+03  0.86212334062E+02 0.  0.
    5000000    2    1    2    0    0  0.10304567302E+03  0.84479250050E+03 -0.19951481951E+03  0.10603461497E+04  0.60019581338E+03 0.  0.
         23    2    4    4    0    0  0.20271020017E+03  0.77619617009E+03  0.53419813040E+01  0.80743777637E+03  0.91407364253E+02 0.  0.
         23    2    4    4    0    0 -0.99664527150E+02  0.68596330412E+02 -0.20485680082E+03  0.25290837335E+03  0.85777980564E+02 0.  0.
          2    1    3    3  502    0  0.42704608326E+01 -0.30596650238E+03  0.17646589927E+02  0.30650471375E+03  0.00000000000E+00 0.  1.
         -2    1    3    3    0  502 -0.10731613386E+03 -0.53882599812E+03  0.35280371794E+02  0.55054056478E+03  0.00000000000E+00 0. -1.
         11    1    5    5    0    0  0.53972713021E+02  0.90518891310E+02  0.93498418693E+01  0.10580237700E+03  0.00000000000E+00 0.  1.
        -11    1    5    5    0    0  0.14873748715E+03  0.68567727878E+03 -0.40078605653E+01  0.70163539938E+03  0.00000000000E+00 0. -1.
          5    1    6    6  503    0  0.37439318811E+01  0.39914732743E+02 -0.65831196718E+02  0.77220718575E+02  0.47000000000E+01 0. -1.
         -5    1    6    6    0  503 -0.10340845903E+03  0.28681597669E+02 -0.13902560410E+03  0.17568765477E+03  0.47000000000E+01 0.  1.
<mgrwt>
<rscale>  0 0.90509870E+03</rscale>
<asrwt>0</asrwt>
<pdfrwt beam="1">  1        2 0.15876764E+00 0.90509870E+03</pdfrwt>
<pdfrwt beam="2">  1       -2 0.13621566E+00 0.90509870E+03</pdfrwt>
<totfact> 0.92717275E+00</totfact>
</mgrwt>
</event>
<event>
12    1  0.3166324E-008  0.1114163E+04  0.7818608E-02  0.9191496E-01
          1   -1    0    0  501    0  0.00000000000E+00  0.00000000000E+00  0.14734435026E+04  0.14734435026E+04  0.00000000000E+00 0. -1.
         -1   -1    0    0    0  501 -0.00000000000E+00 -0.00000000000E+00 -0.10028244029E+04  0.10028244029E+04  0.00000000000E+00 0.  1.
         23    2    1    2    0    0 -0.65013338133E+03  0.88841932329E+03 -0.78788210339E+02  0.11074685831E+04  0.91196343080E+02 0.  0.
    5000000    2    1    2    0    0  0.65013338133E+03 -0.88841932329E+03  0.54940731005E+03  0.13687993223E+04  0.59983404776E+03 0.  0.
         23    2    4    4    0    0  0.48969644618E+03 -0.79236394665E+03  0.64908163884E+03  0.11389238441E+04  0.90539027699E+02 0.  0.
         23    2    4    4    0    0  0.16043693515E+03 -0.96055376640E+02 -0.99674328791E+02  0.22987547814E+03  0.89112951306E+02 0.  0.
          2    1    3    3  502    0 -0.39570500869E+03  0.48699177645E+03 -0.12604647743E+02  0.62761638074E+03  0.00000000000E+00 0. -1.
         -2    1    3    3    0  502 -0.25442837264E+03  0.40142754684E+03 -0.66183562596E+02  0.47985220238E+03  0.00000000000E+00 0.  1.
         11    1    5    5    0    0  0.30575192682E+03 -0.48430855067E+03  0.45160973451E+03  0.72937669645E+03  0.00000000000E+00 0.  1.
        -11    1    5    5    0    0  0.18394451936E+03 -0.30805539598E+03  0.19747190432E+03  0.40954714770E+03  0.00000000000E+00 0. -1.
          5    1    6    6  503    0  0.76958378866E+02 -0.75535860008E+02 -0.14739406360E+02  0.10893850708E+03  0.47000000000E+01 0. -1.
         -5    1    6    6    0  503  0.83478556281E+02 -0.20519516632E+02 -0.84934922431E+02  0.12093697106E+03  0.47000000000E+01 0.  1.
<mgrwt>
<rscale>  0 0.11141631E+04</rscale>
<asrwt>0</asrwt>
<pdfrwt beam="1">  1        1 0.22668361E+00 0.11141631E+04</pdfrwt>
<pdfrwt beam="2">  1       -1 0.15428068E+00 0.11141631E+04</pdfrwt>
<totfact> 0.21857010E+00</totfact>
</mgrwt>
</event>
<event>
12    1  0.3166324E-008  0.9734598E+03  0.7818608E-02  0.9338142E-01
          2   -1    0    0  501    0  0.00000000000E+00  0.00000000000E+00  0.18004964017E+04  0.18004964017E+04  0.00000000000E+00 0. -1.
         -2   -1    0    0    0  501 -0.00000000000E+00 -0.00000000000E+00 -0.64070158657E+03  0.64070158657E+03  0.00000000000E+00 0.  1.
         23    2    1    2    0    0  0.18612475950E+03 -0.88850405936E+03  0.92470964138E+02  0.91700105658E+03  0.90874468097E+02 0.  0.
    5000000    2    1    2    0    0 -0.18612475950E+03  0.88850405936E+03  0.10673238510E+04  0.15241969317E+04  0.59992849078E+03 0.  0.
         23    2    4    4    0    0 -0.12561698932E+03 -0.14970497453E+02  0.28027449145E+03  0.32117036287E+03  0.92697721806E+02 0.  0.
         23    2    4    4    0    0 -0.60507770183E+02  0.90347455682E+03  0.78704935950E+03  0.12030265688E+04  0.88875001248E+02 0.  0.
          4    1    3    3  502    0  0.14461456284E+03 -0.53772975602E+03  0.88027042800E+02  0.56375120626E+03  0.00000000000E+00 0. -1.
         -4    1    3    3    0  502  0.41510196658E+02 -0.35077430335E+03  0.44439213381E+01  0.35324985032E+03  0.00000000000E+00 0.  1.
         13    1    5    5    0    0 -0.61566857322E+02  0.10073167920E+02  0.22333907409E+03  0.23188852634E+03  0.00000000000E+00 0. -1.
        -13    1    5    5    0    0 -0.64050131996E+02 -0.25043665373E+02  0.56935417362E+02  0.89281836530E+02  0.00000000000E+00 0.  1.
          5    1    6    6  503    0 -0.52359673114E+02  0.67884905952E+03  0.63950908523E+03  0.93411537889E+03  0.47000000000E+01 0. -1.
         -5    1    6    6    0  503 -0.81480970691E+01  0.22462549729E+03  0.14754027427E+03  0.26891118990E+03  0.47000000000E+01 0.  1.
<mgrwt>
<rscale>  0 0.97345984E+03</rscale>
<asrwt>0</asrwt>
<pdfrwt beam="1">  1        2 0.27699944E+00 0.97345984E+03</pdfrwt>
<pdfrwt beam="2">  1       -2 0.98569476E-01 0.97345984E+03</pdfrwt>
<totfact> 0.73789808E+00</totfact>
</mgrwt>
</event>
<event>
12    1  0.3166324E-008  0.5422774E+03  0.7818608E-02  0.1003297E+00
         -2   -1    0    0    0  501 -0.00000000000E+00  0.00000000000E+00  0.31144626480E+03  0.31144626480E+03  0.00000000000E+00 0. -1.
          2   -1    0    0  501    0  0.00000000000E+00 -0.00000000000E+00 -0.17802370411E+04  0.17802370411E+04  0.00000000000E+00 0.  1.
         23    2    1    2    0    0  0.44204706136E+03  0.17963561169E+03 -0.11730058831E+04  0.12698480760E+04  0.94322726633E+02 0.  0.
    5000000    2    1    2    0    0 -0.44204706136E+03 -0.17963561169E+03 -0.29578489322E+03  0.82183522998E+03  0.60020820115E+03 0.  0.
         23    2    4    4    0    0 -0.15452602698E+03 -0.25183630391E+03 -0.39021709278E+03  0.49786210411E+03  0.91090494721E+02 0.  0.
         23    2    4    4    0    0 -0.28752103437E+03  0.72200692223E+02  0.94432199558E+02  0.32397312587E+03  0.90331947867E+02 0.  0.
          2    1    3    3  502    0  0.14907881982E+03  0.10799839092E+03 -0.41198373392E+03  0.45124133673E+03  0.00000000000E+00 0. -1.
         -2    1    3    3    0  502  0.29296824153E+03  0.71637220772E+02 -0.76102214920E+03  0.81860673924E+03  0.00000000000E+00 0.  1.
         13    1    5    5    0    0 -0.87911738704E+02 -0.12946016697E+03 -0.13317138958E+03  0.20548242659E+03  0.00000000000E+00 0. -1.
        -13    1    5    5    0    0 -0.66614288279E+02 -0.12237613695E+03 -0.25704570320E+03  0.29237967752E+03  0.00000000000E+00 0.  1.
          5    1    6    6  503    0 -0.16201546285E+03  0.87066746497E+01  0.16628325993E+02  0.16316680916E+03  0.47000000000E+01 0. -1.
         -5    1    6    6    0  503 -0.12550557152E+03  0.63494017574E+02  0.77803873565E+02  0.16080631671E+03  0.47000000000E+01 0.  1.
<mgrwt>
<rscale>  0 0.54227743E+03</rscale>
<asrwt>0</asrwt>
<pdfrwt beam="1">  1        2 0.27388262E+00 0.54227743E+03</pdfrwt>
<pdfrwt beam="2">  1       -2 0.47914811E-01 0.54227743E+03</pdfrwt>
<totfact> 0.38632096E+01</totfact>
</mgrwt>
</event>
<event>
12    1  0.3166324E-008  0.1173826E+04  0.7818608E-02  0.9136080E-01
          2   -1    0    0  501    0  0.00000000000E+00  0.00000000000E+00  0.15313473556E+04  0.15313473556E+04  0.00000000000E+00 0.  1.
         -2   -1    0    0    0  501 -0.00000000000E+00 -0.00000000000E+00 -0.99905258817E+03  0.99905258817E+03  0.00000000000E+00 0. -1.
         23    2    1    2    0    0  0.57004298580E+03  0.10096479692E+04  0.34061707795E+03  0.12109437432E+04  0.77632004351E+02 0.  0.
    5000000    2    1    2    0    0 -0.57004298580E+03 -0.10096479692E+04  0.19167768948E+03  0.13194562006E+04  0.59990524364E+03 0.  0.
         23    2    4    4    0    0 -0.26687773428E+02 -0.35382970856E+02  0.17318131182E+03  0.19930754679E+03  0.88133646061E+02 0.  0.
         23    2    4    4    0    0 -0.54335521238E+03 -0.97426499829E+03  0.18496377669E+02  0.11201486538E+04  0.99818419617E+02 0.  0.
          2    1    3    3  502    0  0.61833319082E+02  0.16115013150E+03  0.61901394407E+02  0.18336986356E+03  0.00000000000E+00 0. -1.
         -2    1    3    3    0  502  0.50820966672E+03  0.84849783765E+03  0.27871568354E+03  0.10275738796E+04  0.00000000000E+00 0.  1.
         13    1    5    5    0    0  0.14677110949E+02  0.15103573827E+01  0.12499573345E+03  0.12586354573E+03  0.00000000000E+00 0. -1.
        -13    1    5    5    0    0 -0.41364884378E+02 -0.36893328239E+02  0.48185578370E+02  0.73444001055E+02  0.00000000000E+00 0.  1.
          5    1    6    6  503    0 -0.49149178299E+03 -0.89184438688E+03  0.44353860457E+02  0.10192840321E+04  0.47000000000E+01 0. -1.
         -5    1    6    6    0  503 -0.51863429384E+02 -0.82420611411E+02 -0.25857482789E+02  0.10086462169E+03  0.47000000000E+01 0.  1.
<mgrwt>
<rscale>  0 0.11738264E+04</rscale>
<asrwt>0</asrwt>
<pdfrwt beam="1">  1        2 0.23559190E+00 0.11738264E+04</pdfrwt>
<pdfrwt beam="2">  1       -2 0.15370040E+00 0.11738264E+04</pdfrwt>
<totfact> 0.33339315E+00</totfact>
</mgrwt>
</event>
<event>
12    1  0.3166324E-008  0.6457506E+03  0.7818608E-02  0.9814786E-01
         -2   -1    0    0    0  501 -0.00000000000E+00  0.00000000000E+00  0.36863401126E+03  0.36863401126E+03  0.00000000000E+00 0.  1.
          2   -1    0    0  501    0  0.00000000000E+00 -0.00000000000E+00 -0.14261255319E+04  0.14261255319E+04  0.00000000000E+00 0. -1.
         23    2    1    2    0    0  0.28771592985E+03  0.52231482344E+03 -0.40933911773E+03  0.72900992729E+03  0.91124802980E+02 0.  0.
    5000000    2    1    2    0    0 -0.28771592985E+03 -0.52231482344E+03 -0.64815240294E+03  0.10657496159E+04  0.60010621998E+03 0.  0.
         23    2    4    4    0    0  0.39907591688E+01  0.24469148020E+02 -0.36877848638E+03  0.38016337290E+03  0.88949158020E+02 0.  0.
         23    2    4    4    0    0 -0.29170668902E+03 -0.54678397146E+03 -0.27937391656E+03  0.68558624299E+03  0.88956210903E+02 0.  0.
          1    1    3    3  502    0  0.16091371306E+03  0.19955788455E+03 -0.16698357491E+03  0.30594131239E+03  0.00000000000E+00 0. -1.
         -1    1    3    3    0  502  0.12680221679E+03  0.32275693889E+03 -0.24235554282E+03  0.42306861491E+03  0.00000000000E+00 0.  1.
         11    1    5    5    0    0  0.20333764802E+01  0.44920999855E+02 -0.89800482883E+02  0.10042986395E+03  0.00000000000E+00 0. -1.
        -11    1    5    5    0    0  0.19573826886E+01 -0.20451851835E+02 -0.27897800350E+03  0.27973350895E+03  0.00000000000E+00 0.  1.
          5    1    6    6  503    0 -0.93522618276E+02 -0.11937861408E+03 -0.38934907228E+02  0.15663891799E+03  0.47000000000E+01 0. -1.
         -5    1    6    6    0  503 -0.19818407074E+03 -0.42740535738E+03 -0.24043900933E+03  0.52894732499E+03  0.47000000000E+01 0.  1.
<mgrwt>
<rscale>  0 0.64575059E+03</rscale>
<asrwt>0</asrwt>
<pdfrwt beam="1">  1        2 0.21940393E+00 0.64575059E+03</pdfrwt>
<pdfrwt beam="2">  1       -2 0.56712924E-01 0.64575059E+03</pdfrwt>
<totfact> 0.42135531E+01</totfact>
</mgrwt>
</event>
<event>
12    1  0.3166324E-008  0.1276286E+04  0.7818608E-02  0.9048585E-01
          1   -1    0    0  501    0  0.00000000000E+00  0.00000000000E+00  0.14522176416E+04  0.14522176416E+04  0.00000000000E+00 0. -1.
         -1   -1    0    0    0  501 -0.00000000000E+00 -0.00000000000E+00 -0.13693304858E+04  0.13693304858E+04  0.00000000000E+00 0.  1.
         23    2    1    2    0    0  0.10304927363E+04 -0.63178314669E+03  0.62883345867E+03  0.13653934559E+04  0.88332025484E+02 0.  0.
    5000000    2    1    2    0    0 -0.10304927363E+04  0.63178314669E+03 -0.54594630290E+03  0.14561546716E+04  0.60105227549E+03 0.  0.
         23    2    4    4    0    0 -0.30641994162E+03  0.52057075153E+03 -0.22554520470E+03  0.65131769853E+03  0.91962041547E+02 0.  0.
         23    2    4    4    0    0 -0.72407279466E+03  0.11121239516E+03 -0.32040109820E+03  0.80483697302E+03  0.91956949780E+02 0.  0.
          4    1    3    3  502    0  0.74842768310E+03 -0.44743437775E+03  0.40958897177E+03  0.96338187912E+03  0.00000000000E+00 0.  1.
         -4    1    3    3    0  502  0.28206505319E+03 -0.18434876894E+03  0.21924448690E+03  0.40201157679E+03  0.00000000000E+00 0. -1.
         13    1    5    5    0    0 -0.87327536212E+02  0.77673748538E+02 -0.45278522772E+02  0.12533736242E+03  0.00000000000E+00 0. -1.
        -13    1    5    5    0    0 -0.21909240541E+03  0.44289700299E+03 -0.18026668193E+03  0.52598033611E+03  0.00000000000E+00 0.  1.
          5    1    6    6  503    0 -0.39032665788E+03  0.58000150244E+02 -0.12273150483E+03  0.41328444147E+03  0.47000000000E+01 0. -1.
         -5    1    6    6    0  503 -0.33374613678E+03  0.53212244916E+02 -0.19766959338E+03  0.39155253156E+03  0.47000000000E+01 0.  1.
<mgrwt>
<rscale>  0 0.12762863E+04</rscale>
<asrwt>0</asrwt>
<pdfrwt beam="1">  1        1 0.22341810E+00 0.12762863E+04</pdfrwt>
<pdfrwt beam="2">  1       -1 0.21066623E+00 0.12762863E+04</pdfrwt>
<totfact> 0.87223159E-01</totfact>
</mgrwt>
</event>
<event>
12    1  0.3166324E-008  0.4056957E+03  0.7818608E-02  0.1041825E+00
          1   -1    0    0  501    0  0.00000000000E+00  0.00000000000E+00  0.48916677628E+03  0.48916677628E+03  0.00000000000E+00 0. -1.
         -1   -1    0    0    0  501 -0.00000000000E+00 -0.00000000000E+00 -0.12997654025E+04  0.12997654025E+04  0.00000000000E+00 0.  1.
         23    2    1    2    0    0 -0.74258879747E+02  0.22902102595E+03 -0.10640080250E+04  0.10946282724E+04  0.90182958242E+02 0.  0.
    5000000    2    1    2    0    0  0.74258879747E+02 -0.22902102595E+03  0.25340939881E+03  0.69430390634E+03  0.59989714068E+03 0.  0.
         23    2    4    4    0    0  0.67700975161E+02 -0.38660089254E+03  0.26299856356E+02  0.40358613367E+03  0.90257480006E+02 0.  0.
         23    2    4    4    0    0  0.65579045857E+01  0.15757986659E+03  0.22710954246E+03  0.29071777267E+03  0.89797876379E+02 0.  0.
          4    1    3    3  502    0 -0.61528019963E+02  0.10411170145E+03 -0.36728320807E+03  0.38668061569E+03  0.00000000000E+00 0. -1.
         -4    1    3    3    0  502 -0.12730859784E+02  0.12490932450E+03 -0.69672481692E+03  0.70794765672E+03  0.00000000000E+00 0.  1.
         11    1    5    5    0    0  0.34857783453E+02 -0.14371705662E+03 -0.32776376578E+02  0.15147259914E+03  0.00000000000E+00 0.  1.
        -11    1    5    5    0    0  0.32843191708E+02 -0.24288383592E+03  0.59076232934E+02  0.25211353452E+03  0.00000000000E+00 0. -1.
          5    1    6    6  503    0 -0.24255341137E+01 -0.60177029115E+01  0.44992687400E+02  0.45700414479E+02  0.47000000000E+01 0. -1.
         -5    1    6    6    0  503  0.89834386994E+01  0.16359756950E+03  0.18211685506E+03  0.24501735819E+03  0.47000000000E+01 0.  1.
<mgrwt>
<rscale>  0 0.40569568E+03</rscale>
<asrwt>0</asrwt>
<pdfrwt beam="1">  1        1 0.75256428E-01 0.40569568E+03</pdfrwt>
<pdfrwt beam="2">  1       -1 0.19996390E+00 0.40569568E+03</pdfrwt>
<totfact> 0.75686311E+00</totfact>
</mgrwt>
</event>
<event>
12    1  0.3166324E-008  0.7630559E+03  0.7818608E-02  0.9615087E-01
         -2   -1    0    0    0  501 -0.00000000000E+00  0.00000000000E+00  0.43007355047E+03  0.43007355047E+03  0.00000000000E+00 0.  1.
          2   -1    0    0  501    0  0.00000000000E+00 -0.00000000000E+00 -0.17544429892E+04  0.17544429892E+04  0.00000000000E+00 0. -1.
         23    2    1    2    0    0  0.59562563638E+03  0.38957797523E+03 -0.92782719205E+03  0.11726019563E+04  0.87127217354E+02 0.  0.
    5000000    2    1    2    0    0 -0.59562563638E+03 -0.38957797523E+03 -0.39654224670E+03  0.10119145834E+04  0.60015370801E+03 0.  0.
         23    2    4    4    0    0 -0.12900617918E+03 -0.31048476597E+03  0.54573245027E+02  0.35202998207E+03  0.88901546851E+02 0.  0.
         23    2    4    4    0    0 -0.46661945720E+03 -0.79093209253E+02 -0.45111549173E+03  0.65988460136E+03  0.89179855644E+02 0.  0.
          3    1    3    3  502    0  0.42295052065E+03  0.24808638562E+03 -0.58259671742E+03  0.76148075011E+03  0.00000000000E+00 0. -1.
         -3    1    3    3    0  502  0.17267511573E+03  0.14149158961E+03 -0.34523047464E+03  0.41112120614E+03  0.00000000000E+00 0.  1.
         13    1    5    5    0    0 -0.76170811037E+02 -0.14059864538E+03 -0.15843184591E+02  0.16068907254E+03  0.00000000000E+00 0.  1.
        -13    1    5    5    0    0 -0.52835368145E+02 -0.16988612059E+03  0.70416429618E+02  0.19134090953E+03  0.00000000000E+00 0. -1.
          5    1    6    6  503    0 -0.31725994312E+03 -0.36885419684E+02 -0.35362810733E+03  0.47653891130E+03  0.47000000000E+01 0. -1.
         -5    1    6    6    0  503 -0.14935951408E+03 -0.42207789569E+02 -0.97487384400E+02  0.18334569006E+03  0.47000000000E+01 0.  1.
<mgrwt>
<rscale>  0 0.76305592E+03</rscale>
<asrwt>0</asrwt>
<pdfrwt beam="1">  1        2 0.26991431E+00 0.76305592E+03</pdfrwt>
<pdfrwt beam="2">  1       -2 0.66165161E-01 0.76305592E+03</pdfrwt>
<totfact> 0.19738756E+01</totfact>
</mgrwt>
</event>
<event>
12    1  0.3166324E-008  0.6161862E+03  0.7818608E-02  0.9872383E-01
         -4   -1    0    0    0  501 -0.00000000000E+00  0.00000000000E+00  0.42576430520E+03  0.42576430520E+03  0.00000000000E+00 0.  1.
          4   -1    0    0  501    0  0.00000000000E+00 -0.00000000000E+00 -0.12897238466E+04  0.12897238466E+04  0.00000000000E+00 0. -1.
         23    2    1    2    0    0  0.47054476300E+03  0.68178406216E+02 -0.81605394827E+03  0.94849639858E+03  0.87411112413E+02 0.  0.
    5000000    2    1    2    0    0 -0.47054476300E+03 -0.68178406216E+02 -0.47905593097E+02  0.76699175319E+03  0.59993394182E+03 0.  0.
         23    2    4    4    0    0 -0.59285682753E+03 -0.54632397983E+02  0.13184442576E+02  0.60256834372E+03  0.91928572622E+02 0.  0.
         23    2    4    4    0    0  0.12231206453E+03 -0.13546008233E+02 -0.61090035673E+02  0.16442340947E+03  0.90329007832E+02 0.  0.
          2    1    3    3  502    0  0.34487695703E+03  0.73660937484E+02 -0.53755930231E+03  0.64291216561E+03  0.00000000000E+00 0. -1.
         -2    1    3    3    0  502  0.12566780597E+03 -0.54825312675E+01 -0.27849464597E+03  0.30558423297E+03  0.00000000000E+00 0.  1.
         11    1    5    5    0    0 -0.21879036136E+03  0.21159867923E+02 -0.11426895843E+02  0.22010801027E+03  0.00000000000E+00 0.  1.
        -11    1    5    5    0    0 -0.37406646617E+03 -0.75792265906E+02  0.24611338419E+02  0.38246033345E+03  0.00000000000E+00 0. -1.
          5    1    6    6  503    0  0.10859347421E+03 -0.45133628115E+02 -0.43559602325E+02  0.12549548192E+03  0.47000000000E+01 0. -1.
         -5    1    6    6    0  503  0.13718590320E+02  0.31587619882E+02 -0.17530433348E+02  0.38927927553E+02  0.47000000000E+01 0.  1.
<mgrwt>
<rscale>  0 0.61618615E+03</rscale>
<asrwt>0</asrwt>
<pdfrwt beam="1">  1        4 0.19841905E+00 0.61618615E+03</pdfrwt>
<pdfrwt beam="2">  1       -4 0.65502200E-01 0.61618615E+03</pdfrwt>
<totfact> 0.57740694E-01</totfact>
</mgrwt>
</event>
<event>
12    1  0.3166324E-008  0.4964542E+03  0.7818608E-02  0.1014709E+00
          1   -1    0    0  501    0  0.00000000000E+00  0.00000000000E+00  0.12873089404E+04  0.12873089404E+04  0.00000000000E+00 0. -1.
         -1   -1    0    0    0  501 -0.00000000000E+00 -0.00000000000E+00 -0.23685746934E+03  0.23685746934E+03  0.00000000000E+00 0.  1.
         23    2    1    2    0    0  0.13321516046E+02 -0.37368291387E+03  0.26542125280E+03  0.46770953459E+03  0.92127001470E+02 0.  0.
    5000000    2    1    2    0    0 -0.13321516046E+02  0.37368291387E+03  0.78503021823E+03  0.10564568751E+04  0.60001025205E+03 0.  0.
         23    2    4    4    0    0  0.15281899963E+03  0.40019122507E+03  0.28853644133E+03  0.52458295614E+03  0.91800526279E+02 0.  0.
         23    2    4    4    0    0 -0.16614051567E+03 -0.26508311199E+02  0.49649377691E+03  0.53187391900E+03  0.89880107323E+02 0.  0.
          1    1    3    3  502    0 -0.89888219364E+01 -0.87112269368E+02  0.20182754008E+02  0.89870406439E+02  0.00000000000E+00 0. -1.
         -1    1    3    3    0  502  0.22310337983E+02 -0.28657064450E+03  0.24523849880E+03  0.37783912815E+03  0.00000000000E+00 0.  1.
         11    1    5    5    0    0  0.78967189754E+01  0.30007275464E+02 -0.36112232072E+01  0.31238368786E+02  0.00000000000E+00 0. -1.
        -11    1    5    5    0    0  0.14492228065E+03  0.37018394961E+03  0.29214766453E+03  0.49334458735E+03  0.00000000000E+00 0.  1.
          5    1    6    6  503    0 -0.54761057417E+02 -0.51234014424E+02  0.22949842743E+03  0.24148564312E+03  0.47000000000E+01 0. -1.
         -5    1    6    6    0  503 -0.11137945826E+03  0.24725703225E+02  0.26699534948E+03  0.29038827588E+03  0.47000000000E+01 0.  1.
<mgrwt>
<rscale>  0 0.49645421E+03</rscale>
<asrwt>0</asrwt>
<pdfrwt beam="1">  1        1 0.19804753E+00 0.49645421E+03</pdfrwt>
<pdfrwt beam="2">  1       -1 0.36439611E-01 0.49645421E+03</pdfrwt>
<totfact> 0.70323585E+01</totfact>
</mgrwt>
</event>
<event>
12    1  0.3166324E-008  0.4598177E+03  0.7818608E-02  0.1024834E+00
          1   -1    0    0  501    0  0.00000000000E+00  0.00000000000E+00  0.80968817201E+03  0.80968817201E+03  0.00000000000E+00 0. -1.
         -1   -1    0    0    0  501 -0.00000000000E+00 -0.00000000000E+00 -0.28503358095E+03  0.28503358095E+03  0.00000000000E+00 0.  1.
         23    2    1    2    0    0 -0.19320238868E+03  0.20671186223E+03  0.18366216478E+03  0.34880041226E+03  0.88729813734E+02 0.  0.
    5000000    2    1    2    0    0  0.19320238868E+03 -0.20671186223E+03  0.34099242629E+03  0.74592134070E+03  0.60005487645E+03 0.  0.
         23    2    4    4    0    0 -0.14282056593E+03  0.74613744786E+02  0.33495204451E+01  0.18523070023E+03  0.91292212464E+02 0.  0.
         23    2    4    4    0    0  0.33602295460E+03 -0.28132560702E+03  0.33764290584E+03  0.56069064048E+03  0.91190675352E+02 0.  0.
          3    1    3    3  502    0 -0.62832087694E+02  0.12899131787E+03  0.73152889110E+02  0.16105271347E+03  0.00000000000E+00 0. -1.
         -3    1    3    3    0  502 -0.13037030098E+03  0.77720544362E+02  0.11050927567E+03  0.18774769879E+03  0.00000000000E+00 0.  1.
         13    1    5    5    0    0 -0.82426483066E+02  0.82055648178E+02  0.27912667598E+02  0.11960924513E+03  0.00000000000E+00 0.  1.
        -13    1    5    5    0    0 -0.60394082860E+02 -0.74419033927E+01 -0.24563147153E+02  0.65621455094E+02  0.00000000000E+00 0. -1.
          5    1    6    6  503    0  0.24517341331E+03 -0.25204394187E+03  0.27515605867E+03  0.44650766830E+03  0.47000000000E+01 0. -1.
         -5    1    6    6    0  503  0.90849541287E+02 -0.29281665154E+02  0.62486847172E+02  0.11418297218E+03  0.47000000000E+01 0.  1.
<mgrwt>
<rscale>  0 0.45981767E+03</rscale>
<asrwt>0</asrwt>
<pdfrwt beam="1">  1        1 0.12456741E+00 0.45981767E+03</pdfrwt>
<pdfrwt beam="2">  1       -1 0.43851320E-01 0.45981767E+03</pdfrwt>
<totfact> 0.11645185E+02</totfact>
</mgrwt>
</event>
<event>
12    1  0.3166324E-008  0.6945613E+03  0.7818608E-02  0.9726578E-01
          2   -1    0    0  501    0  0.00000000000E+00  0.00000000000E+00  0.44814979581E+03  0.44814979581E+03  0.00000000000E+00 0. -1.
         -2   -1    0    0    0  501 -0.00000000000E+00 -0.00000000000E+00 -0.15808750047E+04  0.15808750047E+04  0.00000000000E+00 0.  1.
         23    2    1    2    0    0 -0.57550283005E+02 -0.63910601110E+03 -0.72479820771E+02  0.65210791340E+03  0.90680084924E+02 0.  0.
    5000000    2    1    2    0    0  0.57550283005E+02  0.63910601110E+03 -0.10602453881E+04  0.13769168871E+04  0.60000941865E+03 0.  0.
         23    2    4    4    0    0  0.19670755616E+03  0.25708562346E+03 -0.83983972435E+03  0.90462096034E+03  0.90672150327E+02 0.  0.
         23    2    4    4    0    0 -0.13915727316E+03  0.38202038764E+03 -0.22040566378E+03  0.47229592678E+03  0.95814730483E+02 0.  0.
          3    1    3    3  502    0  0.11006787152E+02 -0.19674659188E+03 -0.52937939529E+02  0.20404116306E+03  0.00000000000E+00 0. -1.
         -3    1    3    3    0  502 -0.68557070157E+02 -0.44235941922E+03 -0.19541881242E+02  0.44806675034E+03  0.00000000000E+00 0.  1.
         13    1    5    5    0    0  0.12404191971E+03  0.21062132562E+03 -0.54250276325E+03  0.59502688072E+03  0.00000000000E+00 0. -1.
        -13    1    5    5    0    0  0.72665636451E+02  0.46464297838E+02 -0.29733696111E+03  0.30959407962E+03  0.00000000000E+00 0.  1.
          5    1    6    6  503    0 -0.13324649839E+02  0.14197043872E+03 -0.10755827703E+03  0.17867295464E+03  0.47000000000E+01 0. -1.
         -5    1    6    6    0  503 -0.12583262332E+03  0.24004994892E+03 -0.11284738676E+03  0.29362297213E+03  0.47000000000E+01 0.  1.
<mgrwt>
<rscale>  0 0.69456134E+03</rscale>
<asrwt>0</asrwt>
<pdfrwt beam="1">  1        2 0.68946124E-01 0.69456134E+03</pdfrwt>
<pdfrwt beam="2">  1       -2 0.24321153E+00 0.69456134E+03</pdfrwt>
<totfact> 0.51164506E+00</totfact>
</mgrwt>
</event>
<event>
12    1  0.3166324E-008  0.7544169E+03  0.7818608E-02  0.9628446E-01
          2   -1    0    0  501    0  0.00000000000E+00  0.00000000000E+00  0.92904456744E+03  0.92904456744E+03  0.00000000000E+00 0. -1.
         -2   -1    0    0    0  501 -0.00000000000E+00 -0.00000000000E+00 -0.76457509076E+03  0.76457509076E+03  0.00000000000E+00 0.  1.
         23    2    1    2    0    0 -0.28315715001E+03 -0.61350979359E+03  0.35661857849E+03  0.76973896911E+03  0.93536258264E+02 0.  0.
    5000000    2    1    2    0    0  0.28315715001E+03  0.61350979359E+03 -0.19214910181E+03  0.92388068908E+03  0.60005167436E+03 0.  0.
         23    2    4    4    0    0 -0.57546904511E+02  0.43181391278E+03  0.66853462584E+02  0.45014179047E+03  0.91560606038E+02 0.  0.
         23    2    4    4    0    0  0.34070405452E+03  0.18169588081E+03 -0.25900256440E+03  0.47373889861E+03  0.90849159735E+02 0.  0.
          2    1    3    3  502    0 -0.18319556629E+03 -0.48888849641E+03  0.26328768769E+03  0.58471615671E+03  0.00000000000E+00 0.  1.
         -2    1    3    3    0  502 -0.99961583720E+02 -0.12462129718E+03  0.93330890796E+02  0.18502281240E+03  0.00000000000E+00 0. -1.
         11    1    5    5    0    0 -0.71503223080E+02  0.32149851824E+03  0.21504637808E+02  0.33005523415E+03  0.00000000000E+00 0. -1.
        -11    1    5    5    0    0  0.13956318569E+02  0.11031539454E+03  0.45348824776E+02  0.12008655632E+03  0.00000000000E+00 0.  1.
          5    1    6    6  503    0  0.16876293591E+03  0.82921457110E+02 -0.72816916785E+02  0.20169603356E+03  0.47000000000E+01 0. -1.
         -5    1    6    6    0  503  0.17194111861E+03  0.98774423696E+02 -0.18618564761E+03  0.27204286505E+03  0.47000000000E+01 0.  1.
<mgrwt>
<rscale>  0 0.75441689E+03</rscale>
<asrwt>0</asrwt>
<pdfrwt beam="1">  1        2 0.14292993E+00 0.75441689E+03</pdfrwt>
<pdfrwt beam="2">  1       -2 0.11762694E+00 0.75441689E+03</pdfrwt>
<totfact> 0.15882503E+01</totfact>
</mgrwt>
</event>
<event>
12    1  0.3166324E-008  0.4514153E+03  0.7818608E-02  0.1027301E+00
          1   -1    0    0  501    0  0.00000000000E+00  0.00000000000E+00  0.39699458726E+04  0.39699458726E+04  0.00000000000E+00 0. -1.
         -1   -1    0    0    0  501 -0.00000000000E+00 -0.00000000000E+00 -0.55346542314E+02  0.55346542314E+02  0.00000000000E+00 0.  1.
         23    2    1    2    0    0  0.21082920392E+03 -0.15737511422E+03  0.13410398086E+04  0.13696562233E+04  0.91403074045E+02 0.  0.
    5000000    2    1    2    0    0 -0.21082920392E+03  0.15737511422E+03  0.25735595217E+04  0.26556361916E+04  0.59998257541E+03 0.  0.
         23    2    4    4    0    0 -0.30876296077E+03  0.30943609921E+03  0.18853228002E+04  0.19374673108E+04  0.90841917219E+02 0.  0.
         23    2    4    4    0    0  0.97933756850E+02 -0.15206098499E+03  0.68823672144E+03  0.71816888081E+03  0.96866881496E+02 0.  0.
          2    1    3    3  502    0  0.14636845467E+03 -0.92407649277E+02  0.10613670880E+04  0.10753896939E+04  0.00000000000E+00 0. -1.
         -2    1    3    3    0  502  0.64460749253E+02 -0.64967464945E+02  0.27967272058E+03  0.29426652941E+03  0.00000000000E+00 0.  1.
         13    1    5    5    0    0 -0.26791766104E+03  0.23204343306E+03  0.13902086239E+04  0.14346790742E+04  0.00000000000E+00 0. -1.
        -13    1    5    5    0    0 -0.40845299728E+02  0.77392666151E+02  0.49511417629E+03  0.50278823658E+03  0.00000000000E+00 0.  1.
          5    1    6    6  503    0  0.27382371956E+02  0.85462126910E+00  0.19460167980E+03  0.19657677495E+03  0.47000000000E+01 0. -1.
         -5    1    6    6    0  503  0.70551384894E+02 -0.15291560626E+03  0.49363504165E+03  0.52159210585E+03  0.47000000000E+01 0.  1.
<mgrwt>
<rscale>  0 0.45141531E+03</rscale>
<asrwt>0</asrwt>
<pdfrwt beam="1">  1        1 0.61076068E+00 0.45141531E+03</pdfrwt>
<pdfrwt beam="2">  1       -1 0.85148558E-02 0.45141531E+03</pdfrwt>
<totfact> 0.97122388E+00</totfact>
</mgrwt>
</event>
<event>
12    1  0.3166324E-008  0.9426265E+03  0.7818608E-02  0.9373811E-01
         -1   -1    0    0    0  501 -0.00000000000E+00  0.00000000000E+00  0.36793394367E+03  0.36793394367E+03  0.00000000000E+00 0. -1.
          1   -1    0    0  501    0  0.00000000000E+00 -0.00000000000E+00 -0.36572907146E+04  0.36572907146E+04  0.00000000000E+00 0.  1.
         23    2    1    2    0    0 -0.26473618167E+03 -0.88731201669E+03 -0.57120397136E+03  0.10916784874E+04  0.89889276512E+02 0.  0.
    5000000    2    1    2    0    0  0.26473618167E+03  0.88731201669E+03 -0.27181527996E+04  0.29335461709E+04  0.59994219236E+03 0.  0.
         23    2    4    4    0    0 -0.16877359771E+02  0.58546746962E+02 -0.44234490015E+02  0.11858791249E+03  0.91617880507E+02 0.  0.
         23    2    4    4    0    0  0.28161354144E+03  0.82876526973E+03 -0.26739183096E+04  0.28149582584E+04  0.89402524691E+02 0.  0.
          1    1    3    3  502    0 -0.30304960932E+02 -0.34991438819E+02 -0.25925352607E+02  0.53055775892E+02  0.00000000000E+00 0. -1.
         -1    1    3    3    0  502 -0.23443122073E+03 -0.85232057788E+03 -0.54527861876E+03  0.10386227115E+04  0.00000000000E+00 0.  1.
         11    1    5    5    0    0 -0.34609560858E+02  0.41024283131E+02 -0.66295507773E+02  0.85298932350E+02  0.00000000000E+00 0.  1.
        -11    1    5    5    0    0  0.17732201087E+02  0.17522463831E+02  0.22061017758E+02  0.33288980137E+02  0.00000000000E+00 0. -1.
          5    1    6    6  503    0  0.16071461703E+03  0.40688867637E+03 -0.14597726243E+04  0.15239244692E+04  0.47000000000E+01 0. -1.
         -5    1    6    6    0  503  0.12089892441E+03  0.42187659336E+03 -0.12141456853E+04  0.12910337893E+04  0.47000000000E+01 0.  1.
<mgrwt>
<rscale>  0 0.94262648E+03</rscale>
<asrwt>0</asrwt>
<pdfrwt beam="1">  1        1 0.56266011E+00 0.94262648E+03</pdfrwt>
<pdfrwt beam="2">  1       -1 0.56605222E-01 0.94262648E+03</pdfrwt>
<totfact> 0.62307056E-01</totfact>
</mgrwt>
</event>
<event>
12    1  0.3166324E-008  0.1095376E+04  0.7818608E-02  0.9209711E-01
          2   -1    0    0  501    0  0.00000000000E+00  0.00000000000E+00  0.20282544174E+04  0.20282544174E+04  0.00000000000E+00 0. -1.
         -2   -1    0    0    0  501 -0.00000000000E+00 -0.00000000000E+00 -0.78268473784E+03  0.78268473784E+03  0.00000000000E+00 0.  1.
         23    2    1    2    0    0  0.13749047661E+03 -0.10769128221E+04  0.11228396664E+04  0.15644249947E+04  0.89508602637E+02 0.  0.
    5000000    2    1    2    0    0 -0.13749047661E+03  0.10769128221E+04  0.12273001313E+03  0.12465141606E+04  0.60007502775E+03 0.  0.
         23    2    4    4    0    0 -0.11954351195E+03  0.39467496449E+03  0.31967222884E+03  0.52931126602E+03  0.89000581990E+02 0.  0.
         23    2    4    4    0    0 -0.17946964664E+02  0.68223785757E+03 -0.19694221571E+03  0.71720289456E+03  0.99111895369E+02 0.  0.
          2    1    3    3  502    0  0.55187847117E+02 -0.18571006079E+03  0.22017073654E+03  0.29327304407E+03  0.00000000000E+00 0. -1.
         -2    1    3    3    0  502  0.82302629492E+02 -0.89120276127E+03  0.90266892990E+03  0.12711519506E+04  0.00000000000E+00 0.  1.
         11    1    5    5    0    0 -0.12032687173E+03  0.36938173374E+03  0.26855875490E+03  0.47227664151E+03  0.00000000000E+00 0. -1.
        -11    1    5    5    0    0  0.78335978712E+00  0.25293230750E+02  0.51113473936E+02  0.57034624503E+02  0.00000000000E+00 0.  1.
          5    1    6    6  503    0 -0.33965367638E+02  0.65744591138E+03 -0.17860183583E+03  0.68213596764E+03  0.47000000000E+01 0. -1.
         -5    1    6    6    0  503  0.16018402974E+02  0.24791946186E+02 -0.18340379881E+02  0.35066926921E+02  0.47000000000E+01 0.  1.
<mgrwt>
<rscale>  0 0.10953756E+04</rscale>
<asrwt>0</asrwt>
<pdfrwt beam="1">  1        2 0.31203914E+00 0.10953756E+04</pdfrwt>
<pdfrwt beam="2">  1       -2 0.12041304E+00 0.10953756E+04</pdfrwt>
<totfact> 0.33510507E+00</totfact>
</mgrwt>
</event>
<event>
12    1  0.3166324E-008  0.4968383E+03  0.7818608E-02  0.1014607E+00
         -1   -1    0    0    0  501 -0.00000000000E+00  0.00000000000E+00  0.10417174344E+04  0.10417174344E+04  0.00000000000E+00 0.  1.
          1   -1    0    0  501    0  0.00000000000E+00 -0.00000000000E+00 -0.38140846906E+03  0.38140846906E+03  0.00000000000E+00 0. -1.
         23    2    1    2    0    0  0.25598207268E+03  0.26849981347E+03  0.60505899913E+03  0.71552217042E+03  0.90865904402E+02 0.  0.
    5000000    2    1    2    0    0 -0.25598207268E+03 -0.26849981347E+03  0.55249966227E+02  0.70760373305E+03  0.60002626017E+03 0.  0.
         23    2    4    4    0    0  0.13297213926E+03 -0.17235503585E+03 -0.11503955118E+03  0.26260069023E+03  0.91308137481E+02 0.  0.
         23    2    4    4    0    0 -0.38895421194E+03 -0.96144777619E+02  0.17028951741E+03  0.44500304282E+03  0.92195396492E+02 0.  0.
          1    1    3    3  502    0  0.10364907113E+03  0.98283668826E+02  0.31847174957E+03  0.34903734009E+03  0.00000000000E+00 0. -1.
         -1    1    3    3    0  502  0.15233300155E+03  0.17021614464E+03  0.28658724956E+03  0.36648483034E+03  0.00000000000E+00 0.  1.
         11    1    5    5    0    0  0.19921494148E+02 -0.14256588692E+02  0.15023910158E+02  0.28737329846E+02  0.00000000000E+00 0. -1.
        -11    1    5    5    0    0  0.11305064511E+03 -0.15809844716E+03 -0.13006346134E+03  0.23386336038E+03  0.00000000000E+00 0.  1.
          5    1    6    6  503    0 -0.11844106855E+03 -0.71899360690E+01  0.90287792523E+02  0.14917760348E+03  0.47000000000E+01 0. -1.
         -5    1    6    6    0  503 -0.27051314338E+03 -0.88954841550E+02  0.80001724888E+02  0.29582543934E+03  0.47000000000E+01 0.  1.
<mgrwt>
<rscale>  0 0.49683829E+03</rscale>
<asrwt>0</asrwt>
<pdfrwt beam="1">  1        1 0.58678227E-01 0.49683829E+03</pdfrwt>
<pdfrwt beam="2">  1       -1 0.16026422E+00 0.49683829E+03</pdfrwt>
<totfact> 0.19710536E+01</totfact>
</mgrwt>
</event>
<event>
12    1  0.3166324E-008  0.9837946E+03  0.7818608E-02  0.9326499E-01
          2   -1    0    0  501    0  0.00000000000E+00  0.00000000000E+00  0.14821556742E+04  0.14821556742E+04  0.00000000000E+00 0. -1.
         -2   -1    0    0    0  501 -0.00000000000E+00 -0.00000000000E+00 -0.74202685546E+03  0.74202685546E+03  0.00000000000E+00 0.  1.
         23    2    1    2    0    0 -0.90860771583E+03  0.63795529171E+02  0.17478722385E+02  0.91578132697E+03  0.93338535854E+02 0.  0.
    5000000    2    1    2    0    0  0.90860771583E+03 -0.63795529171E+02  0.72265009633E+03  0.13084012027E+04  0.60004391058E+03 0.  0.
         23    2    4    4    0    0  0.95915086932E+03 -0.92642231248E+02  0.70967580949E+03  0.11993909973E+04  0.79662016118E+02 0.  0.
         23    2    4    4    0    0 -0.50543153486E+02  0.28846702077E+02  0.12974286841E+02  0.10901020533E+03  0.91258699101E+02 0.  0.
          3    1    3    3  502    0 -0.54410006522E+03  0.57075163643E+02 -0.31209758296E+02  0.54797491210E+03  0.00000000000E+00 0. -1.
         -3    1    3    3    0  502 -0.36450765061E+03  0.67203655273E+01  0.48688480681E+02  0.36780641486E+03  0.00000000000E+00 0.  1.
         13    1    5    5    0    0  0.33363646367E+03 -0.76346616865E+01  0.28174307594E+03  0.43675020182E+03  0.00000000000E+00 0. -1.
        -13    1    5    5    0    0  0.62551440564E+03 -0.85007569561E+02  0.42793273355E+03  0.76264079552E+03  0.00000000000E+00 0.  1.
          5    1    6    6  503    0 -0.68004738391E+02  0.22851297767E+02  0.34938430101E+02  0.79935037068E+02  0.47000000000E+01 0. -1.
         -5    1    6    6    0  503  0.17461584904E+02  0.59954043098E+01 -0.21964143260E+02  0.29075168260E+02  0.47000000000E+01 0.  1.
<mgrwt>
<rscale>  0 0.98379464E+03</rscale>
<asrwt>0</asrwt>
<pdfrwt beam="1">  1        2 0.22802395E+00 0.98379464E+03</pdfrwt>
<pdfrwt beam="2">  1       -2 0.11415798E+00 0.98379464E+03</pdfrwt>
<totfact> 0.77684716E+00</totfact>
</mgrwt>
</event>
<event>
12    1  0.3166324E-008  0.3878271E+03  0.7818608E-02  0.1048078E+00
          2   -1    0    0  501    0  0.00000000000E+00  0.00000000000E+00  0.67619904052E+03  0.67619904052E+03  0.00000000000E+00 0. -1.
         -2   -1    0    0    0  501 -0.00000000000E+00 -0.00000000000E+00 -0.41691444842E+03  0.41691444842E+03  0.00000000000E+00 0.  1.
         23    2    1    2    0    0  0.27125630075E+03 -0.22717077122E+03  0.77390937744E+02  0.37314178031E+03  0.89771326010E+02 0.  0.
    5000000    2    1    2    0    0 -0.27125630075E+03  0.22717077122E+03  0.18189365435E+03  0.71997170863E+03  0.60007284537E+03 0.  0.
         23    2    4    4    0    0 -0.24721358857E+03  0.18913118970E+03 -0.15998245529E+03  0.36154024265E+03  0.90729244269E+02 0.  0.
         23    2    4    4    0    0 -0.24042712181E+02  0.38039581520E+02  0.34187610964E+03  0.35843146598E+03  0.97820139489E+02 0.  0.
          2    1    3    3  502    0  0.13158280459E+03 -0.73104494159E+02 -0.20213272920E+01  0.15054031784E+03  0.00000000000E+00 0. -1.
         -2    1    3    3    0  502  0.13967349616E+03 -0.15406627706E+03  0.79412265036E+02  0.22260146247E+03  0.00000000000E+00 0.  1.
         13    1    5    5    0    0 -0.14273301870E+03  0.10208825559E+03 -0.13916591995E+03  0.22396847955E+03  0.00000000000E+00 0. -1.
        -13    1    5    5    0    0 -0.10448056987E+03  0.87042934108E+02 -0.20816535337E+02  0.13757176310E+03  0.00000000000E+00 0.  1.
          5    1    6    6  503    0  0.10911868505E+02 -0.28231155660E+02  0.13279080990E+03  0.13627749711E+03  0.47000000000E+01 0. -1.
         -5    1    6    6    0  503 -0.34954580686E+02  0.66270737180E+02  0.20908529974E+03  0.22215396887E+03  0.47000000000E+01 0.  1.
<mgrwt>
<rscale>  0 0.38782706E+03</rscale>
<asrwt>0</asrwt>
<pdfrwt beam="1">  1        2 0.10403062E+00 0.38782706E+03</pdfrwt>
<pdfrwt beam="2">  1       -2 0.64140684E-01 0.38782706E+03</pdfrwt>
<totfact> 0.10022778E+02</totfact>
</mgrwt>
</event>
<event>
12    1  0.3166324E-008  0.7125023E+03  0.7818608E-02  0.9696087E-01
          2   -1    0    0  501    0  0.00000000000E+00  0.00000000000E+00  0.98385633885E+03  0.98385633885E+03  0.00000000000E+00 0.  1.
         -2   -1    0    0    0  501 -0.00000000000E+00 -0.00000000000E+00 -0.60511649814E+03  0.60511649814E+03  0.00000000000E+00 0. -1.
         23    2    1    2    0    0 -0.12140084685E+03 -0.63704581636E+03  0.10484688517E+03  0.66400919533E+03  0.96694386570E+02 0.  0.
    5000000    2    1    2    0    0  0.12140084685E+03  0.63704581636E+03  0.27389295554E+03  0.92496364167E+03  0.59997904092E+03 0.  0.
         23    2    4    4    0    0  0.27984348685E+03  0.43455883424E+03  0.36312792330E+03  0.63802072171E+03  0.89748510241E+02 0.  0.
         23    2    4    4    0    0 -0.15844264000E+03  0.20248698212E+03 -0.89234967765E+02  0.28694291996E+03  0.90930257582E+02 0.  0.
          2    1    3    3  502    0 -0.91967245169E+02 -0.48223767335E+03  0.36622483751E+02  0.49229295556E+03  0.00000000000E+00 0. -1.
         -2    1    3    3    0  502 -0.29433601679E+02 -0.15480814301E+03  0.68224401419E+02  0.17171623977E+03  0.00000000000E+00 0.  1.
         11    1    5    5    0    0  0.21249258359E+03  0.28883070397E+03  0.29200698678E+03  0.46243308052E+03  0.00000000000E+00 0. -1.
        -11    1    5    5    0    0  0.67350903264E+02  0.14572813027E+03  0.71120936525E+02  0.17558764118E+03  0.00000000000E+00 0.  1.
          5    1    6    6  503    0 -0.11374463416E+03  0.14109848305E+03 -0.10462338842E+03  0.20931977241E+03  0.47000000000E+01 0. -1.
         -5    1    6    6    0  503 -0.44698005843E+02  0.61388499073E+02  0.15388420656E+02  0.77623147547E+02  0.47000000000E+01 0.  1.
<mgrwt>
<rscale>  0 0.71250231E+03</rscale>
<asrwt>0</asrwt>
<pdfrwt beam="1">  1        2 0.15136251E+00 0.71250231E+03</pdfrwt>
<pdfrwt beam="2">  1       -2 0.93094846E-01 0.71250231E+03</pdfrwt>
<totfact> 0.25714306E+01</totfact>
</mgrwt>
</event>
<event>
12    1  0.3166324E-008  0.8999306E+03  0.7818608E-02  0.9425668E-01
         -2   -1    0    0    0  501 -0.00000000000E+00  0.00000000000E+00  0.89218184677E+03  0.89218184677E+03  0.00000000000E+00 0.  1.
          2   -1    0    0  501    0  0.00000000000E+00 -0.00000000000E+00 -0.97352140949E+03  0.97352140949E+03  0.00000000000E+00 0. -1.
         23    2    1    2    0    0 -0.21446537341E+03 -0.77242039414E+03  0.18883130938E+03  0.82857992974E+03  0.90877801927E+02 0.  0.
    5000000    2    1    2    0    0  0.21446537341E+03  0.77242039414E+03 -0.27017087210E+03  0.10371233265E+04  0.60000319384E+03 0.  0.
         23    2    4    4    0    0 -0.18189668182E+03  0.37292343891E+03 -0.59147626790E+02  0.42926082439E+03  0.92779951811E+02 0.  0.
         23    2    4    4    0    0  0.39636205523E+03  0.39949695523E+03 -0.21102324531E+03  0.60786250213E+03  0.90913779879E+02 0.  0.
          3    1    3    3  502    0 -0.26115728418E+02 -0.25104445184E+03  0.56199127217E+02  0.25858014226E+03  0.00000000000E+00 0. -1.
         -3    1    3    3    0  502 -0.18834964500E+03 -0.52137594229E+03  0.13263218216E+03  0.56999978747E+03  0.00000000000E+00 0.  1.
         13    1    5    5    0    0 -0.14099460230E+03  0.19551657921E+03 -0.54520924664E+02  0.24714113751E+03  0.00000000000E+00 0. -1.
        -13    1    5    5    0    0 -0.40902079522E+02  0.17740685971E+03 -0.46267021262E+01  0.18211968689E+03  0.00000000000E+00 0.  1.
          5    1    6    6  503    0  0.23482286511E+03  0.17278625973E+03 -0.11246909742E+03  0.31251921125E+03  0.47000000000E+01 0. -1.
         -5    1    6    6    0  503  0.16153919013E+03  0.22671069550E+03 -0.98554147883E+02  0.29534329088E+03  0.47000000000E+01 0.  1.
<mgrwt>
<rscale>  0 0.89993064E+03</rscale>
<asrwt>0</asrwt>
<pdfrwt beam="1">  1        2 0.14977252E+00 0.89993064E+03</pdfrwt>
<pdfrwt beam="2">  1       -2 0.13725875E+00 0.89993064E+03</pdfrwt>
<totfact> 0.99162605E+00</totfact>
</mgrwt>
</event>
<event>
12    1  0.3166324E-008  0.1017003E+04  0.7818608E-02  0.9290090E-01
         -1   -1    0    0    0  501 -0.00000000000E+00  0.00000000000E+00  0.37596182410E+03  0.37596182410E+03  0.00000000000E+00 0.  1.
          1   -1    0    0  501    0  0.00000000000E+00 -0.00000000000E+00 -0.32183411174E+04  0.32183411174E+04  0.00000000000E+00 0. -1.
         23    2    1    2    0    0  0.63347888683E+03 -0.69850099189E+03 -0.19355157662E+04  0.21549047080E+04  0.90520072981E+02 0.  0.
    5000000    2    1    2    0    0 -0.63347888683E+03  0.69850099189E+03 -0.90686352707E+03  0.14393982335E+04  0.60022219390E+03 0.  0.
         23    2    4    4    0    0 -0.44776106459E+03  0.75108026720E+03 -0.83828729128E+03  0.12145001673E+04  0.87598714693E+02 0.  0.
         23    2    4    4    0    0 -0.18571782223E+03 -0.52579275313E+02 -0.68576235788E+02  0.22489806620E+03  0.92847996099E+02 0.  0.
          2    1    3    3  502    0  0.14392292074E+03 -0.21101600802E+03 -0.56756101334E+03  0.62238819607E+03  0.00000000000E+00 0.  1.
         -2    1    3    3    0  502  0.48955596608E+03 -0.48748498387E+03 -0.13679547529E+04  0.15325165119E+04  0.00000000000E+00 0. -1.
         13    1    5    5    0    0 -0.33537093235E+03  0.49588376749E+03 -0.60225312453E+03  0.84916617874E+03  0.00000000000E+00 0. -1.
        -13    1    5    5    0    0 -0.11239013225E+03  0.25519649971E+03 -0.23603416675E+03  0.36533398852E+03  0.00000000000E+00 0.  1.
          5    1    6    6  503    0 -0.15798155967E+03 -0.74328992543E+02 -0.72533729359E+02  0.18911955008E+03  0.47000000000E+01 0. -1.
         -5    1    6    6    0  503 -0.27736262562E+02  0.21749717230E+02  0.39574935703E+01  0.35778516122E+02  0.47000000000E+01 0.  1.
<mgrwt>
<rscale>  0 0.10170035E+04</rscale>
<asrwt>0</asrwt>
<pdfrwt beam="1">  1        1 0.49512941E+00 0.10170035E+04</pdfrwt>
<pdfrwt beam="2">  1       -1 0.57840280E-01 0.10170035E+04</pdfrwt>
<totfact> 0.12843707E+00</totfact>
</mgrwt>
</event>
<event>
12    1  0.3166324E-008  0.3101463E+03  0.7818608E-02  0.1080276E+00
         -2   -1    0    0    0  501 -0.00000000000E+00  0.00000000000E+00  0.14359108394E+03  0.14359108394E+03  0.00000000000E+00 0.  1.
          2   -1    0    0  501    0  0.00000000000E+00 -0.00000000000E+00 -0.19502179770E+04  0.19502179770E+04  0.00000000000E+00 0. -1.
         23    2    1    2    0    0  0.29140169348E+02 -0.27617186661E+03 -0.10531498676E+04  0.10918447958E+04  0.76683538570E+02 0.  0.
    5000000    2    1    2    0    0 -0.29140169348E+02  0.27617186661E+03 -0.75347702552E+03  0.10019642652E+04  0.59923677408E+03 0.  0.
         23    2    4    4    0    0 -0.83542632678E+02  0.77626723868E+02  0.60017290550E+02  0.15784238111E+03  0.91141990194E+02 0.  0.
         23    2    4    4    0    0  0.54402463329E+02  0.19854514274E+03 -0.81349431607E+03  0.84412188410E+03  0.91591218039E+02 0.  0.
          1    1    3    3  502    0  0.14696368257E+02 -0.12597924801E+03 -0.62890246764E+03  0.64156454700E+03  0.00000000000E+00 0. -1.
         -1    1    3    3    0  502  0.14443801091E+02 -0.15019261860E+03 -0.42424739994E+03  0.45028024877E+03  0.00000000000E+00 0.  1.
         11    1    5    5    0    0 -0.80021641174E+02  0.61206848742E+02  0.82196317722E+02  0.13002298272E+03  0.00000000000E+00 0. -1.
        -11    1    5    5    0    0 -0.35209915037E+01  0.16419875126E+02 -0.22179027172E+02  0.27819398388E+02  0.00000000000E+00 0.  1.
          5    1    6    6  503    0  0.47503155080E+02  0.30208103961E+02 -0.18631618451E+03  0.19469178180E+03  0.47000000000E+01 0. -1.
         -5    1    6    6    0  503  0.68993082489E+01  0.16833703878E+03 -0.62717813156E+03  0.64943010231E+03  0.47000000000E+01 0.  1.
<mgrwt>
<rscale>  0 0.31014626E+03</rscale>
<asrwt>0</asrwt>
<pdfrwt beam="1">  1        2 0.30003354E+00 0.31014626E+03</pdfrwt>
<pdfrwt beam="2">  1       -2 0.22090936E-01 0.31014626E+03</pdfrwt>
<totfact> 0.13926592E+02</totfact>
</mgrwt>
</event>
<event>
12    1  0.3166324E-008  0.7104837E+03  0.7818608E-02  0.9699470E-01
         -1   -1    0    0    0  501 -0.00000000000E+00  0.00000000000E+00  0.86300336653E+03  0.86300336653E+03  0.00000000000E+00 0.  1.
          1   -1    0    0  501    0  0.00000000000E+00 -0.00000000000E+00 -0.67692045005E+03  0.67692045005E+03  0.00000000000E+00 0. -1.
         23    2    1    2    0    0 -0.50519579437E+03  0.31759848213E+03 -0.16538035407E+03  0.62383412091E+03  0.75675375107E+02 0.  0.
    5000000    2    1    2    0    0  0.50519579437E+03 -0.31759848213E+03  0.35146327055E+03  0.91608969567E+03  0.59966850298E+03 0.  0.
         23    2    4    4    0    0  0.63690868737E+02 -0.36659308226E+03  0.23126036417E+03  0.44736871487E+03  0.90611237060E+02 0.  0.
         23    2    4    4    0    0  0.44150492564E+03  0.48994600130E+02  0.12020290638E+03  0.46872098081E+03  0.89014318746E+02 0.  0.
          1    1    3    3  502    0 -0.24098132977E+03  0.15491438138E+03 -0.40347776981E+02  0.28930677483E+03  0.00000000000E+00 0. -1.
         -1    1    3    3    0  502 -0.26421446461E+03  0.16268410075E+03 -0.12503257708E+03  0.33452734608E+03  0.00000000000E+00 0.  1.
         11    1    5    5    0    0  0.16484580979E+02 -0.16531313149E+03  0.52985339595E+02  0.17437780555E+03  0.00000000000E+00 0. -1.
        -11    1    5    5    0    0  0.47206287758E+02 -0.20127995077E+03  0.17827502457E+03  0.27299090932E+03  0.00000000000E+00 0.  1.
          5    1    6    6  503    0  0.16698266987E+03 -0.19973210001E+02  0.64631223997E+02  0.18022604215E+03  0.47000000000E+01 0. -1.
         -5    1    6    6    0  503  0.27452225577E+03  0.68967810131E+02  0.55571682384E+02  0.28849493866E+03  0.47000000000E+01 0.  1.
<mgrwt>
<rscale>  0 0.71048370E+03</rscale>
<asrwt>0</asrwt>
<pdfrwt beam="1">  1        1 0.10414161E+00 0.71048370E+03</pdfrwt>
<pdfrwt beam="2">  1       -1 0.13276975E+00 0.71048370E+03</pdfrwt>
<totfact> 0.14241982E+01</totfact>
</mgrwt>
</event>
<event>
12    1  0.3166324E-008  0.1702274E+04  0.7818608E-02  0.8760069E-01
          1   -1    0    0  501    0  0.00000000000E+00  0.00000000000E+00  0.21666750246E+04  0.21666750246E+04  0.00000000000E+00 0. -1.
         -1   -1    0    0    0  501 -0.00000000000E+00 -0.00000000000E+00 -0.15895718049E+04  0.15895718049E+04  0.00000000000E+00 0.  1.
         23    2    1    2    0    0 -0.88306942405E+03 -0.14339102656E+04 -0.37958073279E+03  0.17286631442E+04  0.91019096497E+02 0.  0.
    5000000    2    1    2    0    0  0.88306942405E+03  0.14339102656E+04  0.95668395253E+03  0.20275836854E+04  0.59995096366E+03 0.  0.
         23    2    4    4    0    0  0.86657838345E+03  0.12215434410E+04  0.63059157512E+03  0.16276056771E+04  0.91258054688E+02 0.  0.
         23    2    4    4    0    0  0.16491040599E+02  0.21236682453E+03  0.32609237741E+03  0.39997800827E+03  0.90964531074E+02 0.  0.
          2    1    3    3  502    0 -0.36101578891E+03 -0.54968990550E+03 -0.18935746158E+03  0.68435929183E+03  0.00000000000E+00 0. -1.
         -2    1    3    3    0  502 -0.52205363514E+03 -0.88422036005E+03 -0.19022327121E+03  0.10443038523E+04  0.00000000000E+00 0.  1.
         13    1    5    5    0    0  0.76192528457E+03  0.11096249387E+04  0.54575488399E+03  0.14524620605E+04  0.00000000000E+00 0. -1.
        -13    1    5    5    0    0  0.10465309889E+03  0.11191850235E+03  0.84836691132E+02  0.17514361660E+03  0.00000000000E+00 0.  1.
          5    1    6    6  503    0 -0.13133203808E+02  0.15891209464E+03  0.17431444365E+03  0.23629039365E+03  0.47000000000E+01 0. -1.
         -5    1    6    6    0  503  0.29624244407E+02  0.53454729889E+02  0.15177793375E+03  0.16368761462E+03  0.47000000000E+01 0.  1.
<mgrwt>
<rscale>  0 0.17022738E+04</rscale>
<asrwt>0</asrwt>
<pdfrwt beam="1">  1        1 0.33333462E+00 0.17022738E+04</pdfrwt>
<pdfrwt beam="2">  1       -1 0.24454951E+00 0.17022738E+04</pdfrwt>
<totfact> 0.16012164E-01</totfact>
</mgrwt>
</event>
<event>
12    1  0.3166324E-008  0.4307765E+03  0.7818608E-02  0.1033615E+00
         -1   -1    0    0    0  501 -0.00000000000E+00  0.00000000000E+00  0.24873295184E+03  0.24873295184E+03  0.00000000000E+00 0.  1.
          1   -1    0    0  501    0  0.00000000000E+00 -0.00000000000E+00 -0.10235646044E+04  0.10235646044E+04  0.00000000000E+00 0. -1.
         23    2    1    2    0    0 -0.16154028194E+03 -0.27040807722E+03 -0.30173403542E+03  0.44584267563E+03  0.92284735300E+02 0.  0.
    5000000    2    1    2    0    0  0.16154028194E+03  0.27040807722E+03 -0.47309761715E+03  0.82645488062E+03  0.59999210281E+03 0.  0.
         23    2    4    4    0    0  0.15530353331E+03  0.37689581403E+03 -0.53247368266E+03  0.67587502286E+03  0.84315963530E+02 0.  0.
         23    2    4    4    0    0  0.62367486286E+01 -0.10648773681E+03  0.59376065518E+02  0.15057985776E+03  0.88148972104E+02 0.  0.
          3    1    3    3  502    0 -0.14739407395E+03 -0.18854577706E+03 -0.18462501221E+03  0.30225968672E+03  0.00000000000E+00 0. -1.
         -3    1    3    3    0  502 -0.14146207992E+02 -0.81862300157E+02 -0.11710902321E+03  0.14358298891E+03  0.00000000000E+00 0.  1.
         11    1    5    5    0    0  0.16587592947E+03  0.34971561956E+03 -0.49760379693E+03  0.63041682818E+03  0.00000000000E+00 0.  1.
        -11    1    5    5    0    0 -0.10572396160E+02  0.27180194467E+02 -0.34869885739E+02  0.45458194676E+02  0.00000000000E+00 0. -1.
          5    1    6    6  503    0  0.28931703384E+02 -0.26023434549E+02  0.53927314721E+02  0.66667142427E+02  0.47000000000E+01 0. -1.
         -5    1    6    6    0  503 -0.22694954756E+02 -0.80464302259E+02  0.54487507975E+01  0.83912715333E+02  0.47000000000E+01 0.  1.
<mgrwt>
<rscale>  0 0.43077650E+03</rscale>
<asrwt>0</asrwt>
<pdfrwt beam="1">  1        1 0.15747148E+00 0.43077650E+03</pdfrwt>
<pdfrwt beam="2">  1       -1 0.38266608E-01 0.43077650E+03</pdfrwt>
<totfact> 0.10102275E+02</totfact>
</mgrwt>
</event>
<event>
12    1  0.3166324E-008  0.1009108E+04  0.7818608E-02  0.9298611E-01
         -2   -1    0    0    0  501 -0.00000000000E+00  0.00000000000E+00  0.22722055918E+04  0.22722055918E+04  0.00000000000E+00 0. -1.
          2   -1    0    0  501    0  0.00000000000E+00 -0.00000000000E+00 -0.81703450788E+03  0.81703450788E+03  0.00000000000E+00 0.  1.
         23    2    1    2    0    0  0.29714870439E+03 -0.91332222831E+03 -0.29137120128E+03  0.10076973106E+04  0.90010264408E+02 0.  0.
    5000000    2    1    2    0    0 -0.29714870439E+03  0.91332222831E+03  0.17465422852E+04  0.20815427890E+04  0.59996298498E+03 0.  0.
         23    2    4    4    0    0  0.89072400676E+01  0.61794576989E+03  0.64910767412E+03  0.90100046064E+03  0.92329540352E+02 0.  0.
         23    2    4    4    0    0 -0.30605594446E+03  0.29537645842E+03  0.10974346111E+04  0.11805423284E+04  0.91651351360E+02 0.  0.
          2    1    3    3  502    0  0.15334538114E+03 -0.42766925002E+03 -0.18261253681E+03  0.48965613641E+03  0.00000000000E+00 0. -1.
         -2    1    3    3    0  502  0.14380332325E+03 -0.48565297829E+03 -0.10875866448E+03  0.51804117423E+03  0.00000000000E+00 0.  1.
         13    1    5    5    0    0 -0.33914462404E+02  0.33881810863E+03  0.31910688594E+03  0.46666594707E+03  0.00000000000E+00 0. -1.
        -13    1    5    5    0    0  0.42821702471E+02  0.27912766126E+03  0.33000078818E+03  0.43433451357E+03  0.00000000000E+00 0.  1.
          5    1    6    6  503    0 -0.14293641172E+03  0.19868598214E+03  0.58687291877E+03  0.63588430557E+03  0.47000000000E+01 0.  1.
         -5    1    6    6    0  503 -0.16311953274E+03  0.96690476288E+02  0.51056169233E+03  0.54465802283E+03  0.47000000000E+01 0.  1.
<mgrwt>
<rscale>  0 0.10091081E+04</rscale>
<asrwt>0</asrwt>
<pdfrwt beam="1">  1        2 0.12569762E+00 0.10091081E+04</pdfrwt>
<pdfrwt beam="2">  1       -2 0.34957009E+00 0.10091081E+04</pdfrwt>
<totfact> 0.52980057E-01</totfact>
</mgrwt>
</event>
<event>
12    1  0.3166324E-008  0.7736226E+03  0.7818608E-02  0.9599002E-01
         -2   -1    0    0    0  501 -0.00000000000E+00  0.00000000000E+00  0.32615392981E+03  0.32615392981E+03  0.00000000000E+00 0.  1.
          2   -1    0    0  501    0  0.00000000000E+00 -0.00000000000E+00 -0.30739584150E+04  0.30739584150E+04  0.00000000000E+00 0. -1.
         23    2    1    2    0    0  0.50303223232E+03 -0.42903680508E+03 -0.23127587418E+04  0.24070049846E+04  0.87783776419E+02 0.  0.
    5000000    2    1    2    0    0 -0.50303223232E+03  0.42903680508E+03 -0.43504574344E+03  0.99310736023E+03  0.59990284479E+03 0.  0.
         23    2    4    4    0    0  0.73963695028E+02  0.24606857031E+03 -0.20017802471E+03  0.33737942656E+03  0.87938992595E+02 0.  0.
         23    2    4    4    0    0 -0.57699592735E+03  0.18296823477E+03 -0.23486771874E+03  0.65572793366E+03  0.91731142845E+02 0.  0.
          3    1    3    3  502    0  0.33127498656E+03 -0.33303656884E+03 -0.16693350361E+04  0.17341672167E+04  0.00000000000E+00 0. -1.
         -3    1    3    3    0  502  0.17175724575E+03 -0.96000236236E+02 -0.64342370571E+03  0.67283776789E+03  0.00000000000E+00 0.  1.
         11    1    5    5    0    0  0.21319832782E+02  0.19926122452E+03 -0.13697095154E+03  0.24273568430E+03  0.00000000000E+00 0.  1.
        -11    1    5    5    0    0  0.52643862246E+02  0.46807345791E+02 -0.63207073163E+02  0.94643742265E+02  0.00000000000E+00 0. -1.
          5    1    6    6  503    0 -0.26811169815E+03  0.46407500007E+02 -0.13328023281E+03  0.30302351262E+03  0.47000000000E+01 0. -1.
         -5    1    6    6    0  503 -0.30888422920E+03  0.13656073476E+03 -0.10158748593E+03  0.35270442105E+03  0.47000000000E+01 0.  1.
<mgrwt>
<rscale>  0 0.77362261E+03</rscale>
<asrwt>0</asrwt>
<pdfrwt beam="1">  1        2 0.47291666E+00 0.77362261E+03</pdfrwt>
<pdfrwt beam="2">  1       -2 0.50177530E-01 0.77362261E+03</pdfrwt>
<totfact> 0.62444590E+00</totfact>
</mgrwt>
</event>
<event>
12    1  0.3166324E-008  0.1120190E+04  0.7818608E-02  0.9185734E-01
          2   -1    0    0  501    0  0.00000000000E+00  0.00000000000E+00  0.15392401981E+04  0.15392401981E+04  0.00000000000E+00 0. -1.
         -2   -1    0    0    0  501 -0.00000000000E+00 -0.00000000000E+00 -0.14419315297E+04  0.14419315297E+04  0.00000000000E+00 0.  1.
         23    2    1    2    0    0  0.54285305746E+03 -0.96960821148E+03 -0.85013020612E+03  0.14024267622E+04  0.96176557937E+02 0.  0.
    5000000    2    1    2    0    0 -0.54285305746E+03  0.96960821148E+03  0.94743887450E+03  0.15787449656E+04  0.59997143251E+03 0.  0.
         23    2    4    4    0    0 -0.65628604791E+02  0.27484302867E+03 -0.12892287121E+02  0.29775059405E+03  0.92969893073E+02 0.  0.
         23    2    4    4    0    0 -0.47722445267E+03  0.69476518282E+03  0.96033116162E+03  0.12809943716E+04  0.90932956423E+02 0.  0.
          1    1    3    3  502    0  0.28508738282E+03 -0.54959232223E+03 -0.52777231029E+03  0.81355402280E+03  0.00000000000E+00 0. -1.
         -1    1    3    3    0  502  0.25776567464E+03 -0.42001588925E+03 -0.32235789583E+03  0.58887273943E+03  0.00000000000E+00 0.  1.
         11    1    5    5    0    0 -0.55993728677E+02  0.18077378360E+03 -0.50684691816E+02  0.19591681009E+03  0.00000000000E+00 0. -1.
        -11    1    5    5    0    0 -0.96348761133E+01  0.94069245063E+02  0.37792404694E+02  0.10183378397E+03  0.00000000000E+00 0.  1.
          5    1    6    6  503    0 -0.32043130974E+03  0.50920588718E+03  0.73242501888E+03  0.94785830064E+03  0.47000000000E+01 0. -1.
         -5    1    6    6    0  503 -0.15679314293E+03  0.18555929563E+03  0.22790614274E+03  0.33313607095E+03  0.47000000000E+01 0.  1.
<mgrwt>
<rscale>  0 0.11201902E+04</rscale>
<asrwt>0</asrwt>
<pdfrwt beam="1">  1        2 0.23680618E+00 0.11201902E+04</pdfrwt>
<pdfrwt beam="2">  1       -2 0.22183562E+00 0.11201902E+04</pdfrwt>
<totfact> 0.11372913E+00</totfact>
</mgrwt>
</event>
<event>
12    1  0.3166324E-008  0.5154342E+03  0.7818608E-02  0.1009827E+00
         -2   -1    0    0    0  501 -0.00000000000E+00  0.00000000000E+00  0.15002194439E+04  0.15002194439E+04  0.00000000000E+00 0.  1.
          2   -1    0    0  501    0  0.00000000000E+00 -0.00000000000E+00 -0.29408308883E+03  0.29408308883E+03  0.00000000000E+00 0. -1.
         23    2    1    2    0    0  0.31600275109E+03 -0.18513146480E+03  0.98911830435E+03  0.10586914075E+04  0.91329504593E+02 0.  0.
    5000000    2    1    2    0    0 -0.31600275109E+03  0.18513146480E+03  0.21701805071E+03  0.73561112520E+03  0.59991290637E+03 0.  0.
         23    2    4    4    0    0  0.15273209895E+03 -0.30422658718E+00 -0.35180085044E+01  0.17713183639E+03  0.89644433609E+02 0.  0.
         23    2    4    4    0    0 -0.46873485003E+03  0.18543569138E+03  0.22053605921E+03  0.55847928880E+03  0.95729866481E+02 0.  0.
          2    1    3    3  502    0  0.77609542825E+02 -0.42986808235E+02  0.36520257923E+03  0.37582446793E+03  0.00000000000E+00 0. -1.
         -2    1    3    3    0  502  0.23839320826E+03 -0.14214465656E+03  0.62391572512E+03  0.68286693959E+03  0.00000000000E+00 0.  1.
         13    1    5    5    0    0  0.14683213149E+03  0.10070576398E+02  0.22140717580E+02  0.14883313718E+03  0.00000000000E+00 0. -1.
        -13    1    5    5    0    0  0.58999674560E+01 -0.10374802985E+02 -0.25658726084E+02  0.28298699214E+02  0.00000000000E+00 0.  1.
          5    1    6    6  503    0 -0.27995707272E+03  0.12981051503E+03  0.18069228522E+03  0.35762903170E+03  0.47000000000E+01 0. -1.
         -5    1    6    6    0  503 -0.18877777732E+03  0.55625176351E+02  0.39843773991E+02  0.20085025710E+03  0.47000000000E+01 0.  1.
<mgrwt>
<rscale>  0 0.51543422E+03</rscale>
<asrwt>0</asrwt>
<pdfrwt beam="1">  1        2 0.45243553E-01 0.51543422E+03</pdfrwt>
<pdfrwt beam="2">  1       -2 0.23080299E+00 0.51543422E+03</pdfrwt>
<totfact> 0.99936530E+00</totfact>
</mgrwt>
</event>
<event>
12    1  0.3166324E-008  0.7633773E+03  0.7818608E-02  0.9614594E-01
          1   -1    0    0  501    0  0.00000000000E+00  0.00000000000E+00  0.29579768505E+04  0.29579768505E+04  0.00000000000E+00 0. -1.
         -1   -1    0    0    0  501 -0.00000000000E+00 -0.00000000000E+00 -0.23382128160E+03  0.23382128160E+03  0.00000000000E+00 0.  1.
         23    2    1    2    0    0  0.42778119964E+03 -0.55164934238E+03  0.85162325089E+03  0.11051444649E+04  0.93639602624E+02 0.  0.
    5000000    2    1    2    0    0 -0.42778119964E+03  0.55164934238E+03  0.18725323180E+04  0.20866536671E+04  0.60036030264E+03 0.  0.
         23    2    4    4    0    0 -0.34178876536E+02  0.38422295671E+03  0.45637235509E+03  0.60448036508E+03  0.91243132381E+02 0.  0.
         23    2    4    4    0    0 -0.39360232311E+03  0.16742638566E+03  0.14161599629E+04  0.14821733021E+04  0.91511056578E+02 0.  0.
          4    1    3    3  502    0  0.95890911367E+02 -0.12931962397E+03  0.13854400374E+03  0.21239838276E+03  0.00000000000E+00 0. -1.
         -4    1    3    3    0  502  0.33189028828E+03 -0.42232971841E+03  0.71307924715E+03  0.89274608216E+03  0.00000000000E+00 0.  1.
         11    1    5    5    0    0 -0.54500962519E+02  0.29875140240E+03  0.39044071364E+03  0.49463795469E+03  0.00000000000E+00 0. -1.
        -11    1    5    5    0    0  0.20322085983E+02  0.85471554314E+02  0.65931641447E+02  0.10984241039E+03  0.00000000000E+00 0.  1.
          5    1    6    6  503    0 -0.71589703211E+02  0.70955847835E+02  0.30358629841E+03  0.31991647117E+03  0.47000000000E+01 0. -1.
         -5    1    6    6    0  503 -0.32201261990E+03  0.96470537829E+02  0.11125736645E+04  0.11622568309E+04  0.47000000000E+01 0.  1.
<mgrwt>
<rscale>  0 0.76337729E+03</rscale>
<asrwt>0</asrwt>
<pdfrwt beam="1">  1        1 0.45507334E+00 0.76337729E+03</pdfrwt>
<pdfrwt beam="2">  1       -1 0.35972507E-01 0.76337729E+03</pdfrwt>
<totfact> 0.50421349E+00</totfact>
</mgrwt>
</event>
<event>
12    1  0.3166324E-008  0.7480376E+03  0.7818608E-02  0.9638434E-01
          1   -1    0    0  501    0  0.00000000000E+00  0.00000000000E+00  0.60140698426E+03  0.60140698426E+03  0.00000000000E+00 0. -1.
         -1   -1    0    0    0  501 -0.00000000000E+00 -0.00000000000E+00 -0.10572656940E+04  0.10572656940E+04  0.00000000000E+00 0.  1.
         23    2    1    2    0    0 -0.90414592349E+02 -0.67110586560E+03 -0.12117551141E+03  0.69398624658E+03  0.91517891818E+02 0.  0.
    5000000    2    1    2    0    0  0.90414592349E+02  0.67110586560E+03 -0.33468319835E+03  0.96468643171E+03  0.60004098770E+03 0.  0.
         23    2    4    4    0    0  0.25464135786E+03  0.51267523844E+03 -0.39097720134E+02  0.58030832363E+03  0.86896475862E+02 0.  0.
         23    2    4    4    0    0 -0.16422676551E+03  0.15843062716E+03 -0.29558547822E+03  0.38437810808E+03  0.91132106882E+02 0.  0.
          4    1    3    3  502    0  0.13962993694E+02 -0.11782993518E+03 -0.39506731153E+02  0.12505854878E+03  0.00000000000E+00 0. -1.
         -4    1    3    3    0  502 -0.10437758604E+03 -0.55327593042E+03 -0.81668780258E+02  0.56892769779E+03  0.00000000000E+00 0.  1.
         13    1    5    5    0    0  0.13126807390E+03  0.25262409023E+03  0.23791021954E+02  0.28568558052E+03  0.00000000000E+00 0. -1.
        -13    1    5    5    0    0  0.12337328396E+03  0.26005114820E+03 -0.62888742087E+02  0.29462274311E+03  0.00000000000E+00 0.  1.
          5    1    6    6  503    0 -0.13902862123E+03  0.82529913528E+02 -0.22810921051E+03  0.27963555938E+03  0.47000000000E+01 0. -1.
         -5    1    6    6    0  503 -0.25198144286E+02  0.75900713634E+02 -0.67476267706E+02  0.10474254870E+03  0.47000000000E+01 0.  1.
<mgrwt>
<rscale>  0 0.74803759E+03</rscale>
<asrwt>0</asrwt>
<pdfrwt beam="1">  1        1 0.92524153E-01 0.74803759E+03</pdfrwt>
<pdfrwt beam="2">  1       -1 0.16265626E+00 0.74803759E+03</pdfrwt>
<totfact> 0.98195059E+00</totfact>
</mgrwt>
</event>
<event>
12    1  0.3166324E-008  0.1073432E+04  0.7818608E-02  0.9231481E-01
          2   -1    0    0  501    0  0.00000000000E+00  0.00000000000E+00  0.13120765872E+04  0.13120765872E+04  0.00000000000E+00 0. -1.
         -2   -1    0    0    0  501 -0.00000000000E+00 -0.00000000000E+00 -0.10006572005E+04  0.10006572005E+04  0.00000000000E+00 0.  1.
         23    2    1    2    0    0  0.41342397391E+03 -0.97794855468E+03  0.61646879884E+02  0.10678472573E+04  0.95888838636E+02 0.  0.
    5000000    2    1    2    0    0 -0.41342397391E+03  0.97794855468E+03  0.24977250681E+03  0.12448865304E+04  0.60004450722E+03 0.  0.
         23    2    4    4    0    0 -0.93885078919E+01  0.18590150210E+03  0.27895183628E+03  0.35050354538E+03  0.10193672446E+03 0.  0.
         23    2    4    4    0    0 -0.40403546601E+03  0.79204705258E+03 -0.29179329469E+02  0.89438298504E+03  0.92121112448E+02 0.  0.
          3    1    3    3  502    0  0.30075608151E+03 -0.67265593790E+03  0.10374371957E+01  0.73683193988E+03  0.00000000000E+00 0. -1.
         -3    1    3    3    0  502  0.11266789240E+03 -0.30529261678E+03  0.60609442688E+02  0.33101531745E+03  0.00000000000E+00 0.  1.
         13    1    5    5    0    0  0.13141110196E+02  0.91215437501E+01  0.87481772278E+02  0.88932287828E+02  0.00000000000E+00 0. -1.
        -13    1    5    5    0    0 -0.22529618088E+02  0.17677995835E+03  0.19147006401E+03  0.26157125755E+03  0.00000000000E+00 0.  1.
          5    1    6    6  503    0 -0.25330424193E+03  0.54425841357E+03 -0.56713413669E+02  0.60300809365E+03  0.47000000000E+01 0. -1.
         -5    1    6    6    0  503 -0.15073122409E+03  0.24778863901E+03  0.27534084199E+02  0.29137489139E+03  0.47000000000E+01 0.  1.
<mgrwt>
<rscale>  0 0.10734315E+04</rscale>
<asrwt>0</asrwt>
<pdfrwt beam="1">  1        2 0.20185794E+00 0.10734315E+04</pdfrwt>
<pdfrwt beam="2">  1       -2 0.15394726E+00 0.10734315E+04</pdfrwt>
<totfact> 0.44747958E+00</totfact>
</mgrwt>
</event>
<event>
12    1  0.3166324E-008  0.6609010E+03  0.7818608E-02  0.9786537E-01
          2   -1    0    0  501    0  0.00000000000E+00  0.00000000000E+00  0.14615249957E+04  0.14615249957E+04  0.00000000000E+00 0. -1.
         -2   -1    0    0    0  501 -0.00000000000E+00 -0.00000000000E+00 -0.61051352602E+03  0.61051352602E+03  0.00000000000E+00 0.  1.
         23    2    1    2    0    0 -0.56237144316E+03 -0.45524718462E+02 -0.30851802649E+03  0.64974157127E+03  0.92987078148E+02 0.  0.
    5000000    2    1    2    0    0  0.56237144316E+03  0.45524718462E+02  0.11595294962E+04  0.14222969504E+04  0.60007151465E+03 0.  0.
         23    2    4    4    0    0  0.26199990914E+01 -0.14799651013E+03  0.50882686176E+03  0.53802064977E+03  0.93014046905E+02 0.  0.
         23    2    4    4    0    0  0.55975144407E+03  0.19352122859E+03  0.65070263441E+03  0.88427630068E+03  0.88082418600E+02 0.  0.
          1    1    3    3  502    0 -0.46931335149E+03 -0.75121978218E+01 -0.23306784139E+03  0.52405350270E+03  0.00000000000E+00 0. -1.
         -1    1    3    3    0  502 -0.93058091672E+02 -0.38012520641E+02 -0.75450185099E+02  0.12568806858E+03  0.00000000000E+00 0.  1.
         11    1    5    5    0    0  0.21413079554E+02 -0.11939615113E+03  0.47368005215E+03  0.48896498105E+03  0.00000000000E+00 0. -1.
        -11    1    5    5    0    0 -0.18793080463E+02 -0.28600358999E+02  0.35146809604E+02  0.49055668720E+02  0.00000000000E+00 0.  1.
          5    1    6    6  503    0  0.27010158641E+03  0.56787828977E+02  0.34075133966E+03  0.43853539194E+03  0.47000000000E+01 0. -1.
         -5    1    6    6    0  503  0.28964985766E+03  0.13673339961E+03  0.30995129476E+03  0.44574090875E+03  0.47000000000E+01 0.  1.
<mgrwt>
<rscale>  0 0.66090100E+03</rscale>
<asrwt>0</asrwt>
<pdfrwt beam="1">  1        2 0.22485000E+00 0.66090100E+03</pdfrwt>
<pdfrwt beam="2">  1       -2 0.93925158E-01 0.66090100E+03</pdfrwt>
<totfact> 0.13239718E+01</totfact>
</mgrwt>
</event>
<event>
12    1  0.3166324E-008  0.6530435E+03  0.7818608E-02  0.9801085E-01
         -2   -1    0    0    0  501 -0.00000000000E+00  0.00000000000E+00  0.11518015139E+04  0.11518015139E+04  0.00000000000E+00 0.  1.
          2   -1    0    0  501    0  0.00000000000E+00 -0.00000000000E+00 -0.46216844434E+03  0.46216844434E+03  0.00000000000E+00 0. -1.
         23    2    1    2    0    0  0.12775969682E+03  0.51886838337E+03 -0.19757812436E+02  0.54215961151E+03  0.89441231049E+02 0.  0.
    5000000    2    1    2    0    0 -0.12775969682E+03 -0.51886838337E+03  0.70939088200E+03  0.10718103467E+04  0.59999588040E+03 0.  0.
         23    2    4    4    0    0 -0.29212478615E+03 -0.11557276195E+03  0.45169065209E+03  0.55803549525E+03  0.93194499809E+02 0.  0.
         23    2    4    4    0    0  0.16436508933E+03 -0.40329562142E+03  0.25770022992E+03  0.51377485147E+03  0.88836640326E+02 0.  0.
          1    1    3    3  502    0  0.63536699252E+02  0.11750991507E+03 -0.23717024009E+02  0.13567604623E+03  0.00000000000E+00 0. -1.
         -1    1    3    3    0  502  0.64222997568E+02  0.40135846830E+03  0.39592115732E+01  0.40648356528E+03  0.00000000000E+00 0.  1.
         11    1    5    5    0    0 -0.91579450181E+02  0.83164636163E+01  0.12812199394E+03  0.15770607025E+03  0.00000000000E+00 0. -1.
        -11    1    5    5    0    0 -0.20054533597E+03 -0.12388922557E+03  0.32356865814E+03  0.40032942500E+03  0.00000000000E+00 0.  1.
          5    1    6    6  503    0  0.36785179816E+02 -0.15235951755E+03  0.13395915145E+03  0.20623703911E+03  0.47000000000E+01 0. -1.
         -5    1    6    6    0  503  0.12757990951E+03 -0.25093610387E+03  0.12374107846E+03  0.30753781237E+03  0.47000000000E+01 0.  1.
<mgrwt>
<rscale>  0 0.65304345E+03</rscale>
<asrwt>0</asrwt>
<pdfrwt beam="1">  1        2 0.71102838E-01 0.65304345E+03</pdfrwt>
<pdfrwt beam="2">  1       -2 0.17720023E+00 0.65304345E+03</pdfrwt>
<totfact> 0.13126369E+01</totfact>
</mgrwt>
</event>
<event>
12    1  0.3166324E-008  0.6939586E+03  0.7818608E-02  0.9727620E-01
         -2   -1    0    0    0  501 -0.00000000000E+00  0.00000000000E+00  0.35569918434E+03  0.35569918434E+03  0.00000000000E+00 0. -1.
          2   -1    0    0  501    0  0.00000000000E+00 -0.00000000000E+00 -0.16350172137E+04  0.16350172137E+04  0.00000000000E+00 0.  1.
         23    2    1    2    0    0 -0.59405369284E+03 -0.23876903454E+03 -0.52630613186E+03  0.83434526305E+03  0.96038698989E+02 0.  0.
    5000000    2    1    2    0    0  0.59405369284E+03  0.23876903454E+03 -0.75301189755E+03  0.11563711350E+04  0.60021399707E+03 0.  0.
         23    2    4    4    0    0  0.22919369214E+03  0.28150191036E+03 -0.76804041717E+02  0.38154250792E+03  0.88897415450E+02 0.  0.
         23    2    4    4    0    0  0.36486000070E+03 -0.42732875822E+02 -0.67620785583E+03  0.77482862712E+03  0.90296280843E+02 0.  0.
          1    1    3    3  502    0 -0.26455221548E+03 -0.15576775682E+03 -0.26787124940E+03  0.40743892184E+03  0.00000000000E+00 0. -1.
         -1    1    3    3    0  502 -0.32950147735E+03 -0.83001277717E+02 -0.25843488247E+03  0.42690634120E+03  0.00000000000E+00 0.  1.
         11    1    5    5    0    0  0.64311655379E+02  0.85425712343E+02  0.17890943497E+02  0.10841414671E+03  0.00000000000E+00 0. -1.
        -11    1    5    5    0    0  0.16488203676E+03  0.19607619802E+03 -0.94694985214E+02  0.27312836121E+03  0.00000000000E+00 0.  1.
          5    1    6    6  503    0  0.27553725359E+03 -0.70304839730E+02 -0.52149954494E+03  0.59400960765E+03  0.47000000000E+01 0. -1.
         -5    1    6    6    0  503  0.89322747104E+02  0.27571963908E+02 -0.15470831089E+03  0.18081901947E+03  0.47000000000E+01 0.  1.
<mgrwt>
<rscale>  0 0.69395863E+03</rscale>
<asrwt>0</asrwt>
<pdfrwt beam="1">  1        2 0.25154111E+00 0.69395863E+03</pdfrwt>
<pdfrwt beam="2">  1       -2 0.54722950E-01 0.69395863E+03</pdfrwt>
<totfact> 0.34569847E+01</totfact>
</mgrwt>
</event>
<event>
12    1  0.3166324E-008  0.1368317E+04  0.7818608E-02  0.8977077E-01
          1   -1    0    0  501    0  0.00000000000E+00  0.00000000000E+00  0.13507472275E+04  0.13507472275E+04  0.00000000000E+00 0. -1.
         -1   -1    0    0    0  501 -0.00000000000E+00 -0.00000000000E+00 -0.16392437436E+04  0.16392437436E+04  0.00000000000E+00 0.  1.
         23    2    1    2    0    0 -0.12906330086E+04  0.20620410529E+03  0.43456015517E+03  0.13803182076E+04  0.90455125573E+02 0.  0.
    5000000    2    1    2    0    0  0.12906330086E+04 -0.20620410529E+03 -0.72305667130E+03  0.16096727635E+04  0.59998479937E+03 0.  0.
         23    2    4    4    0    0  0.44592298266E+03  0.19152818263E+03 -0.18243542454E+03  0.52668750457E+03  0.92664405967E+02 0.  0.
         23    2    4    4    0    0  0.84471002598E+03 -0.39773228792E+03 -0.54062124677E+03  0.10829852589E+04  0.94126179530E+02 0.  0.
          2    1    3    3  502    0 -0.10080312225E+04  0.15656096869E+03  0.29937860105E+03  0.10631396094E+04  0.00000000000E+00 0. -1.
         -2    1    3    3    0  502 -0.28260178619E+03  0.49643136599E+02  0.13518155412E+03  0.31717859818E+03  0.00000000000E+00 0.  1.
         13    1    5    5    0    0  0.17960348911E+03  0.34276850921E+02 -0.90603925674E+02  0.20406221394E+03  0.00000000000E+00 0.  1.
        -13    1    5    5    0    0  0.26631949355E+03  0.15725133171E+03 -0.91831498862E+02  0.32262529063E+03  0.00000000000E+00 0. -1.
          5    1    6    6  503    0  0.27764094168E+03 -0.17486494820E+03 -0.16638402655E+03  0.36792387378E+03  0.47000000000E+01 0. -1.
         -5    1    6    6    0  503  0.56706908430E+03 -0.22286733973E+03 -0.37423722021E+03  0.71506138511E+03  0.47000000000E+01 0.  1.
<mgrwt>
<rscale>  0 0.13683170E+04</rscale>
<asrwt>0</asrwt>
<pdfrwt beam="1">  1        1 0.20780727E+00 0.13683170E+04</pdfrwt>
<pdfrwt beam="2">  1       -1 0.25219135E+00 0.13683170E+04</pdfrwt>
<totfact> 0.53953405E-01</totfact>
</mgrwt>
</event>
<event>
12    1  0.3166324E-008  0.4749051E+03  0.7818608E-02  0.1020545E+00
         -2   -1    0    0    0  501 -0.00000000000E+00  0.00000000000E+00  0.45539196791E+03  0.45539196791E+03  0.00000000000E+00 0. -1.
          2   -1    0    0  501    0  0.00000000000E+00 -0.00000000000E+00 -0.53929562159E+03  0.53929562159E+03  0.00000000000E+00 0.  1.
         23    2    1    2    0    0 -0.24243823457E+03  0.16791448006E+03 -0.10327207005E+03  0.32587820724E+03  0.92519810356E+02 0.  0.
    5000000    2    1    2    0    0  0.24243823457E+03 -0.16791448006E+03  0.19368416383E+02  0.66880938226E+03  0.59996606908E+03 0.  0.
         23    2    4    4    0    0  0.13551959548E+03  0.20868266304E+03 -0.22359503575E+02  0.26510758103E+03  0.88702127967E+02 0.  0.
         23    2    4    4    0    0  0.10691863908E+03 -0.37659714310E+03  0.41727919957E+02  0.40370180123E+03  0.89313612837E+02 0.  0.
          1    1    3    3  502    0 -0.79228204081E+02  0.29443391456E+02  0.75388229025E+01  0.84857854516E+02  0.00000000000E+00 0. -1.
         -1    1    3    3    0  502 -0.16321003049E+03  0.13847108860E+03 -0.11081089296E+03  0.24102035273E+03  0.00000000000E+00 0.  1.
         13    1    5    5    0    0  0.14111740590E+02  0.37256122740E+02 -0.37217305903E+02  0.54518691866E+02  0.00000000000E+00 0. -1.
        -13    1    5    5    0    0  0.12140785489E+03  0.17142654030E+03  0.14857802329E+02  0.21058888916E+03  0.00000000000E+00 0.  1.
          5    1    6    6  503    0  0.13269829837E+02 -0.20763011126E+03  0.27868828886E+02  0.20996455203E+03  0.47000000000E+01 0. -1.
         -5    1    6    6    0  503  0.93648809246E+02 -0.16896703183E+03  0.13859091071E+02  0.19373724919E+03  0.47000000000E+01 0.  1.
<mgrwt>
<rscale>  0 0.47490505E+03</rscale>
<asrwt>0</asrwt>
<pdfrwt beam="1">  1        2 0.82968557E-01 0.47490505E+03</pdfrwt>
<pdfrwt beam="2">  1       -2 0.70060303E-01 0.47490505E+03</pdfrwt>
<totfact> 0.10764594E+02</totfact>
</mgrwt>
</event>
<event>
12    1  0.3166324E-008  0.4444364E+03  0.7818608E-02  0.1029394E+00
         -2   -1    0    0    0  501 -0.00000000000E+00  0.00000000000E+00  0.16716036031E+03  0.16716036031E+03  0.00000000000E+00 0.  1.
          2   -1    0    0  501    0  0.00000000000E+00 -0.00000000000E+00 -0.14252501774E+04  0.14252501774E+04  0.00000000000E+00 0. -1.
         23    2    1    2    0    0 -0.26039012994E+02 -0.27970733425E+03 -0.53924433807E+03  0.61476337567E+03  0.90748712923E+02 0.  0.
    5000000    2    1    2    0    0  0.26039012994E+02  0.27970733425E+03 -0.71884547902E+03  0.97764716205E+03  0.60011742828E+03 0.  0.
         23    2    4    4    0    0 -0.32221882575E+02  0.42901919931E+03 -0.63881596891E+03  0.77654137569E+03  0.99171280725E+02 0.  0.
         23    2    4    4    0    0  0.58260895569E+02 -0.14931186507E+03 -0.80029510112E+02  0.20110578636E+03  0.91380795672E+02 0.  0.
          2    1    3    3  502    0 -0.11390870001E+02 -0.11061153772E+03 -0.31133630820E+03  0.33059788415E+03  0.00000000000E+00 0. -1.
         -2    1    3    3    0  502 -0.14648142993E+02 -0.16909579653E+03 -0.22790802987E+03  0.28416549152E+03  0.00000000000E+00 0.  1.
         13    1    5    5    0    0 -0.36406249096E+02  0.23499984094E+03 -0.43066312686E+03  0.49195636906E+03  0.00000000000E+00 0.  1.
        -13    1    5    5    0    0  0.41843665209E+01  0.19401935837E+03 -0.20815284205E+03  0.28458500663E+03  0.00000000000E+00 0. -1.
          5    1    6    6  503    0  0.64002065332E+02 -0.15431746539E+03 -0.57302616101E+02  0.17668000539E+03  0.47000000000E+01 0. -1.
         -5    1    6    6    0  503 -0.57411697632E+01  0.50056003248E+01 -0.22726894011E+02  0.24425780975E+02  0.47000000000E+01 0.  1.
<mgrwt>
<rscale>  0 0.44443643E+03</rscale>
<asrwt>0</asrwt>
<pdfrwt beam="1">  1        2 0.21926926E+00 0.44443643E+03</pdfrwt>
<pdfrwt beam="2">  1       -2 0.25716978E-01 0.44443643E+03</pdfrwt>
<totfact> 0.19887486E+02</totfact>
</mgrwt>
</event>
<event>
12    1  0.3166324E-008  0.9293772E+03  0.7818608E-02  0.9389586E-01
         -2   -1    0    0    0  501 -0.00000000000E+00  0.00000000000E+00  0.59591989831E+03  0.59591989831E+03  0.00000000000E+00 0.  1.
          2   -1    0    0  501    0  0.00000000000E+00 -0.00000000000E+00 -0.17474651204E+04  0.17474651204E+04  0.00000000000E+00 0. -1.
         23    2    1    2    0    0  0.78329166537E+03  0.47292843834E+03 -0.33468424191E+03  0.97791089346E+03  0.84196395047E+02 0.  0.
    5000000    2    1    2    0    0 -0.78329166537E+03 -0.47292843834E+03 -0.81686098021E+03  0.13654741253E+04  0.60004215269E+03 0.  0.
         23    2    4    4    0    0 -0.29316738252E+03 -0.89313499192E+02  0.16787447888E+02  0.32026531209E+03  0.91455105979E+02 0.  0.
         23    2    4    4    0    0 -0.49012428285E+03 -0.38361493914E+03 -0.83364842809E+03  0.10452088132E+04  0.10054614530E+03 0.  0.
          1    1    3    3  502    0  0.34532961620E+03  0.16727246242E+03 -0.11669941826E+03  0.40106280646E+03  0.00000000000E+00 0. -1.
         -1    1    3    3    0  502  0.43796204917E+03  0.30565597591E+03 -0.21798482365E+03  0.57684808700E+03  0.00000000000E+00 0.  1.
         11    1    5    5    0    0 -0.14810594008E+03 -0.10486265687E+02  0.39432962661E+02  0.15362385817E+03  0.00000000000E+00 0. -1.
        -11    1    5    5    0    0 -0.14506144244E+03 -0.78827233505E+02 -0.22645514773E+02  0.16664145392E+03  0.00000000000E+00 0.  1.
          5    1    6    6  503    0 -0.35666143473E+03 -0.23273213980E+03 -0.51631642534E+03  0.66931036822E+03  0.47000000000E+01 0. -1.
         -5    1    6    6    0  503 -0.13346284812E+03 -0.15088279934E+03 -0.31733200275E+03  0.37589844498E+03  0.47000000000E+01 0.  1.
<mgrwt>
<rscale>  0 0.92937724E+03</rscale>
<asrwt>0</asrwt>
<pdfrwt beam="1">  1        2 0.26884078E+00 0.92937724E+03</pdfrwt>
<pdfrwt beam="2">  1       -2 0.91679987E-01 0.92937724E+03</pdfrwt>
<totfact> 0.94012308E+00</totfact>
</mgrwt>
</event>
<event>
12    1  0.3166324E-008  0.1038477E+04  0.7818608E-02  0.9267322E-01
         -1   -1    0    0    0  501 -0.00000000000E+00  0.00000000000E+00  0.37517316391E+03  0.37517316391E+03  0.00000000000E+00 0.  1.
          1   -1    0    0  501    0  0.00000000000E+00 -0.00000000000E+00 -0.32806437021E+04  0.32806437021E+04  0.00000000000E+00 0. -1.
         23    2    1    2    0    0 -0.19027601635E+03 -0.10012005768E+04 -0.11516002113E+04  0.15404609653E+04  0.90715938929E+02 0.  0.
    5000000    2    1    2    0    0  0.19027601635E+03  0.10012005768E+04 -0.17538703269E+04  0.21153559007E+04  0.60005158573E+03 0.  0.
         23    2    4    4    0    0 -0.44475308774E+02  0.43141343584E+03 -0.12094050737E+04  0.12880285459E+04  0.90891677378E+02 0.  0.
         23    2    4    4    0    0  0.23475132513E+03  0.56978714100E+03 -0.54446525324E+03  0.82732735483E+03  0.90898676429E+02 0.  0.
          3    1    3    3  502    0 -0.10543108928E+03 -0.50285834987E+03 -0.64715382491E+03  0.82631126564E+03  0.00000000000E+00 0. -1.
         -3    1    3    3    0  502 -0.84844927073E+02 -0.49834222697E+03 -0.50444638638E+03  0.71414969969E+03  0.00000000000E+00 0.  1.
         13    1    5    5    0    0 -0.57216274134E+02  0.22370085220E+03 -0.72299169801E+03  0.75896822640E+03  0.00000000000E+00 0.  1.
        -13    1    5    5    0    0  0.12740965360E+02  0.20771258365E+03 -0.48641337570E+03  0.52906031949E+03  0.00000000000E+00 0. -1.
          5    1    6    6  503    0  0.51608769851E+02  0.19058730827E+03 -0.22032948084E+03  0.29589551758E+03  0.47000000000E+01 0. -1.
         -5    1    6    6    0  503  0.18314255527E+03  0.37919983273E+03 -0.32413577240E+03  0.53143183725E+03  0.47000000000E+01 0.  1.
<mgrwt>
<rscale>  0 0.10384769E+04</rscale>
<asrwt>0</asrwt>
<pdfrwt beam="1">  1        1 0.50471443E+00 0.10384769E+04</pdfrwt>
<pdfrwt beam="2">  1       -1 0.57718946E-01 0.10384769E+04</pdfrwt>
<totfact> 0.11546683E+00</totfact>
</mgrwt>
</event>
<event>
12    1  0.3166324E-008  0.1886854E+04  0.7818608E-02  0.8661428E-01
          2   -1    0    0  501    0  0.00000000000E+00  0.00000000000E+00  0.44035208569E+04  0.44035208569E+04  0.00000000000E+00 0. -1.
         -2   -1    0    0    0  501 -0.00000000000E+00 -0.00000000000E+00 -0.86510731324E+03  0.86510731324E+03  0.00000000000E+00 0.  1.
         23    2    1    2    0    0  0.18458175133E+04  0.27889273948E+02  0.10957460278E+04  0.21486807552E+04  0.91375743969E+02 0.  0.
    5000000    2    1    2    0    0 -0.18458175133E+04 -0.27889273948E+02  0.24426675159E+04  0.31199474149E+04  0.59968923188E+03 0.  0.
         23    2    4    4    0    0 -0.14501481351E+04 -0.25021044957E+03  0.17753996301E+04  0.23078792636E+04  0.93423582812E+02 0.  0.
         23    2    4    4    0    0 -0.39566937812E+03  0.22232117562E+03  0.66726788580E+03  0.81206815134E+03  0.90704405016E+02 0.  0.
          3    1    3    3  502    0  0.36733569138E+03 -0.19289362026E+02  0.24973159729E+03  0.44460483616E+03  0.00000000000E+00 0. -1.
         -3    1    3    3    0  502  0.14784818219E+04  0.47178635975E+02  0.84601443046E+03  0.17040759190E+04  0.00000000000E+00 0.  1.
         13    1    5    5    0    0 -0.12044369881E+04 -0.22773110166E+03  0.15214823879E+04  0.19538266478E+04  0.00000000000E+00 0. -1.
        -13    1    5    5    0    0 -0.24571114705E+03 -0.22479347907E+02  0.25391724225E+03  0.35405261583E+03  0.00000000000E+00 0.  1.
          5    1    6    6  503    0 -0.24488679568E+03  0.14431762034E+03  0.49055473820E+03  0.56697721242E+03  0.47000000000E+01 0. -1.
         -5    1    6    6    0  503 -0.15078258244E+03  0.78003555275E+02  0.17671314761E+03  0.24509093892E+03  0.47000000000E+01 0.  1.
<mgrwt>
<rscale>  0 0.18868537E+04</rscale>
<asrwt>0</asrwt>
<pdfrwt beam="1">  1        2 0.67746474E+00 0.18868537E+04</pdfrwt>
<pdfrwt beam="2">  1       -2 0.13309344E+00 0.18868537E+04</pdfrwt>
<totfact> 0.57550076E-02</totfact>
</mgrwt>
</event>
<event>
12    1  0.3166324E-008  0.1091886E+04  0.7818608E-02  0.9213136E-01
         -1   -1    0    0    0  501 -0.00000000000E+00  0.00000000000E+00  0.19198926399E+04  0.19198926399E+04  0.00000000000E+00 0.  1.
          1   -1    0    0  501    0  0.00000000000E+00 -0.00000000000E+00 -0.75427651482E+03  0.75427651482E+03  0.00000000000E+00 0. -1.
         23    2    1    2    0    0  0.85307629860E+03 -0.55176546153E+03  0.10885894546E+04  0.14917231515E+04  0.89591652828E+02 0.  0.
    5000000    2    1    2    0    0 -0.85307629860E+03  0.55176546153E+03  0.77026670427E+02  0.11824460032E+04  0.60005095343E+03 0.  0.
         23    2    4    4    0    0 -0.30107771460E+03  0.53205613821E+03 -0.17519776063E+01  0.61803645176E+03  0.90743935552E+02 0.  0.
         23    2    4    4    0    0 -0.55199858400E+03  0.19709323319E+02  0.78778648034E+02  0.56440955142E+03  0.85212511936E+02 0.  0.
          3    1    3    3  502    0  0.60646853579E+03 -0.37264611872E+03  0.70577507619E+03  0.10023909781E+04  0.00000000000E+00 0. -1.
         -3    1    3    3    0  502  0.24660776280E+03 -0.17911934281E+03  0.38281437844E+03  0.48933217346E+03  0.00000000000E+00 0.  1.
         11    1    5    5    0    0 -0.15638465172E+03  0.21353323402E+03 -0.33340845039E+02  0.26676621464E+03  0.00000000000E+00 0. -1.
        -11    1    5    5    0    0 -0.14469306288E+03  0.31852290419E+03  0.31588867433E+02  0.35127023712E+03  0.00000000000E+00 0.  1.
          5    1    6    6  503    0 -0.49422747770E+03  0.14633695738E+02  0.96065924910E+02  0.50371191835E+03  0.47000000000E+01 0. -1.
         -5    1    6    6    0  503 -0.57771106302E+02  0.50756275812E+01 -0.17287276877E+02  0.60697633072E+02  0.47000000000E+01 0.  1.
<mgrwt>
<rscale>  0 0.10918862E+04</rscale>
<asrwt>0</asrwt>
<pdfrwt beam="1">  1        1 0.11604254E+00 0.10918862E+04</pdfrwt>
<pdfrwt beam="2">  1       -1 0.29536810E+00 0.10918862E+04</pdfrwt>
<totfact> 0.85952589E-01</totfact>
</mgrwt>
</event>
<event>
12    1  0.3166324E-008  0.7281403E+03  0.7818608E-02  0.9670283E-01
         -2   -1    0    0    0  501 -0.00000000000E+00  0.00000000000E+00  0.43512757811E+03  0.43512757811E+03  0.00000000000E+00 0.  1.
          2   -1    0    0  501    0  0.00000000000E+00 -0.00000000000E+00 -0.20222497246E+04  0.20222497246E+04  0.00000000000E+00 0. -1.
         23    2    1    2    0    0 -0.54974876546E+03 -0.40605527254E+03 -0.13527969862E+04  0.15183094107E+04  0.89995506915E+02 0.  0.
    5000000    2    1    2    0    0  0.54974876546E+03  0.40605527254E+03 -0.23432516027E+03  0.93906789199E+03  0.59986301399E+03 0.  0.
         23    2    4    4    0    0  0.13400055550E+03  0.31342746738E+03 -0.34069893645E+03  0.49056866654E+03  0.91591075494E+02 0.  0.
         23    2    4    4    0    0  0.41574820997E+03  0.92627805162E+02  0.10637377619E+03  0.44849922545E+03  0.91704365187E+02 0.  0.
          4    1    3    3  502    0 -0.24186785191E+03 -0.13318201163E+03 -0.59833102488E+03  0.65896701082E+03  0.00000000000E+00 0. -1.
         -4    1    3    3    0  502 -0.30788091355E+03 -0.27287326091E+03 -0.75446596135E+03  0.85934239991E+03  0.00000000000E+00 0.  1.
         13    1    5    5    0    0  0.59205844316E+02  0.17727700500E+03 -0.12537487039E+03  0.22505849602E+03  0.00000000000E+00 0.  1.
        -13    1    5    5    0    0  0.74794711182E+02  0.13615046237E+03 -0.21532406606E+03  0.26551017052E+03  0.00000000000E+00 0. -1.
          5    1    6    6  503    0  0.12495783693E+03  0.18598670358E+02 -0.95579778550E+01  0.12678255594E+03  0.47000000000E+01 0. -1.
         -5    1    6    6    0  503  0.29079037303E+03  0.74029134804E+02  0.11593175404E+03  0.32171666952E+03  0.47000000000E+01 0.  1.
<mgrwt>
<rscale>  0 0.72814033E+03</rscale>
<asrwt>0</asrwt>
<pdfrwt beam="1">  1        2 0.31111535E+00 0.72814033E+03</pdfrwt>
<pdfrwt beam="2">  1       -2 0.66942702E-01 0.72814033E+03</pdfrwt>
<totfact> 0.13818306E+01</totfact>
</mgrwt>
</event>
<event>
12    1  0.3166324E-008  0.4011114E+03  0.7818608E-02  0.1043396E+00
         -2   -1    0    0    0  501 -0.00000000000E+00  0.00000000000E+00  0.35779163642E+03  0.35779163642E+03  0.00000000000E+00 0.  1.
          2   -1    0    0  501    0  0.00000000000E+00 -0.00000000000E+00 -0.54186512801E+03  0.54186512801E+03  0.00000000000E+00 0. -1.
         23    2    1    2    0    0  0.36735815793E+02 -0.21552731742E+03 -0.98085372164E+02  0.25639628344E+03  0.91196322366E+02 0.  0.
    5000000    2    1    2    0    0 -0.36735815793E+02  0.21552731742E+03 -0.85988119427E+02  0.64326048098E+03  0.59882263233E+03 0.  0.
         23    2    4    4    0    0  0.13597225261E+02  0.38448472270E+03 -0.16788839435E+03  0.42909737233E+03  0.89020533905E+02 0.  0.
         23    2    4    4    0    0 -0.50333041054E+02 -0.16895740528E+03  0.81900274926E+02  0.21416310866E+03  0.89878597319E+02 0.  0.
          2    1    3    3  502    0  0.37163138214E+01 -0.97794034120E+02  0.27540623860E+01  0.97903365404E+02  0.00000000000E+00 0. -1.
         -2    1    3    3    0  502  0.33019501971E+02 -0.11773328330E+03 -0.10083943455E+03  0.15849291803E+03  0.00000000000E+00 0.  1.
         11    1    5    5    0    0 -0.23068874756E+02  0.21490304155E+03 -0.12755849710E+03  0.25097143349E+03  0.00000000000E+00 0. -1.
        -11    1    5    5    0    0  0.36666100017E+02  0.16958168115E+03 -0.40329897258E+02  0.17812593883E+03  0.00000000000E+00 0.  1.
          5    1    6    6  503    0 -0.69481067186E+02 -0.10917728968E+03  0.30860108394E+02  0.13312300917E+03  0.47000000000E+01 0. -1.
         -5    1    6    6    0  503  0.19148026132E+02 -0.59780115597E+02  0.51040166532E+02  0.81040099489E+02  0.47000000000E+01 0.  1.
<mgrwt>
<rscale>  0 0.40111141E+03</rscale>
<asrwt>0</asrwt>
<pdfrwt beam="1">  1        2 0.83363865E-01 0.40111141E+03</pdfrwt>
<pdfrwt beam="2">  1       -2 0.55044868E-01 0.40111141E+03</pdfrwt>
<totfact> 0.17917067E+02</totfact>
</mgrwt>
</event>
<event>
12    1  0.3166324E-008  0.5238890E+03  0.7818608E-02  0.1007725E+00
          1   -1    0    0  501    0  0.00000000000E+00  0.00000000000E+00  0.10116583415E+04  0.10116583415E+04  0.00000000000E+00 0. -1.
         -1   -1    0    0    0  501 -0.00000000000E+00 -0.00000000000E+00 -0.32520290365E+03  0.32520290365E+03  0.00000000000E+00 0.  1.
         23    2    1    2    0    0  0.13009325204E+03 -0.36413878107E+03  0.91380775989E+02  0.40752376419E+03  0.90575195576E+02 0.  0.
    5000000    2    1    2    0    0 -0.13009325204E+03  0.36413878107E+03  0.59507466185E+03  0.92933748095E+03  0.60002749456E+03 0.  0.
         23    2    4    4    0    0 -0.48250783477E+02  0.48385542407E+03  0.27246426068E+03  0.56443350572E+03  0.88905565175E+02 0.  0.
         23    2    4    4    0    0 -0.81842468559E+02 -0.11971664300E+03  0.32261040117E+03  0.36490397523E+03  0.89706052898E+02 0.  0.
          3    1    3    3  502    0  0.12620751466E+03 -0.24108153874E+03  0.44253474947E+02  0.27569369802E+03  0.00000000000E+00 0. -1.
         -3    1    3    3    0  502  0.38857373739E+01 -0.12305724233E+03  0.47127301042E+02  0.13183006617E+03  0.00000000000E+00 0.  1.
         11    1    5    5    0    0 -0.55411202748E+02  0.15538846484E+03  0.76094078405E+02  0.18167631977E+03  0.00000000000E+00 0. -1.
        -11    1    5    5    0    0  0.71604192714E+01  0.32846695923E+03  0.19637018228E+03  0.38275718595E+03  0.00000000000E+00 0.  1.
          5    1    6    6  503    0 -0.69240796153E+02 -0.44115574012E+02  0.10028067287E+03  0.12968722016E+03  0.47000000000E+01 0. -1.
         -5    1    6    6    0  503 -0.12601672406E+02 -0.75601068992E+02  0.22232972830E+03  0.23521675507E+03  0.47000000000E+01 0.  1.
<mgrwt>
<rscale>  0 0.52388897E+03</rscale>
<asrwt>0</asrwt>
<pdfrwt beam="1">  1        1 0.15563974E+00 0.52388897E+03</pdfrwt>
<pdfrwt beam="2">  1       -1 0.50031216E-01 0.52388897E+03</pdfrwt>
<totfact> 0.62311423E+01</totfact>
</mgrwt>
</event>
<event>
12    1  0.3166324E-008  0.5832026E+03  0.7818608E-02  0.9940881E-01
          2   -1    0    0  501    0  0.00000000000E+00  0.00000000000E+00  0.16232552703E+04  0.16232552703E+04  0.00000000000E+00 0.  1.
         -2   -1    0    0    0  501 -0.00000000000E+00 -0.00000000000E+00 -0.25205434443E+03  0.25205434443E+03  0.00000000000E+00 0. -1.
         23    2    1    2    0    0 -0.44687808649E+03  0.20569106435E+03  0.59508975567E+03  0.77780967874E+03  0.94059772978E+02 0.  0.
    5000000    2    1    2    0    0  0.44687808649E+03 -0.20569106435E+03  0.77611117019E+03  0.10974999360E+04  0.60012392291E+03 0.  0.
         23    2    4    4    0    0  0.17799526255E+03 -0.31857619336E+03  0.15848166856E+03  0.40834434287E+03  0.91954111469E+02 0.  0.
         23    2    4    4    0    0  0.26888282395E+03  0.11288512901E+03  0.61762950162E+03  0.68915559311E+03  0.91805255163E+02 0.  0.
          3    1    3    3  502    0 -0.28114074194E+03  0.13506380206E+03  0.44444414891E+03  0.54296680277E+03  0.00000000000E+00 0. -1.
         -3    1    3    3    0  502 -0.16573734455E+03  0.70627262293E+02  0.15064560676E+03  0.23484287597E+03  0.00000000000E+00 0.  1.
         11    1    5    5    0    0  0.29198747111E+02 -0.13153074735E+03  0.80419524837E+02  0.15690826717E+03  0.00000000000E+00 0.  1.
        -11    1    5    5    0    0  0.14879651544E+03 -0.18704544601E+03  0.78062143727E+02  0.25143607570E+03  0.00000000000E+00 0. -1.
          5    1    6    6  503    0  0.12963768846E+03  0.15565724210E+02  0.20747650229E+03  0.24518729788E+03  0.47000000000E+01 0. -1.
         -5    1    6    6    0  503  0.13924513548E+03  0.97319404801E+02  0.41015299933E+03  0.44396829523E+03  0.47000000000E+01 0.  1.
<mgrwt>
<rscale>  0 0.58320260E+03</rscale>
<asrwt>0</asrwt>
<pdfrwt beam="1">  1        2 0.24973157E+00 0.58320260E+03</pdfrwt>
<pdfrwt beam="2">  1       -2 0.38777593E-01 0.58320260E+03</pdfrwt>
<totfact> 0.70851895E+01</totfact>
</mgrwt>
</event>
<event>
12    1  0.3166324E-008  0.1159071E+04  0.7818608E-02  0.9149456E-01
         -2   -1    0    0    0  501 -0.00000000000E+00  0.00000000000E+00  0.97027089427E+03  0.97027089427E+03  0.00000000000E+00 0.  1.
          2   -1    0    0  501    0  0.00000000000E+00 -0.00000000000E+00 -0.14420787480E+04  0.14420787480E+04  0.00000000000E+00 0. -1.
         23    2    1    2    0    0  0.40263219889E+03  0.10208215329E+04 -0.90369574111E+02  0.11048592191E+04  0.91421794286E+02 0.  0.
    5000000    2    1    2    0    0 -0.40263219889E+03 -0.10208215329E+04 -0.38143827965E+03  0.13074904232E+04  0.59987228316E+03 0.  0.
         23    2    4    4    0    0 -0.34334997072E+02 -0.76748389399E+03 -0.34788348342E+03  0.84847616817E+03  0.93158308062E+02 0.  0.
         23    2    4    4    0    0 -0.36829720182E+03 -0.25333763889E+03 -0.33554796236E+02  0.45901425507E+03  0.98718660134E+02 0.  0.
          3    1    3    3  502    0  0.21945147578E+03  0.67330110839E+03 -0.66924203957E+02  0.71131721606E+03  0.00000000000E+00 0. -1.
         -3    1    3    3    0  502  0.18318072311E+03  0.34752042448E+03 -0.23445370154E+02  0.39354200301E+03  0.00000000000E+00 0.  1.
         13    1    5    5    0    0 -0.14586258052E+02 -0.57694833943E+02 -0.52735195437E+02  0.79513858072E+02  0.00000000000E+00 0.  1.
        -13    1    5    5    0    0 -0.19748739020E+02 -0.70978906004E+03 -0.29514828798E+03  0.76896231010E+03  0.00000000000E+00 0. -1.
          5    1    6    6  503    0 -0.21057584659E+03 -0.13277980160E+03  0.29354487856E+02  0.25071186418E+03  0.47000000000E+01 0. -1.
         -5    1    6    6    0  503 -0.15772135523E+03 -0.12055783729E+03 -0.62909284092E+02  0.20830239089E+03  0.47000000000E+01 0.  1.
<mgrwt>
<rscale>  0 0.11590710E+04</rscale>
<asrwt>0</asrwt>
<pdfrwt beam="1">  1        2 0.22185827E+00 0.11590710E+04</pdfrwt>
<pdfrwt beam="2">  1       -2 0.14927245E+00 0.11590710E+04</pdfrwt>
<totfact> 0.40556740E+00</totfact>
</mgrwt>
</event>
<event>
12    1  0.3166324E-008  0.3825342E+03  0.7818608E-02  0.1050001E+00
         -2   -1    0    0    0  501 -0.00000000000E+00  0.00000000000E+00  0.24802117274E+03  0.24802117274E+03  0.00000000000E+00 0.  1.
          2   -1    0    0  501    0  0.00000000000E+00 -0.00000000000E+00 -0.78206636270E+03  0.78206636270E+03  0.00000000000E+00 0. -1.
         23    2    1    2    0    0 -0.21163857076E+03  0.49557450020E+02 -0.88109352582E+02  0.25163743982E+03  0.91166428161E+02 0.  0.
    5000000    2    1    2    0    0  0.21163857076E+03 -0.49557450020E+02 -0.44593583738E+03  0.77845009561E+03  0.59989912053E+03 0.  0.
         23    2    4    4    0    0 -0.27254152202E+02 -0.22234313624E+03 -0.39932627610E+03  0.46672853866E+03  0.90525106864E+02 0.  0.
         23    2    4    4    0    0  0.23889272296E+03  0.17278568622E+03 -0.46609561284E+02  0.31172155695E+03  0.89851273876E+02 0.  0.
          3    1    3    3  502    0 -0.13251225692E+03  0.44513322708E+02 -0.96959393051E+01  0.14012474932E+03  0.00000000000E+00 0. -1.
         -3    1    3    3    0  502 -0.79126313836E+02  0.50441273118E+01 -0.78413413277E+02  0.11151269050E+03  0.00000000000E+00 0.  1.
         11    1    5    5    0    0 -0.54074248781E+02 -0.11418586766E+03 -0.25310629772E+03  0.28288731802E+03  0.00000000000E+00 0. -1.
        -11    1    5    5    0    0  0.26820096579E+02 -0.10815726859E+03 -0.14621997838E+03  0.18384122064E+03  0.00000000000E+00 0.  1.
          5    1    6    6  503    0  0.15824142721E+03  0.16234658439E+03 -0.34127154863E+02  0.22931095798E+03  0.47000000000E+01 0. -1.
         -5    1    6    6    0  503  0.80651295748E+02  0.10439101833E+02 -0.12482406421E+02  0.82410598972E+02  0.47000000000E+01 0.  1.
<mgrwt>
<rscale>  0 0.38253419E+03</rscale>
<asrwt>0</asrwt>
<pdfrwt beam="1">  1        2 0.12031790E+00 0.38253419E+03</pdfrwt>
<pdfrwt beam="2">  1       -2 0.38157103E-01 0.38253419E+03</pdfrwt>
<totfact> 0.23770490E+02</totfact>
</mgrwt>
</event>
<event>
12    1  0.3166324E-008  0.5758289E+03  0.7818608E-02  0.9956862E-01
          1   -1    0    0  501    0  0.00000000000E+00  0.00000000000E+00  0.41686973676E+03  0.41686973676E+03  0.00000000000E+00 0.  1.
         -1   -1    0    0    0  501 -0.00000000000E+00 -0.00000000000E+00 -0.84666184394E+03  0.84666184394E+03  0.00000000000E+00 0. -1.
         23    2    1    2    0    0 -0.34359161462E+03 -0.25855273228E+03 -0.74581102064E+02  0.44433089810E+03  0.83443952551E+02 0.  0.
    5000000    2    1    2    0    0  0.34359161462E+03  0.25855273228E+03 -0.35521100512E+03  0.81920068259E+03  0.60000848926E+03 0.  0.
         23    2    4    4    0    0  0.32203362927E+03 -0.11240859565E+03 -0.20424841691E+03  0.40789828285E+03  0.91226326149E+02 0.  0.
         23    2    4    4    0    0  0.21557985349E+02  0.37096132793E+03 -0.15096258821E+03  0.41130239974E+03  0.91120291053E+02 0.  0.
          2    1    3    3  502    0 -0.12933159270E+03 -0.94093527406E+02  0.12795066368E+02  0.16044926455E+03  0.00000000000E+00 0. -1.
         -2    1    3    3    0  502 -0.21426002192E+03 -0.16445920487E+03 -0.87376168433E+02  0.28388163355E+03  0.00000000000E+00 0.  1.
         13    1    5    5    0    0  0.65512652196E+02 -0.56444462343E+02 -0.25087362038E+02  0.90040327970E+02  0.00000000000E+00 0. -1.
        -13    1    5    5    0    0  0.25652097708E+03 -0.55964133308E+02 -0.17916105487E+03  0.31785795488E+03  0.00000000000E+00 0.  1.
          5    1    6    6  503    0 -0.55556543029E+01  0.78718698774E+02 -0.72967389820E+02  0.10758173083E+03  0.47000000000E+01 0. -1.
         -5    1    6    6    0  503  0.27113639652E+02  0.29224262915E+03 -0.77995198387E+02  0.30372066891E+03  0.47000000000E+01 0.  1.
<mgrwt>
<rscale>  0 0.57582890E+03</rscale>
<asrwt>0</asrwt>
<pdfrwt beam="1">  1        1 0.64133807E-01 0.57582890E+03</pdfrwt>
<pdfrwt beam="2">  1       -1 0.13025567E+00 0.57582890E+03</pdfrwt>
<totfact> 0.29881675E+01</totfact>
</mgrwt>
</event>
<event>
12    1  0.3166324E-008  0.1650901E+04  0.7818608E-02  0.8789874E-01
          2   -1    0    0  501    0  0.00000000000E+00  0.00000000000E+00  0.11092199757E+04  0.11092199757E+04  0.00000000000E+00 0.  1.
         -2   -1    0    0    0  501 -0.00000000000E+00 -0.00000000000E+00 -0.30291557903E+04  0.30291557903E+04  0.00000000000E+00 0. -1.
         23    2    1    2    0    0  0.14885000373E+04  0.58120137827E+03 -0.42706868839E+02  0.16011636989E+04  0.92053848468E+02 0.  0.
    5000000    2    1    2    0    0 -0.14885000373E+04 -0.58120137827E+03 -0.18772289458E+04  0.25372120670E+04  0.60002429534E+03 0.  0.
         23    2    4    4    0    0 -0.43282079503E+03 -0.46310577221E+03 -0.67187233310E+03  0.92795253771E+03  0.88784477253E+02 0.  0.
         23    2    4    4    0    0 -0.10556792423E+04 -0.11809560606E+03 -0.12053566127E+04  0.16092595293E+04  0.91795610953E+02 0.  0.
          1    1    3    3  502    0  0.10605110554E+04  0.45225936933E+03 -0.97571735125E+01  0.11529602934E+04  0.00000000000E+00 0. -1.
         -1    1    3    3    0  502  0.42798898191E+03  0.12894200894E+03 -0.32949695326E+02  0.44820340553E+03  0.00000000000E+00 0.  1.
         11    1    5    5    0    0 -0.42771556270E+03 -0.43212405853E+03 -0.62911512747E+03  0.87490436514E+03  0.00000000000E+00 0. -1.
        -11    1    5    5    0    0 -0.51052323281E+01 -0.30981713684E+02 -0.42757205630E+02  0.53048172571E+02  0.00000000000E+00 0.  1.
          5    1    6    6  503    0 -0.51023282800E+03 -0.66932132402E+02 -0.51668670019E+03  0.72924939854E+03  0.47000000000E+01 0. -1.
         -5    1    6    6    0  503 -0.54544641427E+03 -0.51163473661E+02 -0.68866991250E+03  0.88001013077E+03  0.47000000000E+01 0.  1.
<mgrwt>
<rscale>  0 0.16509011E+04</rscale>
<asrwt>0</asrwt>
<pdfrwt beam="1">  1        2 0.17064923E+00 0.16509011E+04</pdfrwt>
<pdfrwt beam="2">  1       -2 0.46602396E+00 0.16509011E+04</pdfrwt>
<totfact> 0.54335690E-02</totfact>
</mgrwt>
</event>
<event>
12    1  0.3166324E-008  0.8415554E+03  0.7818608E-02  0.9501742E-01
          2   -1    0    0  501    0  0.00000000000E+00  0.00000000000E+00  0.44087108211E+03  0.44087108211E+03  0.00000000000E+00 0. -1.
         -2   -1    0    0    0  501 -0.00000000000E+00 -0.00000000000E+00 -0.16689251980E+04  0.16689251980E+04  0.00000000000E+00 0.  1.
         23    2    1    2    0    0 -0.31921921195E+03 -0.67806890423E+03 -0.50915622636E+03  0.91045270593E+03  0.89474704417E+02 0.  0.
    5000000    2    1    2    0    0  0.31921921195E+03  0.67806890423E+03 -0.71889788951E+03  0.11993435742E+04  0.59994373832E+03 0.  0.
         23    2    4    4    0    0 -0.14973884561E+03  0.11367059408E+03 -0.88091874959E+02  0.22744109523E+03  0.92879209319E+02 0.  0.
         23    2    4    4    0    0  0.46895805756E+03  0.56439831015E+03 -0.63080601455E+03  0.97190247892E+03  0.90615055475E+02 0.  0.
          1    1    3    3  502    0 -0.66715221682E+02 -0.24011986436E+03 -0.17203560850E+03  0.30282787298E+03  0.00000000000E+00 0. -1.
         -1    1    3    3    0  502 -0.25250399027E+03 -0.43794903987E+03 -0.33712061786E+03  0.60762483295E+03  0.00000000000E+00 0.  1.
         13    1    5    5    0    0 -0.11676643082E+03  0.10050017688E+03 -0.26464089450E+02  0.15631709103E+03  0.00000000000E+00 0. -1.
        -13    1    5    5    0    0 -0.32972414792E+02  0.13170417198E+02 -0.61627785509E+02  0.71124004198E+02  0.00000000000E+00 0.  1.
          5    1    6    6  503    0  0.17820637098E+03  0.28085615416E+03 -0.30314399365E+03  0.45006228554E+03  0.47000000000E+01 0. -1.
         -5    1    6    6    0  503  0.29075168658E+03  0.28354215599E+03 -0.32766202091E+03  0.52184019337E+03  0.47000000000E+01 0.  1.
<mgrwt>
<rscale>  0 0.84155542E+03</rscale>
<asrwt>0</asrwt>
<pdfrwt beam="1">  1        2 0.67826319E-01 0.84155542E+03</pdfrwt>
<pdfrwt beam="2">  1       -2 0.25675773E+00 0.84155542E+03</pdfrwt>
<totfact> 0.42358340E+00</totfact>
</mgrwt>
</event>
<event>
12    1  0.3166324E-008  0.6731714E+03  0.7818608E-02  0.9764246E-01
         -1   -1    0    0    0  501 -0.00000000000E+00  0.00000000000E+00  0.68511834859E+03  0.68511834859E+03  0.00000000000E+00 0.  1.
          1   -1    0    0  501    0  0.00000000000E+00 -0.00000000000E+00 -0.92110590624E+03  0.92110590624E+03  0.00000000000E+00 0. -1.
         23    2    1    2    0    0  0.34305761148E+03  0.48779843780E+03 -0.42819278425E+03  0.73877155241E+03  0.82453049962E+02 0.  0.
    5000000    2    1    2    0    0 -0.34305761148E+03 -0.48779843780E+03  0.19220522659E+03  0.86745270242E+03  0.59991291125E+03 0.  0.
         23    2    4    4    0    0 -0.16209919010E+03 -0.52139233740E+03  0.30669573002E+03  0.63289084966E+03  0.91446376810E+02 0.  0.
         23    2    4    4    0    0 -0.18095842138E+03  0.33593899600E+02 -0.11449050342E+03  0.23456185276E+03  0.89647571284E+02 0.  0.
          3    1    3    3  502    0  0.17569242391E+03  0.29165167342E+03 -0.20282109673E+03  0.39631417299E+03  0.00000000000E+00 0. -1.
         -3    1    3    3    0  502  0.16736518757E+03  0.19614676438E+03 -0.22537168752E+03  0.34245737942E+03  0.00000000000E+00 0.  1.
         13    1    5    5    0    0 -0.17126554457E+02 -0.13073908570E+03  0.38527027600E+02  0.13736942620E+03  0.00000000000E+00 0. -1.
        -13    1    5    5    0    0 -0.14497263565E+03 -0.39065325170E+03  0.26816870242E+03  0.49552142346E+03  0.00000000000E+00 0.  1.
          5    1    6    6  503    0 -0.12901762632E+03 -0.12712961244E+02 -0.48355401051E+02  0.13844674823E+03  0.47000000000E+01 0. -1.
         -5    1    6    6    0  503 -0.51940795059E+02  0.46306860844E+02 -0.66135102374E+02  0.96115104529E+02  0.47000000000E+01 0.  1.
<mgrwt>
<rscale>  0 0.67317136E+03</rscale>
<asrwt>0</asrwt>
<pdfrwt beam="1">  1        1 0.14170860E+00 0.67317136E+03</pdfrwt>
<pdfrwt beam="2">  1       -1 0.10540282E+00 0.67317136E+03</pdfrwt>
<totfact> 0.15352459E+01</totfact>
</mgrwt>
</event>
<event>
12    1  0.3166324E-008  0.3269193E+03  0.7818608E-02  0.1072508E+00
         -2   -1    0    0    0  501 -0.00000000000E+00  0.00000000000E+00  0.66504263616E+03  0.66504263616E+03  0.00000000000E+00 0.  1.
          2   -1    0    0  501    0  0.00000000000E+00 -0.00000000000E+00 -0.41205741309E+03  0.41205741309E+03  0.00000000000E+00 0. -1.
         23    2    1    2    0    0  0.13739423542E+03  0.31850596824E+02  0.40777806753E+03  0.44107197847E+03  0.91487165167E+02 0.  0.
    5000000    2    1    2    0    0 -0.13739423542E+03 -0.31850596824E+02 -0.15479284445E+03  0.63602807078E+03  0.60056577132E+03 0.  0.
         23    2    4    4    0    0  0.17111915648E+03  0.31037658282E+01 -0.23364618235E+03  0.30387042680E+03  0.91952698041E+02 0.  0.
         23    2    4    4    0    0 -0.30851339190E+03 -0.34954362652E+02  0.78853337900E+02  0.33215764398E+03  0.87798240917E+02 0.  0.
          1    1    3    3  502    0  0.82676594703E+02  0.84586513321E+01  0.34377712488E+03  0.35368019408E+03  0.00000000000E+00 0. -1.
         -1    1    3    3    0  502  0.54717640713E+02  0.23391945492E+02  0.64000942655E+02  0.87391784396E+02  0.00000000000E+00 0.  1.
         13    1    5    5    0    0 -0.32573922692E+01  0.17315296489E+02 -0.34855969871E+02  0.39055969231E+02  0.00000000000E+00 0. -1.
        -13    1    5    5    0    0  0.17437654875E+03 -0.14211530661E+02 -0.19879021248E+03  0.26481445757E+03  0.00000000000E+00 0.  1.
          5    1    6    6  503    0 -0.45318812522E+02  0.19964938419E+02 -0.61851555811E+01  0.50127234953E+02  0.47000000000E+01 0. -1.
         -5    1    6    6    0  503 -0.26319457938E+03 -0.54919301070E+02  0.85038493481E+02  0.28203040903E+03  0.47000000000E+01 0.  1.
<mgrwt>
<rscale>  0 0.32691927E+03</rscale>
<asrwt>0</asrwt>
<pdfrwt beam="1">  1        2 0.63393448E-01 0.32691927E+03</pdfrwt>
<pdfrwt beam="2">  1       -2 0.10231425E+00 0.32691927E+03</pdfrwt>
<totfact> 0.63016827E+01</totfact>
</mgrwt>
</event>
<event>
12    1  0.3166324E-008  0.5061757E+03  0.7818608E-02  0.1012179E+00
         -2   -1    0    0    0  501 -0.00000000000E+00  0.00000000000E+00  0.41912565004E+03  0.41912565004E+03  0.00000000000E+00 0.  1.
          2   -1    0    0  501    0  0.00000000000E+00 -0.00000000000E+00 -0.10783352181E+04  0.10783352181E+04  0.00000000000E+00 0. -1.
         23    2    1    2    0    0 -0.36683603193E+03 -0.42108047438E+02 -0.69404308186E+03  0.79234790734E+03  0.98881974162E+02 0.  0.
    5000000    2    1    2    0    0  0.36683603193E+03  0.42108047438E+02  0.34833513848E+02  0.70511296075E+03  0.59969088016E+03 0.  0.
         23    2    4    4    0    0  0.15827557528E+03 -0.23168949063E+03 -0.11368098408E+03  0.31920387690E+03  0.10117594125E+03 0.  0.
         23    2    4    4    0    0  0.20856045665E+03  0.27379753807E+03  0.14851449793E+03  0.38590908386E+03  0.91688107056E+02 0.  0.
          2    1    3    3  502    0 -0.33728376906E+03 -0.25511777495E+02 -0.56123475794E+03  0.65528287417E+03  0.00000000000E+00 0.  1.
         -2    1    3    3    0  502 -0.29552262873E+02 -0.16596269943E+02 -0.13280832391E+03  0.13706503317E+03  0.00000000000E+00 0. -1.
         11    1    5    5    0    0  0.82860141650E+02 -0.17187837337E+03 -0.11529349336E+03  0.22293624182E+03  0.00000000000E+00 0. -1.
        -11    1    5    5    0    0  0.75415433627E+02 -0.59811117262E+02  0.16125092777E+01  0.96267635078E+02  0.00000000000E+00 0.  1.
          5    1    6    6  503    0  0.85953385822E+02  0.17715114391E+03  0.10767227031E+03  0.22446808262E+03  0.47000000000E+01 0. -1.
         -5    1    6    6    0  503  0.12260707083E+03  0.96646394161E+02  0.40842227612E+02  0.16144100123E+03  0.47000000000E+01 0.  1.
<mgrwt>
<rscale>  0 0.50617569E+03</rscale>
<asrwt>0</asrwt>
<pdfrwt beam="1">  1        2 0.16589772E+00 0.50617569E+03</pdfrwt>
<pdfrwt beam="2">  1       -2 0.64480870E-01 0.50617569E+03</pdfrwt>
<totfact> 0.52080153E+01</totfact>
</mgrwt>
</event>
<event>
12    1  0.3166324E-008  0.7483912E+03  0.7818608E-02  0.9637878E-01
         -2   -1    0    0    0  501 -0.00000000000E+00  0.00000000000E+00  0.26384640617E+03  0.26384640617E+03  0.00000000000E+00 0.  1.
          2   -1    0    0  501    0  0.00000000000E+00 -0.00000000000E+00 -0.26530661798E+04  0.26530661798E+04  0.00000000000E+00 0. -1.
         23    2    1    2    0    0 -0.41216929733E+03  0.56117784154E+03 -0.68719776235E+03  0.98259181534E+03  0.91879331244E+02 0.  0.
    5000000    2    1    2    0    0  0.41216929733E+03 -0.56117784154E+03 -0.17020220113E+04  0.19343207706E+04  0.59992817680E+03 0.  0.
         23    2    4    4    0    0  0.80763104683E+02  0.25669266035E+02 -0.26981987472E+02  0.12640514294E+03  0.89825621163E+02 0.  0.
         23    2    4    4    0    0  0.33140619264E+03 -0.58684710757E+03 -0.16750400238E+04  0.18079156277E+04  0.92629602710E+02 0.  0.
          3    1    3    3  502    0 -0.93026315031E+02  0.76063330082E+02 -0.14276407913E+03  0.18660414723E+03  0.00000000000E+00 0. -1.
         -3    1    3    3    0  502 -0.31914298229E+03  0.48511451146E+03 -0.54443368321E+03  0.79598766812E+03  0.00000000000E+00 0.  1.
         13    1    5    5    0    0 -0.38719845823E+01  0.36327802677E+02 -0.17707877302E+02  0.40598896912E+02  0.00000000000E+00 0. -1.
        -13    1    5    5    0    0  0.84635089265E+02 -0.10658536641E+02 -0.92741101703E+01  0.85806246030E+02  0.00000000000E+00 0.  1.
          5    1    6    6  503    0  0.19546222890E+03 -0.35611929904E+03 -0.88723743393E+03  0.97582723483E+03  0.47000000000E+01 0. -1.
         -5    1    6    6    0  503  0.13594396374E+03 -0.23072780853E+03 -0.78780258987E+03  0.83208839284E+03  0.47000000000E+01 0.  1.
<mgrwt>
<rscale>  0 0.74839121E+03</rscale>
<asrwt>0</asrwt>
<pdfrwt beam="1">  1        2 0.40816403E+00 0.74839121E+03</pdfrwt>
<pdfrwt beam="2">  1       -2 0.40591755E-01 0.74839121E+03</pdfrwt>
<totfact> 0.17096906E+01</totfact>
</mgrwt>
</event>
<event>
12    1  0.3166324E-008  0.4994041E+03  0.7818608E-02  0.1013935E+00
          1   -1    0    0  501    0  0.00000000000E+00  0.00000000000E+00  0.34199596551E+03  0.34199596551E+03  0.00000000000E+00 0. -1.
         -1   -1    0    0    0  501 -0.00000000000E+00 -0.00000000000E+00 -0.99550095343E+03  0.99550095343E+03  0.00000000000E+00 0.  1.
         23    2    1    2    0    0  0.27457462530E+03  0.32175560640E+03 -0.24522132860E+03  0.49761858890E+03  0.92589766737E+02 0.  0.
    5000000    2    1    2    0    0 -0.27457462530E+03 -0.32175560640E+03 -0.40828365932E+03  0.83987833005E+03  0.59981844562E+03 0.  0.
         23    2    4    4    0    0 -0.78012584418E+01  0.49474144565E+02 -0.35597953124E+03  0.37090611394E+03  0.91331090450E+02 0.  0.
         23    2    4    4    0    0 -0.26677336686E+03 -0.37122975096E+03 -0.52304128074E+02  0.46897221610E+03  0.90662342776E+02 0.  0.
          2    1    3    3  502    0  0.10653068209E+03  0.18879533734E+03 -0.99778510920E+02  0.23863825525E+03  0.00000000000E+00 0. -1.
         -2    1    3    3    0  502  0.16804394322E+03  0.13296026905E+03 -0.14544281768E+03  0.25898033364E+03  0.00000000000E+00 0.  1.
         11    1    5    5    0    0 -0.45241152918E+02  0.81831279613E+01 -0.12189095039E+03  0.13027328693E+03  0.00000000000E+00 0. -1.
        -11    1    5    5    0    0  0.37439894476E+02  0.41291016604E+02 -0.23408858085E+03  0.24063282701E+03  0.00000000000E+00 0.  1.
          5    1    6    6  503    0 -0.18522933460E+03 -0.31953635742E+03 -0.40108419723E+02  0.37154295235E+03  0.47000000000E+01 0. -1.
         -5    1    6    6    0  503 -0.81544032259E+02 -0.51693393545E+02 -0.12195708351E+02  0.97429263753E+02  0.47000000000E+01 0.  1.
<mgrwt>
<rscale>  0 0.49940406E+03</rscale>
<asrwt>0</asrwt>
<pdfrwt beam="1">  1        1 0.52614764E-01 0.49940406E+03</pdfrwt>
<pdfrwt beam="2">  1       -1 0.15315399E+00 0.49940406E+03</pdfrwt>
<totfact> 0.25688368E+01</totfact>
</mgrwt>
</event>
<event>
12    1  0.3166324E-008  0.5911094E+03  0.7818608E-02  0.9924025E-01
         -2   -1    0    0    0  501 -0.00000000000E+00  0.00000000000E+00  0.32606032323E+03  0.32606032323E+03  0.00000000000E+00 0.  1.
          2   -1    0    0  501    0  0.00000000000E+00 -0.00000000000E+00 -0.14871747804E+04  0.14871747804E+04  0.00000000000E+00 0. -1.
         23    2    1    2    0    0  0.26013993057E+02  0.54273159973E+03 -0.66609587693E+03  0.86447711616E+03  0.91665969293E+02 0.  0.
    5000000    2    1    2    0    0 -0.26013993057E+02 -0.54273159973E+03 -0.49501858026E+03  0.94875798748E+03  0.59988666165E+03 0.  0.
         23    2    4    4    0    0  0.93574500295E+02 -0.44963462966E+03 -0.52479166313E+02  0.47122026264E+03  0.91471228975E+02 0.  0.
         23    2    4    4    0    0 -0.11958849335E+03 -0.93096970067E+02 -0.44253941395E+03  0.47753772484E+03  0.96086899066E+02 0.  0.
          4    1    3    3  502    0  0.38001500916E+02  0.84837979490E+02 -0.10950460137E+03  0.14364140962E+03  0.00000000000E+00 0. -1.
         -4    1    3    3    0  502 -0.11987507859E+02  0.45789362024E+03 -0.55659127556E+03  0.72083570654E+03  0.00000000000E+00 0.  1.
         13    1    5    5    0    0  0.44689374365E+02 -0.73886055510E+02 -0.30824985320E+02  0.91686798940E+02  0.00000000000E+00 0.  1.
        -13    1    5    5    0    0  0.48885125931E+02 -0.37574857415E+03 -0.21654180992E+02  0.37953346370E+03  0.00000000000E+00 0. -1.
          5    1    6    6  503    0 -0.45437260847E+02 -0.77596100249E+02 -0.14680913501E+03  0.17222285438E+03  0.47000000000E+01 0. -1.
         -5    1    6    6    0  503 -0.74151232505E+02 -0.15500869819E+02 -0.29573027894E+03  0.30531487046E+03  0.47000000000E+01 0.  1.
<mgrwt>
<rscale>  0 0.59110937E+03</rscale>
<asrwt>0</asrwt>
<pdfrwt beam="1">  1        2 0.22879611E+00 0.59110937E+03</pdfrwt>
<pdfrwt beam="2">  1       -2 0.50163128E-01 0.59110937E+03</pdfrwt>
<totfact> 0.50500554E+01</totfact>
</mgrwt>
</event>
<event>
12    1  0.3166324E-008  0.4058988E+03  0.7818608E-02  0.1041756E+00
         -2   -1    0    0    0  501 -0.00000000000E+00  0.00000000000E+00  0.16200808598E+03  0.16200808598E+03  0.00000000000E+00 0. -1.
          2   -1    0    0  501    0  0.00000000000E+00 -0.00000000000E+00 -0.13282661420E+04  0.13282661420E+04  0.00000000000E+00 0.  1.
         23    2    1    2    0    0  0.24188130051E+03  0.35004097154E+02 -0.21239830330E+03  0.33721349994E+03  0.94170350638E+02 0.  0.
    5000000    2    1    2    0    0 -0.24188130051E+03 -0.35004097154E+02 -0.95385975274E+03  0.11530607281E+04  0.59997396974E+03 0.  0.
         23    2    4    4    0    0 -0.37216808506E+03 -0.91441044005E+02 -0.35241919870E+03  0.52853761092E+03  0.91006408995E+02 0.  0.
         23    2    4    4    0    0  0.13028678455E+03  0.56436946851E+02 -0.60144055404E+03  0.62452311714E+03  0.90214237293E+02 0.  0.
          1    1    3    3  502    0  0.58252236771E+02  0.50739394265E+02 -0.70943544083E+02  0.10488467794E+03  0.00000000000E+00 0.  1.
         -1    1    3    3    0  502  0.18362906374E+03 -0.15735297112E+02 -0.14145475922E+03  0.23232882200E+03  0.00000000000E+00 0. -1.
         13    1    5    5    0    0 -0.27646588063E+03 -0.52829659588E+02 -0.30480237757E+03  0.41488413498E+03  0.00000000000E+00 0. -1.
        -13    1    5    5    0    0 -0.95702204427E+02 -0.38611384417E+02 -0.47616821134E+02  0.11365347594E+03  0.00000000000E+00 0.  1.
          5    1    6    6  503    0  0.17248931932E+02  0.49044568687E+02 -0.14171766171E+03  0.15102609381E+03  0.47000000000E+01 0. -1.
         -5    1    6    6    0  503  0.11303785262E+03  0.73923781638E+01 -0.45972289232E+03  0.47349702333E+03  0.47000000000E+01 0.  1.
<mgrwt>
<rscale>  0 0.40589881E+03</rscale>
<asrwt>0</asrwt>
<pdfrwt beam="1">  1        2 0.20434864E+00 0.40589881E+03</pdfrwt>
<pdfrwt beam="2">  1       -2 0.24924321E-01 0.40589881E+03</pdfrwt>
<totfact> 0.23927368E+02</totfact>
</mgrwt>
</event>
<event>
12    1  0.3166324E-008  0.1436023E+04  0.7818608E-02  0.8928148E-01
         -2   -1    0    0    0  501 -0.00000000000E+00  0.00000000000E+00  0.31259432735E+04  0.31259432735E+04  0.00000000000E+00 0.  1.
          2   -1    0    0  501    0  0.00000000000E+00 -0.00000000000E+00 -0.98813878265E+03  0.98813878265E+03  0.00000000000E+00 0. -1.
         23    2    1    2    0    0  0.94743298387E+03  0.10180827181E+04  0.21931423275E+04  0.25984403093E+04  0.88865586539E+02 0.  0.
    5000000    2    1    2    0    0 -0.94743298387E+03 -0.10180827181E+04 -0.55337836634E+02  0.15156417469E+04  0.59998829075E+03 0.  0.
         23    2    4    4    0    0  0.21982015811E+02 -0.21559289148E+03  0.75808546284E+02  0.24683568327E+03  0.90649958458E+02 0.  0.
         23    2    4    4    0    0 -0.96941499969E+03 -0.80248982658E+03 -0.13114638292E+03  0.12688060636E+04  0.94414458541E+02 0.  0.
          1    1    3    3  502    0  0.72810905736E+03  0.73071148784E+03  0.16546075743E+04  0.19498226337E+04  0.00000000000E+00 0. -1.
         -1    1    3    3    0  502  0.21932392652E+03  0.28737123022E+03  0.53853475323E+03  0.64861767563E+03  0.00000000000E+00 0.  1.
         13    1    5    5    0    0  0.15592147886E+02 -0.20332211221E+03  0.39136415090E+02  0.20764068815E+03  0.00000000000E+00 0.  1.
        -13    1    5    5    0    0  0.63898679255E+01 -0.12270779271E+02  0.36672131194E+02  0.39194995118E+02  0.00000000000E+00 0. -1.
          5    1    6    6  503    0 -0.73249641470E+03 -0.55864454500E+03 -0.76147002773E+02  0.92436744925E+03  0.47000000000E+01 0. -1.
         -5    1    6    6    0  503 -0.23691858498E+03 -0.24384528158E+03 -0.54999380145E+02  0.34443861438E+03  0.47000000000E+01 0.  1.
<mgrwt>
<rscale>  0 0.14360232E+04</rscale>
<asrwt>0</asrwt>
<pdfrwt beam="1">  1        2 0.15202135E+00 0.14360232E+04</pdfrwt>
<pdfrwt beam="2">  1       -2 0.48091434E+00 0.14360232E+04</pdfrwt>
<totfact> 0.53136684E-02</totfact>
</mgrwt>
</event>
<event>
12    1  0.3166324E-008  0.1406035E+04  0.7818608E-02  0.8949462E-01
         -2   -1    0    0    0  501 -0.00000000000E+00  0.00000000000E+00  0.16092326355E+04  0.16092326355E+04  0.00000000000E+00 0.  1.
          2   -1    0    0  501    0  0.00000000000E+00 -0.00000000000E+00 -0.13233681176E+04  0.13233681176E+04  0.00000000000E+00 0. -1.
         23    2    1    2    0    0 -0.78931717595E+03  0.11507737790E+04  0.83943669066E+02  0.14002506981E+04  0.79709366279E+02 0.  0.
    5000000    2    1    2    0    0  0.78931717595E+03 -0.11507737790E+04  0.20192084880E+03  0.15323500551E+04  0.60001897257E+03 0.  0.
         23    2    4    4    0    0  0.60918896961E+03 -0.70314885737E+03  0.38125754837E+03  0.10094830712E+04  0.90383828351E+02 0.  0.
         23    2    4    4    0    0  0.18012820633E+03 -0.44762492166E+03 -0.17933669957E+03  0.52286698396E+03  0.91727803239E+02 0.  0.
          1    1    3    3  502    0 -0.60426353256E+03  0.89616490545E+03  0.97207150045E+02  0.10852166533E+04  0.00000000000E+00 0. -1.
         -1    1    3    3    0  502 -0.18505364338E+03  0.25460887358E+03 -0.13263480979E+02  0.31503404477E+03  0.00000000000E+00 0.  1.
         11    1    5    5    0    0  0.55584460901E+03 -0.66068659772E+03  0.33057057694E+03  0.92452523822E+03  0.00000000000E+00 0. -1.
        -11    1    5    5    0    0  0.53344360605E+02 -0.42462259652E+02  0.50686971431E+02  0.84957832929E+02  0.00000000000E+00 0.  1.
          5    1    6    6  503    0  0.63061872908E+02 -0.10284470290E+03 -0.81981583303E+02  0.14593458374E+03  0.47000000000E+01 0. -1.
         -5    1    6    6    0  503  0.11706633342E+03 -0.34478021876E+03 -0.97355116268E+02  0.37693240022E+03  0.47000000000E+01 0.  1.
<mgrwt>
<rscale>  0 0.14060349E+04</rscale>
<asrwt>0</asrwt>
<pdfrwt beam="1">  1        2 0.20359509E+00 0.14060349E+04</pdfrwt>
<pdfrwt beam="2">  1       -2 0.24757425E+00 0.14060349E+04</pdfrwt>
<totfact> 0.10132787E+00</totfact>
</mgrwt>
</event>
<event>
12    1  0.3166324E-008  0.1505536E+04  0.7818608E-02  0.8880780E-01
         -2   -1    0    0    0  501 -0.00000000000E+00  0.00000000000E+00  0.19298855278E+04  0.19298855278E+04  0.00000000000E+00 0.  1.
          2   -1    0    0  501    0  0.00000000000E+00 -0.00000000000E+00 -0.11861367472E+04  0.11861367472E+04  0.00000000000E+00 0. -1.
         23    2    1    2    0    0  0.20772557400E+03 -0.14340995980E+04  0.45237317996E+03  0.15208294663E+04  0.92136857882E+02 0.  0.
    5000000    2    1    2    0    0 -0.20772557400E+03  0.14340995980E+04  0.29137560066E+03  0.15951928087E+04  0.59995731939E+03 0.  0.
         23    2    4    4    0    0  0.19370915436E+03  0.37253847571E+03  0.66053460064E+02  0.43469161661E+03  0.91025214083E+02 0.  0.
         23    2    4    4    0    0 -0.40143472836E+03  0.10615611223E+04  0.22532214060E+03  0.11605011920E+04  0.89056679852E+02 0.  0.
          2    1    3    3  502    0  0.14332168235E+03 -0.91948884899E+03  0.33529911124E+03  0.98915435703E+03  0.00000000000E+00 0. -1.
         -2    1    3    3    0  502  0.64403891654E+02 -0.51461074900E+03  0.11707406872E+03  0.53167510927E+03  0.00000000000E+00 0.  1.
         11    1    5    5    0    0  0.93121182448E+02  0.23914817038E+03  0.75040373452E+02  0.26738447910E+03  0.00000000000E+00 0. -1.
        -11    1    5    5    0    0  0.10058797191E+03  0.13339030533E+03 -0.89869133880E+01  0.16730713751E+03  0.00000000000E+00 0.  1.
          5    1    6    6  503    0 -0.11786326967E+03  0.42897543802E+03  0.75835835981E+02  0.45131456965E+03  0.47000000000E+01 0. -1.
         -5    1    6    6    0  503 -0.28357145869E+03  0.63258568426E+03  0.14948630461E+03  0.70918662239E+03  0.47000000000E+01 0.  1.
<mgrwt>
<rscale>  0 0.15055357E+04</rscale>
<asrwt>0</asrwt>
<pdfrwt beam="1">  1        2 0.18248258E+00 0.15055357E+04</pdfrwt>
<pdfrwt beam="2">  1       -2 0.29690547E+00 0.15055357E+04</pdfrwt>
<totfact> 0.60521217E-01</totfact>
</mgrwt>
</event>
<event>
12    1  0.3166324E-008  0.1738275E+04  0.7818608E-02  0.8739831E-01
         -1   -1    0    0    0  501 -0.00000000000E+00  0.00000000000E+00  0.26815001922E+04  0.26815001922E+04  0.00000000000E+00 0.  1.
          1   -1    0    0  501    0  0.00000000000E+00 -0.00000000000E+00 -0.12384271188E+04  0.12384271188E+04  0.00000000000E+00 0. -1.
         23    2    1    2    0    0  0.11629971641E+04 -0.12413446709E+04  0.12352658077E+04  0.21042370388E+04  0.91830843599E+02 0.  0.
    5000000    2    1    2    0    0 -0.11629971641E+04  0.12413446709E+04  0.20780726568E+03  0.18156902723E+04  0.60004025655E+03 0.  0.
         23    2    4    4    0    0 -0.58037533108E+02  0.29997143746E+03  0.16774597607E+03  0.36045790626E+03  0.91869315646E+02 0.  0.
         23    2    4    4    0    0 -0.11049596310E+04  0.94137323345E+03  0.40061289609E+02  0.14552323660E+04  0.94746933515E+02 0.  0.
          3    1    3    3  502    0  0.51386808825E+03 -0.48234046770E+03  0.51069294425E+03  0.87035626166E+03  0.00000000000E+00 0. -1.
         -3    1    3    3    0  502  0.64912907586E+03 -0.75900420321E+03  0.72457286346E+03  0.12338807771E+04  0.00000000000E+00 0.  1.
         11    1    5    5    0    0  0.23185668134E+02  0.10936493801E+03  0.55441409758E+02  0.12478787918E+03  0.00000000000E+00 0. -1.
        -11    1    5    5    0    0 -0.81223201242E+02  0.19060649944E+03  0.11230456631E+03  0.23567002708E+03  0.00000000000E+00 0.  1.
          5    1    6    6  503    0 -0.99973637688E+03  0.81730534262E+03  0.22135351589E+02  0.12915002556E+04  0.47000000000E+01 0. -1.
         -5    1    6    6    0  503 -0.10522325412E+03  0.12406789083E+03  0.17925938021E+02  0.16373211046E+03  0.47000000000E+01 0.  1.
<mgrwt>
<rscale>  0 0.17382753E+04</rscale>
<asrwt>0</asrwt>
<pdfrwt beam="1">  1        1 0.19052725E+00 0.17382753E+04</pdfrwt>
<pdfrwt beam="2">  1       -1 0.41253849E+00 0.17382753E+04</pdfrwt>
<totfact> 0.54267350E-02</totfact>
</mgrwt>
</event>
<event>
12    1  0.3166324E-008  0.1271503E+04  0.7818608E-02  0.9052474E-01
         -2   -1    0    0    0  501 -0.00000000000E+00  0.00000000000E+00  0.28478648339E+04  0.28478648339E+04  0.00000000000E+00 0.  1.
          2   -1    0    0  501    0  0.00000000000E+00 -0.00000000000E+00 -0.66137414827E+03  0.66137414827E+03  0.00000000000E+00 0. -1.
         23    2    1    2    0    0 -0.18337550228E+03  0.12543232130E+04  0.14388895201E+04  0.19198985453E+04  0.93027284948E+02 0.  0.
    5000000    2    1    2    0    0  0.18337550228E+03 -0.12543232130E+04  0.74760116559E+03  0.15893404369E+04  0.60011850854E+03 0.  0.
         23    2    4    4    0    0  0.91117566072E+02 -0.79128922868E+03  0.13940906082E+03  0.81391106695E+03  0.92602831467E+02 0.  0.
         23    2    4    4    0    0  0.92257936205E+02 -0.46303398427E+03  0.60819210476E+03  0.77542936998E+03  0.92092747518E+02 0.  0.
          1    1    3    3  502    0 -0.15294364777E+03  0.72986712694E+03  0.84744235531E+03  0.11288296275E+04  0.00000000000E+00 0. -1.
         -1    1    3    3    0  502 -0.30431854512E+02  0.52445608602E+03  0.59144716475E+03  0.79106891774E+03  0.00000000000E+00 0.  1.
         11    1    5    5    0    0  0.31123096194E+02 -0.31395044505E+03  0.10110651182E+03  0.33129451519E+03  0.00000000000E+00 0.  1.
        -11    1    5    5    0    0  0.59994469878E+02 -0.47733878363E+03  0.38302549005E+02  0.48261655176E+03  0.00000000000E+00 0. -1.
          5    1    6    6  503    0  0.41718503210E+02 -0.33525156040E+03  0.48322999640E+03  0.58963324336E+03  0.47000000000E+01 0. -1.
         -5    1    6    6    0  503  0.50539432995E+02 -0.12778242387E+03  0.12496210837E+03  0.18579612662E+03  0.47000000000E+01 0.  1.
<mgrwt>
<rscale>  0 0.12715029E+04</rscale>
<asrwt>0</asrwt>
<pdfrwt beam="1">  1        2 0.10174987E+00 0.12715029E+04</pdfrwt>
<pdfrwt beam="2">  1       -2 0.43813304E+00 0.12715029E+04</pdfrwt>
<totfact> 0.17964387E-01</totfact>
</mgrwt>
</event>
<event>
12    1  0.3166324E-008  0.1033775E+04  0.7818608E-02  0.9272258E-01
         -2   -1    0    0    0  501 -0.00000000000E+00  0.00000000000E+00  0.93838871223E+03  0.93838871223E+03  0.00000000000E+00 0.  1.
          2   -1    0    0  501    0  0.00000000000E+00 -0.00000000000E+00 -0.16014660714E+04  0.16014660714E+04  0.00000000000E+00 0. -1.
         23    2    1    2    0    0 -0.20190480318E+03 -0.98231443726E+03  0.27324705505E+03  0.10423278879E+04  0.77950430042E+02 0.  0.
    5000000    2    1    2    0    0  0.20190480318E+03  0.98231443726E+03 -0.93632441421E+03  0.14975268957E+04  0.60014680838E+03 0.  0.
         23    2    4    4    0    0  0.11587930643E+03  0.93110403716E+03 -0.98144823232E+03  0.13610972310E+04  0.94669413166E+02 0.  0.
         23    2    4    4    0    0  0.86025496755E+02  0.51210400099E+02  0.45123818108E+02  0.13642966475E+03  0.80956798934E+02 0.  0.
          1    1    3    3  502    0 -0.40696376244E+02 -0.93823444308E+02  0.38891694473E+02  0.10941479626E+03  0.00000000000E+00 0. -1.
         -1    1    3    3    0  502 -0.16120842694E+03 -0.88849099295E+03  0.23435536058E+03  0.93291309162E+03  0.00000000000E+00 0.  1.
         11    1    5    5    0    0  0.57125320109E+02  0.18393245668E+03 -0.17629612870E+03  0.26110299848E+03  0.00000000000E+00 0. -1.
        -11    1    5    5    0    0  0.58753986316E+02  0.74717158048E+03 -0.80515210361E+03  0.10999942325E+04  0.00000000000E+00 0.  1.
          5    1    6    6  503    0  0.87868702372E+01  0.40952171171E+02 -0.67813893011E+01  0.42689186606E+02  0.47000000000E+01 0. -1.
         -5    1    6    6    0  503  0.77238626518E+02  0.10258228928E+02  0.51905207409E+02  0.93740478147E+02  0.47000000000E+01 0.  1.
<mgrwt>
<rscale>  0 0.10337749E+04</rscale>
<asrwt>0</asrwt>
<pdfrwt beam="1">  1        2 0.24637939E+00 0.10337749E+04</pdfrwt>
<pdfrwt beam="2">  1       -2 0.14436750E+00 0.10337749E+04</pdfrwt>
<totfact> 0.36513887E+00</totfact>
</mgrwt>
</event>
<event>
12    1  0.3166324E-008  0.5090420E+03  0.7818608E-02  0.1011445E+00
          2   -1    0    0  501    0  0.00000000000E+00  0.00000000000E+00  0.19794703064E+04  0.19794703064E+04  0.00000000000E+00 0. -1.
         -2   -1    0    0    0  501 -0.00000000000E+00 -0.00000000000E+00 -0.23910531706E+03  0.23910531706E+03  0.00000000000E+00 0.  1.
         23    2    1    2    0    0  0.28350417910E+03  0.37364194961E+03  0.11800878761E+04  0.12733733047E+04  0.94282828609E+02 0.  0.
    5000000    2    1    2    0    0 -0.28350417910E+03 -0.37364194961E+03  0.56027711322E+03  0.94520231872E+03  0.59959490796E+03 0.  0.
         23    2    4    4    0    0  0.39956001763E+01 -0.13286965470E+02  0.45411896893E+03  0.46342469501E+03  0.91355906930E+02 0.  0.
         23    2    4    4    0    0 -0.28749977928E+03 -0.36035498414E+03  0.10615814428E+03  0.48177762371E+03  0.91259462168E+02 0.  0.
          1    1    3    3  502    0  0.27385182899E+03  0.32204169028E+03  0.99727712020E+03  0.10831746530E+04  0.00000000000E+00 0. -1.
         -1    1    3    3    0  502  0.96523501117E+01  0.51600259324E+02  0.18281075592E+03  0.19019865169E+03  0.00000000000E+00 0.  1.
         13    1    5    5    0    0 -0.16197692665E+01  0.33367865560E+02  0.85044393098E+02  0.91370601956E+02  0.00000000000E+00 0. -1.
        -13    1    5    5    0    0  0.56153694428E+01 -0.46654831029E+02  0.36907457583E+03  0.37205409306E+03  0.00000000000E+00 0.  1.
          5    1    6    6  503    0 -0.10149917348E+03 -0.15511110332E+03  0.90467786515E+00  0.18543043179E+03  0.47000000000E+01 0. -1.
         -5    1    6    6    0  503 -0.18600060579E+03 -0.20524388082E+03  0.10525346642E+03  0.29634719193E+03  0.47000000000E+01 0.  1.
<mgrwt>
<rscale>  0 0.50904204E+03</rscale>
<asrwt>0</asrwt>
<pdfrwt beam="1">  1        2 0.30453388E+00 0.50904204E+03</pdfrwt>
<pdfrwt beam="2">  1       -2 0.36785435E-01 0.50904204E+03</pdfrwt>
<totfact> 0.50912973E+01</totfact>
</mgrwt>
</event>
<event>
12    1  0.3166324E-008  0.9812253E+03  0.7818608E-02  0.9329380E-01
          2   -1    0    0  501    0  0.00000000000E+00  0.00000000000E+00  0.12205388643E+04  0.12205388643E+04  0.00000000000E+00 0. -1.
         -2   -1    0    0    0  501 -0.00000000000E+00 -0.00000000000E+00 -0.88576544868E+03  0.88576544868E+03  0.00000000000E+00 0.  1.
         23    2    1    2    0    0  0.49097179357E+03  0.81094643068E+03  0.79698915945E+02  0.95569244685E+03  0.91152181878E+02 0.  0.
    5000000    2    1    2    0    0 -0.49097179357E+03 -0.81094643068E+03  0.25507449964E+03  0.11506118661E+04  0.60013102781E+03 0.  0.
         23    2    4    4    0    0  0.26372722924E+02 -0.15535995146E+03  0.25143953343E+03  0.31052216275E+03  0.91487373737E+02 0.  0.
         23    2    4    4    0    0 -0.51734451649E+03 -0.65558647921E+03  0.36349662141E+01  0.84008970336E+03  0.91096192207E+02 0.  0.
          1    1    3    3  502    0  0.19235472408E+03  0.31788095215E+03 -0.13348797443E+02  0.37178869000E+03  0.00000000000E+00 0. -1.
         -1    1    3    3    0  502  0.29861706949E+03  0.49306547852E+03  0.93047713388E+02  0.58390375685E+03  0.00000000000E+00 0.  1.
         13    1    5    5    0    0 -0.26819934428E+02 -0.67415460881E+02  0.14732978339E+03  0.16422611949E+03  0.00000000000E+00 0.  1.
        -13    1    5    5    0    0  0.53192657352E+02 -0.87944490583E+02  0.10410975004E+03  0.14629604326E+03  0.00000000000E+00 0. -1.
          5    1    6    6  503    0 -0.38212591162E+03 -0.42312202639E+03 -0.16241610013E+02  0.57038438044E+03  0.47000000000E+01 0. -1.
         -5    1    6    6    0  503 -0.13521860487E+03 -0.23246445282E+03  0.19876576227E+02  0.26970532292E+03  0.47000000000E+01 0.  1.
<mgrwt>
<rscale>  0 0.98122529E+03</rscale>
<asrwt>0</asrwt>
<pdfrwt beam="1">  1        2 0.18777521E+00 0.98122529E+03</pdfrwt>
<pdfrwt beam="2">  1       -2 0.13627161E+00 0.98122529E+03</pdfrwt>
<totfact> 0.70477004E+00</totfact>
</mgrwt>
</event>
<event>
12    1  0.3166324E-008  0.1048978E+04  0.7818608E-02  0.9256400E-01
          1   -1    0    0  501    0  0.00000000000E+00  0.00000000000E+00  0.97200168987E+03  0.97200168987E+03  0.00000000000E+00 0.  1.
         -1   -1    0    0    0  501 -0.00000000000E+00 -0.00000000000E+00 -0.13321213706E+04  0.13321213706E+04  0.00000000000E+00 0. -1.
         23    2    1    2    0    0  0.51202349482E+03 -0.81657702983E+03  0.27081108504E+03  0.10052526383E+04  0.90708974792E+02 0.  0.
    5000000    2    1    2    0    0 -0.51202349482E+03  0.81657702983E+03 -0.63093076572E+03  0.12988704221E+04  0.60002053089E+03 0.  0.
         23    2    4    4    0    0 -0.21776700078E+03  0.79163682890E+03 -0.43976204435E+03  0.93581618803E+03  0.90829216735E+02 0.  0.
         23    2    4    4    0    0 -0.29425649404E+03  0.24940200927E+02 -0.19116872136E+03  0.36305423411E+03  0.89744074873E+02 0.  0.
          3    1    3    3  502    0  0.18142240672E+03 -0.29751637077E+03  0.14327635143E+03  0.37677339797E+03  0.00000000000E+00 0. -1.
         -3    1    3    3    0  502  0.33060108810E+03 -0.51906065906E+03  0.12753473361E+03  0.62847924032E+03  0.00000000000E+00 0.  1.
         13    1    5    5    0    0 -0.18355954743E+03  0.50887397799E+03 -0.29917376934E+03  0.61818425829E+03  0.00000000000E+00 0. -1.
        -13    1    5    5    0    0 -0.34207453352E+02  0.28276285091E+03 -0.14058827502E+03  0.31763192974E+03  0.00000000000E+00 0.  1.
          5    1    6    6  503    0 -0.10866054090E+03  0.52208200705E+02 -0.66350483849E+02  0.13768546065E+03  0.47000000000E+01 0. -1.
         -5    1    6    6    0  503 -0.18559595314E+03 -0.27267999778E+02 -0.12481823752E+03  0.22536877346E+03  0.47000000000E+01 0.  1.
<mgrwt>
<rscale>  0 0.10489776E+04</rscale>
<asrwt>0</asrwt>
<pdfrwt beam="1">  1        1 0.14953872E+00 0.10489776E+04</pdfrwt>
<pdfrwt beam="2">  1       -1 0.20494175E+00 0.10489776E+04</pdfrwt>
<totfact> 0.22118393E+00</totfact>
</mgrwt>
</event>
<event>
12    1  0.3166324E-008  0.1093342E+04  0.7818608E-02  0.9211706E-01
         -2   -1    0    0    0  501 -0.00000000000E+00  0.00000000000E+00  0.21676272565E+04  0.21676272565E+04  0.00000000000E+00 0.  1.
          2   -1    0    0  501    0  0.00000000000E+00 -0.00000000000E+00 -0.68803389612E+03  0.68803389612E+03  0.00000000000E+00 0. -1.
         23    2    1    2    0    0 -0.10237610261E+04  0.28317368037E+03  0.19658653389E+03  0.10852391350E+04  0.10403722006E+03 0.  0.
    5000000    2    1    2    0    0  0.10237610261E+04 -0.28317368037E+03  0.12830068265E+04  0.17704220176E+04  0.60001135974E+03 0.  0.
         23    2    4    4    0    0  0.34659825949E+02 -0.68971098404E+02 -0.22011203134E+02  0.11652796561E+03  0.84474598289E+02 0.  0.
         23    2    4    4    0    0  0.98910120012E+03 -0.21420258197E+03  0.13050180297E+04  0.16538940520E+04  0.89941910922E+02 0.  0.
          1    1    3    3  502    0 -0.16265854291E+03  0.42440006227E+02  0.70435661801E+02  0.18226392447E+03  0.00000000000E+00 0. -1.
         -1    1    3    3    0  502 -0.86110248315E+03  0.24073367415E+03  0.12615087209E+03  0.90297521056E+03  0.00000000000E+00 0.  1.
         11    1    5    5    0    0 -0.26080512129E+02 -0.11535041305E+02 -0.16040012335E+02  0.32718989693E+02  0.00000000000E+00 0. -1.
        -11    1    5    5    0    0  0.60740338078E+02 -0.57436057099E+02 -0.59711907995E+01  0.83808975918E+02  0.00000000000E+00 0.  1.
          5    1    6    6  503    0  0.36900530445E+03 -0.68364351921E+02  0.55291055565E+03  0.66825950938E+03  0.47000000000E+01 0. -1.
         -5    1    6    6    0  503  0.62009589566E+03 -0.14583823005E+03  0.75210747402E+03  0.98563454263E+03  0.47000000000E+01 0.  1.
<mgrwt>
<rscale>  0 0.10933417E+04</rscale>
<asrwt>0</asrwt>
<pdfrwt beam="1">  1        2 0.10585137E+00 0.10933417E+04</pdfrwt>
<pdfrwt beam="2">  1       -2 0.33348111E+00 0.10933417E+04</pdfrwt>
<totfact> 0.82542777E-01</totfact>
</mgrwt>
</event>
<event>
12    1  0.3166324E-008  0.1127649E+04  0.7818608E-02  0.9178654E-01
          2   -1    0    0  501    0  0.00000000000E+00  0.00000000000E+00  0.14875970559E+04  0.14875970559E+04  0.00000000000E+00 0.  1.
         -2   -1    0    0    0  501 -0.00000000000E+00 -0.00000000000E+00 -0.97850381729E+03  0.97850381729E+03  0.00000000000E+00 0. -1.
         23    2    1    2    0    0 -0.86360636460E+03 -0.70754480888E+03  0.41664416233E+03  0.11952401970E+04  0.92580565046E+02 0.  0.
    5000000    2    1    2    0    0  0.86360636460E+03  0.70754480888E+03  0.92449076261E+02  0.12708606761E+04  0.60008700779E+03 0.  0.
         23    2    4    4    0    0  0.55155539801E+02  0.54086368467E+02 -0.15769152202E+03  0.19776081475E+03  0.90968428081E+02 0.  0.
         23    2    4    4    0    0  0.80845082480E+03  0.65345844041E+03  0.25014059828E+03  0.10730998614E+04  0.91500405260E+02 0.  0.
          3    1    3    3  502    0 -0.19842953097E+03 -0.16884596577E+03  0.56462116400E+02  0.26659184066E+03  0.00000000000E+00 0. -1.
         -3    1    3    3    0  502 -0.66517683364E+03 -0.53869884311E+03  0.36018204593E+03  0.92864835636E+03  0.00000000000E+00 0.  1.
         11    1    5    5    0    0  0.54605864857E+02  0.66837408487E+02 -0.75761592637E+02  0.11484275584E+03  0.00000000000E+00 0. -1.
        -11    1    5    5    0    0  0.54967494436E+00 -0.12751040020E+02 -0.81929929382E+02  0.82918058906E+02  0.00000000000E+00 0.  1.
          5    1    6    6  503    0  0.18510547517E+03  0.15928550232E+03  0.20356128274E+02  0.24509665470E+03  0.47000000000E+01 0. -1.
         -5    1    6    6    0  503  0.62334534963E+03  0.49417293810E+03  0.22978447001E+03  0.82800320670E+03  0.47000000000E+01 0.  1.
<mgrwt>
<rscale>  0 0.11276492E+04</rscale>
<asrwt>0</asrwt>
<pdfrwt beam="1">  1        2 0.22886109E+00 0.11276492E+04</pdfrwt>
<pdfrwt beam="2">  1       -2 0.15053905E+00 0.11276492E+04</pdfrwt>
<totfact> 0.37481272E+00</totfact>
</mgrwt>
</event>
<event>
12    1  0.3166324E-008  0.1011719E+04  0.7818608E-02  0.9295784E-01
          1   -1    0    0  501    0  0.00000000000E+00  0.00000000000E+00  0.83833976408E+03  0.83833976408E+03  0.00000000000E+00 0. -1.
         -1   -1    0    0    0  501 -0.00000000000E+00 -0.00000000000E+00 -0.17549482141E+04  0.17549482141E+04  0.00000000000E+00 0.  1.
         23    2    1    2    0    0  0.96675331926E+03 -0.92411947435E+02 -0.10625189554E+04  0.14423884109E+04  0.91574282048E+02 0.  0.
    5000000    2    1    2    0    0 -0.96675331926E+03  0.92411947435E+02  0.14591050533E+03  0.11508995673E+04  0.60010664889E+03 0.  0.
         23    2    4    4    0    0 -0.90451445391E+03  0.19398468653E+01  0.27785974064E+03  0.95055186127E+03  0.90513231987E+02 0.  0.
         23    2    4    4    0    0 -0.62238865346E+02  0.90472100570E+02 -0.13194923531E+03  0.20034770599E+03  0.10329436216E+03 0.  0.
          3    1    3    3  502    0  0.80267651743E+03 -0.94516213313E+02 -0.92446060960E+03  0.12279455708E+04  0.00000000000E+00 0. -1.
         -3    1    3    3    0  502  0.16407680183E+03  0.21042658774E+01 -0.13805834576E+03  0.21444284009E+03  0.00000000000E+00 0.  1.
         13    1    5    5    0    0 -0.39623820651E+03 -0.13735011795E+02  0.16629943487E+03  0.42994054111E+03  0.00000000000E+00 0. -1.
        -13    1    5    5    0    0 -0.50827624740E+03  0.15674858661E+02  0.11156030577E+03  0.52061132017E+03  0.00000000000E+00 0.  1.
          5    1    6    6  503    0 -0.37077293947E+02 -0.12977367497E+02 -0.15488493841E+02  0.42486718338E+02  0.47000000000E+01 0. -1.
         -5    1    6    6    0  503 -0.25161571398E+02  0.10344946807E+03 -0.11646074147E+03  0.15786098765E+03  0.47000000000E+01 0.  1.
<mgrwt>
<rscale>  0 0.10117193E+04</rscale>
<asrwt>0</asrwt>
<pdfrwt beam="1">  1        1 0.12897535E+00 0.10117193E+04</pdfrwt>
<pdfrwt beam="2">  1       -1 0.26999203E+00 0.10117193E+04</pdfrwt>
<totfact> 0.10677588E+00</totfact>
</mgrwt>
</event>
<event>
12    1  0.3166324E-008  0.8661284E+03  0.7818608E-02  0.9468942E-01
          1   -1    0    0  501    0  0.00000000000E+00  0.00000000000E+00  0.20439787678E+04  0.20439787678E+04  0.00000000000E+00 0. -1.
         -1   -1    0    0    0  501 -0.00000000000E+00 -0.00000000000E+00 -0.44621156458E+03  0.44621156458E+03  0.00000000000E+00 0.  1.
         23    2    1    2    0    0 -0.64567918571E+03 -0.45820070775E+03  0.28932627398E+03  0.84735739387E+03  0.86344430504E+02 0.  0.
    5000000    2    1    2    0    0  0.64567918571E+03  0.45820070775E+03  0.13084409292E+04  0.16428329385E+04  0.60002741528E+03 0.  0.
         23    2    4    4    0    0  0.35921556649E+03  0.52763813257E+03  0.64972006824E+03  0.91526510574E+03  0.90201023046E+02 0.  0.
         23    2    4    4    0    0  0.28646361923E+03 -0.69437424817E+02  0.65872086095E+03  0.72756783273E+03  0.92513877150E+02 0.  0.
          1    1    3    3  502    0 -0.61988793774E+03 -0.42453552324E+03  0.28887077783E+03  0.80494583180E+03  0.00000000000E+00 0. -1.
         -1    1    3    3    0  502 -0.25791247967E+02 -0.33665184515E+02  0.45549615487E+00  0.42411562066E+02  0.00000000000E+00 0.  1.
         11    1    5    5    0    0  0.83819269821E+02  0.94974863175E+02  0.85767312625E+02  0.15297688238E+03  0.00000000000E+00 0. -1.
        -11    1    5    5    0    0  0.27539629667E+03  0.43266326940E+03  0.56395275561E+03  0.76228822335E+03  0.00000000000E+00 0.  1.
          5    1    6    6  503    0  0.19708023765E+03 -0.70778434596E+02  0.36865616217E+03  0.42400431930E+03  0.47000000000E+01 0. -1.
         -5    1    6    6    0  503  0.89383381577E+02  0.13410097787E+01  0.29006469878E+03  0.30356351343E+03  0.47000000000E+01 0.  1.
<mgrwt>
<rscale>  0 0.86612845E+03</rscale>
<asrwt>0</asrwt>
<pdfrwt beam="1">  1        1 0.31445827E+00 0.86612845E+03</pdfrwt>
<pdfrwt beam="2">  1       -1 0.68647934E-01 0.86612845E+03</pdfrwt>
<totfact> 0.61556503E+00</totfact>
</mgrwt>
</event>
<event>
12    1  0.3166324E-008  0.7481120E+03  0.7818608E-02  0.9638317E-01
          2   -1    0    0  501    0  0.00000000000E+00  0.00000000000E+00  0.25221743336E+04  0.25221743336E+04  0.00000000000E+00 0.  1.
         -2   -1    0    0    0  501 -0.00000000000E+00 -0.00000000000E+00 -0.27051777172E+03  0.27051777172E+03  0.00000000000E+00 0. -1.
         23    2    1    2    0    0  0.42208413384E+03 -0.57443051911E+03  0.10413031429E+04  0.12652247480E+04  0.91411106073E+02 0.  0.
    5000000    2    1    2    0    0 -0.42208413384E+03  0.57443051911E+03  0.12103534190E+04  0.15274673573E+04  0.60006307284E+03 0.  0.
         23    2    4    4    0    0  0.10993646048E+02  0.10479114529E+03 -0.91289102576E+01  0.14769261308E+03  0.10309086561E+03 0.  0.
         23    2    4    4    0    0 -0.43307777989E+03  0.46963937382E+03  0.12194823292E+04  0.13797747442E+04  0.92323824309E+02 0.  0.
          1    1    3    3  502    0  0.68617157910E+02 -0.72364489444E+02  0.20229996749E+03  0.22554425406E+03  0.00000000000E+00 0. -1.
         -1    1    3    3    0  502  0.35346697593E+03 -0.50206602966E+03  0.83900317542E+03  0.10396804940E+04  0.00000000000E+00 0.  1.
         13    1    5    5    0    0 -0.25423227764E+01  0.12170213975E+03  0.49991904254E+01  0.12183130193E+03  0.00000000000E+00 0. -1.
        -13    1    5    5    0    0  0.13535968825E+02 -0.16910994461E+02 -0.14128100683E+02  0.25861311154E+02  0.00000000000E+00 0.  1.
          5    1    6    6  503    0 -0.18215228929E+03  0.18632825637E+03  0.40437794548E+03  0.48108345265E+03  0.47000000000E+01 0. -1.
         -5    1    6    6    0  503 -0.25092549059E+03  0.28331111745E+03  0.81510438372E+03  0.89869129153E+03  0.47000000000E+01 0.  1.
<mgrwt>
<rscale>  0 0.74811202E+03</rscale>
<asrwt>0</asrwt>
<pdfrwt beam="1">  1        2 0.38802681E+00 0.74811202E+03</pdfrwt>
<pdfrwt beam="2">  1       -2 0.41618120E-01 0.74811202E+03</pdfrwt>
<totfact> 0.19351132E+01</totfact>
</mgrwt>
</event>
<event>
12    1  0.3166324E-008  0.4816888E+03  0.7818608E-02  0.1018672E+00
         -2   -1    0    0    0  501 -0.00000000000E+00  0.00000000000E+00  0.39788202885E+03  0.39788202885E+03  0.00000000000E+00 0.  1.
          2   -1    0    0  501    0  0.00000000000E+00 -0.00000000000E+00 -0.96282107125E+03  0.96282107125E+03  0.00000000000E+00 0. -1.
         23    2    1    2    0    0  0.40658162242E+03  0.22346248930E+03 -0.28597406349E+03  0.55259641828E+03  0.91310112741E+02 0.  0.
    5000000    2    1    2    0    0 -0.40658162242E+03 -0.22346248930E+03 -0.27896497891E+03  0.80810668183E+03  0.59997570780E+03 0.  0.
         23    2    4    4    0    0 -0.26537665092E+03 -0.15210609734E+03 -0.45485877097E+03  0.55456297075E+03  0.84157918839E+02 0.  0.
         23    2    4    4    0    0 -0.14120497150E+03 -0.71356391958E+02  0.17589379206E+03  0.25354371108E+03  0.91187766139E+02 0.  0.
          2    1    3    3  502    0  0.20120733172E+03  0.11451486288E+03 -0.19590256805E+03  0.30327522208E+03  0.00000000000E+00 0. -1.
         -2    1    3    3    0  502  0.20537429070E+03  0.10894762643E+03 -0.90071495445E+02  0.24932119620E+03  0.00000000000E+00 0.  1.
         13    1    5    5    0    0 -0.14898618971E+03 -0.13129274777E+03 -0.29883597228E+03  0.35880023505E+03  0.00000000000E+00 0. -1.
        -13    1    5    5    0    0 -0.11639046121E+03 -0.20813349569E+02 -0.15602279869E+03  0.19576273570E+03  0.00000000000E+00 0.  1.
          5    1    6    6  503    0 -0.84785156336E+01 -0.46435455066E+02  0.43277823424E+02  0.64212122803E+02  0.47000000000E+01 0. -1.
         -5    1    6    6    0  503 -0.13272645586E+03 -0.24920936892E+02  0.13261596864E+03  0.18933158828E+03  0.47000000000E+01 0.  1.
<mgrwt>
<rscale>  0 0.48168885E+03</rscale>
<asrwt>0</asrwt>
<pdfrwt beam="1">  1        2 0.14812632E+00 0.48168885E+03</pdfrwt>
<pdfrwt beam="2">  1       -2 0.61212621E-01 0.48168885E+03</pdfrwt>
<totfact> 0.68853694E+01</totfact>
</mgrwt>
</event>
<event>
12    1  0.3496015E-008  0.1304500E+04  0.7818608E-02  0.9026005E-01
         -2   -1    0    0    0  501 -0.00000000000E+00  0.00000000000E+00  0.16095068220E+04  0.16095068220E+04  0.00000000000E+00 0. -1.
          2   -1    0    0  501    0  0.00000000000E+00 -0.00000000000E+00 -0.17142355136E+04  0.17142355136E+04  0.00000000000E+00 0.  1.
         23    2    1    2    0    0 -0.38473165723E+03 -0.12197758369E+04 -0.10216591882E+04  0.16394953982E+04  0.91028146381E+02 0.  0.
    5000000    2    1    2    0    0  0.38473165723E+03  0.12197758369E+04  0.91693049659E+03  0.16842469374E+04  0.60004555672E+03 0.  0.
         23    2    4    4    0    0  0.17792108926E+03  0.98080555513E+03  0.41336953257E+03  0.10829000292E+04  0.90347395037E+02 0.  0.
         23    2    4    4    0    0  0.20681056797E+03  0.23897028182E+03  0.50356096402E+03  0.60134690822E+03  0.90371748489E+02 0.  0.
          2    1    3    3  502    0 -0.15967857884E+03 -0.63572182951E+03 -0.55268463527E+03  0.85737961203E+03  0.00000000000E+00 0. -1.
         -2    1    3    3    0  502 -0.22505307839E+03 -0.58405400744E+03 -0.46897455295E+03  0.78211578619E+03  0.00000000000E+00 0.  1.
         11    1    5    5    0    0  0.15200612594E+03  0.59861984869E+03  0.24413243332E+03  0.66411763307E+03  0.00000000000E+00 0. -1.
        -11    1    5    5    0    0  0.25914963319E+02  0.38218570644E+03  0.16923709925E+03  0.41878239612E+03  0.00000000000E+00 0.  1.
          5    1    6    6  503    0  0.14411992272E+03  0.10321393365E+03  0.24189140015E+03  0.29992867101E+03  0.47000000000E+01 0. -1.
         -5    1    6    6    0  503  0.62690645250E+02  0.13575634816E+03  0.26166956387E+03  0.30141823721E+03  0.47000000000E+01 0.  1.
<mgrwt>
<rscale>  0 0.13044996E+04</rscale>
<asrwt>0</asrwt>
<pdfrwt beam="1">  1        2 0.26372854E+00 0.13044996E+04</pdfrwt>
<pdfrwt beam="2">  1       -2 0.24761644E+00 0.13044996E+04</pdfrwt>
<totfact> 0.61397384E-01</totfact>
</mgrwt>
</event>
<event>
12    1  0.3166324E-008  0.4763145E+03  0.7818608E-02  0.1020153E+00
          1   -1    0    0  501    0  0.00000000000E+00  0.00000000000E+00  0.11072513592E+04  0.11072513592E+04  0.00000000000E+00 0. -1.
         -1   -1    0    0    0  501 -0.00000000000E+00 -0.00000000000E+00 -0.23824047430E+03  0.23824047430E+03  0.00000000000E+00 0.  1.
         23    2    1    2    0    0  0.29791580266E+03  0.36412393459E+02  0.46967561567E+03  0.56473998296E+03  0.90864605479E+02 0.  0.
    5000000    2    1    2    0    0 -0.29791580266E+03 -0.36412393459E+02  0.39933526926E+03  0.78075185058E+03  0.60002092216E+03 0.  0.
         23    2    4    4    0    0  0.16263751719E+03  0.34224603477E+02  0.69712481094E+02  0.20269265127E+03  0.92748020888E+02 0.  0.
         23    2    4    4    0    0 -0.46055331985E+03 -0.70636996936E+02  0.32962278817E+03  0.57805919931E+03  0.91664113309E+02 0.  0.
          4    1    3    3  502    0  0.17702749185E+03  0.62188901045E+02  0.24867298250E+03  0.31151957324E+03  0.00000000000E+00 0. -1.
         -4    1    3    3    0  502  0.12088831081E+03 -0.25776507585E+02  0.22100263317E+03  0.25322040972E+03  0.00000000000E+00 0.  1.
         13    1    5    5    0    0  0.10382401059E+03  0.36901630101E+02 -0.16240647149E+01  0.11019887960E+03  0.00000000000E+00 0. -1.
        -13    1    5    5    0    0  0.58813506599E+02 -0.26770266235E+01  0.71336545809E+02  0.92493771672E+02  0.00000000000E+00 0.  1.
          5    1    6    6  503    0 -0.27547926967E+03 -0.80180261844E+02  0.22904371080E+03  0.36715230336E+03  0.47000000000E+01 0. -1.
         -5    1    6    6    0  503 -0.18507405017E+03  0.95432649074E+01  0.10057907737E+03  0.21090689594E+03  0.47000000000E+01 0.  1.
<mgrwt>
<rscale>  0 0.47631448E+03</rscale>
<asrwt>0</asrwt>
<pdfrwt beam="1">  1        1 0.17034636E+00 0.47631448E+03</pdfrwt>
<pdfrwt beam="2">  1       -1 0.36652381E-01 0.47631448E+03</pdfrwt>
<totfact> 0.93920326E+01</totfact>
</mgrwt>
</event>
<event>
12    1  0.3166324E-008  0.8122558E+03  0.7818608E-02  0.9542445E-01
         -2   -1    0    0    0  501 -0.00000000000E+00  0.00000000000E+00  0.16253422185E+04  0.16253422185E+04  0.00000000000E+00 0.  1.
          2   -1    0    0  501    0  0.00000000000E+00 -0.00000000000E+00 -0.53174150918E+03  0.53174150918E+03  0.00000000000E+00 0. -1.
         23    2    1    2    0    0 -0.83626263722E+02  0.71371975517E+03  0.90678061919E+01  0.72438698609E+03  0.90912263218E+02 0.  0.
    5000000    2    1    2    0    0  0.83626263722E+02 -0.71371975517E+03  0.10845329032E+04  0.14326967416E+04  0.60001591187E+03 0.  0.
         23    2    4    4    0    0 -0.21372715637E+03 -0.24977279850E+03  0.61262686416E+03  0.70158339933E+03  0.94031076190E+02 0.  0.
         23    2    4    4    0    0  0.29735342009E+03 -0.46394695668E+03  0.47190603901E+03  0.73111334229E+03  0.90363568837E+02 0.  0.
          1    1    3    3  502    0  0.19055949206E+02  0.15410580850E+03 -0.28522624042E+01  0.15530571405E+03  0.00000000000E+00 0. -1.
         -1    1    3    3    0  502 -0.10268221293E+03  0.55961394667E+03  0.11920068596E+02  0.56908127205E+03  0.00000000000E+00 0.  1.
         13    1    5    5    0    0 -0.11158182204E+03 -0.19827103213E+03  0.40504321353E+03  0.46456636772E+03  0.00000000000E+00 0. -1.
        -13    1    5    5    0    0 -0.10214533433E+03 -0.51501766366E+02  0.20758365062E+03  0.23701703160E+03  0.00000000000E+00 0.  1.
          5    1    6    6  503    0  0.75936262237E+02 -0.57013236932E+02  0.84055998138E+02  0.12690282082E+03  0.47000000000E+01 0. -1.
         -5    1    6    6    0  503  0.22141715785E+03 -0.40693371975E+03  0.38785004087E+03  0.60421052147E+03  0.47000000000E+01 0.  1.
<mgrwt>
<rscale>  0 0.81225578E+03</rscale>
<asrwt>0</asrwt>
<pdfrwt beam="1">  1        2 0.81806387E-01 0.81225578E+03</pdfrwt>
<pdfrwt beam="2">  1       -2 0.25005265E+00 0.81225578E+03</pdfrwt>
<totfact> 0.37566688E+00</totfact>
</mgrwt>
</event>
<event>
12    1  0.3475947E-008  0.1028117E+04  0.7818608E-02  0.9278233E-01
         -3   -1    0    0    0  501 -0.00000000000E+00  0.00000000000E+00  0.62844873278E+03  0.62844873278E+03  0.00000000000E+00 0.  1.
          3   -1    0    0  501    0  0.00000000000E+00 -0.00000000000E+00 -0.24187070518E+04  0.24187070518E+04  0.00000000000E+00 0. -1.
         23    2    1    2    0    0 -0.93626626112E+03  0.32163887309E+03 -0.15858976902E+04  0.18716846246E+04  0.89920932165E+02 0.  0.
    5000000    2    1    2    0    0  0.93626626112E+03 -0.32163887309E+03 -0.20436062885E+03  0.11754711599E+04  0.59993591725E+03 0.  0.
         23    2    4    4    0    0  0.17101563847E+02 -0.40873297810E+02  0.12003008201E+03  0.15689286632E+03  0.90802317998E+02 0.  0.
         23    2    4    4    0    0  0.91916469727E+03 -0.28076557528E+03 -0.32439071086E+03  0.10185782936E+04  0.92624823598E+02 0.  0.
          4    1    3    3  502    0 -0.51496858563E+03  0.21128450697E+03 -0.83182218585E+03  0.10008805803E+04  0.00000000000E+00 0. -1.
         -4    1    3    3    0  502 -0.42129767549E+03  0.11035436611E+03 -0.75407550430E+03  0.87080404436E+03  0.00000000000E+00 0.  1.
         11    1    5    5    0    0 -0.36141679657E+02 -0.12501435375E+02  0.30419164335E+02  0.48865452558E+02  0.00000000000E+00 0.  1.
        -11    1    5    5    0    0  0.53243243504E+02 -0.28371862435E+02  0.89610917675E+02  0.10802741376E+03  0.00000000000E+00 0. -1.
          5    1    6    6  503    0  0.54214801584E+03 -0.21261594871E+03 -0.19882642834E+03  0.61537309929E+03  0.47000000000E+01 0. -1.
         -5    1    6    6    0  503  0.37701668143E+03 -0.68149626564E+02 -0.12556428252E+03  0.40320519432E+03  0.47000000000E+01 0.  1.
<mgrwt>
<rscale>  0 0.10281174E+04</rscale>
<asrwt>0</asrwt>
<pdfrwt beam="1">  1        3 0.37210877E+00 0.10281174E+04</pdfrwt>
<pdfrwt beam="2">  1       -3 0.96684422E-01 0.10281174E+04</pdfrwt>
<totfact> 0.38089299E-02</totfact>
</mgrwt>
</event>
<event>
12    1  0.3166324E-008  0.1120347E+04  0.7818608E-02  0.9185584E-01
          1   -1    0    0  501    0  0.00000000000E+00  0.00000000000E+00  0.10273992690E+04  0.10273992690E+04  0.00000000000E+00 0. -1.
         -1   -1    0    0    0  501 -0.00000000000E+00 -0.00000000000E+00 -0.17603124134E+04  0.17603124134E+04  0.00000000000E+00 0.  1.
         23    2    1    2    0    0  0.88883969983E+03  0.67053280240E+03 -0.99352593301E+03  0.14963848475E+04  0.11146112014E+03 0.  0.
    5000000    2    1    2    0    0 -0.88883969983E+03 -0.67053280240E+03  0.26061278857E+03  0.12913268348E+04  0.59996309699E+03 0.  0.
         23    2    4    4    0    0 -0.55377961925E+03 -0.36134970577E+03  0.43274596072E+03  0.79560557849E+03  0.92052666662E+02 0.  0.
         23    2    4    4    0    0 -0.33506008058E+03 -0.30918309663E+03 -0.17213317215E+03  0.49572125636E+03  0.90831108176E+02 0.  0.
          2    1    3    3  502    0  0.64624099591E+03  0.50768313103E+03 -0.79285584043E+03  0.11419238022E+04  0.00000000000E+00 0.  1.
         -2    1    3    3    0  502  0.24259870392E+03  0.16284967137E+03 -0.20067009258E+03  0.35446104534E+03  0.00000000000E+00 0. -1.
         13    1    5    5    0    0 -0.86400432850E+02 -0.81017338144E+02  0.44823558006E+02  0.12664120668E+03  0.00000000000E+00 0.  1.
        -13    1    5    5    0    0 -0.46737918640E+03 -0.28033236763E+03  0.38792240272E+03  0.66896437181E+03  0.00000000000E+00 0. -1.
          5    1    6    6  503    0 -0.12249953686E+03 -0.62555774664E+02 -0.32434454285E+02  0.14139817997E+03  0.47000000000E+01 0. -1.
         -5    1    6    6    0  503 -0.21256054371E+03 -0.24662732197E+03 -0.13969871787E+03  0.35432307638E+03  0.47000000000E+01 0.  1.
<mgrwt>
<rscale>  0 0.11203470E+04</rscale>
<asrwt>0</asrwt>
<pdfrwt beam="1">  1        1 0.15806143E+00 0.11203470E+04</pdfrwt>
<pdfrwt beam="2">  1       -1 0.27081729E+00 0.11203470E+04</pdfrwt>
<totfact> 0.73043259E-01</totfact>
</mgrwt>
</event>
<event>
12    1  0.3166324E-008  0.6375397E+03  0.7818608E-02  0.9830445E-01
          2   -1    0    0  501    0  0.00000000000E+00  0.00000000000E+00  0.15203009392E+04  0.15203009392E+04  0.00000000000E+00 0. -1.
         -2   -1    0    0    0  501 -0.00000000000E+00 -0.00000000000E+00 -0.50692122422E+03  0.50692122422E+03  0.00000000000E+00 0.  1.
         23    2    1    2    0    0 -0.50045905436E+02  0.52234574795E+03 -0.20632065427E+03  0.57016270511E+03  0.84661826469E+02 0.  0.
    5000000    2    1    2    0    0  0.50045905436E+02 -0.52234574795E+03  0.12197003693E+04  0.14570594583E+04  0.60000300107E+03 0.  0.
         23    2    4    4    0    0  0.25819020261E+03 -0.14025354829E+03  0.75012037598E+03  0.81065664120E+03  0.90279415913E+02 0.  0.
         23    2    4    4    0    0 -0.20814429717E+03 -0.38209219967E+03  0.46957999327E+03  0.64640281712E+03  0.89513878315E+02 0.  0.
          2    1    3    3  502    0  0.13594713849E+02  0.22194542769E+03 -0.11174590822E+03  0.24886087905E+03  0.00000000000E+00 0. -1.
         -2    1    3    3    0  502 -0.63640619285E+02  0.30040032027E+03 -0.94574746041E+02  0.32130182606E+03  0.00000000000E+00 0.  1.
         13    1    5    5    0    0  0.84127728200E+02 -0.46234798548E+00  0.20312506469E+03  0.21985786391E+03  0.00000000000E+00 0.  1.
        -13    1    5    5    0    0  0.17406247441E+03 -0.13979120030E+03  0.54699531129E+03  0.59079877729E+03  0.00000000000E+00 0. -1.
          5    1    6    6  503    0 -0.12898777967E+03 -0.18271368885E+03  0.29224603603E+03  0.36803800751E+03  0.47000000000E+01 0. -1.
         -5    1    6    6    0  503 -0.79156517506E+02 -0.19937851082E+03  0.17733395724E+03  0.27836480961E+03  0.47000000000E+01 0.  1.
<mgrwt>
<rscale>  0 0.63753967E+03</rscale>
<asrwt>0</asrwt>
<pdfrwt beam="1">  1        2 0.23389245E+00 0.63753967E+03</pdfrwt>
<pdfrwt beam="2">  1       -2 0.77987881E-01 0.63753967E+03</pdfrwt>
<totfact> 0.18821505E+01</totfact>
</mgrwt>
</event>
<event>
12    1  0.3166324E-008  0.8597898E+03  0.7818608E-02  0.9477291E-01
         -1   -1    0    0    0  501 -0.00000000000E+00  0.00000000000E+00  0.27188749351E+03  0.27188749351E+03  0.00000000000E+00 0.  1.
          1   -1    0    0  501    0  0.00000000000E+00 -0.00000000000E+00 -0.39387574974E+04  0.39387574974E+04  0.00000000000E+00 0. -1.
         23    2    1    2    0    0 -0.40420155201E+03  0.72987272416E+03 -0.77799286406E+03  0.11444402553E+04  0.91528757109E+02 0.  0.
    5000000    2    1    2    0    0  0.40420155201E+03 -0.72987272416E+03 -0.28888771398E+04  0.30662047356E+04  0.59992271443E+03 0.  0.
         23    2    4    4    0    0  0.50964071037E+02 -0.30362830822E+03 -0.19180271397E+04  0.19447598764E+04  0.92061837959E+02 0.  0.
         23    2    4    4    0    0  0.35323748097E+03 -0.42624441594E+03 -0.97085000009E+03  0.11214448592E+04  0.92886109803E+02 0.  0.
          3    1    3    3  502    0 -0.47290711429E+02  0.15629027032E+03 -0.16701753009E+03  0.23357635870E+03  0.00000000000E+00 0. -1.
         -3    1    3    3    0  502 -0.35691084058E+03  0.57358245384E+03 -0.61097533397E+03  0.91086389664E+03  0.00000000000E+00 0.  1.
         11    1    5    5    0    0 -0.23901752339E+02 -0.10832687377E+03 -0.58530532451E+03  0.59572504416E+03  0.00000000000E+00 0.  1.
        -11    1    5    5    0    0  0.74865823376E+02 -0.19530143445E+03 -0.13327218152E+04  0.13490348322E+04  0.00000000000E+00 0. -1.
          5    1    6    6  503    0  0.19272266792E+03 -0.16383734761E+03 -0.46585709353E+03  0.53012227344E+03  0.47000000000E+01 0. -1.
         -5    1    6    6    0  503  0.16051481305E+03 -0.26240706833E+03 -0.50499290656E+03  0.59132258573E+03  0.47000000000E+01 0.  1.
<mgrwt>
<rscale>  0 0.85978984E+03</rscale>
<asrwt>0</asrwt>
<pdfrwt beam="1">  1        1 0.60596268E+00 0.85978984E+03</pdfrwt>
<pdfrwt beam="2">  1       -1 0.41828846E-01 0.85978984E+03</pdfrwt>
<totfact> 0.65756528E-01</totfact>
</mgrwt>
</event>
<event>
12    1  0.3166324E-008  0.1675372E+04  0.7818608E-02  0.8775537E-01
          2   -1    0    0  501    0  0.00000000000E+00  0.00000000000E+00  0.45706835517E+04  0.45706835517E+04  0.00000000000E+00 0.  1.
         -2   -1    0    0    0  501 -0.00000000000E+00 -0.00000000000E+00 -0.66616596045E+03  0.66616596045E+03  0.00000000000E+00 0. -1.
         23    2    1    2    0    0  0.16555159680E+04  0.11659328252E+03  0.23905954897E+04  0.29116791177E+04  0.92743600672E+02 0.  0.
    5000000    2    1    2    0    0 -0.16555159680E+04 -0.11659328252E+03  0.15139221016E+04  0.23251703945E+04  0.60010842349E+03 0.  0.
         23    2    4    4    0    0 -0.11904608773E+04 -0.21727555502E+03  0.13442159262E+04  0.18115323693E+04  0.10162333091E+03 0.  0.
         23    2    4    4    0    0 -0.46505509063E+03  0.10068227249E+03  0.16970617540E+03  0.51363802521E+03  0.92793737169E+02 0.  0.
          4    1    3    3  502    0  0.76383437893E+03  0.43315028429E+02  0.10233366956E+04  0.12777077689E+04  0.00000000000E+00 0. -1.
         -4    1    3    3    0  502  0.89168158904E+03  0.73278254093E+02  0.13672587941E+04  0.16339713488E+04  0.00000000000E+00 0.  1.
         13    1    5    5    0    0 -0.61267240959E+03 -0.16338292084E+03  0.70479129488E+03  0.94804653348E+03  0.00000000000E+00 0. -1.
        -13    1    5    5    0    0 -0.57778846774E+03 -0.53892634172E+02  0.63942463135E+03  0.86348583581E+03  0.00000000000E+00 0.  1.
          5    1    6    6  503    0 -0.24578359450E+03  0.66322097054E+02  0.43601048539E+02  0.25832409357E+03  0.47000000000E+01 0. -1.
         -5    1    6    6    0  503 -0.21927149613E+03  0.34360175441E+02  0.12610512686E+03  0.25531393165E+03  0.47000000000E+01 0.  1.
<mgrwt>
<rscale>  0 0.16753718E+04</rscale>
<asrwt>0</asrwt>
<pdfrwt beam="1">  1        2 0.70318206E+00 0.16753718E+04</pdfrwt>
<pdfrwt beam="2">  1       -2 0.10248707E+00 0.16753718E+04</pdfrwt>
<totfact> 0.78122422E-02</totfact>
</mgrwt>
</event>
<event>
12    1  0.3166324E-008  0.9619864E+03  0.7818608E-02  0.9351249E-01
         -2   -1    0    0    0  501 -0.00000000000E+00  0.00000000000E+00  0.42267238410E+03  0.42267238410E+03  0.00000000000E+00 0.  1.
          2   -1    0    0  501    0  0.00000000000E+00 -0.00000000000E+00 -0.23828330226E+04  0.23828330226E+04  0.00000000000E+00 0. -1.
         23    2    1    2    0    0  0.87015766939E+03  0.19042041742E+03 -0.11632505495E+04  0.14681577997E+04  0.94346059156E+02 0.  0.
    5000000    2    1    2    0    0 -0.87015766939E+03 -0.19042041742E+03 -0.79691008901E+03  0.13373476070E+04  0.59999885588E+03 0.  0.
         23    2    4    4    0    0 -0.25648917888E+02 -0.16154819731E+03 -0.25558966316E+02  0.18959909639E+03  0.92406003865E+02 0.  0.
         23    2    4    4    0    0 -0.84450875151E+03 -0.28872220112E+02 -0.77135112269E+03  0.11477485106E+04  0.91189104036E+02 0.  0.
          3    1    3    3  502    0  0.40249463429E+03  0.96142285919E+02 -0.61681320476E+03  0.74276766175E+03  0.00000000000E+00 0. -1.
         -3    1    3    3    0  502  0.46766303511E+03  0.94278131505E+02 -0.54643734473E+03  0.72539013792E+03  0.00000000000E+00 0.  1.
         11    1    5    5    0    0  0.14654037074E+02 -0.14233288548E+03 -0.22519107562E+02  0.14484647492E+03  0.00000000000E+00 0. -1.
        -11    1    5    5    0    0 -0.40302954962E+02 -0.19215311834E+02 -0.30398587540E+01  0.44752621474E+02  0.00000000000E+00 0.  1.
          5    1    6    6  503    0 -0.67603721729E+03 -0.14638860982E+02 -0.66218339594E+03  0.94644046579E+03  0.47000000000E+01 0. -1.
         -5    1    6    6    0  503 -0.16847153421E+03 -0.14233359130E+02 -0.10916772675E+03  0.20130804484E+03  0.47000000000E+01 0.  1.
<mgrwt>
<rscale>  0 0.96198643E+03</rscale>
<asrwt>0</asrwt>
<pdfrwt beam="1">  1        2 0.36658971E+00 0.96198643E+03</pdfrwt>
<pdfrwt beam="2">  1       -2 0.65026518E-01 0.96198643E+03</pdfrwt>
<totfact> 0.89948853E+00</totfact>
</mgrwt>
</event>
<event>
12    1  0.3166324E-008  0.7257310E+03  0.7818608E-02  0.9674213E-01
         -2   -1    0    0    0  501 -0.00000000000E+00  0.00000000000E+00  0.61246448480E+03  0.61246448480E+03  0.00000000000E+00 0.  1.
          2   -1    0    0  501    0  0.00000000000E+00 -0.00000000000E+00 -0.19294237507E+04  0.19294237507E+04  0.00000000000E+00 0. -1.
         23    2    1    2    0    0  0.61421454684E+03  0.89516643402E+02 -0.15291428100E+04  0.16530229166E+04  0.94521375795E+02 0.  0.
    5000000    2    1    2    0    0 -0.61421454684E+03 -0.89516643402E+02  0.21218354413E+03  0.88886531885E+03  0.59982244012E+03 0.  0.
         23    2    4    4    0    0 -0.71738296931E+03 -0.57430033567E+02  0.17347768182E+03  0.74532586490E+03  0.86484711872E+02 0.  0.
         23    2    4    4    0    0  0.10316842247E+03 -0.32086609835E+02  0.38705862306E+02  0.14353945395E+03  0.86209959624E+02 0.  0.
          3    1    3    3  502    0  0.45833378798E+03  0.88849400448E+02 -0.12316125687E+04  0.13171308198E+04  0.00000000000E+00 0. -1.
         -3    1    3    3    0  502  0.15588075886E+03  0.66724295376E+00 -0.29753024133E+03  0.33589209681E+03  0.00000000000E+00 0.  1.
         11    1    5    5    0    0 -0.28256962447E+03 -0.20159891975E+02  0.11193324038E+03  0.30459984278E+03  0.00000000000E+00 0. -1.
        -11    1    5    5    0    0 -0.43481334484E+03 -0.37270141591E+02  0.61544441445E+02  0.44072602212E+03  0.00000000000E+00 0.  1.
          5    1    6    6  503    0  0.78664458562E+02 -0.20048011827E+02 -0.15393863735E+02  0.82759173870E+02  0.47000000000E+01 0. -1.
         -5    1    6    6    0  503  0.24503963909E+02 -0.12038598009E+02  0.54099726040E+02  0.60780280083E+02  0.47000000000E+01 0.  1.
<mgrwt>
<rscale>  0 0.72573100E+03</rscale>
<asrwt>0</asrwt>
<pdfrwt beam="1">  1        2 0.29683442E+00 0.72573100E+03</pdfrwt>
<pdfrwt beam="2">  1       -2 0.94225307E-01 0.72573100E+03</pdfrwt>
<totfact> 0.72114903E+00</totfact>
</mgrwt>
</event>
<event>
12    1  0.3166324E-008  0.6283436E+03  0.7818608E-02  0.9848287E-01
          2   -1    0    0  501    0  0.00000000000E+00  0.00000000000E+00  0.19914346850E+04  0.19914346850E+04  0.00000000000E+00 0. -1.
         -2   -1    0    0    0  501 -0.00000000000E+00 -0.00000000000E+00 -0.27868139778E+03  0.27868139778E+03  0.00000000000E+00 0.  1.
         23    2    1    2    0    0 -0.15430368591E+03 -0.59030392860E+03  0.89190739841E+03  0.10844219678E+04  0.90575059043E+02 0.  0.
    5000000    2    1    2    0    0  0.15430368591E+03  0.59030392860E+03  0.82084588880E+03  0.11856941150E+04  0.59984515124E+03 0.  0.
         23    2    4    4    0    0  0.11325411782E+03  0.49399555692E+03  0.20450216029E+03  0.55389370910E+03  0.90105504570E+02 0.  0.
         23    2    4    4    0    0  0.41049568084E+02  0.96308371683E+02  0.61634372851E+03  0.63180040586E+03  0.91278648499E+02 0.  0.
          3    1    3    3  502    0 -0.14910853522E+03 -0.54472992288E+03  0.85876057678E+03  0.10278296417E+04  0.00000000000E+00 0. -1.
         -3    1    3    3    0  502 -0.51951506835E+01 -0.45574005726E+02  0.33146821622E+02  0.56592326089E+02  0.00000000000E+00 0.  1.
         13    1    5    5    0    0  0.62947923624E+02  0.32480945906E+03  0.87832917472E+02  0.34231308356E+03  0.00000000000E+00 0. -1.
        -13    1    5    5    0    0  0.50306194201E+02  0.16918609786E+03  0.11666924282E+03  0.21158062554E+03  0.00000000000E+00 0.  1.
          5    1    6    6  503    0  0.79895480759E+01 -0.17651743598E+02  0.77142963725E+02  0.79677749610E+02  0.47000000000E+01 0. -1.
         -5    1    6    6    0  503  0.33060020008E+02  0.11396011528E+03  0.53920076478E+03  0.55212265625E+03  0.47000000000E+01 0.  1.
<mgrwt>
<rscale>  0 0.62834355E+03</rscale>
<asrwt>0</asrwt>
<pdfrwt beam="1">  1        2 0.30637456E+00 0.62834355E+03</pdfrwt>
<pdfrwt beam="2">  1       -2 0.42874062E-01 0.62834355E+03</pdfrwt>
<totfact> 0.36548061E+01</totfact>
</mgrwt>
</event>
<event>
12    1  0.3166324E-008  0.6165499E+03  0.7818608E-02  0.9871653E-01
         -1   -1    0    0    0  501 -0.00000000000E+00  0.00000000000E+00  0.86353452626E+03  0.86353452626E+03  0.00000000000E+00 0.  1.
          1   -1    0    0  501    0  0.00000000000E+00 -0.00000000000E+00 -0.60608530753E+03  0.60608530753E+03  0.00000000000E+00 0. -1.
         23    2    1    2    0    0  0.28677626935E+03  0.50862858284E+03 -0.96023428668E+01  0.59095151038E+03  0.90486566315E+02 0.  0.
    5000000    2    1    2    0    0 -0.28677626935E+03 -0.50862858284E+03  0.26705156160E+03  0.87866832342E+03  0.59983149474E+03 0.  0.
         23    2    4    4    0    0 -0.43864794293E+02 -0.40852793640E+02  0.32294668434E+03  0.34090963619E+03  0.91278410331E+02 0.  0.
         23    2    4    4    0    0 -0.24291147505E+03 -0.46777578920E+03 -0.55895122743E+02  0.53775868723E+03  0.90774265455E+02 0.  0.
          1    1    3    3  502    0 -0.43260457525E+01  0.30054226194E+02 -0.50284071055E+01  0.30777525274E+02  0.00000000000E+00 0. -1.
         -1    1    3    3    0  502  0.29110231510E+03  0.47857435665E+03 -0.45739357613E+01  0.56017398510E+03  0.00000000000E+00 0.  1.
         11    1    5    5    0    0 -0.57015290542E+02  0.77622965473E+01  0.14582364439E+03  0.15676585044E+03  0.00000000000E+00 0. -1.
        -11    1    5    5    0    0  0.13150496249E+02 -0.48615090188E+02  0.17712303996E+03  0.18414378575E+03  0.00000000000E+00 0.  1.
          5    1    6    6  503    0 -0.14316347002E+03 -0.17982127676E+03 -0.17343885906E+02  0.23055231749E+03  0.47000000000E+01 0. -1.
         -5    1    6    6    0  503 -0.99748005032E+02 -0.28795451244E+03 -0.38551236837E+02  0.30720636974E+03  0.47000000000E+01 0.  1.
<mgrwt>
<rscale>  0 0.61654988E+03</rscale>
<asrwt>0</asrwt>
<pdfrwt beam="1">  1        1 0.93243893E-01 0.61654988E+03</pdfrwt>
<pdfrwt beam="2">  1       -1 0.13285147E+00 0.61654988E+03</pdfrwt>
<totfact> 0.16926226E+01</totfact>
</mgrwt>
</event>
<event>
12    1  0.3166324E-008  0.3653067E+03  0.7818608E-02  0.1056502E+00
         -2   -1    0    0    0  501 -0.00000000000E+00  0.00000000000E+00  0.88701726754E+03  0.88701726754E+03  0.00000000000E+00 0. -1.
          2   -1    0    0  501    0  0.00000000000E+00 -0.00000000000E+00 -0.48656849402E+03  0.48656849402E+03  0.00000000000E+00 0.  1.
         23    2    1    2    0    0 -0.21786972283E+03 -0.24319319361E+03 -0.25726597570E+03  0.42531747315E+03  0.89994584117E+02 0.  0.
    5000000    2    1    2    0    0  0.21786972283E+03  0.24319319361E+03  0.65771474922E+03  0.94826828841E+03  0.60001159149E+03 0.  0.
         23    2    4    4    0    0  0.10837766241E+03  0.20369924977E+02 -0.82818280184E+02  0.16103966721E+03  0.83152001350E+02 0.  0.
         23    2    4    4    0    0  0.10949206042E+03  0.22282326864E+03  0.74053302940E+03  0.78722862120E+03  0.98493726020E+02 0.  0.
          2    1    3    3  502    0 -0.12045659838E+03 -0.18739369566E+03 -0.14069593440E+03  0.26347966757E+03  0.00000000000E+00 0. -1.
         -2    1    3    3    0  502 -0.97413124445E+02 -0.55799497950E+02 -0.11657004130E+03  0.16183780558E+03  0.00000000000E+00 0.  1.
         11    1    5    5    0    0  0.68503899634E+02  0.49683605600E+02 -0.70239791940E+02  0.10997669436E+03  0.00000000000E+00 0.  1.
        -11    1    5    5    0    0  0.39873762774E+02 -0.29313680623E+02 -0.12578488245E+02  0.51062972847E+02  0.00000000000E+00 0. -1.
          5    1    6    6  503    0  0.57345209834E+02  0.36995745210E+02  0.27217787401E+03  0.28064219810E+03  0.47000000000E+01 0. -1.
         -5    1    6    6    0  503  0.52146850583E+02  0.18582752343E+03  0.46835515539E+03  0.50658642310E+03  0.47000000000E+01 0.  1.
<mgrwt>
<rscale>  0 0.36530674E+03</rscale>
<asrwt>0</asrwt>
<pdfrwt beam="1">  1        2 0.74856691E-01 0.36530674E+03</pdfrwt>
<pdfrwt beam="2">  1       -2 0.13646419E+00 0.36530674E+03</pdfrwt>
<totfact> 0.25800984E+01</totfact>
</mgrwt>
</event>
<event>
12    1  0.3166324E-008  0.7082822E+03  0.7818608E-02  0.9703172E-01
         -1   -1    0    0    0  501 -0.00000000000E+00  0.00000000000E+00  0.79454533006E+03  0.79454533006E+03  0.00000000000E+00 0.  1.
          1   -1    0    0  501    0  0.00000000000E+00 -0.00000000000E+00 -0.14474566024E+04  0.14474566024E+04  0.00000000000E+00 0. -1.
         23    2    1    2    0    0 -0.49003423960E+03 -0.34270349837E+03  0.51958364987E+03  0.79560909956E+03  0.73806682133E+02 0.  0.
    5000000    2    1    2    0    0  0.49003423960E+03  0.34270349837E+03 -0.11724949222E+04  0.14463928329E+04  0.59977382462E+03 0.  0.
         23    2    4    4    0    0  0.51540410079E+03  0.43929789828E+03 -0.81025752215E+03  0.10602382552E+04  0.94677743575E+02 0.  0.
         23    2    4    4    0    0 -0.25369861197E+02 -0.96594399912E+02 -0.36223740008E+03  0.38615457768E+03  0.89024243303E+02 0.  0.
          4    1    3    3  502    0 -0.24994793370E+03 -0.21893520898E+03  0.29483820910E+03  0.44422535366E+03  0.00000000000E+00 0.  1.
         -4    1    3    3    0  502 -0.24008630590E+03 -0.12376828939E+03  0.22474544076E+03  0.35138374590E+03  0.00000000000E+00 0. -1.
         13    1    5    5    0    0  0.24225123209E+03  0.14541095864E+03 -0.34019630042E+03  0.44222565412E+03  0.00000000000E+00 0.  1.
        -13    1    5    5    0    0  0.27315286871E+03  0.29388693964E+03 -0.47006122173E+03  0.61801260112E+03  0.00000000000E+00 0. -1.
          5    1    6    6  503    0 -0.54721032001E+02 -0.45600158104E+02 -0.15449946146E+03  0.17019382878E+03  0.47000000000E+01 0. -1.
         -5    1    6    6    0  503  0.29351170803E+02 -0.50994241809E+02 -0.20773793862E+03  0.21596074890E+03  0.47000000000E+01 0.  1.
<mgrwt>
<rscale>  0 0.70828217E+03</rscale>
<asrwt>0</asrwt>
<pdfrwt beam="1">  1        1 0.22268563E+00 0.70828217E+03</pdfrwt>
<pdfrwt beam="2">  1       -1 0.12223775E+00 0.70828217E+03</pdfrwt>
<totfact> 0.44178676E+00</totfact>
</mgrwt>
</event>
<event>
12    1  0.3166324E-008  0.9218861E+03  0.7818608E-02  0.9398629E-01
          1   -1    0    0  501    0  0.00000000000E+00  0.00000000000E+00  0.15184896121E+04  0.15184896121E+04  0.00000000000E+00 0. -1.
         -1   -1    0    0    0  501 -0.00000000000E+00 -0.00000000000E+00 -0.58458360448E+03  0.58458360448E+03  0.00000000000E+00 0.  1.
         23    2    1    2    0    0  0.64763676463E+02  0.83228570993E+03  0.55953863406E+03  0.10090542322E+04  0.90626286190E+02 0.  0.
    5000000    2    1    2    0    0 -0.64763676463E+02 -0.83228570993E+03  0.37436737355E+03  0.10940189844E+04  0.59986062637E+03 0.  0.
         23    2    4    4    0    0  0.24125903239E+03 -0.49378460319E+03  0.25508957138E+03  0.61245094314E+03  0.89422107296E+02 0.  0.
         23    2    4    4    0    0 -0.30602270885E+03 -0.33850110674E+03  0.11927780217E+03  0.48156804124E+03  0.97199211195E+02 0.  0.
          2    1    3    3  502    0  0.15620732588E+02  0.41209967715E+03  0.32699449154E+03  0.52630366585E+03  0.00000000000E+00 0.  1.
         -2    1    3    3    0  502  0.49142943875E+02  0.42018603278E+03  0.23254414252E+03  0.48275056634E+03  0.00000000000E+00 0. -1.
         13    1    5    5    0    0  0.30460516256E+02 -0.31728855738E+02  0.44751895383E+02  0.62747872294E+02  0.00000000000E+00 0. -1.
        -13    1    5    5    0    0  0.21079851613E+03 -0.46205574745E+03  0.21033767600E+03  0.54970307085E+03  0.00000000000E+00 0.  1.
          5    1    6    6  503    0 -0.20954093651E+03 -0.22773557632E+03  0.12664939476E+03  0.33441449728E+03  0.47000000000E+01 0. -1.
         -5    1    6    6    0  503 -0.96481772337E+02 -0.11076553042E+03 -0.73715925958E+01  0.14715354396E+03  0.47000000000E+01 0.  1.
<mgrwt>
<rscale>  0 0.92188607E+03</rscale>
<asrwt>0</asrwt>
<pdfrwt beam="1">  1        1 0.23361379E+00 0.92188607E+03</pdfrwt>
<pdfrwt beam="2">  1       -1 0.89935940E-01 0.92188607E+03</pdfrwt>
<totfact> 0.78020985E+00</totfact>
</mgrwt>
</event>
<event>
12    1  0.3166324E-008  0.7759640E+03  0.7818608E-02  0.9595475E-01
          1   -1    0    0  501    0  0.00000000000E+00  0.00000000000E+00  0.28751520486E+04  0.28751520486E+04  0.00000000000E+00 0. -1.
         -1   -1    0    0    0  501 -0.00000000000E+00 -0.00000000000E+00 -0.23643653867E+03  0.23643653867E+03  0.00000000000E+00 0.  1.
         23    2    1    2    0    0  0.63127367785E+03  0.22441747580E+03  0.16034965079E+04  0.17402490585E+04  0.91630098417E+02 0.  0.
    5000000    2    1    2    0    0 -0.63127367785E+03 -0.22441747580E+03  0.10352190021E+04  0.13713395289E+04  0.60002005075E+03 0.  0.
         23    2    4    4    0    0 -0.68837697149E+03 -0.31010495575E+03  0.91252360818E+03  0.11879489390E+04  0.92170536435E+02 0.  0.
         23    2    4    4    0    0  0.57103293640E+02  0.85687479944E+02  0.12269539393E+03  0.18339058984E+03  0.89301838653E+02 0.  0.
          4    1    3    3  502    0  0.48851355298E+03  0.15888922042E+03  0.13146785304E+04  0.14114782726E+04  0.00000000000E+00 0. -1.
         -4    1    3    3    0  502  0.14276012487E+03  0.65528255382E+02  0.28881797745E+03  0.32877078581E+03  0.00000000000E+00 0.  1.
         11    1    5    5    0    0 -0.32886081423E+03 -0.15932444552E+03  0.51186667256E+03  0.62892066634E+03  0.00000000000E+00 0. -1.
        -11    1    5    5    0    0 -0.35951615726E+03 -0.15078051022E+03  0.40065693561E+03  0.55902827268E+03  0.00000000000E+00 0.  1.
          5    1    6    6  503    0  0.57009631506E+02  0.20889262487E+02  0.94826503488E+02  0.11269700588E+03  0.47000000000E+01 0. -1.
         -5    1    6    6    0  503  0.93662133162E-01  0.64798217456E+02  0.27868890446E+02  0.70693583958E+02  0.47000000000E+01 0.  1.
<mgrwt>
<rscale>  0 0.77596401E+03</rscale>
<asrwt>0</asrwt>
<pdfrwt beam="1">  1        1 0.44233106E+00 0.77596401E+03</pdfrwt>
<pdfrwt beam="2">  1       -1 0.36374854E-01 0.77596401E+03</pdfrwt>
<totfact> 0.56473073E+00</totfact>
</mgrwt>
</event>
<event>
12    1  0.3166324E-008  0.9523235E+03  0.7818608E-02  0.9362439E-01
          1   -1    0    0  501    0  0.00000000000E+00  0.00000000000E+00  0.13517036618E+04  0.13517036618E+04  0.00000000000E+00 0. -1.
         -1   -1    0    0    0  501 -0.00000000000E+00 -0.00000000000E+00 -0.81035459802E+03  0.81035459802E+03  0.00000000000E+00 0.  1.
         23    2    1    2    0    0  0.48065479306E+03 -0.81435841881E+03  0.40990733797E+03  0.10348095195E+04  0.92725678482E+02 0.  0.
    5000000    2    1    2    0    0 -0.48065479306E+03  0.81435841881E+03  0.13144172580E+03  0.11272487404E+04  0.59933640887E+03 0.  0.
         23    2    4    4    0    0 -0.10070344024E+03  0.16808085140E+03  0.28368542314E+03  0.35704915943E+03  0.92813401335E+02 0.  0.
         23    2    4    4    0    0 -0.37995135281E+03  0.64627756742E+03 -0.15224369734E+03  0.77019958093E+03  0.89395337897E+02 0.  0.
          1    1    3    3  502    0  0.30662960152E+03 -0.58836662211E+03  0.26014722580E+03  0.71265249150E+03  0.00000000000E+00 0. -1.
         -1    1    3    3    0  502  0.17402519153E+03 -0.22599179670E+03  0.14976011217E+03  0.32215702795E+03  0.00000000000E+00 0.  1.
         13    1    5    5    0    0 -0.55143781897E+02  0.13264444056E+03  0.13330893096E+03  0.19597616020E+03  0.00000000000E+00 0. -1.
        -13    1    5    5    0    0 -0.45559658348E+02  0.35436410837E+02  0.15037649218E+03  0.16107299923E+03  0.00000000000E+00 0.  1.
          5    1    6    6  503    0 -0.26718506188E+03  0.37245253906E+03 -0.10515267954E+03  0.47030620574E+03  0.47000000000E+01 0. -1.
         -5    1    6    6    0  503 -0.11276629093E+03  0.27382502836E+03 -0.47091017798E+02  0.29989337519E+03  0.47000000000E+01 0.  1.
<mgrwt>
<rscale>  0 0.95232353E+03</rscale>
<asrwt>0</asrwt>
<pdfrwt beam="1">  1        1 0.20795441E+00 0.95232353E+03</pdfrwt>
<pdfrwt beam="2">  1       -1 0.12466994E+00 0.95232353E+03</pdfrwt>
<totfact> 0.47292982E+00</totfact>
</mgrwt>
</event>
<event>
12    1  0.3166324E-008  0.4924397E+03  0.7818608E-02  0.1015771E+00
          2   -1    0    0  501    0  0.00000000000E+00  0.00000000000E+00  0.65602632183E+03  0.65602632183E+03  0.00000000000E+00 0.  1.
         -2   -1    0    0    0  501 -0.00000000000E+00 -0.00000000000E+00 -0.75017818813E+03  0.75017818813E+03  0.00000000000E+00 0. -1.
         23    2    1    2    0    0 -0.33981470122E+03  0.14120602204E+03 -0.47355856377E+03  0.60670481763E+03  0.91759743853E+02 0.  0.
    5000000    2    1    2    0    0  0.33981470122E+03 -0.14120602204E+03  0.37940669747E+03  0.79949969233E+03  0.59986427141E+03 0.  0.
         23    2    4    4    0    0  0.44518767491E+03 -0.26053976260E+02  0.97860548251E+02  0.46563275012E+03  0.91467456015E+02 0.  0.
         23    2    4    4    0    0 -0.10537297368E+03 -0.11515204578E+03  0.28154614922E+03  0.33386694221E+03  0.88518041845E+02 0.  0.
          4    1    3    3  502    0 -0.17841639508E+02  0.29362407565E+02 -0.73514388126E+02  0.81147029150E+02  0.00000000000E+00 0. -1.
         -4    1    3    3    0  502 -0.32197306171E+03  0.11184361448E+03 -0.40004417564E+03  0.52555778848E+03  0.00000000000E+00 0.  1.
         11    1    5    5    0    0  0.34332905073E+03 -0.54134086120E+02  0.56331309157E+02  0.35210588286E+03  0.00000000000E+00 0.  1.
        -11    1    5    5    0    0  0.10185862418E+03  0.28080109860E+02  0.41529239094E+02  0.11352686726E+03  0.00000000000E+00 0. -1.
          5    1    6    6  503    0 -0.51549626939E+02 -0.59946271904E+02  0.22386405398E+03  0.23746183740E+03  0.47000000000E+01 0. -1.
         -5    1    6    6    0  503 -0.53823346743E+02 -0.55205773880E+02  0.57682095232E+02  0.96405104816E+02  0.47000000000E+01 0.  1.
<mgrwt>
<rscale>  0 0.49243966E+03</rscale>
<asrwt>0</asrwt>
<pdfrwt beam="1">  1        2 0.10092713E+00 0.49243966E+03</pdfrwt>
<pdfrwt beam="2">  1       -2 0.11541203E+00 0.49243966E+03</pdfrwt>
<totfact> 0.27050834E+01</totfact>
</mgrwt>
</event>
<event>
12    1  0.3166324E-008  0.1220492E+04  0.7818608E-02  0.9095106E-01
          2   -1    0    0  501    0  0.00000000000E+00  0.00000000000E+00  0.24057148416E+04  0.24057148416E+04  0.00000000000E+00 0. -1.
         -2   -1    0    0    0  501 -0.00000000000E+00 -0.00000000000E+00 -0.81967909841E+03  0.81967909841E+03  0.00000000000E+00 0.  1.
         23    2    1    2    0    0  0.11608022052E+04 -0.19032916637E+03  0.24212801136E+02  0.11801936915E+04  0.92649547211E+02 0.  0.
    5000000    2    1    2    0    0 -0.11608022052E+04  0.19032916637E+03  0.15618229420E+04  0.20452002485E+04  0.59988849228E+03 0.  0.
         23    2    4    4    0    0 -0.68469596118E+03  0.33926005422E+03  0.11859554022E+04  0.14137783561E+04  0.91504538968E+02 0.  0.
         23    2    4    4    0    0 -0.47610624398E+03 -0.14893088785E+03  0.37586753988E+03  0.63142189241E+03  0.92518288772E+02 0.  0.
          2    1    3    3  502    0  0.10232739797E+04 -0.15228590357E+03  0.47400094142E+02  0.10356289891E+04  0.00000000000E+00 0. -1.
         -2    1    3    3    0  502  0.13752822542E+03 -0.38043262801E+02 -0.23187293007E+02  0.14456470243E+03  0.00000000000E+00 0.  1.
         11    1    5    5    0    0 -0.26681891433E+03  0.12636388602E+03  0.37872386303E+03  0.48019988459E+03  0.00000000000E+00 0. -1.
        -11    1    5    5    0    0 -0.41787704685E+03  0.21289616820E+03  0.80723153913E+03  0.93357847152E+03  0.00000000000E+00 0.  1.
          5    1    6    6  503    0 -0.32397365347E+02 -0.54955974358E+01  0.11987896379E+01  0.33216230509E+02  0.47000000000E+01 0. -1.
         -5    1    6    6    0  503 -0.44370887864E+03 -0.14343529042E+03  0.37466875025E+03  0.59820566190E+03  0.47000000000E+01 0.  1.
<mgrwt>
<rscale>  0 0.12204923E+04</rscale>
<asrwt>0</asrwt>
<pdfrwt beam="1">  1        2 0.37010997E+00 0.12204923E+04</pdfrwt>
<pdfrwt beam="2">  1       -2 0.12610448E+00 0.12204923E+04</pdfrwt>
<totfact> 0.18071639E+00</totfact>
</mgrwt>
</event>
<event>
12    1  0.3166324E-008  0.6674578E+03  0.7818608E-02  0.9774561E-01
          2   -1    0    0  501    0  0.00000000000E+00  0.00000000000E+00  0.76565431932E+03  0.76565431932E+03  0.00000000000E+00 0. -1.
         -2   -1    0    0    0  501 -0.00000000000E+00 -0.00000000000E+00 -0.65440809474E+03  0.65440809474E+03  0.00000000000E+00 0.  1.
         23    2    1    2    0    0 -0.31608004210E+03  0.45704242955E+03 -0.10805011503E+03  0.57343854235E+03  0.91447028732E+02 0.  0.
    5000000    2    1    2    0    0  0.31608004210E+03 -0.45704242955E+03  0.21929633961E+03  0.84662387171E+03  0.59990559271E+03 0.  0.
         23    2    4    4    0    0 -0.11324928619E+03  0.21148665144E+02 -0.32673265210E+02  0.15035896471E+03  0.90926394129E+02 0.  0.
         23    2    4    4    0    0  0.42932932828E+03 -0.47819109470E+03  0.25196960482E+03  0.69626490701E+03  0.91135853535E+02 0.  0.
          1    1    3    3  502    0 -0.24213656298E+03  0.40754608958E+03 -0.86361124463E+02  0.48185285522E+03  0.00000000000E+00 0. -1.
         -1    1    3    3    0  502 -0.73943479114E+02  0.49496339974E+02 -0.21688990569E+02  0.91585687126E+02  0.00000000000E+00 0.  1.
         11    1    5    5    0    0 -0.34282033227E+02 -0.13852987762E+02 -0.50074909139E+02  0.62246763751E+02  0.00000000000E+00 0.  1.
        -11    1    5    5    0    0 -0.78967252959E+02  0.35001652906E+02  0.17401643930E+02  0.88112200957E+02  0.00000000000E+00 0. -1.
          5    1    6    6  503    0  0.35747885761E+03 -0.34341803803E+03  0.20455341769E+03  0.53627537065E+03  0.47000000000E+01 0. -1.
         -5    1    6    6    0  503  0.71850470678E+02 -0.13477305667E+03  0.47416187134E+02  0.15998953635E+03  0.47000000000E+01 0.  1.
<mgrwt>
<rscale>  0 0.66745780E+03</rscale>
<asrwt>0</asrwt>
<pdfrwt beam="1">  1        2 0.11779297E+00 0.66745780E+03</pdfrwt>
<pdfrwt beam="2">  1       -2 0.10067817E+00 0.66745780E+03</pdfrwt>
<totfact> 0.30314286E+01</totfact>
</mgrwt>
</event>
<event>
12    1  0.3166324E-008  0.3117797E+03  0.7818608E-02  0.1079496E+00
          2   -1    0    0  501    0  0.00000000000E+00  0.00000000000E+00  0.68584667854E+03  0.68584667854E+03  0.00000000000E+00 0. -1.
         -2   -1    0    0    0  501 -0.00000000000E+00 -0.00000000000E+00 -0.32551796339E+03  0.32551796339E+03  0.00000000000E+00 0.  1.
         23    2    1    2    0    0 -0.52833297465E+02 -0.16924030320E+02  0.39353275313E+03  0.40804353027E+03  0.92486294600E+02 0.  0.
    5000000    2    1    2    0    0  0.52833297465E+02  0.16924030320E+02 -0.33204037984E+02  0.60332111166E+03  0.59984671001E+03 0.  0.
         23    2    4    4    0    0  0.28285190329E+03  0.63462594332E+02 -0.13404249320E+03  0.33186666896E+03  0.90196429561E+02 0.  0.
         23    2    4    4    0    0 -0.23001860583E+03 -0.46538564012E+02  0.10083845521E+03  0.27145444270E+03  0.91895176406E+02 0.  0.
          1    1    3    3  502    0 -0.41660205313E+02  0.94969185900E+01  0.36531333518E+03  0.36780374798E+03  0.00000000000E+00 0. -1.
         -1    1    3    3    0  502 -0.11173092152E+02 -0.26420948910E+02  0.28219417955E+02  0.40239782296E+02  0.00000000000E+00 0.  1.
         13    1    5    5    0    0  0.27444534466E+03  0.41204323076E+02 -0.13375480517E+03  0.30807205545E+03  0.00000000000E+00 0. -1.
        -13    1    5    5    0    0  0.84065586352E+01  0.22258271256E+02 -0.28768802838E+00  0.23794613504E+02  0.00000000000E+00 0.  1.
          5    1    6    6  503    0 -0.65548455265E+02 -0.55545253513E+02  0.47309970250E+02  0.98194696702E+02  0.47000000000E+01 0. -1.
         -5    1    6    6    0  503 -0.16447015056E+03  0.90066895009E+01  0.53528484962E+02  0.17325974600E+03  0.47000000000E+01 0.  1.
<mgrwt>
<rscale>  0 0.31177966E+03</rscale>
<asrwt>0</asrwt>
<pdfrwt beam="1">  1        2 0.10551487E+00 0.31177966E+03</pdfrwt>
<pdfrwt beam="2">  1       -2 0.50079687E-01 0.31177966E+03</pdfrwt>
<totfact> 0.16558377E+02</totfact>
</mgrwt>
</event>
<event>
12    1  0.3166324E-008  0.2177704E+04  0.7818608E-02  0.8527766E-01
         -2   -1    0    0    0  501 -0.00000000000E+00  0.00000000000E+00  0.19439607844E+04  0.19439607844E+04  0.00000000000E+00 0. -1.
          2   -1    0    0  501    0  0.00000000000E+00 -0.00000000000E+00 -0.30804767535E+04  0.30804767535E+04  0.00000000000E+00 0.  1.
         23    2    1    2    0    0  0.11726421572E+04 -0.17944984179E+04  0.56940921369E+03  0.22198869869E+04  0.91417619882E+02 0.  0.
    5000000    2    1    2    0    0 -0.11726421572E+04  0.17944984179E+04 -0.17059251828E+04  0.28045505509E+04  0.60000738549E+03 0.  0.
         23    2    4    4    0    0 -0.74699454677E+03  0.67606502557E+03 -0.62248203953E+03  0.11877199736E+04  0.90166925114E+02 0.  0.
         23    2    4    4    0    0 -0.42564761041E+03  0.11184333924E+04 -0.10834431433E+04  0.16168305774E+04  0.90680371478E+02 0.  0.
          1    1    3    3  502    0  0.41718238432E+03 -0.56847346739E+03  0.20736679197E+03  0.73498585791E+03  0.00000000000E+00 0. -1.
         -1    1    3    3    0  502  0.75545977287E+03 -0.12260249505E+04  0.36204242172E+03  0.14849011290E+04  0.00000000000E+00 0.  1.
         13    1    5    5    0    0 -0.36275287661E+02  0.10378339997E+02 -0.22064667207E+02  0.43708763136E+02  0.00000000000E+00 0. -1.
        -13    1    5    5    0    0 -0.71071925911E+03  0.66568668557E+03 -0.60041737233E+03  0.11440112104E+04  0.00000000000E+00 0.  1.
          5    1    6    6  503    0 -0.11787120557E+03  0.40113431274E+03 -0.41614478850E+03  0.58991603891E+03  0.47000000000E+01 0. -1.
         -5    1    6    6    0  503 -0.30777640484E+03  0.71729907963E+03 -0.66729835476E+03  0.10269145384E+04  0.47000000000E+01 0.  1.
<mgrwt>
<rscale>  0 0.21777041E+04</rscale>
<asrwt>0</asrwt>
<pdfrwt beam="1">  1        2 0.47391950E+00 0.21777041E+04</pdfrwt>
<pdfrwt beam="2">  1       -2 0.29907089E+00 0.21777041E+04</pdfrwt>
<totfact> 0.43309097E-02</totfact>
</mgrwt>
</event>
<event>
12    1  0.3166324E-008  0.6037143E+03  0.7818608E-02  0.9897730E-01
          1   -1    0    0  501    0  0.00000000000E+00  0.00000000000E+00  0.13032529877E+04  0.13032529877E+04  0.00000000000E+00 0. -1.
         -1   -1    0    0    0  501 -0.00000000000E+00 -0.00000000000E+00 -0.38049841039E+03  0.38049841039E+03  0.00000000000E+00 0.  1.
         23    2    1    2    0    0  0.42389832384E+03 -0.22945803276E+03  0.74956550494E+03  0.89575394540E+03  0.90476000975E+02 0.  0.
    5000000    2    1    2    0    0 -0.42389832384E+03  0.22945803276E+03  0.17318907233E+03  0.78799745264E+03  0.59883616528E+03 0.  0.
         23    2    4    4    0    0  0.11802239810E+02 -0.14014741325E+03 -0.40266241012E+02  0.17126579602E+03  0.89050617156E+02 0.  0.
         23    2    4    4    0    0 -0.43570056365E+03  0.36960544600E+03  0.21345531334E+03  0.61673165663E+03  0.91387081203E+02 0.  0.
          1    1    3    3  502    0  0.21986132504E+03 -0.76511758697E+02  0.40430131469E+03  0.46653253319E+03  0.00000000000E+00 0. -1.
         -1    1    3    3    0  502  0.20403699880E+03 -0.15294627406E+03  0.34526419025E+03  0.42922141221E+03  0.00000000000E+00 0.  1.
         13    1    5    5    0    0 -0.92095557659E+01 -0.63198622053E+02  0.24614192895E+02  0.68445162274E+02  0.00000000000E+00 0. -1.
        -13    1    5    5    0    0  0.21011795576E+02 -0.76948791194E+02 -0.64880433907E+02  0.10282063374E+03  0.00000000000E+00 0.  1.
          5    1    6    6  503    0 -0.21154854836E+03  0.13238576300E+03  0.63631294902E+02  0.25758456912E+03  0.47000000000E+01 0. -1.
         -5    1    6    6    0  503 -0.22415201529E+03  0.23721968300E+03  0.14982401844E+03  0.35914708751E+03  0.47000000000E+01 0.  1.
<mgrwt>
<rscale>  0 0.60371432E+03</rscale>
<asrwt>0</asrwt>
<pdfrwt beam="1">  1        1 0.20050046E+00 0.60371432E+03</pdfrwt>
<pdfrwt beam="2">  1       -1 0.58538218E-01 0.60371432E+03</pdfrwt>
<totfact> 0.27959442E+01</totfact>
</mgrwt>
</event>
<event>
12    1  0.3166324E-008  0.9344832E+03  0.7818608E-02  0.9383473E-01
          1   -1    0    0  501    0  0.00000000000E+00  0.00000000000E+00  0.24357858504E+04  0.24357858504E+04  0.00000000000E+00 0. -1.
         -1   -1    0    0    0  501 -0.00000000000E+00 -0.00000000000E+00 -0.51269934780E+03  0.51269934780E+03  0.00000000000E+00 0.  1.
         23    2    1    2    0    0  0.24219106492E+03 -0.89452439762E+03  0.28651022310E+03  0.97435985408E+03  0.91970687944E+02 0.  0.
    5000000    2    1    2    0    0 -0.24219106492E+03  0.89452439762E+03  0.16365762795E+04  0.19741253441E+04  0.59996545383E+03 0.  0.
         23    2    4    4    0    0 -0.12997650343E+03  0.28906402413E+03  0.15026282391E+03  0.36247318238E+03  0.91411105466E+02 0.  0.
         23    2    4    4    0    0 -0.11221456149E+03  0.60546037349E+03  0.14863134556E+04  0.16116521617E+04  0.95501992213E+02 0.  0.
          3    1    3    3  502    0  0.94331404814E+02 -0.43434082477E+03  0.95358550337E+02  0.45458070694E+03  0.00000000000E+00 0. -1.
         -3    1    3    3    0  502  0.14785966011E+03 -0.46018357285E+03  0.19115167276E+03  0.51977914715E+03  0.00000000000E+00 0.  1.
         13    1    5    5    0    0 -0.11588624726E+03  0.23123536336E+03  0.15700462524E+03  0.30257208715E+03  0.00000000000E+00 0. -1.
        -13    1    5    5    0    0 -0.14090256169E+02  0.57828660762E+02 -0.67418013235E+01  0.59901095228E+02  0.00000000000E+00 0.  1.
          5    1    6    6  503    0 -0.10650590315E+02  0.30342820016E+01  0.34059082023E+02  0.36121365001E+02  0.47000000000E+01 0. -1.
         -5    1    6    6    0  503 -0.10156397118E+03  0.60242609149E+03  0.14522543735E+04  0.15755307967E+04  0.47000000000E+01 0.  1.
<mgrwt>
<rscale>  0 0.93448324E+03</rscale>
<asrwt>0</asrwt>
<pdfrwt beam="1">  1        1 0.37473628E+00 0.93448324E+03</pdfrwt>
<pdfrwt beam="2">  1       -1 0.78876824E-01 0.93448324E+03</pdfrwt>
<totfact> 0.24799175E+00</totfact>
</mgrwt>
</event>
<event>
12    1  0.3166324E-008  0.5864920E+03  0.7818608E-02  0.9933834E-01
          2   -1    0    0  501    0  0.00000000000E+00  0.00000000000E+00  0.15415611261E+04  0.15415611261E+04  0.00000000000E+00 0. -1.
         -2   -1    0    0    0  501 -0.00000000000E+00 -0.00000000000E+00 -0.83699153235E+03  0.83699153235E+03  0.00000000000E+00 0.  1.
         23    2    1    2    0    0  0.17807923430E+03 -0.53852099219E+03  0.12590958481E+04  0.13839869073E+04  0.91544154102E+02 0.  0.
    5000000    2    1    2    0    0 -0.17807923430E+03  0.53852099219E+03 -0.55452625435E+03  0.99456575114E+03  0.59995382644E+03 0.  0.
         23    2    4    4    0    0 -0.14873175936E+03  0.22554418540E+03  0.64428154717E+02  0.29387931081E+03  0.96035131047E+02 0.  0.
         23    2    4    4    0    0 -0.29347474944E+02  0.31297680679E+03 -0.61895440907E+03  0.70068644033E+03  0.95085073899E+02 0.  0.
          2    1    3    3  502    0  0.56869700544E+02 -0.31483745322E+03  0.71924250587E+03  0.78718902879E+03  0.00000000000E+00 0. -1.
         -2    1    3    3    0  502  0.12120953376E+03 -0.22368353897E+03  0.53985334223E+03  0.59679787852E+03  0.00000000000E+00 0.  1.
         11    1    5    5    0    0 -0.74179895461E+02  0.49227796927E+02  0.49509980240E+02  0.10186889135E+03  0.00000000000E+00 0. -1.
        -11    1    5    5    0    0 -0.74551863897E+02  0.17631638847E+03  0.14918174477E+02  0.19201041946E+03  0.00000000000E+00 0.  1.
          5    1    6    6  503    0 -0.42220187723E+02  0.26062469018E+03 -0.56788796105E+03  0.62627996909E+03  0.47000000000E+01 0. -1.
         -5    1    6    6    0  503  0.12872712778E+02  0.52352116617E+02 -0.51066448020E+02  0.74406471237E+02  0.47000000000E+01 0.  1.
<mgrwt>
<rscale>  0 0.58649204E+03</rscale>
<asrwt>0</asrwt>
<pdfrwt beam="1">  1        2 0.23716325E+00 0.58649204E+03</pdfrwt>
<pdfrwt beam="2">  1       -2 0.12876793E+00 0.58649204E+03</pdfrwt>
<totfact> 0.56457066E+00</totfact>
</mgrwt>
</event>
<event>
12    1  0.3166324E-008  0.9411916E+03  0.7818608E-02  0.9375506E-01
         -2   -1    0    0    0  501 -0.00000000000E+00  0.00000000000E+00  0.11866269957E+04  0.11866269957E+04  0.00000000000E+00 0.  1.
          2   -1    0    0  501    0  0.00000000000E+00 -0.00000000000E+00 -0.16219389069E+04  0.16219389069E+04  0.00000000000E+00 0. -1.
         23    2    1    2    0    0 -0.53904994626E+02 -0.90369365928E+03 -0.11811062833E+04  0.14910284668E+04  0.92659906058E+02 0.  0.
    5000000    2    1    2    0    0  0.53904994626E+02  0.90369365928E+03  0.74579437209E+03  0.13175374358E+04  0.60010638316E+03 0.  0.
         23    2    4    4    0    0  0.17165309716E+03  0.30473496648E+03  0.57101859930E+03  0.67587991543E+03  0.91778176997E+02 0.  0.
         23    2    4    4    0    0 -0.11774810254E+03  0.59895869280E+03  0.17477577278E+03  0.64165752040E+03  0.92529300214E+02 0.  0.
          1    1    3    3  502    0 -0.38841281867E+02 -0.34295231106E+03 -0.38378839170E+03  0.51615740084E+03  0.00000000000E+00 0. -1.
         -1    1    3    3    0  502 -0.15063712759E+02 -0.56074134822E+03 -0.79731789161E+03  0.97487106600E+03  0.00000000000E+00 0.  1.
         13    1    5    5    0    0  0.31351835872E+02  0.14484481670E+03  0.21431161828E+03  0.26056175519E+03  0.00000000000E+00 0. -1.
        -13    1    5    5    0    0  0.14030126129E+03  0.15989014978E+03  0.35670698102E+03  0.41531816024E+03  0.00000000000E+00 0.  1.
          5    1    6    6  503    0 -0.23532425844E+02  0.32002778182E+03  0.11702543555E+03  0.34159712933E+03  0.47000000000E+01 0. -1.
         -5    1    6    6    0  503 -0.94215676694E+02  0.27893091098E+03  0.57750337234E+02  0.30006039107E+03  0.47000000000E+01 0.  1.
<mgrwt>
<rscale>  0 0.94119157E+03</rscale>
<asrwt>0</asrwt>
<pdfrwt beam="1">  1        2 0.24952906E+00 0.94119157E+03</pdfrwt>
<pdfrwt beam="2">  1       -2 0.18255800E+00 0.94119157E+03</pdfrwt>
<totfact> 0.18909256E+00</totfact>
</mgrwt>
</event>
<event>
12    1  0.3166324E-008  0.7985904E+03  0.7818608E-02  0.9562060E-01
          1   -1    0    0  501    0  0.00000000000E+00  0.00000000000E+00  0.22890631235E+04  0.22890631235E+04  0.00000000000E+00 0. -1.
         -1   -1    0    0    0  501 -0.00000000000E+00 -0.00000000000E+00 -0.34417786306E+03  0.34417786306E+03  0.00000000000E+00 0.  1.
         23    2    1    2    0    0  0.76356270165E+03  0.15831257288E+03  0.74678443000E+03  0.10828993035E+04  0.83024372840E+02 0.  0.
    5000000    2    1    2    0    0 -0.76356270165E+03 -0.15831257288E+03  0.11981008304E+04  0.15503416830E+04  0.60001905328E+03 0.  0.
         23    2    4    4    0    0 -0.66798880736E+03 -0.10229361896E+03  0.12284919316E+04  0.14049103839E+04  0.88925416009E+02 0.  0.
         23    2    4    4    0    0 -0.95573894296E+02 -0.56018953913E+02 -0.30391101230E+02  0.14543129910E+03  0.89186048544E+02 0.  0.
          4    1    3    3  502    0  0.13442991701E+03  0.26187383480E+02  0.90123159208E+02  0.16394927711E+03  0.00000000000E+00 0. -1.
         -4    1    3    3    0  502  0.62913278465E+03  0.13212518940E+03  0.65666127080E+03  0.91895002636E+03  0.00000000000E+00 0.  1.
         11    1    5    5    0    0 -0.17466350379E+03 -0.14949832376E+02  0.39983327120E+03  0.43657471503E+03  0.00000000000E+00 0.  1.
        -11    1    5    5    0    0 -0.49332530357E+03 -0.87343786587E+02  0.82865866041E+03  0.96833566891E+03  0.00000000000E+00 0. -1.
          5    1    6    6  503    0 -0.88512906105E+02 -0.43904334246E+01 -0.10121794418E+02  0.89321616505E+02  0.47000000000E+01 0. -1.
         -5    1    6    6    0  503 -0.70609881908E+01 -0.51628520488E+02 -0.20269306811E+02  0.56109682592E+02  0.47000000000E+01 0.  1.
<mgrwt>
<rscale>  0 0.79859036E+03</rscale>
<asrwt>0</asrwt>
<pdfrwt beam="1">  1        1 0.35216355E+00 0.79859036E+03</pdfrwt>
<pdfrwt beam="2">  1       -1 0.52950442E-01 0.79859036E+03</pdfrwt>
<totfact> 0.71111630E+00</totfact>
</mgrwt>
</event>
<event>
12    1  0.3166324E-008  0.4583198E+03  0.7818608E-02  0.1025270E+00
          1   -1    0    0  501    0  0.00000000000E+00  0.00000000000E+00  0.68775776630E+03  0.68775776630E+03  0.00000000000E+00 0. -1.
         -1   -1    0    0    0  501 -0.00000000000E+00 -0.00000000000E+00 -0.32693346630E+03  0.32693346630E+03  0.00000000000E+00 0.  1.
         23    2    1    2    0    0 -0.13136519000E+03 -0.23858125337E+03  0.62463879960E+02  0.29130627547E+03  0.82339432970E+02 0.  0.
    5000000    2    1    2    0    0  0.13136519000E+03  0.23858125337E+03  0.29836042004E+03  0.72338495713E+03  0.60007418571E+03 0.  0.
         23    2    4    4    0    0  0.62294996498E+02 -0.18197108439E+03  0.15729260498E+03  0.26524051298E+03  0.92830081324E+02 0.  0.
         23    2    4    4    0    0  0.69070193503E+02  0.42055233777E+03  0.14106781506E+03  0.45814444416E+03  0.91439831783E+02 0.  0.
          2    1    3    3  502    0 -0.49174530637E+02 -0.38325165607E+02  0.39077719009E+02  0.73580030614E+02  0.00000000000E+00 0. -1.
         -2    1    3    3    0  502 -0.82190659364E+02 -0.20025608776E+03  0.23386160951E+02  0.21772624485E+03  0.00000000000E+00 0.  1.
         13    1    5    5    0    0 -0.14484767292E+02 -0.38882526072E+02  0.35911196018E+01  0.41647994637E+02  0.00000000000E+00 0. -1.
        -13    1    5    5    0    0  0.76779763790E+02 -0.14308855832E+03  0.15370148538E+03  0.22359251834E+03  0.00000000000E+00 0.  1.
          5    1    6    6  503    0  0.68250300456E+02  0.16860833880E+03  0.37956997981E+02  0.18587549360E+03  0.47000000000E+01 0. -1.
         -5    1    6    6    0  503  0.81989304701E+00  0.25194399897E+03  0.10311081708E+03  0.27226895056E+03  0.47000000000E+01 0.  1.
<mgrwt>
<rscale>  0 0.45831980E+03</rscale>
<asrwt>0</asrwt>
<pdfrwt beam="1">  1        1 0.10580889E+00 0.45831980E+03</pdfrwt>
<pdfrwt beam="2">  1       -1 0.50297456E-01 0.45831980E+03</pdfrwt>
<totfact> 0.11590276E+02</totfact>
</mgrwt>
</event>
<event>
12    1  0.3166324E-008  0.8860000E+03  0.7818608E-02  0.9443253E-01
         -2   -1    0    0    0  501 -0.00000000000E+00  0.00000000000E+00  0.59309125520E+03  0.59309125520E+03  0.00000000000E+00 0. -1.
          2   -1    0    0  501    0  0.00000000000E+00 -0.00000000000E+00 -0.14328660099E+04  0.14328660099E+04  0.00000000000E+00 0.  1.
         23    2    1    2    0    0  0.28582447161E+03  0.74925227201E+03 -0.57229100735E+03  0.98934899408E+03  0.90663329541E+02 0.  0.
    5000000    2    1    2    0    0 -0.28582447161E+03 -0.74925227201E+03 -0.26748374735E+03  0.10366082710E+04  0.59994546149E+03 0.  0.
         23    2    4    4    0    0 -0.29104449077E+03 -0.82424707537E+03 -0.25066526057E+03  0.91394982567E+03  0.91548206585E+02 0.  0.
         23    2    4    4    0    0  0.52200191637E+01  0.74994803360E+02 -0.16818486785E+02  0.12265844534E+03  0.95450319983E+02 0.  0.
          4    1    3    3  502    0  0.21009053976E+03  0.42931113947E+03 -0.35194532302E+03  0.59355842153E+03  0.00000000000E+00 0.  1.
         -4    1    3    3    0  502  0.75733931851E+02  0.31994113254E+03 -0.22034568432E+03  0.39579057256E+03  0.00000000000E+00 0. -1.
         13    1    5    5    0    0 -0.65791075390E+02 -0.25752851872E+03 -0.11264059551E+03  0.28868201764E+03  0.00000000000E+00 0.  1.
        -13    1    5    5    0    0 -0.22525341539E+03 -0.56671855665E+03 -0.13802466506E+03  0.62526780803E+03  0.00000000000E+00 0. -1.
          5    1    6    6  503    0  0.26590426362E+02  0.37668420374E+02  0.32834334969E+02  0.56799156864E+02  0.47000000000E+01 0. -1.
         -5    1    6    6    0  503 -0.21370407199E+02  0.37326382986E+02 -0.49652821755E+02  0.65859288478E+02  0.47000000000E+01 0.  1.
<mgrwt>
<rscale>  0 0.88600003E+03</rscale>
<asrwt>0</asrwt>
<pdfrwt beam="1">  1        2 0.22044093E+00 0.88600003E+03</pdfrwt>
<pdfrwt beam="2">  1       -2 0.91244808E-01 0.88600003E+03</pdfrwt>
<totfact> 0.14288566E+01</totfact>
</mgrwt>
</event>
<event>
12    1  0.3166324E-008  0.2346971E+03  0.7818608E-02  0.1123377E+00
          1   -1    0    0  501    0  0.00000000000E+00  0.00000000000E+00  0.91494878890E+03  0.91494878890E+03  0.00000000000E+00 0. -1.
         -1   -1    0    0    0  501 -0.00000000000E+00 -0.00000000000E+00 -0.29945462173E+03  0.29945462173E+03  0.00000000000E+00 0.  1.
         23    2    1    2    0    0 -0.73936055795E+02 -0.19228499785E+03 -0.11045263862E+03  0.25032838189E+03  0.89579309299E+02 0.  0.
    5000000    2    1    2    0    0  0.73936055795E+02  0.19228499785E+03  0.72594680579E+03  0.96407502874E+03  0.60000152955E+03 0.  0.
         23    2    4    4    0    0  0.35851956280E+02  0.17294809553E+02 -0.83571828801E+02  0.12990166415E+03  0.91135715133E+02 0.  0.
         23    2    4    4    0    0  0.38084099515E+02  0.17499018830E+03  0.80951863459E+03  0.83417336460E+03  0.91939207161E+02 0.  0.
          2    1    3    3  502    0 -0.51941602325E+02 -0.32703614390E+02 -0.46515025889E+02  0.77013661643E+02  0.00000000000E+00 0. -1.
         -2    1    3    3    0  502 -0.21994453470E+02 -0.15958138346E+03 -0.63937612729E+02  0.17331472024E+03  0.00000000000E+00 0.  1.
         13    1    5    5    0    0  0.34142340145E+02  0.35385360766E+02 -0.51939162567E+01  0.49444917972E+02  0.00000000000E+00 0. -1.
        -13    1    5    5    0    0  0.17096161346E+01 -0.18090551213E+02 -0.78377912545E+02  0.80456746177E+02  0.00000000000E+00 0.  1.
          5    1    6    6  503    0  0.33064731206E+02  0.14071687455E+03  0.44341870233E+03  0.46640835200E+03  0.47000000000E+01 0. -1.
         -5    1    6    6    0  503  0.50193683097E+01  0.34273313753E+02  0.36609993226E+03  0.36776501260E+03  0.47000000000E+01 0.  1.
<mgrwt>
<rscale>  0 0.23469707E+03</rscale>
<asrwt>0</asrwt>
<pdfrwt beam="1">  1        1 0.14076135E+00 0.23469707E+03</pdfrwt>
<pdfrwt beam="2">  1       -1 0.46069942E-01 0.23469707E+03</pdfrwt>
<totfact> 0.90860710E+01</totfact>
</mgrwt>
</event>
<event>
12    1  0.3166324E-008  0.2135811E+04  0.7818608E-02  0.8545630E-01
          2   -1    0    0  501    0  0.00000000000E+00  0.00000000000E+00  0.21789582129E+04  0.21789582129E+04  0.00000000000E+00 0. -1.
         -2   -1    0    0    0  501 -0.00000000000E+00 -0.00000000000E+00 -0.21310194520E+04  0.21310194520E+04  0.00000000000E+00 0.  1.
         23    2    1    2    0    0  0.21082594234E+04 -0.29169265692E+02 -0.99812910398E+02  0.21128007769E+04  0.91410410987E+02 0.  0.
    5000000    2    1    2    0    0 -0.21082594234E+04  0.29169265692E+02  0.14775167124E+03  0.21971768881E+04  0.60012255314E+03 0.  0.
         23    2    4    4    0    0 -0.55138917365E+03  0.20681803181E+03 -0.11177569358E+03  0.60630163553E+03  0.91127100642E+02 0.  0.
         23    2    4    4    0    0 -0.15568702497E+04 -0.17764876612E+03  0.25952736481E+03  0.15908752525E+04  0.90141874057E+02 0.  0.
          2    1    3    3  502    0  0.82258442145E+03  0.32428380772E+02 -0.30623857598E+02  0.82379278399E+03  0.00000000000E+00 0. -1.
         -2    1    3    3    0  502  0.12856750019E+04 -0.61597646464E+02 -0.69189052800E+02  0.12890079929E+04  0.00000000000E+00 0.  1.
         11    1    5    5    0    0 -0.44780994377E+03  0.13666753757E+03 -0.11109673423E+03  0.48120083741E+03  0.00000000000E+00 0. -1.
        -11    1    5    5    0    0 -0.10357922988E+03  0.70150494243E+02 -0.67895934340E+00  0.12510079812E+03  0.00000000000E+00 0.  1.
          5    1    6    6  503    0 -0.21747653823E+03 -0.61618696430E+01  0.11250505782E+02  0.21790520232E+03  0.47000000000E+01 0. -1.
         -5    1    6    6    0  503 -0.13393937115E+04 -0.17148689648E+03  0.24827685903E+03  0.13729700502E+04  0.47000000000E+01 0.  1.
<mgrwt>
<rscale>  0 0.21358112E+04</rscale>
<asrwt>0</asrwt>
<pdfrwt beam="1">  1        2 0.33522434E+00 0.21358112E+04</pdfrwt>
<pdfrwt beam="2">  1       -2 0.32784915E+00 0.21358112E+04</pdfrwt>
<totfact> 0.99579985E-02</totfact>
</mgrwt>
</event>
<event>
12    1  0.3166324E-008  0.7093322E+03  0.7818608E-02  0.9701405E-01
         -2   -1    0    0    0  501 -0.00000000000E+00  0.00000000000E+00  0.91015272794E+03  0.91015272794E+03  0.00000000000E+00 0.  1.
          2   -1    0    0  501    0  0.00000000000E+00 -0.00000000000E+00 -0.13438215941E+04  0.13438215941E+04  0.00000000000E+00 0. -1.
         23    2    1    2    0    0 -0.60744192144E+03  0.33948198484E+03  0.56179830230E+03  0.89922869119E+03  0.93601285457E+02 0.  0.
    5000000    2    1    2    0    0  0.60744192144E+03 -0.33948198484E+03 -0.99546716843E+03  0.13547456308E+04  0.60012259987E+03 0.  0.
         23    2    4    4    0    0  0.53992905526E+03 -0.34981537677E+03 -0.10448016523E+04  0.12305358158E+04  0.93347301298E+02 0.  0.
         23    2    4    4    0    0  0.67512866174E+02  0.10333391934E+02  0.49334483876E+02  0.12420981507E+03  0.91265660424E+02 0.  0.
          1    1    3    3  502    0 -0.14623425644E+03  0.12827863191E+03  0.16845577638E+03  0.25732705602E+03  0.00000000000E+00 0. -1.
         -1    1    3    3    0  502 -0.46120766499E+03  0.21120335292E+03  0.39334252592E+03  0.64190163517E+03  0.00000000000E+00 0.  1.
         13    1    5    5    0    0  0.41253470998E+03 -0.30207427031E+03 -0.77668585585E+03  0.92987884716E+03  0.00000000000E+00 0. -1.
        -13    1    5    5    0    0  0.12739434528E+03 -0.47741106460E+02 -0.26811579645E+03  0.30065696859E+03  0.00000000000E+00 0.  1.
          5    1    6    6  503    0  0.13410086390E+02  0.44839167142E+01  0.65558529270E+02  0.67230548757E+02  0.47000000000E+01 0. -1.
         -5    1    6    6    0  503  0.54102779784E+02  0.58494752195E+01 -0.16224045394E+02  0.56979266314E+02  0.47000000000E+01 0.  1.
<mgrwt>
<rscale>  0 0.70933224E+03</rscale>
<asrwt>0</asrwt>
<pdfrwt beam="1">  1        2 0.20674178E+00 0.70933224E+03</pdfrwt>
<pdfrwt beam="2">  1       -2 0.14002350E+00 0.70933224E+03</pdfrwt>
<totfact> 0.57600138E+00</totfact>
</mgrwt>
</event>
<event>
12    1  0.3166324E-008  0.1363568E+04  0.7818608E-02  0.8980620E-01
         -1   -1    0    0    0  501 -0.00000000000E+00  0.00000000000E+00  0.15457169441E+04  0.15457169441E+04  0.00000000000E+00 0.  1.
          1   -1    0    0  501    0  0.00000000000E+00 -0.00000000000E+00 -0.13479721319E+04  0.13479721319E+04  0.00000000000E+00 0. -1.
         23    2    1    2    0    0 -0.44580149366E+02 -0.13482561141E+04 -0.19464668717E+03  0.13660852395E+04  0.92301732261E+02 0.  0.
    5000000    2    1    2    0    0  0.44580149366E+02  0.13482561141E+04  0.39239149945E+03  0.15276038365E+04  0.59985035933E+03 0.  0.
         23    2    4    4    0    0  0.37879198427E+02  0.15887938218E+03  0.27036218649E+03  0.32862629724E+03  0.90675463053E+02 0.  0.
         23    2    4    4    0    0  0.67009509386E+01  0.11893767319E+04  0.12202931296E+03  0.11989775393E+04  0.89409581658E+02 0.  0.
          3    1    3    3  502    0 -0.31456013567E+02 -0.40126257415E+03 -0.19680103019E+02  0.40297449133E+03  0.00000000000E+00 0. -1.
         -3    1    3    3    0  502 -0.13124135798E+02 -0.94699353994E+03 -0.17496658415E+03  0.96311074815E+03  0.00000000000E+00 0.  1.
         13    1    5    5    0    0 -0.28779742291E+02  0.52286711353E+02  0.10661089876E+03  0.12218043004E+03  0.00000000000E+00 0. -1.
        -13    1    5    5    0    0  0.66658940718E+02  0.10659267082E+03  0.16375128774E+03  0.20644586721E+03  0.00000000000E+00 0.  1.
          5    1    6    6  503    0 -0.33750832668E+02  0.31652483227E+03  0.15843533128E+02  0.31874785597E+03  0.47000000000E+01 0. -1.
         -5    1    6    6    0  503  0.40451783606E+02  0.87285189965E+03  0.10618577983E+03  0.88022968330E+03  0.47000000000E+01 0.  1.
<mgrwt>
<rscale>  0 0.13635684E+04</rscale>
<asrwt>0</asrwt>
<pdfrwt beam="1">  1        1 0.20738033E+00 0.13635684E+04</pdfrwt>
<pdfrwt beam="2">  1       -1 0.23780261E+00 0.13635684E+04</pdfrwt>
<totfact> 0.67377875E-01</totfact>
</mgrwt>
</event>
<event>
12    1  0.3166324E-008  0.1104539E+04  0.7818608E-02  0.9200779E-01
          2   -1    0    0  501    0  0.00000000000E+00  0.00000000000E+00  0.31077958246E+04  0.31077958246E+04  0.00000000000E+00 0.  1.
         -2   -1    0    0    0  501 -0.00000000000E+00 -0.00000000000E+00 -0.56255817815E+03  0.56255817815E+03  0.00000000000E+00 0. -1.
         23    2    1    2    0    0  0.10338617107E+04 -0.36701485112E+03  0.37010141378E+03  0.11614040655E+04  0.91183381085E+02 0.  0.
    5000000    2    1    2    0    0 -0.10338617107E+04  0.36701485112E+03  0.21751362326E+04  0.25089499373E+04  0.60003518177E+03 0.  0.
         23    2    4    4    0    0 -0.64728259350E+03  0.20119118715E+03  0.72913811387E+03  0.99979931966E+03  0.92215187763E+02 0.  0.
         23    2    4    4    0    0 -0.38657911720E+03  0.16582366397E+03  0.14459981188E+04  0.15091506176E+04  0.98407955700E+02 0.  0.
          1    1    3    3  502    0  0.19685124501E+03 -0.10012568070E+03  0.98730813417E+02  0.24191597326E+03  0.00000000000E+00 0. -1.
         -1    1    3    3    0  502  0.83701046569E+03 -0.26688917042E+03  0.27137060036E+03  0.91948809220E+03  0.00000000000E+00 0.  1.
         11    1    5    5    0    0 -0.32417036365E+03  0.14898380342E+03  0.38190028854E+03  0.52261881782E+03  0.00000000000E+00 0.  1.
        -11    1    5    5    0    0 -0.32311222985E+03  0.52207383723E+02  0.34723782533E+03  0.47718050184E+03  0.00000000000E+00 0. -1.
          5    1    6    6  503    0 -0.10089853372E+03  0.13698942520E+02  0.46817586137E+03  0.47914392651E+03  0.47000000000E+01 0. -1.
         -5    1    6    6    0  503 -0.28568058348E+03  0.15212472145E+03  0.97782225741E+03  0.10300066911E+04  0.47000000000E+01 0.  1.
<mgrwt>
<rscale>  0 0.11045392E+04</rscale>
<asrwt>0</asrwt>
<pdfrwt beam="1">  1        2 0.47812243E+00 0.11045392E+04</pdfrwt>
<pdfrwt beam="2">  1       -2 0.86547414E-01 0.11045392E+04</pdfrwt>
<totfact> 0.17329580E+00</totfact>
</mgrwt>
</event>
<event>
12    1  0.3166324E-008  0.4285277E+03  0.7818608E-02  0.1034326E+00
          1   -1    0    0  501    0  0.00000000000E+00  0.00000000000E+00  0.11978744209E+04  0.11978744209E+04  0.00000000000E+00 0. -1.
         -1   -1    0    0    0  501 -0.00000000000E+00 -0.00000000000E+00 -0.27598413989E+03  0.27598413989E+03  0.00000000000E+00 0.  1.
         23    2    1    2    0    0 -0.32328788608E+03 -0.20883659948E+02  0.11095746432E+02  0.33624277417E+03  0.89358284760E+02 0.  0.
    5000000    2    1    2    0    0  0.32328788608E+03  0.20883659948E+02  0.91079453462E+03  0.11376157867E+04  0.59972644534E+03 0.  0.
         23    2    4    4    0    0  0.12896671546E+03 -0.19402455506E+03  0.94503930393E+02  0.26702733614E+03  0.89970349142E+02 0.  0.
         23    2    4    4    0    0  0.19432117061E+03  0.21490821501E+03  0.81629060422E+03  0.87058845052E+03  0.87450794254E+02 0.  0.
          4    1    3    3  502    0 -0.25578814700E+03  0.16562812135E+02 -0.89896079821E+01  0.25648141442E+03  0.00000000000E+00 0. -1.
         -4    1    3    3    0  502 -0.67499739075E+02 -0.37446472083E+02  0.20085354414E+02  0.79761359746E+02  0.00000000000E+00 0.  1.
         13    1    5    5    0    0  0.28864828613E+02 -0.39695437517E+02 -0.16975202089E+02  0.51933260792E+02  0.00000000000E+00 0. -1.
        -13    1    5    5    0    0  0.10010188685E+03 -0.15432911754E+03  0.11147913248E+03  0.21509407535E+03  0.00000000000E+00 0.  1.
          5    1    6    6  503    0  0.77175526780E+02  0.99357948645E+02  0.23700195891E+03  0.26836557608E+03  0.47000000000E+01 0. -1.
         -5    1    6    6    0  503  0.11714564384E+03  0.11555026636E+03  0.57928864531E+03  0.60222287445E+03  0.47000000000E+01 0.  1.
<mgrwt>
<rscale>  0 0.42852769E+03</rscale>
<asrwt>0</asrwt>
<pdfrwt beam="1">  1        1 0.18428837E+00 0.42852769E+03</pdfrwt>
<pdfrwt beam="2">  1       -1 0.42459099E-01 0.42852769E+03</pdfrwt>
<totfact> 0.62465058E+01</totfact>
</mgrwt>
</event>
<event>
12    1  0.3166324E-008  0.5411202E+03  0.7818608E-02  0.1003570E+00
          2   -1    0    0  501    0  0.00000000000E+00  0.00000000000E+00  0.77489376822E+03  0.77489376822E+03  0.00000000000E+00 0.  1.
         -2   -1    0    0    0  501 -0.00000000000E+00 -0.00000000000E+00 -0.51235959928E+03  0.51235959928E+03  0.00000000000E+00 0. -1.
         23    2    1    2    0    0  0.32979003636E+03 -0.26576799912E+03  0.33783283611E+03  0.54908010271E+03  0.89240330588E+02 0.  0.
    5000000    2    1    2    0    0 -0.32979003636E+03  0.26576799912E+03 -0.75298667158E+02  0.73817326478E+03  0.59986313616E+03 0.  0.
         23    2    4    4    0    0  0.12492847064E+02 -0.10774743300E+03 -0.16385581792E+03  0.21548956009E+03  0.88438910526E+02 0.  0.
         23    2    4    4    0    0 -0.34228288343E+03  0.37351543212E+03  0.88557150758E+02  0.52268370470E+03  0.93190857308E+02 0.  0.
          1    1    3    3  502    0  0.45705469192E+02 -0.72340640819E+02  0.97374137144E+02  0.12962978366E+03  0.00000000000E+00 0. -1.
         -1    1    3    3    0  502  0.28408456717E+03 -0.19342735830E+03  0.24045869896E+03  0.41945031905E+03  0.00000000000E+00 0.  1.
         11    1    5    5    0    0  0.15292061959E+02  0.12169170933E+02 -0.17256095647E+02  0.26071223929E+02  0.00000000000E+00 0. -1.
        -11    1    5    5    0    0 -0.27992148955E+01 -0.11991660393E+03 -0.14659972227E+03  0.18941833616E+03  0.00000000000E+00 0.  1.
          5    1    6    6  503    0 -0.30046934362E+02  0.77353041398E+02 -0.82906371724E+00  0.83120927718E+02  0.47000000000E+01 0. -1.
         -5    1    6    6    0  503 -0.31223594907E+03  0.29616239072E+03  0.89386214475E+02  0.43956277698E+03  0.47000000000E+01 0.  1.
<mgrwt>
<rscale>  0 0.54112024E+03</rscale>
<asrwt>0</asrwt>
<pdfrwt beam="1">  1        2 0.11921443E+00 0.54112024E+03</pdfrwt>
<pdfrwt beam="2">  1       -2 0.78824554E-01 0.54112024E+03</pdfrwt>
<totfact> 0.53029958E+01</totfact>
</mgrwt>
</event>
<event>
12    1  0.3166324E-008  0.7799139E+03  0.7818608E-02  0.9589555E-01
          2   -1    0    0  501    0  0.00000000000E+00  0.00000000000E+00  0.13684455550E+04  0.13684455550E+04  0.00000000000E+00 0.  1.
         -2   -1    0    0    0  501 -0.00000000000E+00 -0.00000000000E+00 -0.55106629391E+03  0.55106629391E+03  0.00000000000E+00 0. -1.
         23    2    1    2    0    0 -0.48223631661E+02  0.68462188283E+03  0.72602779816E+03  0.10033514394E+04  0.92547858183E+02 0.  0.
    5000000    2    1    2    0    0  0.48223631661E+02 -0.68462188283E+03  0.91351462958E+02  0.91616040957E+03  0.59997680387E+03 0.  0.
         23    2    4    4    0    0 -0.23659744816E+03 -0.23213746558E+03 -0.67525005329E+02  0.35092891481E+03  0.93409429435E+02 0.  0.
         23    2    4    4    0    0  0.28482107982E+03 -0.45248441726E+03  0.15887646829E+03  0.56523149476E+03  0.91540783939E+02 0.  0.
          3    1    3    3  502    0 -0.62294748104E+02  0.56105225745E+03  0.55272660059E+03  0.79004238256E+03  0.00000000000E+00 0. -1.
         -3    1    3    3    0  502  0.14071116444E+02  0.12356962538E+03  0.17330119757E+03  0.21330905680E+03  0.00000000000E+00 0.  1.
         11    1    5    5    0    0 -0.18623134127E+02 -0.16369048794E+01 -0.24444454070E+02  0.30773883685E+02  0.00000000000E+00 0. -1.
        -11    1    5    5    0    0 -0.21797431403E+03 -0.23050056070E+03 -0.43080551259E+02  0.32015503113E+03  0.00000000000E+00 0.  1.
          5    1    6    6  503    0  0.23463135462E+03 -0.36119095676E+03  0.89381334679E+02  0.43991123287E+03  0.47000000000E+01 0. -1.
         -5    1    6    6    0  503  0.50189725193E+02 -0.91293460500E+02  0.69495133608E+02  0.12532026189E+03  0.47000000000E+01 0.  1.
<mgrwt>
<rscale>  0 0.77991392E+03</rscale>
<asrwt>0</asrwt>
<pdfrwt beam="1">  1        2 0.21053008E+00 0.77991392E+03</pdfrwt>
<pdfrwt beam="2">  1       -2 0.84779430E-01 0.77991392E+03</pdfrwt>
<totfact> 0.18620318E+01</totfact>
</mgrwt>
</event>
<event>
12    1  0.3166324E-008  0.3936454E+03  0.7818608E-02  0.1046003E+00
          2   -1    0    0  501    0  0.00000000000E+00  0.00000000000E+00  0.30087817926E+04  0.30087817926E+04  0.00000000000E+00 0. -1.
         -2   -1    0    0    0  501 -0.00000000000E+00 -0.00000000000E+00 -0.26097812171E+03  0.26097812171E+03  0.00000000000E+00 0.  1.
         23    2    1    2    0    0  0.23360738110E+03 -0.88482551508E+02 -0.14650645857E+03  0.30322410996E+03  0.89884081110E+02 0.  0.
    5000000    2    1    2    0    0 -0.23360738110E+03  0.88482551508E+02  0.28943101295E+04  0.29665358043E+04  0.60075118186E+03 0.  0.
         23    2    4    4    0    0 -0.32178008297E+03 -0.74667170042E+02  0.24777823621E+04  0.25014096370E+04  0.92342461466E+02 0.  0.
         23    2    4    4    0    0  0.88172701878E+02  0.16314972155E+03  0.41652776739E+03  0.46512616734E+03  0.91949516268E+02 0.  0.
          4    1    3    3  502    0  0.80202792419E+01 -0.29729054087E+02 -0.28444858236E+02  0.41919583682E+02  0.00000000000E+00 0.  1.
         -4    1    3    3    0  502  0.22558710185E+03 -0.58753497421E+02 -0.11806160033E+03  0.26130452628E+03  0.00000000000E+00 0. -1.
         11    1    5    5    0    0 -0.16963214197E+03 -0.15587211994E+02  0.97272868740E+03  0.98753183445E+03  0.00000000000E+00 0.  1.
        -11    1    5    5    0    0 -0.15214794100E+03 -0.59079958048E+02  0.15050536747E+04  0.15138778025E+04  0.00000000000E+00 0. -1.
          5    1    6    6  503    0  0.22886318253E+01  0.35604103053E+02  0.23282235666E+02  0.42860733632E+02  0.47000000000E+01 0. -1.
         -5    1    6    6    0  503  0.85884070053E+02  0.12754561850E+03  0.39324553173E+03  0.42226543371E+03  0.47000000000E+01 0.  1.
<mgrwt>
<rscale>  0 0.39364542E+03</rscale>
<asrwt>0</asrwt>
<pdfrwt beam="1">  1        2 0.46288948E+00 0.39364542E+03</pdfrwt>
<pdfrwt beam="2">  1       -2 0.40150483E-01 0.39364542E+03</pdfrwt>
<totfact> 0.11715738E+01</totfact>
</mgrwt>
</event>
<event>
12    1  0.3166324E-008  0.1268804E+04  0.7818608E-02  0.9054676E-01
         -1   -1    0    0    0  501 -0.00000000000E+00  0.00000000000E+00  0.10087870085E+04  0.10087870085E+04  0.00000000000E+00 0.  1.
          1   -1    0    0  501    0  0.00000000000E+00 -0.00000000000E+00 -0.17800106210E+04  0.17800106210E+04  0.00000000000E+00 0. -1.
         23    2    1    2    0    0 -0.74135056586E+03  0.97171200995E+03 -0.73022884452E+03  0.14266281094E+04  0.90601906069E+02 0.  0.
    5000000    2    1    2    0    0  0.74135056586E+03 -0.97171200995E+03 -0.40994767923E+02  0.13621695201E+04  0.60000028229E+03 0.  0.
         23    2    4    4    0    0  0.74386278719E+03 -0.65221025666E+03 -0.16682994734E+03  0.10070804725E+04  0.87571580175E+02 0.  0.
         23    2    4    4    0    0 -0.25122213240E+01 -0.31950175328E+03  0.12583517942E+03  0.35508904763E+03  0.90366242391E+02 0.  0.
          4    1    3    3  502    0 -0.24826565848E+03  0.39458175411E+03 -0.29323200693E+03  0.55074096248E+03  0.00000000000E+00 0. -1.
         -4    1    3    3    0  502 -0.49308490738E+03  0.57713025583E+03 -0.43699683759E+03  0.87588714692E+03  0.00000000000E+00 0.  1.
         13    1    5    5    0    0  0.61360880643E+03 -0.57363365108E+03 -0.12432163885E+03  0.84913320679E+03  0.00000000000E+00 0. -1.
        -13    1    5    5    0    0  0.13025398076E+03 -0.78576605581E+02 -0.42508308496E+02  0.15794726569E+03  0.00000000000E+00 0.  1.
          5    1    6    6  503    0 -0.10279530103E+02 -0.22842389793E+03  0.13072755840E+03  0.26342917532E+03  0.47000000000E+01 0. -1.
         -5    1    6    6    0  503  0.77673087790E+01 -0.91077855346E+02 -0.48923789748E+01  0.91659872311E+02  0.47000000000E+01 0.  1.
<mgrwt>
<rscale>  0 0.12688044E+04</rscale>
<asrwt>0</asrwt>
<pdfrwt beam="1">  1        1 0.27384778E+00 0.12688044E+04</pdfrwt>
<pdfrwt beam="2">  1       -1 0.15519800E+00 0.12688044E+04</pdfrwt>
<totfact> 0.13012793E+00</totfact>
</mgrwt>
</event>
<event>
12    1  0.3166324E-008  0.5532144E+03  0.7818608E-02  0.1000753E+00
          4   -1    0    0  501    0  0.00000000000E+00  0.00000000000E+00  0.17765593267E+04  0.17765593267E+04  0.00000000000E+00 0. -1.
         -4   -1    0    0    0  501 -0.00000000000E+00 -0.00000000000E+00 -0.37101547079E+03  0.37101547079E+03  0.00000000000E+00 0.  1.
         23    2    1    2    0    0  0.22042630580E+03 -0.40505572378E+03 -0.82791751897E+02  0.47793998259E+03  0.94415343676E+02 0.  0.
    5000000    2    1    2    0    0 -0.22042630580E+03  0.40505572378E+03  0.14883356078E+04  0.16696348149E+04  0.59989968995E+03 0.  0.
         23    2    4    4    0    0  0.75355388695E+02  0.29733420534E+03  0.30688055762E+03  0.44346887824E+03  0.91667360897E+02 0.  0.
         23    2    4    4    0    0 -0.29578169449E+03  0.10772151843E+03  0.11814550502E+04  0.12261659366E+04  0.92499363645E+02 0.  0.
          4    1    3    3  502    0  0.12738306117E+03 -0.13807495257E+03 -0.27639604182E+02  0.18988176457E+03  0.00000000000E+00 0. -1.
         -4    1    3    3    0  502  0.93043244632E+02 -0.26698077121E+03 -0.55152147715E+02  0.28805821801E+03  0.00000000000E+00 0.  1.
         11    1    5    5    0    0  0.40970614249E+02  0.46840441285E+02  0.31960212875E+02  0.69957654182E+02  0.00000000000E+00 0. -1.
        -11    1    5    5    0    0  0.34384774446E+02  0.25049376406E+03  0.27492034474E+03  0.37351122406E+03  0.00000000000E+00 0.  1.
          5    1    6    6  503    0 -0.82789111586E+02  0.20314116144E+01  0.43170893804E+03  0.43960534666E+03  0.47000000000E+01 0. -1.
         -5    1    6    6    0  503 -0.21299258291E+03  0.10569010682E+03  0.74974611212E+03  0.78656058997E+03  0.47000000000E+01 0.  1.
<mgrwt>
<rscale>  0 0.55321442E+03</rscale>
<asrwt>0</asrwt>
<pdfrwt beam="1">  1        4 0.27331681E+00 0.55321442E+03</pdfrwt>
<pdfrwt beam="2">  1       -4 0.57079304E-01 0.55321442E+03</pdfrwt>
<totfact> 0.26773545E-01</totfact>
</mgrwt>
</event>
<event>
12    1  0.3166324E-008  0.1170265E+04  0.7818608E-02  0.9139289E-01
          2   -1    0    0  501    0  0.00000000000E+00  0.00000000000E+00  0.22078072077E+04  0.22078072077E+04  0.00000000000E+00 0. -1.
         -2   -1    0    0    0  501 -0.00000000000E+00 -0.00000000000E+00 -0.11701457059E+04  0.11701457059E+04  0.00000000000E+00 0.  1.
         23    2    1    2    0    0  0.99506234087E+03 -0.48593607697E+03 -0.63831788337E+03  0.12814784450E+04  0.91947548054E+02 0.  0.
    5000000    2    1    2    0    0 -0.99506234087E+03  0.48593607697E+03  0.16759793851E+04  0.20964744686E+04  0.60001280414E+03 0.  0.
         23    2    4    4    0    0 -0.80768281109E+03  0.60054376320E+03  0.14586040316E+04  0.17746441628E+04  0.93977915560E+02 0.  0.
         23    2    4    4    0    0 -0.18737952978E+03 -0.11460768623E+03  0.21737535350E+03  0.32183030584E+03  0.89870415154E+02 0.  0.
          3    1    3    3  502    0  0.18790051252E+03 -0.72556306507E+02 -0.15285076972E+03  0.25285248273E+03  0.00000000000E+00 0. -1.
         -3    1    3    3    0  502  0.80716182835E+03 -0.41337977046E+03 -0.48546711365E+03  0.10286259622E+04  0.00000000000E+00 0.  1.
         11    1    5    5    0    0 -0.49877095265E+03  0.35809509340E+03  0.96677317315E+03  0.11452750445E+04  0.00000000000E+00 0.  1.
        -11    1    5    5    0    0 -0.30891185844E+03  0.24244866980E+03  0.49183085849E+03  0.62936911835E+03  0.00000000000E+00 0. -1.
          5    1    6    6  503    0 -0.17637570633E+03 -0.89732305508E+02  0.21768320611E+03  0.29422498986E+03  0.47000000000E+01 0. -1.
         -5    1    6    6    0  503 -0.11003823450E+02 -0.24875380725E+02 -0.30785261332E+00  0.27605315973E+02  0.47000000000E+01 0.  1.
<mgrwt>
<rscale>  0 0.11702652E+04</rscale>
<asrwt>0</asrwt>
<pdfrwt beam="1">  1        2 0.33966265E+00 0.11702652E+04</pdfrwt>
<pdfrwt beam="2">  1       -2 0.18002242E+00 0.11702652E+04</pdfrwt>
<totfact> 0.90521307E-01</totfact>
</mgrwt>
</event>
<event>
12    1  0.3166324E-008  0.4647991E+03  0.7818608E-02  0.1023398E+00
         -1   -1    0    0    0  501 -0.00000000000E+00  0.00000000000E+00  0.52107751284E+03  0.52107751284E+03  0.00000000000E+00 0.  1.
          1   -1    0    0  501    0  0.00000000000E+00 -0.00000000000E+00 -0.93938623254E+03  0.93938623254E+03  0.00000000000E+00 0. -1.
         23    2    1    2    0    0  0.14240649319E+03 -0.25274361311E+03  0.33683761292E+03  0.45330179335E+03  0.88679169478E+02 0.  0.
    5000000    2    1    2    0    0 -0.14240649319E+03  0.25274361311E+03 -0.75514633263E+03  0.10071619520E+04  0.59997522505E+03 0.  0.
         23    2    4    4    0    0 -0.28009569454E+03 -0.51218047509E+02 -0.22200984557E+03  0.37205563419E+03  0.89778265251E+02 0.  0.
         23    2    4    4    0    0  0.13768920135E+03  0.30396166062E+03 -0.53313648706E+03  0.63510631784E+03  0.88173203603E+02 0.  0.
          1    1    3    3  502    0  0.77984490156E+02 -0.20338324711E+03  0.27743323257E+03  0.35272584884E+03  0.00000000000E+00 0. -1.
         -1    1    3    3    0  502  0.64422003037E+02 -0.49360366000E+02  0.59404380355E+02  0.10057594450E+03  0.00000000000E+00 0.  1.
         11    1    5    5    0    0 -0.23427076081E+03 -0.19190055844E+02 -0.14256566537E+03  0.27491092476E+03  0.00000000000E+00 0. -1.
        -11    1    5    5    0    0 -0.45824933739E+02 -0.32027991665E+02 -0.79444180205E+02  0.97144709432E+02  0.00000000000E+00 0.  1.
          5    1    6    6  503    0  0.90390077607E+02  0.12399054911E+03 -0.29793366014E+03  0.33515754242E+03  0.47000000000E+01 0. -1.
         -5    1    6    6    0  503  0.47299123744E+02  0.17997111151E+03 -0.23520282692E+03  0.29994877542E+03  0.47000000000E+01 0.  1.
<mgrwt>
<rscale>  0 0.46479907E+03</rscale>
<asrwt>0</asrwt>
<pdfrwt beam="1">  1        1 0.14452096E+00 0.46479907E+03</pdfrwt>
<pdfrwt beam="2">  1       -1 0.80165773E-01 0.46479907E+03</pdfrwt>
<totfact> 0.28075338E+01</totfact>
</mgrwt>
</event>
<event>
12    1  0.3166324E-008  0.1305665E+04  0.7818608E-02  0.9025085E-01
         -2   -1    0    0    0  501 -0.00000000000E+00  0.00000000000E+00  0.15207232079E+04  0.15207232079E+04  0.00000000000E+00 0.  1.
          2   -1    0    0  501    0  0.00000000000E+00 -0.00000000000E+00 -0.14311023878E+04  0.14311023878E+04  0.00000000000E+00 0. -1.
         23    2    1    2    0    0 -0.12944117813E+04  0.11713226480E+03  0.59615300292E+03  0.14333657832E+04  0.99585333203E+02 0.  0.
    5000000    2    1    2    0    0  0.12944117813E+04 -0.11713226480E+03 -0.50653218281E+03  0.15184598125E+04  0.59993626578E+03 0.  0.
         23    2    4    4    0    0  0.70849421434E+03 -0.10535831329E+03 -0.57247335592E+03  0.92161587803E+03  0.92658822968E+02 0.  0.
         23    2    4    4    0    0  0.58591756696E+03 -0.11773951511E+02  0.65941173110E+02  0.59684393449E+03  0.91850000630E+02 0.  0.
          2    1    3    3  502    0 -0.20169509205E+03  0.15342687621E+02  0.13364241343E+03  0.24243886423E+03  0.00000000000E+00 0. -1.
         -2    1    3    3    0  502 -0.10927166892E+04  0.10178957718E+03  0.46251058948E+03  0.11909269190E+04  0.00000000000E+00 0.  1.
         11    1    5    5    0    0  0.22669034073E+03 -0.77343545436E+02 -0.19763157707E+03  0.31052982926E+03  0.00000000000E+00 0. -1.
        -11    1    5    5    0    0  0.48180387360E+03 -0.28014767853E+02 -0.37484177885E+03  0.61108604878E+03  0.00000000000E+00 0.  1.
          5    1    6    6  503    0  0.22560216170E+03 -0.35105025780E+02 -0.69007675579E+01  0.22846971088E+03  0.47000000000E+01 0. -1.
         -5    1    6    6    0  503  0.36031540526E+03  0.23331074269E+02  0.72841940668E+02  0.36837422361E+03  0.47000000000E+01 0.  1.
<mgrwt>
<rscale>  0 0.13056652E+04</rscale>
<asrwt>0</asrwt>
<pdfrwt beam="1">  1        2 0.22016960E+00 0.13056652E+04</pdfrwt>
<pdfrwt beam="2">  1       -2 0.23395742E+00 0.13056652E+04</pdfrwt>
<totfact> 0.10765616E+00</totfact>
</mgrwt>
</event>
<event>
12    1  0.3166324E-008  0.5421138E+03  0.7818608E-02  0.1003336E+00
         -1   -1    0    0    0  501 -0.00000000000E+00  0.00000000000E+00  0.29244916100E+03  0.29244916100E+03  0.00000000000E+00 0.  1.
          1   -1    0    0  501    0  0.00000000000E+00 -0.00000000000E+00 -0.12219941838E+04  0.12219941838E+04  0.00000000000E+00 0. -1.
         23    2    1    2    0    0  0.41459660628E+03 -0.11661645856E+03 -0.47406219065E+03  0.64668209389E+03  0.89291800340E+02 0.  0.
    5000000    2    1    2    0    0 -0.41459660628E+03  0.11661645856E+03 -0.45548283218E+03  0.86776125093E+03  0.60004602645E+03 0.  0.
         23    2    4    4    0    0 -0.26712192743E+03 -0.16832846247E+03 -0.42087220655E+03  0.53317216908E+03  0.86316581537E+02 0.  0.
         23    2    4    4    0    0 -0.14747467885E+03  0.28494492103E+03 -0.34610625636E+02  0.33458908185E+03  0.88371767923E+02 0.  0.
          3    1    3    3  502    0  0.95161713580E+02 -0.27778048830E+02 -0.17009292636E+03  0.19687299288E+03  0.00000000000E+00 0. -1.
         -3    1    3    3    0  502  0.31943489270E+03 -0.88838409733E+02 -0.30396926429E+03  0.44980910101E+03  0.00000000000E+00 0.  1.
         13    1    5    5    0    0 -0.16139384418E+03 -0.51763829194E+02 -0.23230590974E+03  0.28756477992E+03  0.00000000000E+00 0. -1.
        -13    1    5    5    0    0 -0.10572808325E+03 -0.11656463327E+03 -0.18856629681E+03  0.24560738916E+03  0.00000000000E+00 0.  1.
          5    1    6    6  503    0 -0.17890436062E+02  0.94378561076E+02 -0.39670589073E+02  0.10403473521E+03  0.47000000000E+01 0. -1.
         -5    1    6    6    0  503 -0.12958424279E+03  0.19056635995E+03  0.50599634369E+01  0.23055434664E+03  0.47000000000E+01 0.  1.
<mgrwt>
<rscale>  0 0.54211377E+03</rscale>
<asrwt>0</asrwt>
<pdfrwt beam="1">  1        1 0.18799910E+00 0.54211377E+03</pdfrwt>
<pdfrwt beam="2">  1       -1 0.44992179E-01 0.54211377E+03</pdfrwt>
<totfact> 0.53041440E+01</totfact>
</mgrwt>
</event>
<event>
12    1  0.3166324E-008  0.8255214E+03  0.7818608E-02  0.9523793E-01
         -2   -1    0    0    0  501 -0.00000000000E+00  0.00000000000E+00  0.44830749463E+03  0.44830749463E+03  0.00000000000E+00 0.  1.
          2   -1    0    0  501    0  0.00000000000E+00 -0.00000000000E+00 -0.16938240055E+04  0.16938240055E+04  0.00000000000E+00 0. -1.
         23    2    1    2    0    0 -0.63473057829E+03 -0.36616401130E+03 -0.82076286967E+03  0.11041175425E+04  0.92004723387E+02 0.  0.
    5000000    2    1    2    0    0  0.63473057829E+03  0.36616401130E+03 -0.42475364115E+03  0.10380139576E+04  0.60008193639E+03 0.  0.
         23    2    4    4    0    0  0.51864151757E+03 -0.10852952489E+02 -0.14872988148E+03  0.54758776889E+03  0.92870752505E+02 0.  0.
         23    2    4    4    0    0  0.11608906072E+03  0.37701696379E+03 -0.27602375967E+03  0.49042618874E+03  0.93328825621E+02 0.  0.
          3    1    3    3  502    0 -0.39366064227E+03 -0.24635016467E+03 -0.57957452607E+03  0.74267337112E+03  0.00000000000E+00 0. -1.
         -3    1    3    3    0  502 -0.24106993602E+03 -0.11981384663E+03 -0.24118834360E+03  0.36144417133E+03  0.00000000000E+00 0.  1.
         11    1    5    5    0    0  0.24232648673E+03  0.23370999045E+02 -0.10748570704E+03  0.26612310494E+03  0.00000000000E+00 0.  1.
        -11    1    5    5    0    0  0.27631503084E+03 -0.34223951535E+02 -0.41244174441E+02  0.28146466395E+03  0.00000000000E+00 0. -1.
          5    1    6    6  503    0  0.11468701269E+03  0.36366477611E+03 -0.28270591881E+03  0.47471033988E+03  0.47000000000E+01 0.  1.
         -5    1    6    6    0  503  0.14020480370E+01  0.13352187684E+02  0.66821591358E+01  0.15715848859E+02  0.47000000000E+01 0.  1.
<mgrwt>
<rscale>  0 0.82552135E+03</rscale>
<asrwt>0</asrwt>
<pdfrwt beam="1">  1        2 0.26058830E+00 0.82552135E+03</pdfrwt>
<pdfrwt beam="2">  1       -2 0.68970385E-01 0.82552135E+03</pdfrwt>
<totfact> 0.19324341E+01</totfact>
</mgrwt>
</event>
<event>
12    1  0.3166324E-008  0.7948327E+03  0.7818608E-02  0.9567527E-01
          1   -1    0    0  501    0  0.00000000000E+00  0.00000000000E+00  0.12560375970E+04  0.12560375970E+04  0.00000000000E+00 0.  1.
         -1   -1    0    0    0  501 -0.00000000000E+00 -0.00000000000E+00 -0.64559960044E+03  0.64559960044E+03  0.00000000000E+00 0. -1.
         23    2    1    2    0    0  0.30700324370E+03  0.62950519096E+03 -0.13080924584E+03  0.71843496360E+03  0.92249450025E+02 0.  0.
    5000000    2    1    2    0    0 -0.30700324370E+03 -0.62950519096E+03  0.74124724236E+03  0.11832022338E+04  0.59999356217E+03 0.  0.
         23    2    4    4    0    0 -0.35751115433E+03 -0.13192027450E+03  0.45117227987E+03  0.59769868287E+03  0.92033173831E+02 0.  0.
         23    2    4    4    0    0  0.50507910629E+02 -0.49758491646E+03  0.29007496250E+03  0.58550355092E+03  0.92353268209E+02 0.  0.
          3    1    3    3  502    0  0.13590060578E+03  0.18077208047E+03 -0.39326470944E+02  0.22955193540E+03  0.00000000000E+00 0. -1.
         -3    1    3    3    0  502  0.17110263792E+03  0.44873311049E+03 -0.91482774899E+02  0.48888302820E+03  0.00000000000E+00 0.  1.
         13    1    5    5    0    0 -0.19062883462E+03 -0.89654239794E+02  0.18310543415E+03  0.27911437676E+03  0.00000000000E+00 0.  1.
        -13    1    5    5    0    0 -0.16688231971E+03 -0.42266034706E+02  0.26806684572E+03  0.31858430611E+03  0.00000000000E+00 0. -1.
          5    1    6    6  503    0  0.31235401107E+02 -0.23452377228E+03  0.18953096396E+03  0.30318497051E+03  0.47000000000E+01 0.  1.
         -5    1    6    6    0  503  0.19272509522E+02 -0.26306114418E+03  0.10054399854E+03  0.28231858041E+03  0.47000000000E+01 0. -1.
<mgrwt>
<rscale>  0 0.79483273E+03</rscale>
<asrwt>0</asrwt>
<pdfrwt beam="1">  1        1 0.19323655E+00 0.79483273E+03</pdfrwt>
<pdfrwt beam="2">  1       -1 0.99323016E-01 0.79483273E+03</pdfrwt>
<totfact> 0.96901461E+00</totfact>
</mgrwt>
</event>
<event>
12    1  0.3166324E-008  0.1220007E+04  0.7818608E-02  0.9095522E-01
         -2   -1    0    0    0  501 -0.00000000000E+00  0.00000000000E+00  0.53722664233E+03  0.53722664233E+03  0.00000000000E+00 0.  1.
          2   -1    0    0  501    0  0.00000000000E+00 -0.00000000000E+00 -0.30373471051E+04  0.30373471051E+04  0.00000000000E+00 0. -1.
         23    2    1    2    0    0 -0.11765219746E+04  0.21673508567E+03 -0.13861691069E+04  0.18332867435E+04  0.91090266709E+02 0.  0.
    5000000    2    1    2    0    0  0.11765219746E+04 -0.21673508567E+03 -0.11139513558E+04  0.17412870039E+04  0.60001229385E+03 0.  0.
         23    2    4    4    0    0  0.10011506918E+04 -0.27936084315E+03 -0.63974290814E+03  0.12238642316E+04  0.90705459937E+02 0.  0.
         23    2    4    4    0    0  0.17537128282E+03  0.62625757480E+02 -0.47420844771E+03  0.51742277236E+03  0.90419030834E+02 0.  0.
          4    1    3    3  502    0 -0.82263834945E+03  0.14943266956E+03 -0.90338725069E+03  0.12309234344E+04  0.00000000000E+00 0. -1.
         -4    1    3    3    0  502 -0.35388362517E+03  0.67302416106E+02 -0.48278185621E+03  0.60236330903E+03  0.00000000000E+00 0.  1.
         11    1    5    5    0    0  0.78176769616E+03 -0.23892967186E+03 -0.46475743194E+03  0.94034439936E+03  0.00000000000E+00 0.  1.
        -11    1    5    5    0    0  0.21938299564E+03 -0.40431171293E+02 -0.17498547619E+03  0.28351983223E+03  0.00000000000E+00 0. -1.
          5    1    6    6  503    0  0.76559592555E+02 -0.14057326760E+02 -0.23250846645E+03  0.24523714363E+03  0.47000000000E+01 0. -1.
         -5    1    6    6    0  503  0.98811690268E+02  0.76683084240E+02 -0.24169998126E+03  0.27218562872E+03  0.47000000000E+01 0.  1.
<mgrwt>
<rscale>  0 0.12200074E+04</rscale>
<asrwt>0</asrwt>
<pdfrwt beam="1">  1        2 0.46728416E+00 0.12200074E+04</pdfrwt>
<pdfrwt beam="2">  1       -2 0.82650254E-01 0.12200074E+04</pdfrwt>
<totfact> 0.20995151E+00</totfact>
</mgrwt>
</event>
<event>
12    1  0.3166324E-008  0.6543863E+03  0.7818608E-02  0.9798583E-01
          2   -1    0    0  501    0  0.00000000000E+00  0.00000000000E+00  0.19077058516E+04  0.19077058516E+04  0.00000000000E+00 0. -1.
         -2   -1    0    0    0  501 -0.00000000000E+00 -0.00000000000E+00 -0.30853370623E+03  0.30853370623E+03  0.00000000000E+00 0.  1.
         23    2    1    2    0    0  0.38093339623E+03  0.46190054390E+03  0.10353076995E+04  0.11981727721E+04  0.72757091788E+02 0.  0.
    5000000    2    1    2    0    0 -0.38093339623E+03 -0.46190054390E+03  0.56386444583E+03  0.10180667857E+04  0.60004541660E+03 0.  0.
         23    2    4    4    0    0 -0.11732476592E+03  0.49384910867E+02  0.37356116240E+03  0.40528167194E+03  0.92202610801E+02 0.  0.
         23    2    4    4    0    0 -0.26360863031E+03 -0.51128545477E+03  0.19030328343E+03  0.61278511372E+03  0.91585641232E+02 0.  0.
          4    1    3    3  502    0  0.35856056395E+03  0.43224835034E+03  0.10000725228E+04  0.11469740038E+04  0.00000000000E+00 0. -1.
         -4    1    3    3    0  502  0.22372832284E+02  0.29652193567E+02  0.35235176692E+02  0.51198768386E+02  0.00000000000E+00 0.  1.
         11    1    5    5    0    0 -0.34954126327E+01 -0.58316541181E+01  0.13567770615E+03  0.13584795193E+03  0.00000000000E+00 0.  1.
        -11    1    5    5    0    0 -0.11382935328E+03  0.55216564985E+02  0.23788345625E+03  0.26943372001E+03  0.00000000000E+00 0. -1.
          5    1    6    6  503    0 -0.55807072604E+02 -0.76704644259E+02  0.40045658905E+00  0.94975166065E+02  0.47000000000E+01 0. -1.
         -5    1    6    6    0  503 -0.20780155771E+03 -0.43458081051E+03  0.18990282684E+03  0.51780994766E+03  0.47000000000E+01 0.  1.
<mgrwt>
<rscale>  0 0.65438633E+03</rscale>
<asrwt>0</asrwt>
<pdfrwt beam="1">  1        2 0.29349320E+00 0.65438633E+03</pdfrwt>
<pdfrwt beam="2">  1       -2 0.47466725E-01 0.65438633E+03</pdfrwt>
<totfact> 0.33010382E+01</totfact>
</mgrwt>
</event>
<event>
12    1  0.3166324E-008  0.1004486E+04  0.7818608E-02  0.9303638E-01
         -2   -1    0    0    0  501 -0.00000000000E+00  0.00000000000E+00  0.99268243053E+03  0.99268243053E+03  0.00000000000E+00 0.  1.
          2   -1    0    0  501    0  0.00000000000E+00 -0.00000000000E+00 -0.25976724996E+04  0.25976724996E+04  0.00000000000E+00 0. -1.
         23    2    1    2    0    0  0.30752424967E+03 -0.86266395500E+03  0.62133629047E+03  0.11093344177E+04  0.76182682124E+02 0.  0.
    5000000    2    1    2    0    0 -0.30752424967E+03  0.86266395500E+03 -0.22263263595E+04  0.24810205124E+04  0.60014453305E+03 0.  0.
         23    2    4    4    0    0  0.13664589237E+03  0.45079323743E+03 -0.10614094340E+04  0.11648817224E+04  0.92047801746E+02 0.  0.
         23    2    4    4    0    0 -0.44417014204E+03  0.41187071756E+03 -0.11649169256E+04  0.13161387901E+04  0.90913520073E+02 0.  0.
          2    1    3    3  502    0  0.68789800764E+02 -0.12628747219E+03  0.78233598829E+02  0.16371028772E+03  0.00000000000E+00 0. -1.
         -2    1    3    3    0  502  0.23873444890E+03 -0.73637648281E+03  0.54310269164E+03  0.94562412998E+03  0.00000000000E+00 0.  1.
         11    1    5    5    0    0  0.73196198317E+02  0.10300994324E+03 -0.27102523821E+03  0.29903747525E+03  0.00000000000E+00 0. -1.
        -11    1    5    5    0    0  0.63449694055E+02  0.34778329420E+03 -0.79038419574E+03  0.86584424713E+03  0.00000000000E+00 0.  1.
          5    1    6    6  503    0 -0.10417788282E+03  0.14658888859E+03 -0.30396392108E+03  0.35321026152E+03  0.47000000000E+01 0. -1.
         -5    1    6    6    0  503 -0.33999225922E+03  0.26528182898E+03 -0.86095300450E+03  0.96292852854E+03  0.47000000000E+01 0.  1.
<mgrwt>
<rscale>  0 0.10044864E+04</rscale>
<asrwt>0</asrwt>
<pdfrwt beam="1">  1        2 0.39964191E+00 0.10044864E+04</pdfrwt>
<pdfrwt beam="2">  1       -2 0.15272038E+00 0.10044864E+04</pdfrwt>
<totfact> 0.87800795E-01</totfact>
</mgrwt>
</event>
<event>
12    1  0.3166324E-008  0.1063108E+04  0.7818608E-02  0.9241914E-01
         -2   -1    0    0    0  501 -0.00000000000E+00  0.00000000000E+00  0.12632497475E+04  0.12632497475E+04  0.00000000000E+00 0. -1.
          2   -1    0    0  501    0  0.00000000000E+00 -0.00000000000E+00 -0.10398325498E+04  0.10398325498E+04  0.00000000000E+00 0.  1.
         23    2    1    2    0    0  0.98947873442E+03 -0.58996560021E+02  0.49760448077E+03  0.11123583261E+04  0.84747073158E+02 0.  0.
    5000000    2    1    2    0    0 -0.98947873442E+03  0.58996560021E+02 -0.27418728311E+03  0.11907239712E+04  0.60008011917E+03 0.  0.
         23    2    4    4    0    0 -0.98431586189E+03 -0.73460238713E+02 -0.27760865021E+03  0.10294772594E+04  0.92101803758E+02 0.  0.
         23    2    4    4    0    0 -0.51628725342E+01  0.13245679873E+03  0.34213671059E+01  0.16124671184E+03  0.91746049189E+02 0.  0.
          2    1    3    3  502    0  0.44589208686E+03 -0.23831201572E+02  0.27138045434E+03  0.52252754022E+03  0.00000000000E+00 0. -1.
         -2    1    3    3    0  502  0.54358664756E+03 -0.35165358449E+02  0.22622402643E+03  0.58983078589E+03  0.00000000000E+00 0.  1.
         11    1    5    5    0    0 -0.33091351375E+03 -0.19559443976E+02 -0.48734655604E+02  0.33505431215E+03  0.00000000000E+00 0.  1.
        -11    1    5    5    0    0 -0.65340234814E+03 -0.53900794737E+02 -0.22887399461E+03  0.69442294722E+03  0.00000000000E+00 0. -1.
          5    1    6    6  503    0  0.24166617358E+02  0.10343310493E+03 -0.27083244343E+02  0.10971793251E+03  0.47000000000E+01 0. -1.
         -5    1    6    6    0  503 -0.29329489892E+02  0.29023693803E+02  0.30504611448E+02  0.51528779327E+02  0.47000000000E+01 0.  1.
<mgrwt>
<rscale>  0 0.10631081E+04</rscale>
<asrwt>0</asrwt>
<pdfrwt beam="1">  1        2 0.15997424E+00 0.10631081E+04</pdfrwt>
<pdfrwt beam="2">  1       -2 0.19434611E+00 0.10631081E+04</pdfrwt>
<totfact> 0.33929043E+00</totfact>
</mgrwt>
</event>
<event>
12    1  0.3166324E-008  0.1139416E+04  0.7818608E-02  0.9167604E-01
         -2   -1    0    0    0  501 -0.00000000000E+00  0.00000000000E+00  0.26263396797E+04  0.26263396797E+04  0.00000000000E+00 0.  1.
          2   -1    0    0  501    0  0.00000000000E+00 -0.00000000000E+00 -0.94564041917E+03  0.94564041917E+03  0.00000000000E+00 0. -1.
         23    2    1    2    0    0  0.10108307221E+04 -0.32464051419E+03 -0.41780762307E+03  0.11445492279E+04  0.90881862522E+02 0.  0.
    5000000    2    1    2    0    0 -0.10108307221E+04  0.32464051419E+03  0.20985068836E+04  0.24274308710E+04  0.60126473446E+03 0.  0.
         23    2    4    4    0    0 -0.63709869387E+03  0.48023374627E+03  0.14695373417E+04  0.16740318835E+04  0.79520762219E+02 0.  0.
         23    2    4    4    0    0 -0.37373202821E+03 -0.15559323208E+03  0.62896954192E+03  0.75339898751E+03  0.90124729918E+02 0.  0.
          4    1    3    3  502    0  0.46912437305E+03 -0.10335295734E+03 -0.19260782476E+03  0.51754930716E+03  0.00000000000E+00 0. -1.
         -4    1    3    3    0  502  0.54170634904E+03 -0.22128755685E+03 -0.22519979831E+03  0.62699992070E+03  0.00000000000E+00 0.  1.
         11    1    5    5    0    0 -0.30649121732E+03  0.18334054035E+03  0.67696295868E+03  0.76539497480E+03  0.00000000000E+00 0.  1.
        -11    1    5    5    0    0 -0.33060747655E+03  0.29689320592E+03  0.79257438299E+03  0.90863690869E+03  0.00000000000E+00 0. -1.
          5    1    6    6  503    0 -0.27388162051E+01 -0.13407761309E+02  0.90267348494E+01  0.17054064606E+02  0.47000000000E+01 0. -1.
         -5    1    6    6    0  503 -0.37099321201E+03 -0.14218547077E+03  0.61994280707E+03  0.73634492291E+03  0.47000000000E+01 0.  1.
<mgrwt>
<rscale>  0 0.11394159E+04</rscale>
<asrwt>0</asrwt>
<pdfrwt beam="1">  1        2 0.14548314E+00 0.11394159E+04</pdfrwt>
<pdfrwt beam="2">  1       -2 0.40405226E+00 0.11394159E+04</pdfrwt>
<totfact> 0.18992426E-01</totfact>
</mgrwt>
</event>
<event>
12    1  0.3166324E-008  0.1183703E+04  0.7818608E-02  0.9127242E-01
          1   -1    0    0  501    0  0.00000000000E+00  0.00000000000E+00  0.23675118107E+04  0.23675118107E+04  0.00000000000E+00 0. -1.
         -1   -1    0    0    0  501 -0.00000000000E+00 -0.00000000000E+00 -0.71809027557E+03  0.71809027557E+03  0.00000000000E+00 0.  1.
         23    2    1    2    0    0 -0.82027240838E+03 -0.76976560658E+03  0.18420380974E+03  0.11433843318E+04  0.89502925130E+02 0.  0.
    5000000    2    1    2    0    0  0.82027240838E+03  0.76976560658E+03  0.14652177254E+04  0.19422177545E+04  0.59996742416E+03 0.  0.
         23    2    4    4    0    0  0.40233003270E+03  0.70495805322E+03  0.76599996867E+03  0.11197747628E+04  0.91127687069E+02 0.  0.
         23    2    4    4    0    0  0.41794237568E+03  0.64807553353E+02  0.69921775671E+03  0.82244299170E+03  0.92904009269E+02 0.  0.
          2    1    3    3  502    0 -0.54822811093E+03 -0.56773029681E+03  0.11549521124E+03  0.79762829397E+03  0.00000000000E+00 0.  1.
         -2    1    3    3    0  502 -0.27204429745E+03 -0.20203530977E+03  0.68708598493E+02  0.34575603780E+03  0.00000000000E+00 0. -1.
         13    1    5    5    0    0  0.11328383514E+02  0.12055802105E+02  0.37645390935E+02  0.41119947666E+02  0.00000000000E+00 0. -1.
        -13    1    5    5    0    0  0.39100164918E+03  0.69290225112E+03  0.72835457774E+03  0.10786548151E+04  0.00000000000E+00 0.  1.
          5    1    6    6  503    0  0.10205756103E+03  0.41886892026E+02  0.12603864971E+03  0.16756517749E+03  0.47000000000E+01 0. -1.
         -5    1    6    6    0  503  0.31588481465E+03  0.22920661327E+02  0.57317910700E+03  0.65487781421E+03  0.47000000000E+01 0.  1.
<mgrwt>
<rscale>  0 0.11837026E+04</rscale>
<asrwt>0</asrwt>
<pdfrwt beam="1">  1        1 0.36423258E+00 0.11837026E+04</pdfrwt>
<pdfrwt beam="2">  1       -1 0.11047543E+00 0.11837026E+04</pdfrwt>
<totfact> 0.12512078E+00</totfact>
</mgrwt>
</event>
<event>
12    1  0.3166324E-008  0.6365170E+03  0.7818608E-02  0.9832413E-01
          2   -1    0    0  501    0  0.00000000000E+00  0.00000000000E+00  0.84483320719E+03  0.84483320719E+03  0.00000000000E+00 0.  1.
         -2   -1    0    0    0  501 -0.00000000000E+00 -0.00000000000E+00 -0.73243621162E+03  0.73243621162E+03  0.00000000000E+00 0. -1.
         23    2    1    2    0    0 -0.10947820692E+02 -0.56159868414E+03  0.41152315982E+03  0.70264752369E+03  0.94070689825E+02 0.  0.
    5000000    2    1    2    0    0  0.10947820692E+02  0.56159868414E+03 -0.29912616425E+03  0.87462189511E+03  0.59997838333E+03 0.  0.
         23    2    4    4    0    0 -0.13345551915E+03  0.29545509453E+02  0.95003417815E+02  0.19060998324E+03  0.92861206071E+02 0.  0.
         23    2    4    4    0    0  0.14440333984E+03  0.53205317468E+03 -0.39412958207E+03  0.68401191188E+03  0.92742993708E+02 0.  0.
          4    1    3    3  502    0 -0.27172405452E+02 -0.44777271762E+03  0.28396427500E+03  0.53091850198E+03  0.00000000000E+00 0. -1.
         -4    1    3    3    0  502  0.16224584759E+02 -0.11382596651E+03  0.12755888482E+03  0.17172902172E+03  0.00000000000E+00 0.  1.
         13    1    5    5    0    0 -0.47823222342E+02  0.50230379359E+02  0.71110942770E+02  0.99332360223E+02  0.00000000000E+00 0.  1.
        -13    1    5    5    0    0 -0.85632296806E+02 -0.20684869906E+02  0.23892475045E+02  0.91277623014E+02  0.00000000000E+00 0. -1.
          5    1    6    6  503    0  0.30583586564E+01  0.17498957006E+02 -0.38707768986E+02  0.42847968842E+02  0.47000000000E+01 0. -1.
         -5    1    6    6    0  503  0.14134498118E+03  0.51455421768E+03 -0.35542181308E+03  0.64116394304E+03  0.47000000000E+01 0.  1.
<mgrwt>
<rscale>  0 0.63651697E+03</rscale>
<asrwt>0</asrwt>
<pdfrwt beam="1">  1        2 0.12997434E+00 0.63651697E+03</pdfrwt>
<pdfrwt beam="2">  1       -2 0.11268249E+00 0.63651697E+03</pdfrwt>
<totfact> 0.20375243E+01</totfact>
</mgrwt>
</event>
<event>
12    1  0.3166324E-008  0.1139046E+04  0.7818608E-02  0.9167949E-01
          2   -1    0    0  501    0  0.00000000000E+00  0.00000000000E+00  0.35529572775E+04  0.35529572775E+04  0.00000000000E+00 0. -1.
         -2   -1    0    0    0  501 -0.00000000000E+00 -0.00000000000E+00 -0.52589451375E+03  0.52589451375E+03  0.00000000000E+00 0.  1.
         23    2    1    2    0    0 -0.21552352122E+03 -0.10474220790E+04  0.25434358097E+04  0.27607449451E+04  0.95412444612E+02 0.  0.
    5000000    2    1    2    0    0  0.21552352122E+03  0.10474220790E+04  0.48362695408E+03  0.13181068461E+04  0.59997268880E+03 0.  0.
         23    2    4    4    0    0 -0.13117415775E+03  0.68895764439E+03  0.18934058633E+03  0.73186462945E+03  0.88919529784E+02 0.  0.
         23    2    4    4    0    0  0.34669767898E+03  0.35846443457E+03  0.29428636775E+03  0.58624221665E+03  0.91539275052E+02 0.  0.
          2    1    3    3  502    0 -0.15172841091E+03 -0.63042776312E+03  0.16456004749E+04  0.17687457698E+04  0.00000000000E+00 0.  1.
         -2    1    3    3    0  502 -0.63795110311E+02 -0.41699431585E+03  0.89783533477E+03  0.99199917536E+03  0.00000000000E+00 0. -1.
         11    1    5    5    0    0 -0.13868003509E+03  0.56886656907E+03  0.14153067132E+03  0.60238879178E+03  0.00000000000E+00 0.  1.
        -11    1    5    5    0    0  0.75058773379E+01  0.12009107532E+03  0.47809915008E+02  0.12947583767E+03  0.00000000000E+00 0. -1.
          5    1    6    6  503    0  0.13101182879E+03  0.17570017929E+03  0.16988060115E+03  0.27733762985E+03  0.47000000000E+01 0. -1.
         -5    1    6    6    0  503  0.21568585019E+03  0.18276425528E+03  0.12440576660E+03  0.30890458680E+03  0.47000000000E+01 0.  1.
<mgrwt>
<rscale>  0 0.11390459E+04</rscale>
<asrwt>0</asrwt>
<pdfrwt beam="1">  1        2 0.54660880E+00 0.11390459E+04</pdfrwt>
<pdfrwt beam="2">  1       -2 0.80906851E-01 0.11390459E+04</pdfrwt>
<totfact> 0.10190253E+00</totfact>
</mgrwt>
</event>
<event>
12    1  0.3166324E-008  0.8741999E+03  0.7818608E-02  0.9458420E-01
          3   -1    0    0  501    0  0.00000000000E+00  0.00000000000E+00  0.10150318999E+04  0.10150318999E+04  0.00000000000E+00 0.  1.
         -3   -1    0    0    0  501 -0.00000000000E+00 -0.00000000000E+00 -0.99188314477E+03  0.99188314477E+03  0.00000000000E+00 0. -1.
         23    2    1    2    0    0  0.73371626302E+03  0.28899581042E+03  0.46693433840E+03  0.92117274292E+03  0.93131159509E+02 0.  0.
    5000000    2    1    2    0    0 -0.73371626302E+03 -0.28899581042E+03 -0.44378558325E+03  0.10857423018E+04  0.60002714012E+03 0.  0.
         23    2    4    4    0    0 -0.38486449354E+02 -0.24741642366E+03 -0.23056026201E+03  0.35198227697E+03  0.89651522041E+02 0.  0.
         23    2    4    4    0    0 -0.69522981367E+03 -0.41579386760E+02 -0.21322532124E+03  0.73376002479E+03  0.88687074337E+02 0.  0.
          1    1    3    3  502    0  0.87958565402E+02  0.31593101734E+02  0.22672473063E+02  0.96171068100E+02  0.00000000000E+00 0. -1.
         -1    1    3    3    0  502  0.64575769762E+03  0.25740270868E+03  0.44426186533E+03  0.82500167482E+03  0.00000000000E+00 0.  1.
         13    1    5    5    0    0  0.84536067151E+00 -0.19270941173E+03 -0.13598056027E+03  0.23585661910E+03  0.00000000000E+00 0. -1.
        -13    1    5    5    0    0 -0.39331810025E+02 -0.54707011931E+02 -0.94579701743E+02  0.11612565787E+03  0.00000000000E+00 0.  1.
          5    1    6    6  503    0 -0.30614566213E+03  0.14624221781E+02 -0.63336201198E+02  0.31300574865E+03  0.47000000000E+01 0. -1.
         -5    1    6    6    0  503 -0.38908415154E+03 -0.56203608540E+02 -0.14988912004E+03  0.42075427615E+03  0.47000000000E+01 0.  1.
<mgrwt>
<rscale>  0 0.87419992E+03</rscale>
<asrwt>0</asrwt>
<pdfrwt beam="1">  1        3 0.15615875E+00 0.87419992E+03</pdfrwt>
<pdfrwt beam="2">  1       -3 0.15259741E+00 0.87419992E+03</pdfrwt>
<totfact> 0.23014612E-01</totfact>
</mgrwt>
</event>
<event>
12    1  0.3166324E-008  0.2398435E+04  0.7818608E-02  0.8440090E-01
          1   -1    0    0  501    0  0.00000000000E+00  0.00000000000E+00  0.25158930584E+04  0.25158930584E+04  0.00000000000E+00 0. -1.
         -1   -1    0    0    0  501 -0.00000000000E+00 -0.00000000000E+00 -0.23564368329E+04  0.23564368329E+04  0.00000000000E+00 0.  1.
         23    2    1    2    0    0  0.46336971463E+03 -0.23206962954E+04  0.45996816536E+03  0.24125150612E+04  0.91188921249E+02 0.  0.
    5000000    2    1    2    0    0 -0.46336971463E+03  0.23206962954E+04 -0.30051193986E+03  0.24598148302E+04  0.60003231969E+03 0.  0.
         23    2    4    4    0    0 -0.19204403900E+03  0.17184615344E+03 -0.38984909846E+02  0.27624778358E+03  0.91547809183E+02 0.  0.
         23    2    4    4    0    0 -0.27132567563E+03  0.21488501420E+04 -0.26152703002E+03  0.21835670466E+04  0.91619346034E+02 0.  0.
          4    1    3    3  502    0  0.31632094909E+03 -0.17682163346E+04  0.36415516134E+03  0.18328275779E+04  0.00000000000E+00 0. -1.
         -4    1    3    3    0  502  0.14704876555E+03 -0.55247996082E+03  0.95813004015E+02  0.57968748330E+03  0.00000000000E+00 0.  1.
         13    1    5    5    0    0 -0.10998045443E+03  0.12534998551E+03 -0.64079375446E+02  0.17864625823E+03  0.00000000000E+00 0.  1.
        -13    1    5    5    0    0 -0.82063584572E+02  0.46496167934E+02  0.25094465600E+02  0.97601525343E+02  0.00000000000E+00 0. -1.
          5    1    6    6  503    0 -0.56241150092E+02  0.79007152104E+03 -0.10336366845E+03  0.79880048403E+03  0.47000000000E+01 0. -1.
         -5    1    6    6    0  503 -0.21508452554E+03  0.13587786209E+04 -0.15816336157E+03  0.13847665626E+04  0.47000000000E+01 0.  1.
<mgrwt>
<rscale>  0 0.23984348E+04</rscale>
<asrwt>0</asrwt>
<pdfrwt beam="1">  1        1 0.38706047E+00 0.23984348E+04</pdfrwt>
<pdfrwt beam="2">  1       -1 0.36252874E+00 0.23984348E+04</pdfrwt>
<totfact> 0.14388213E-02</totfact>
</mgrwt>
</event>
<event>
12    1  0.3166324E-008  0.9951642E+03  0.7818608E-02  0.9313865E-01
         -2   -1    0    0    0  501 -0.00000000000E+00  0.00000000000E+00  0.22066303265E+04  0.22066303265E+04  0.00000000000E+00 0. -1.
          2   -1    0    0  501    0  0.00000000000E+00 -0.00000000000E+00 -0.51200567131E+03  0.51200567131E+03  0.00000000000E+00 0.  1.
         23    2    1    2    0    0 -0.92427622513E+03 -0.28543577710E+03  0.94660791498E+03  0.13566254756E+04  0.92768599466E+02 0.  0.
    5000000    2    1    2    0    0  0.92427622513E+03  0.28543577710E+03  0.74801674019E+03  0.13620105222E+04  0.59981955277E+03 0.  0.
         23    2    4    4    0    0  0.81077926137E+03  0.31496370428E+03  0.35775516069E+03  0.94434420153E+03  0.85041579758E+02 0.  0.
         23    2    4    4    0    0  0.11349696376E+03 -0.29527927178E+02  0.39026157950E+03  0.41766632071E+03  0.91583818159E+02 0.  0.
          3    1    3    3  502    0 -0.57869435841E+03 -0.22287606606E+03  0.58424607763E+03  0.85200022330E+03  0.00000000000E+00 0.  1.
         -3    1    3    3    0  502 -0.34558186672E+03 -0.62559711044E+02  0.36236183735E+03  0.50462525226E+03  0.00000000000E+00 0. -1.
         13    1    5    5    0    0  0.60200225536E+03  0.25599361575E+03  0.30100153731E+03  0.72009816847E+03  0.00000000000E+00 0. -1.
        -13    1    5    5    0    0  0.20877700601E+03  0.58970088525E+02  0.56753623375E+02  0.22424603306E+03  0.00000000000E+00 0.  1.
          5    1    6    6  503    0  0.76243537702E+02  0.26139016342E+02  0.23586979255E+03  0.24930498241E+03  0.47000000000E+01 0. -1.
         -5    1    6    6    0  503  0.37253426061E+02 -0.55666943520E+02  0.15439178695E+03  0.16836133829E+03  0.47000000000E+01 0.  1.
<mgrwt>
<rscale>  0 0.99516418E+03</rscale>
<asrwt>0</asrwt>
<pdfrwt beam="1">  1        2 0.78770105E-01 0.99516418E+03</pdfrwt>
<pdfrwt beam="2">  1       -2 0.33948158E+00 0.99516418E+03</pdfrwt>
<totfact> 0.10998755E+00</totfact>
</mgrwt>
</event>
<event>
12    1  0.3166324E-008  0.7377679E+03  0.7818608E-02  0.9654738E-01
         -1   -1    0    0    0  501 -0.00000000000E+00  0.00000000000E+00  0.70930750899E+03  0.70930750899E+03  0.00000000000E+00 0.  1.
          1   -1    0    0  501    0  0.00000000000E+00 -0.00000000000E+00 -0.12281029104E+04  0.12281029104E+04  0.00000000000E+00 0. -1.
         23    2    1    2    0    0 -0.27419944446E+03 -0.57468080111E+03  0.32664090877E+03  0.72079230128E+03  0.86045916756E+02 0.  0.
    5000000    2    1    2    0    0  0.27419944446E+03  0.57468080111E+03 -0.84543631017E+03  0.12166181181E+04  0.59996144230E+03 0.  0.
         23    2    4    4    0    0 -0.15997866560E+03  0.13079215211E+03 -0.11510817250E+03  0.25383566809E+03  0.92102630353E+02 0.  0.
         23    2    4    4    0    0  0.43417811006E+03  0.44388864900E+03 -0.73032813767E+03  0.96278245002E+03  0.89571722197E+02 0.  0.
          3    1    3    3  502    0 -0.88383932537E+02 -0.27442152271E+03  0.16807323850E+03  0.33371770280E+03  0.00000000000E+00 0. -1.
         -3    1    3    3    0  502 -0.18581551192E+03 -0.30025927839E+03  0.15856767027E+03  0.38707459848E+03  0.00000000000E+00 0.  1.
         13    1    5    5    0    0 -0.49551753013E+02  0.57370379473E+02 -0.92034327805E+02  0.11923528908E+03  0.00000000000E+00 0.  1.
        -13    1    5    5    0    0 -0.11042691259E+03  0.73421772633E+02 -0.23073844696E+02  0.13460037901E+03  0.00000000000E+00 0. -1.
          5    1    6    6  503    0  0.25701283295E+03  0.31499408109E+03 -0.50717171465E+03  0.65001700406E+03  0.47000000000E+01 0. -1.
         -5    1    6    6    0  503  0.17716527711E+03  0.12889456791E+03 -0.22315642302E+03  0.31276544596E+03  0.47000000000E+01 0.  1.
<mgrwt>
<rscale>  0 0.73776786E+03</rscale>
<asrwt>0</asrwt>
<pdfrwt beam="1">  1        1 0.18893891E+00 0.73776786E+03</pdfrwt>
<pdfrwt beam="2">  1       -1 0.10912423E+00 0.73776786E+03</pdfrwt>
<totfact> 0.82274073E+00</totfact>
</mgrwt>
</event>
<event>
12    1  0.3166324E-008  0.4495693E+03  0.7818608E-02  0.1027851E+00
         -2   -1    0    0    0  501 -0.00000000000E+00  0.00000000000E+00  0.19219641833E+03  0.19219641833E+03  0.00000000000E+00 0.  1.
          2   -1    0    0  501    0  0.00000000000E+00 -0.00000000000E+00 -0.12727548993E+04  0.12727548993E+04  0.00000000000E+00 0. -1.
         23    2    1    2    0    0 -0.16187089570E+03  0.23598897253E+03 -0.46071860309E+03  0.55527591972E+03  0.11906608988E+03 0.  0.
    5000000    2    1    2    0    0  0.16187089570E+03 -0.23598897253E+03 -0.61983987788E+03  0.90967539790E+03  0.60117790487E+03 0.  0.
         23    2    4    4    0    0 -0.91084962519E+02  0.11419604437E+03 -0.33668004804E+02  0.17595128985E+03  0.92130966062E+02 0.  0.
         23    2    4    4    0    0  0.25295585822E+03 -0.35018501690E+03 -0.58617187307E+03  0.73372410804E+03  0.90207481259E+02 0.  0.
          2    1    3    3  502    0 -0.87771611885E+02  0.49172846892E+02 -0.97150801730E+02  0.13985743813E+03  0.00000000000E+00 0.  1.
         -2    1    3    3    0  502 -0.74099283817E+02  0.18681612564E+03 -0.36356780136E+03  0.41541848159E+03  0.00000000000E+00 0. -1.
         11    1    5    5    0    0 -0.58522319888E+01  0.48103867024E+02  0.23528320508E+02  0.53868474156E+02  0.00000000000E+00 0.  1.
        -11    1    5    5    0    0 -0.85232730530E+02  0.66092177343E+02 -0.57196325312E+02  0.12208281570E+03  0.00000000000E+00 0. -1.
          5    1    6    6  503    0  0.64782790511E+02 -0.16440309384E+03 -0.24109820787E+03  0.29895756062E+03  0.47000000000E+01 0. -1.
         -5    1    6    6    0  503  0.18817306771E+03 -0.18578192305E+03 -0.34507366520E+03  0.43476654742E+03  0.47000000000E+01 0.  1.
<mgrwt>
<rscale>  0 0.44956929E+03</rscale>
<asrwt>0</asrwt>
<pdfrwt beam="1">  1        2 0.19580845E+00 0.44956929E+03</pdfrwt>
<pdfrwt beam="2">  1       -2 0.29568679E-01 0.44956929E+03</pdfrwt>
<totfact> 0.18782793E+02</totfact>
</mgrwt>
</event>
<event>
12    1  0.3166324E-008  0.6294039E+03  0.7818608E-02  0.9846213E-01
          2   -1    0    0  501    0  0.00000000000E+00  0.00000000000E+00  0.37346718349E+04  0.37346718349E+04  0.00000000000E+00 0.  1.
         -2   -1    0    0    0  501 -0.00000000000E+00 -0.00000000000E+00 -0.13157926297E+03  0.13157926297E+03  0.00000000000E+00 0. -1.
         23    2    1    2    0    0  0.53344434861E+03  0.12740315919E+03  0.18903778914E+04  0.19704201125E+04  0.90732624896E+02 0.  0.
    5000000    2    1    2    0    0 -0.53344434861E+03 -0.12740315919E+03  0.17127146805E+04  0.18958309854E+04  0.59999092519E+03 0.  0.
         23    2    4    4    0    0 -0.58547895093E+03 -0.11794244242E+03  0.95737142032E+03  0.11320449727E+04  0.90938231655E+02 0.  0.
         23    2    4    4    0    0  0.52034602322E+02 -0.94607167697E+01  0.75534326018E+03  0.76378601272E+03  0.10014253606E+03 0.  0.
          1    1    3    3  502    0  0.47179743874E+03  0.11035566644E+03  0.17555832751E+04  0.18212204238E+04  0.00000000000E+00 0. -1.
         -1    1    3    3    0  502  0.61646909868E+02  0.17047492748E+02  0.13479461633E+03  0.14919968866E+03  0.00000000000E+00 0.  1.
         13    1    5    5    0    0 -0.51669877871E+03 -0.85603705759E+02  0.78521695706E+03  0.94385978409E+03  0.00000000000E+00 0.  1.
        -13    1    5    5    0    0 -0.68780172227E+02 -0.32338736661E+02  0.17215446326E+03  0.18818518858E+03  0.00000000000E+00 0. -1.
          5    1    6    6  503    0 -0.28805871009E+02 -0.26818782355E+01  0.13513424582E+03  0.13827626357E+03  0.47000000000E+01 0. -1.
         -5    1    6    6    0  503  0.80840473331E+02 -0.67788385342E+01  0.62020901437E+03  0.62550974915E+03  0.47000000000E+01 0.  1.
<mgrwt>
<rscale>  0 0.62940389E+03</rscale>
<asrwt>0</asrwt>
<pdfrwt beam="1">  1        2 0.57456482E+00 0.62940389E+03</pdfrwt>
<pdfrwt beam="2">  1       -2 0.20242966E-01 0.62940389E+03</pdfrwt>
<totfact> 0.12828647E+01</totfact>
</mgrwt>
</event>
<event>
12    1  0.3166324E-008  0.4817116E+03  0.7818608E-02  0.1018666E+00
          2   -1    0    0  501    0  0.00000000000E+00  0.00000000000E+00  0.11314580749E+04  0.11314580749E+04  0.00000000000E+00 0.  1.
         -2   -1    0    0    0  501 -0.00000000000E+00 -0.00000000000E+00 -0.23643896499E+03  0.23643896499E+03  0.00000000000E+00 0. -1.
         23    2    1    2    0    0  0.14599080910E+03  0.26812805520E+03  0.10341726352E+03  0.32883464320E+03  0.65047074114E+02 0.  0.
    5000000    2    1    2    0    0 -0.14599080910E+03 -0.26812805520E+03  0.79160184643E+03  0.10390623967E+04  0.59984265494E+03 0.  0.
         23    2    4    4    0    0 -0.19223768985E+03 -0.42617480799E+03  0.49096135897E+03  0.68382649818E+03  0.89416593794E+02 0.  0.
         23    2    4    4    0    0  0.46246880748E+02  0.15804675279E+03  0.30064048746E+03  0.35523589855E+03  0.93221729597E+02 0.  0.
          3    1    3    3  502    0  0.98524579426E+02  0.11814479042E+03  0.64275947881E+02  0.16672336888E+03  0.00000000000E+00 0.  1.
         -3    1    3    3    0  502  0.47466229679E+02  0.14998326478E+03  0.39141315635E+02  0.16211127433E+03  0.00000000000E+00 0. -1.
         11    1    5    5    0    0 -0.12357375375E+03 -0.33816214073E+03  0.33313554608E+03  0.49051340257E+03  0.00000000000E+00 0.  1.
        -11    1    5    5    0    0 -0.68663936105E+02 -0.88012667256E+02  0.15782581289E+03  0.19331309561E+03  0.00000000000E+00 0. -1.
          5    1    6    6  503    0  0.37211071792E+02  0.16438826823E+03  0.23932196411E+03  0.29275460560E+03  0.47000000000E+01 0. -1.
         -5    1    6    6    0  503  0.90358089561E+01 -0.63415154460E+01  0.61318523355E+02  0.62481292945E+02  0.47000000000E+01 0.  1.
<mgrwt>
<rscale>  0 0.48171158E+03</rscale>
<asrwt>0</asrwt>
<pdfrwt beam="1">  1        2 0.17407047E+00 0.48171158E+03</pdfrwt>
<pdfrwt beam="2">  1       -2 0.36375226E-01 0.48171158E+03</pdfrwt>
<totfact> 0.15356226E+02</totfact>
</mgrwt>
</event>
<event>
12    1  0.3166324E-008  0.1048837E+04  0.7818608E-02  0.9256546E-01
         -2   -1    0    0    0  501 -0.00000000000E+00  0.00000000000E+00  0.62304477418E+03  0.62304477418E+03  0.00000000000E+00 0.  1.
          2   -1    0    0  501    0  0.00000000000E+00 -0.00000000000E+00 -0.18000525136E+04  0.18000525136E+04  0.00000000000E+00 0. -1.
         23    2    1    2    0    0 -0.82489046015E+03  0.50745859409E+03 -0.63534500094E+03  0.11616514995E+04  0.88388009043E+02 0.  0.
    5000000    2    1    2    0    0  0.82489046015E+03 -0.50745859409E+03 -0.54166273851E+03  0.12614457883E+04  0.59990704161E+03 0.  0.
         23    2    4    4    0    0  0.49632212383E+03  0.26829086159E+02 -0.22135328235E+03  0.55152910556E+03  0.90175541043E+02 0.  0.
         23    2    4    4    0    0  0.32856833632E+03 -0.53428768025E+03 -0.32030945616E+03  0.70991668274E+03  0.89236045590E+02 0.  0.
          3    1    3    3  502    0 -0.58883582148E+03  0.35148393529E+03 -0.40195976186E+03  0.79488378495E+03  0.00000000000E+00 0. -1.
         -3    1    3    3    0  502 -0.23605463867E+03  0.15597465881E+03 -0.23338523908E+03  0.36676771457E+03  0.00000000000E+00 0.  1.
         13    1    5    5    0    0  0.31213299203E+03  0.47585278618E+02 -0.17274803311E+03  0.35990727472E+03  0.00000000000E+00 0.  1.
        -13    1    5    5    0    0  0.18418913180E+03 -0.20756192460E+02 -0.48605249239E+02  0.19162183084E+03  0.00000000000E+00 0. -1.
          5    1    6    6  503    0  0.20503487812E+03 -0.35777523709E+03 -0.25448657849E+03  0.48459047675E+03  0.47000000000E+01 0.  1.
         -5    1    6    6    0  503  0.12353345820E+03 -0.17651244316E+03 -0.65822877674E+02  0.22532620600E+03  0.47000000000E+01 0. -1.
<mgrwt>
<rscale>  0 0.10488365E+04</rscale>
<asrwt>0</asrwt>
<pdfrwt beam="1">  1        2 0.27693115E+00 0.10488365E+04</pdfrwt>
<pdfrwt beam="2">  1       -2 0.95853044E-01 0.10488365E+04</pdfrwt>
<totfact> 0.78210538E+00</totfact>
</mgrwt>
</event>
<event>
12    1  0.3166324E-008  0.1838095E+04  0.7818608E-02  0.8686299E-01
         -1   -1    0    0    0  501 -0.00000000000E+00  0.00000000000E+00  0.30965091217E+04  0.30965091217E+04  0.00000000000E+00 0.  1.
          1   -1    0    0  501    0  0.00000000000E+00 -0.00000000000E+00 -0.11372490977E+04  0.11372490977E+04  0.00000000000E+00 0. -1.
         23    2    1    2    0    0  0.14690480792E+04 -0.10372496001E+04  0.58982191206E+03  0.18950646666E+04  0.96908259846E+02 0.  0.
    5000000    2    1    2    0    0 -0.14690480792E+04  0.10372496001E+04  0.13694381119E+04  0.23386935528E+04  0.60011482220E+03 0.  0.
         23    2    4    4    0    0 -0.12706714849E+04  0.10634499676E+04  0.10969591999E+04  0.19892412029E+04  0.90715052887E+02 0.  0.
         23    2    4    4    0    0 -0.19837659425E+03 -0.26200367469E+02  0.27247891202E+03  0.34945234995E+03  0.88501158143E+02 0.  0.
          1    1    3    3  502    0  0.54536611646E+03 -0.44237585397E+03  0.22317702699E+03  0.73683687647E+03  0.00000000000E+00 0. -1.
         -1    1    3    3    0  502  0.92368196270E+03 -0.59487374616E+03  0.36664488506E+03  0.11582277901E+04  0.00000000000E+00 0.  1.
         11    1    5    5    0    0 -0.42487241553E+03  0.37645601954E+03  0.32826180672E+03  0.65573738484E+03  0.00000000000E+00 0. -1.
        -11    1    5    5    0    0 -0.84579906938E+03  0.68699394806E+03  0.76869739314E+03  0.13335038180E+04  0.00000000000E+00 0.  1.
          5    1    6    6  503    0 -0.15169296260E+03  0.18868322378E+02  0.20446332899E+03  0.25533137566E+03  0.47000000000E+01 0. -1.
         -5    1    6    6    0  503 -0.46683631644E+02 -0.45068689847E+02  0.68015583025E+02  0.94120974295E+02  0.47000000000E+01 0.  1.
<mgrwt>
<rscale>  0 0.18380953E+04</rscale>
<asrwt>0</asrwt>
<pdfrwt beam="1">  1        1 0.17496140E+00 0.18380953E+04</pdfrwt>
<pdfrwt beam="2">  1       -1 0.47638601E+00 0.18380953E+04</pdfrwt>
<totfact> 0.23113395E-02</totfact>
</mgrwt>
</event>
<event>
12    1  0.3199235E-008  0.9643884E+03  0.7818608E-02  0.9348489E-01
         -2   -1    0    0    0  501 -0.00000000000E+00  0.00000000000E+00  0.88884379181E+03  0.88884379181E+03  0.00000000000E+00 0. -1.
          2   -1    0    0  501    0  0.00000000000E+00 -0.00000000000E+00 -0.12820567513E+04  0.12820567513E+04  0.00000000000E+00 0.  1.
         23    2    1    2    0    0  0.26318122661E+03  0.87650005716E+03  0.17701422667E+03  0.93676659159E+03  0.93171360622E+02 0.  0.
    5000000    2    1    2    0    0 -0.26318122661E+03 -0.87650005716E+03 -0.57022718619E+03  0.12341339515E+04  0.60034228426E+03 0.  0.
         23    2    4    4    0    0 -0.12363437002E+03 -0.90832093850E+01  0.38554652301E+02  0.16140633994E+03  0.95904031269E+02 0.  0.
         23    2    4    4    0    0 -0.13954685659E+03 -0.86741684777E+03 -0.60878183849E+03  0.10727276116E+04  0.90795863715E+02 0.  0.
          3    1    3    3  502    0  0.13219523080E+03  0.28670082980E+03  0.62882990350E+02  0.32191181297E+03  0.00000000000E+00 0. -1.
         -3    1    3    3    0  502  0.13098599581E+03  0.58979922736E+03  0.11413123632E+03  0.61485477862E+03  0.00000000000E+00 0.  1.
         13    1    5    5    0    0 -0.12357701423E+03 -0.68887331243E+01  0.98518298081E+00  0.12377279053E+03  0.00000000000E+00 0. -1.
        -13    1    5    5    0    0 -0.57355791121E-01 -0.21944762607E+01  0.37569469320E+02  0.37633549404E+02  0.00000000000E+00 0.  1.
          5    1    6    6  503    0 -0.98243748639E+02 -0.34165711831E+03 -0.23111047685E+03  0.42404665209E+03  0.47000000000E+01 0. -1.
         -5    1    6    6    0  503 -0.41303107948E+02 -0.52575972946E+03 -0.37767136164E+03  0.64868095952E+03  0.47000000000E+01 0.  1.
<mgrwt>
<rscale>  0 0.96438840E+03</rscale>
<asrwt>0</asrwt>
<pdfrwt beam="1">  1        2 0.19723950E+00 0.96438840E+03</pdfrwt>
<pdfrwt beam="2">  1       -2 0.13674520E+00 0.96438840E+03</pdfrwt>
<totfact> 0.64374556E+00</totfact>
</mgrwt>
</event>
<event>
12    1  0.3166324E-008  0.4751103E+03  0.7818608E-02  0.1020488E+00
          2   -1    0    0  501    0  0.00000000000E+00  0.00000000000E+00  0.90685965668E+03  0.90685965668E+03  0.00000000000E+00 0. -1.
         -2   -1    0    0    0  501 -0.00000000000E+00 -0.00000000000E+00 -0.37587520328E+03  0.37587520328E+03  0.00000000000E+00 0.  1.
         23    2    1    2    0    0 -0.17980555917E+03 -0.25894675276E+03  0.50735791475E+03  0.60458262360E+03  0.93405755813E+02 0.  0.
    5000000    2    1    2    0    0  0.17980555917E+03  0.25894675276E+03  0.23626538646E+02  0.67815223636E+03  0.59995731722E+03 0.  0.
         23    2    4    4    0    0 -0.15884155960E+03  0.23387011982E+03 -0.87622562085E+02  0.30949391515E+03  0.90459361758E+02 0.  0.
         23    2    4    4    0    0  0.33864711878E+03  0.25076632937E+02  0.11124910073E+03  0.36865832121E+03  0.90674620538E+02 0.  0.
          2    1    3    3  502    0 -0.61644301686E+02 -0.15426025764E+03  0.20844483283E+03  0.26654360872E+03  0.00000000000E+00 0. -1.
         -2    1    3    3    0  502 -0.11816125749E+03 -0.10468649511E+03  0.29891308193E+03  0.33803901488E+03  0.00000000000E+00 0.  1.
         11    1    5    5    0    0 -0.12905881904E+03  0.15210369255E+03 -0.22377990628E+02  0.20072988448E+03  0.00000000000E+00 0.  1.
        -11    1    5    5    0    0 -0.29782740565E+02  0.81766427272E+02 -0.65244571457E+02  0.10876403068E+03  0.00000000000E+00 0. -1.
          5    1    6    6  503    0  0.15493940296E+03  0.13690187521E+02  0.98347024393E+02  0.18408657482E+03  0.47000000000E+01 0.  1.
         -5    1    6    6    0  503  0.18370771582E+03  0.11386445415E+02  0.12902076337E+02  0.18457174639E+03  0.47000000000E+01 0. -1.
<mgrwt>
<rscale>  0 0.47511032E+03</rscale>
<asrwt>0</asrwt>
<pdfrwt beam="1">  1        2 0.13951687E+00 0.47511032E+03</pdfrwt>
<pdfrwt beam="2">  1       -2 0.57826955E-01 0.47511032E+03</pdfrwt>
<totfact> 0.84404502E+01</totfact>
</mgrwt>
</event>
<event>
12    1  0.3166324E-008  0.4674139E+03  0.7818608E-02  0.1022653E+00
         -1   -1    0    0    0  501 -0.00000000000E+00  0.00000000000E+00  0.26672291592E+03  0.26672291592E+03  0.00000000000E+00 0.  1.
          1   -1    0    0  501    0  0.00000000000E+00 -0.00000000000E+00 -0.16247273895E+04  0.16247273895E+04  0.00000000000E+00 0. -1.
         23    2    1    2    0    0  0.44118967904E+03 -0.15704837509E+02 -0.92692823968E+03  0.10307981644E+04  0.91945197814E+02 0.  0.
    5000000    2    1    2    0    0 -0.44118967904E+03  0.15704837509E+02 -0.43107623389E+03  0.86065214101E+03  0.60000034465E+03 0.  0.
         23    2    4    4    0    0 -0.22316933391E+03  0.88862656601E+02  0.10004095670E+03  0.27543937591E+03  0.90319064690E+02 0.  0.
         23    2    4    4    0    0 -0.21802034513E+03 -0.73157819091E+02 -0.53111719059E+03  0.58521276510E+03  0.86623166162E+02 0.  0.
          1    1    3    3  502    0  0.29991281506E+03 -0.52810718107E+00 -0.71811051147E+03  0.77822277159E+03  0.00000000000E+00 0. -1.
         -1    1    3    3    0  502  0.14127686398E+03 -0.15176730328E+02 -0.20881772821E+03  0.25257539281E+03  0.00000000000E+00 0.  1.
         11    1    5    5    0    0 -0.62400000278E+02 -0.43646369400E+01  0.57108381232E+02  0.84700515331E+02  0.00000000000E+00 0. -1.
        -11    1    5    5    0    0 -0.16076933363E+03  0.93227293541E+02  0.42932575463E+02  0.19073886058E+03  0.00000000000E+00 0.  1.
          5    1    6    6  503    0 -0.19397607360E+03 -0.90809993232E+02 -0.44335824819E+03  0.49240410055E+03  0.47000000000E+01 0. -1.
         -5    1    6    6    0  503 -0.24044271532E+02  0.17652174140E+02 -0.87758942403E+02  0.92808664558E+02  0.47000000000E+01 0.  1.
<mgrwt>
<rscale>  0 0.46741392E+03</rscale>
<asrwt>0</asrwt>
<pdfrwt beam="1">  1        1 0.24995806E+00 0.46741392E+03</pdfrwt>
<pdfrwt beam="2">  1       -1 0.41034295E-01 0.46741392E+03</pdfrwt>
<totfact> 0.33647249E+01</totfact>
</mgrwt>
</event>
<event>
12    1  0.3166324E-008  0.1898236E+04  0.7818608E-02  0.8655735E-01
          2   -1    0    0  501    0  0.00000000000E+00  0.00000000000E+00  0.21761252103E+04  0.21761252103E+04  0.00000000000E+00 0. -1.
         -2   -1    0    0    0  501 -0.00000000000E+00 -0.00000000000E+00 -0.18651818805E+04  0.18651818805E+04  0.00000000000E+00 0.  1.
         23    2    1    2    0    0 -0.19552428436E+03  0.18579471345E+04  0.77557507687E+03  0.20248098707E+04  0.90227556695E+02 0.  0.
    5000000    2    1    2    0    0  0.19552428436E+03 -0.18579471345E+04 -0.46463174709E+03  0.20164972201E+04  0.60015087908E+03 0.  0.
         23    2    4    4    0    0  0.34397212721E+03 -0.12293703910E+04 -0.14087986282E+03  0.12878188588E+04  0.94667285596E+02 0.  0.
         23    2    4    4    0    0 -0.14844784285E+03 -0.62857674357E+03 -0.32375188427E+03  0.72867836124E+03  0.94928325366E+02 0.  0.
          4    1    3    3  502    0 -0.82693375691E+02  0.74040759008E+03  0.35701586809E+03  0.82613674649E+03  0.00000000000E+00 0. -1.
         -4    1    3    3    0  502 -0.11283090867E+03  0.11175395445E+04  0.41855920878E+03  0.11986731242E+04  0.00000000000E+00 0.  1.
         11    1    5    5    0    0  0.11450474086E+03 -0.52707139169E+03 -0.24950672923E+02  0.53994270409E+03  0.00000000000E+00 0.  1.
        -11    1    5    5    0    0  0.22946738635E+03 -0.70229899927E+03 -0.11592918989E+03  0.74787615475E+03  0.00000000000E+00 0. -1.
          5    1    6    6  503    0 -0.27341045687E+02 -0.27232304819E+03 -0.16965566388E+03  0.32204426659E+03  0.47000000000E+01 0. -1.
         -5    1    6    6    0  503 -0.12110679716E+03 -0.35625369538E+03 -0.15409622040E+03  0.40663409465E+03  0.47000000000E+01 0.  1.
<mgrwt>
<rscale>  0 0.18982361E+04</rscale>
<asrwt>0</asrwt>
<pdfrwt beam="1">  1        2 0.33478849E+00 0.18982361E+04</pdfrwt>
<pdfrwt beam="2">  1       -2 0.28695106E+00 0.18982361E+04</pdfrwt>
<totfact> 0.18272021E-01</totfact>
</mgrwt>
</event>
<event>
12    1  0.3166324E-008  0.1751655E+04  0.7818608E-02  0.8732440E-01
          2   -1    0    0  501    0  0.00000000000E+00  0.00000000000E+00  0.20760450361E+04  0.20760450361E+04  0.00000000000E+00 0. -1.
         -2   -1    0    0    0  501 -0.00000000000E+00 -0.00000000000E+00 -0.16034035017E+04  0.16034035017E+04  0.00000000000E+00 0.  1.
         23    2    1    2    0    0  0.16450128592E+04  0.51680473983E+03 -0.19013596553E+03  0.17371949143E+04  0.92412330904E+02 0.  0.
    5000000    2    1    2    0    0 -0.16450128592E+04 -0.51680473983E+03  0.66277749995E+03  0.19422536234E+04  0.59993389408E+03 0.  0.
         23    2    4    4    0    0 -0.15717349625E+04 -0.54721697009E+03  0.71105234730E+03  0.18120971607E+04  0.91123401859E+02 0.  0.
         23    2    4    4    0    0 -0.73277896664E+02  0.30412230261E+02 -0.48274847359E+02  0.13015646274E+03  0.91190405290E+02 0.  0.
          4    1    3    3  502    0  0.64934856537E+02  0.39614451643E+02 -0.12782442096E+02  0.77131259541E+02  0.00000000000E+00 0.  1.
         -4    1    3    3    0  502  0.15800780027E+04  0.47719028818E+03 -0.17735352343E+03  0.16600636548E+04  0.00000000000E+00 0. -1.
         11    1    5    5    0    0 -0.11939473550E+04 -0.41645985617E+03  0.58203723482E+03  0.13920188364E+04  0.00000000000E+00 0. -1.
        -11    1    5    5    0    0 -0.37778760755E+03 -0.13075711391E+03  0.12901511249E+03  0.42007832425E+03  0.00000000000E+00 0.  1.
          5    1    6    6  503    0 -0.73580795185E+02  0.52058873880E+02 -0.17021566834E+02  0.91848154621E+02  0.47000000000E+01 0. -1.
         -5    1    6    6    0  503  0.30289852113E+00 -0.21646643619E+02 -0.31253280526E+02  0.38308308121E+02  0.47000000000E+01 0.  1.
<mgrwt>
<rscale>  0 0.17516546E+04</rscale>
<asrwt>0</asrwt>
<pdfrwt beam="1">  1        2 0.31939155E+00 0.17516546E+04</pdfrwt>
<pdfrwt beam="2">  1       -2 0.24667746E+00 0.17516546E+04</pdfrwt>
<totfact> 0.37297784E-01</totfact>
</mgrwt>
</event>
<event>
12    1  0.3166324E-008  0.1194829E+04  0.7818608E-02  0.9117395E-01
          2   -1    0    0  501    0  0.00000000000E+00  0.00000000000E+00  0.15675434698E+04  0.15675434698E+04  0.00000000000E+00 0. -1.
         -2   -1    0    0    0  501 -0.00000000000E+00 -0.00000000000E+00 -0.10437821320E+04  0.10437821320E+04  0.00000000000E+00 0.  1.
         23    2    1    2    0    0 -0.11415512187E+04  0.33618466624E+03  0.40802115514E+02  0.11938135202E+04  0.85828862288E+02 0.  0.
    5000000    2    1    2    0    0  0.11415512187E+04 -0.33618466624E+03  0.48295922231E+03  0.14175120816E+04  0.59994297753E+03 0.  0.
         23    2    4    4    0    0  0.31027330969E+03 -0.11653088079E+03 -0.11941464033E+03  0.36373296939E+03  0.90514329323E+02 0.  0.
         23    2    4    4    0    0  0.83127790903E+03 -0.21965378545E+03  0.60237386264E+03  0.10537791122E+04  0.91243626836E+02 0.  0.
          2    1    3    3  502    0 -0.73779037012E+03  0.23908153213E+03 -0.86278895820E+01  0.77560882519E+03  0.00000000000E+00 0. -1.
         -2    1    3    3    0  502 -0.40376084861E+03  0.97103134117E+02  0.49430005096E+02  0.41820469501E+03  0.00000000000E+00 0.  1.
         11    1    5    5    0    0  0.18016730800E+02 -0.26284132671E+02 -0.33028859083E+02  0.45895138646E+02  0.00000000000E+00 0.  1.
        -11    1    5    5    0    0  0.29225657889E+03 -0.90246748121E+02 -0.86385781243E+02  0.31783783074E+03  0.00000000000E+00 0. -1.
          5    1    6    6  503    0  0.27842840606E+03 -0.51333628210E+02  0.24378399549E+03  0.37364454384E+03  0.47000000000E+01 0. -1.
         -5    1    6    6    0  503  0.55284950297E+03 -0.16832015724E+03  0.35858986715E+03  0.68013456837E+03  0.47000000000E+01 0.  1.
<mgrwt>
<rscale>  0 0.11948288E+04</rscale>
<asrwt>0</asrwt>
<pdfrwt beam="1">  1        2 0.24116053E+00 0.11948288E+04</pdfrwt>
<pdfrwt beam="2">  1       -2 0.16058187E+00 0.11948288E+04</pdfrwt>
<totfact> 0.28186115E+00</totfact>
</mgrwt>
</event>
<event>
12    1  0.3166324E-008  0.2454132E+03  0.7818608E-02  0.1116238E+00
          2   -1    0    0  501    0  0.00000000000E+00  0.00000000000E+00  0.15047784291E+04  0.15047784291E+04  0.00000000000E+00 0. -1.
         -2   -1    0    0    0  501 -0.00000000000E+00 -0.00000000000E+00 -0.11285720948E+03  0.11285720948E+03  0.00000000000E+00 0.  1.
         23    2    1    2    0    0  0.99803604908E+02 -0.14232360208E+03  0.26804815900E+03  0.33183274440E+03  0.89701658038E+02 0.  0.
    5000000    2    1    2    0    0 -0.99803604908E+02  0.14232360208E+03  0.11238730606E+04  0.12858028942E+04  0.59998471563E+03 0.  0.
         23    2    4    4    0    0 -0.15263073298E+03  0.32504896678E+02  0.32845149290E+02  0.18385239310E+03  0.91488740607E+02 0.  0.
         23    2    4    4    0    0  0.52827128071E+02  0.10981870540E+03  0.10910279113E+04  0.11019505011E+04  0.95405188473E+02 0.  0.
          2    1    3    3  502    0  0.74545886937E+02 -0.47382535068E+02  0.17732754569E+03  0.19810919299E+03  0.00000000000E+00 0. -1.
         -2    1    3    3    0  502  0.25257717971E+02 -0.94941067013E+02  0.90720613309E+02  0.13372355141E+03  0.00000000000E+00 0.  1.
         13    1    5    5    0    0  0.52604456412E+01 -0.10689279804E+02 -0.89584658258E+01  0.14905941803E+02  0.00000000000E+00 0. -1.
        -13    1    5    5    0    0 -0.15789117862E+03  0.43194176483E+02  0.41803615116E+02  0.16894645129E+03  0.00000000000E+00 0.  1.
          5    1    6    6  503    0  0.20825270332E+02  0.85646214157E+02  0.39454015986E+03  0.40429320254E+03  0.47000000000E+01 0. -1.
         -5    1    6    6    0  503  0.32001857739E+02  0.24172491246E+02  0.69648775148E+03  0.69765729853E+03  0.47000000000E+01 0.  1.
<mgrwt>
<rscale>  0 0.24541324E+03</rscale>
<asrwt>0</asrwt>
<pdfrwt beam="1">  1        2 0.23150436E+00 0.24541324E+03</pdfrwt>
<pdfrwt beam="2">  1       -2 0.17362649E-01 0.24541324E+03</pdfrwt>
<totfact> 0.36678373E+02</totfact>
</mgrwt>
</event>
<event>
12    1  0.3166324E-008  0.8171825E+03  0.7818608E-02  0.9535474E-01
         -2   -1    0    0    0  501 -0.00000000000E+00  0.00000000000E+00  0.29746614947E+03  0.29746614947E+03  0.00000000000E+00 0. -1.
          2   -1    0    0  501    0  0.00000000000E+00 -0.00000000000E+00 -0.25821833645E+04  0.25821833645E+04  0.00000000000E+00 0.  1.
         23    2    1    2    0    0 -0.63622425412E+03 -0.40321197709E+03 -0.12800779188E+04  0.14880441060E+04  0.91184336281E+02 0.  0.
    5000000    2    1    2    0    0  0.63622425412E+03  0.40321197709E+03 -0.10046392962E+04  0.13916054080E+04  0.59992024135E+03 0.  0.
         23    2    4    4    0    0  0.66251518505E+03  0.24057856633E+03 -0.96719575813E+03  0.12003243091E+04  0.92230122721E+02 0.  0.
         23    2    4    4    0    0 -0.26290930937E+02  0.16263341077E+03 -0.37443538101E+02  0.19128109885E+03  0.89697273563E+02 0.  0.
          4    1    3    3  502    0 -0.42099775875E+03 -0.23810126733E+03 -0.74687105853E+03  0.88980205914E+03  0.00000000000E+00 0.  1.
         -4    1    3    3    0  502 -0.21522649537E+03 -0.16511070977E+03 -0.53320686027E+03  0.59824204685E+03  0.00000000000E+00 0. -1.
         13    1    5    5    0    0  0.63107575967E+03  0.22277283543E+03 -0.87716915530E+03  0.11033177591E+04  0.00000000000E+00 0. -1.
        -13    1    5    5    0    0  0.31439425385E+02  0.17805730896E+02 -0.90026602838E+02  0.97006549984E+02  0.00000000000E+00 0.  1.
          5    1    6    6  503    0 -0.47704553750E+01  0.14675962315E+03 -0.23766915891E+01  0.14693155853E+03  0.47000000000E+01 0. -1.
         -5    1    6    6    0  503 -0.21520475562E+02  0.15873787619E+02 -0.35066846512E+02  0.44349540315E+02  0.47000000000E+01 0.  1.
<mgrwt>
<rscale>  0 0.81718248E+03</rscale>
<asrwt>0</asrwt>
<pdfrwt beam="1">  1        2 0.39725898E+00 0.81718248E+03</pdfrwt>
<pdfrwt beam="2">  1       -2 0.45764023E-01 0.81718248E+03</pdfrwt>
<totfact> 0.14658985E+01</totfact>
</mgrwt>
</event>
<event>
12    1  0.3166324E-008  0.1889373E+04  0.7818608E-02  0.8660164E-01
          1   -1    0    0  501    0  0.00000000000E+00  0.00000000000E+00  0.17320476053E+04  0.17320476053E+04  0.00000000000E+00 0. -1.
         -1   -1    0    0    0  501 -0.00000000000E+00 -0.00000000000E+00 -0.21766962878E+04  0.21766962878E+04  0.00000000000E+00 0.  1.
         23    2    1    2    0    0 -0.18024366315E+04 -0.45975700526E+03 -0.57693614278E+03  0.19497344771E+04  0.91950549646E+02 0.  0.
    5000000    2    1    2    0    0  0.18024366315E+04  0.45975700526E+03  0.13228746033E+03  0.19590094160E+04  0.60005300204E+03 0.  0.
         23    2    4    4    0    0  0.92431125398E+03  0.25496359448E+01 -0.10762117900E+03  0.93620868691E+03  0.10269660368E+03 0.  0.
         23    2    4    4    0    0  0.87812537756E+03  0.45720736932E+03  0.23990863934E+03  0.10228007291E+04  0.91773737762E+02 0.  0.
          3    1    3    3  502    0 -0.11663055923E+04 -0.27585278002E+03 -0.33093107210E+03  0.12433337707E+04  0.00000000000E+00 0. -1.
         -3    1    3    3    0  502 -0.63613103921E+03 -0.18390422524E+03 -0.24600507068E+03  0.70640070634E+03  0.00000000000E+00 0.  1.
         13    1    5    5    0    0  0.44067956394E+03  0.35660540489E+02 -0.89613364687E+02  0.45111052676E+03  0.00000000000E+00 0.  1.
        -13    1    5    5    0    0  0.48363169004E+03 -0.33110904544E+02 -0.18007814317E+02  0.48509816015E+03  0.00000000000E+00 0. -1.
          5    1    6    6  503    0  0.57336174997E+03  0.32367623120E+03  0.19705336769E+03  0.68728605303E+03  0.47000000000E+01 0. -1.
         -5    1    6    6    0  503  0.30476362759E+03  0.13353113812E+03  0.42855271643E+02  0.33551467607E+03  0.47000000000E+01 0.  1.
<mgrwt>
<rscale>  0 0.18893733E+04</rscale>
<asrwt>0</asrwt>
<pdfrwt beam="1">  1        1 0.26646886E+00 0.18893733E+04</pdfrwt>
<pdfrwt beam="2">  1       -1 0.33487635E+00 0.18893733E+04</pdfrwt>
<totfact> 0.80075821E-02</totfact>
</mgrwt>
</event>
<event>
12    1  0.3166324E-008  0.8010869E+03  0.7818608E-02  0.9558445E-01
          2   -1    0    0  501    0  0.00000000000E+00  0.00000000000E+00  0.11333474456E+04  0.11333474456E+04  0.00000000000E+00 0. -1.
         -2   -1    0    0    0  501 -0.00000000000E+00 -0.00000000000E+00 -0.78060503436E+03  0.78060503436E+03  0.00000000000E+00 0.  1.
         23    2    1    2    0    0 -0.68074840978E+02 -0.78339284126E+03  0.46613885475E+03  0.91836999005E+03  0.88201354920E+02 0.  0.
    5000000    2    1    2    0    0  0.68074840978E+02  0.78339284126E+03 -0.11339644348E+03  0.99558248994E+03  0.59998934421E+03 0.  0.
         23    2    4    4    0    0  0.11256313729E+03  0.39038099599E+03 -0.33312144046E+03  0.53311737764E+03  0.90423792989E+02 0.  0.
         23    2    4    4    0    0 -0.44488296313E+02  0.39301184526E+03  0.21972499699E+03  0.46246511229E+03  0.95694235778E+02 0.  0.
          2    1    3    3  502    0  0.10778365978E+02 -0.19192088200E+03  0.83903562072E+02  0.20973699209E+03  0.00000000000E+00 0. -1.
         -2    1    3    3    0  502 -0.78853206956E+02 -0.59147195925E+03  0.38223529268E+03  0.70863299796E+03  0.00000000000E+00 0.  1.
         11    1    5    5    0    0  0.23869606400E+02  0.23278178934E+03 -0.16624327306E+03  0.28704345558E+03  0.00000000000E+00 0.  1.
        -11    1    5    5    0    0  0.88693530892E+02  0.15759920666E+03 -0.16687816741E+03  0.24607392206E+03  0.00000000000E+00 0. -1.
          5    1    6    6  503    0  0.92946293633E+01  0.42648076752E+02  0.58200962664E+02  0.72901924807E+02  0.47000000000E+01 0. -1.
         -5    1    6    6    0  503 -0.53782925676E+02  0.35036376851E+03  0.16152403432E+03  0.38956318749E+03  0.47000000000E+01 0.  1.
<mgrwt>
<rscale>  0 0.80108685E+03</rscale>
<asrwt>0</asrwt>
<pdfrwt beam="1">  1        2 0.17436115E+00 0.80108685E+03</pdfrwt>
<pdfrwt beam="2">  1       -2 0.12009308E+00 0.80108685E+03</pdfrwt>
<totfact> 0.11154086E+01</totfact>
</mgrwt>
</event>
<event>
12    1  0.3166324E-008  0.4085225E+03  0.7818608E-02  0.1040868E+00
          1   -1    0    0  501    0  0.00000000000E+00  0.00000000000E+00  0.11368043424E+04  0.11368043424E+04  0.00000000000E+00 0. -1.
         -1   -1    0    0    0  501 -0.00000000000E+00 -0.00000000000E+00 -0.16934541548E+03  0.16934541548E+03  0.00000000000E+00 0.  1.
         23    2    1    2    0    0 -0.19078022450E+03  0.56173730396E+02  0.40516217820E+03  0.46053893648E+03  0.91581326281E+02 0.  0.
    5000000    2    1    2    0    0  0.19078022450E+03 -0.56173730396E+02  0.56229674869E+03  0.84561082137E+03  0.59943927598E+03 0.  0.
         23    2    4    4    0    0  0.28846181252E+03  0.18343307220E+03  0.36038653377E+03  0.50499158942E+03  0.90995287829E+02 0.  0.
         23    2    4    4    0    0 -0.97681588019E+02 -0.23960680260E+03  0.20191021492E+03  0.34061923195E+03  0.91107704353E+02 0.  0.
          2    1    3    3  502    0 -0.80616536318E+02  0.66177182939E+02  0.15286027151E+03  0.18505325741E+03  0.00000000000E+00 0.  1.
         -2    1    3    3    0  502 -0.11016368818E+03 -0.10003452543E+02  0.25230190668E+03  0.27548567907E+03  0.00000000000E+00 0. -1.
         13    1    5    5    0    0  0.22360057918E+03  0.12683513394E+03  0.21098460331E+03  0.33256408863E+03  0.00000000000E+00 0.  1.
        -13    1    5    5    0    0  0.64861233343E+02  0.56597938257E+02  0.14940193046E+03  0.17242750080E+03  0.00000000000E+00 0. -1.
          5    1    6    6  503    0 -0.71137606662E+02 -0.17138400612E+03  0.19120732608E+03  0.26648708821E+03  0.47000000000E+01 0. -1.
         -5    1    6    6    0  503 -0.26543981357E+02 -0.68222796478E+02  0.10702888842E+02  0.74132143737E+02  0.47000000000E+01 0.  1.
<mgrwt>
<rscale>  0 0.40852252E+03</rscale>
<asrwt>0</asrwt>
<pdfrwt beam="1">  1        1 0.17489297E+00 0.40852252E+03</pdfrwt>
<pdfrwt beam="2">  1       -1 0.26053142E-01 0.40852252E+03</pdfrwt>
<totfact> 0.16295850E+02</totfact>
</mgrwt>
</event>
<event>
12    1  0.3166324E-008  0.3496735E+03  0.7818608E-02  0.1062749E+00
          1   -1    0    0  501    0  0.00000000000E+00  0.00000000000E+00  0.18634395488E+04  0.18634395488E+04  0.00000000000E+00 0. -1.
         -1   -1    0    0    0  501 -0.00000000000E+00 -0.00000000000E+00 -0.12549597973E+03  0.12549597973E+03  0.00000000000E+00 0.  1.
         23    2    1    2    0    0  0.21799582942E+02  0.14849447956E+03  0.43182784882E+02  0.18483763940E+03  0.98865402197E+02 0.  0.
    5000000    2    1    2    0    0 -0.21799582942E+02 -0.14849447956E+03  0.16947607842E+04  0.18040978891E+04  0.60002437086E+03 0.  0.
         23    2    4    4    0    0 -0.57453058746E+02  0.16768640395E+03  0.23983948499E+03  0.31207840981E+03  0.91925901036E+02 0.  0.
         23    2    4    4    0    0  0.35653475804E+02 -0.31618088351E+03  0.14549212992E+04  0.14920194793E+04  0.89914505788E+02 0.  0.
          3    1    3    3  502    0 -0.31496395649E+02  0.26566065236E+02  0.30304562426E+02  0.51148267466E+02  0.00000000000E+00 0. -1.
         -3    1    3    3    0  502  0.53295978590E+02  0.12192841433E+03  0.12878222456E+02  0.13368937193E+03  0.00000000000E+00 0.  1.
         13    1    5    5    0    0 -0.75583485714E+02  0.10516644701E+03  0.19069115532E+03  0.23051238927E+03  0.00000000000E+00 0. -1.
        -13    1    5    5    0    0  0.18130426968E+02  0.62519956938E+02  0.49148329673E+02  0.81566020542E+02  0.00000000000E+00 0.  1.
          5    1    6    6  503    0 -0.19758120191E+02 -0.20649843154E+03  0.88981562527E+03  0.91368808820E+03  0.47000000000E+01 0. -1.
         -5    1    6    6    0  503  0.55411595995E+02 -0.10968245197E+03  0.56510567390E+03  0.57833139108E+03  0.47000000000E+01 0.  1.
<mgrwt>
<rscale>  0 0.34967349E+03</rscale>
<asrwt>0</asrwt>
<pdfrwt beam="1">  1        1 0.28668299E+00 0.34967349E+03</pdfrwt>
<pdfrwt beam="2">  1       -1 0.19307075E-01 0.34967349E+03</pdfrwt>
<totfact> 0.87308253E+01</totfact>
</mgrwt>
</event>
<event>
12    1  0.3166324E-008  0.1403921E+04  0.7818608E-02  0.8950985E-01
          2   -1    0    0  501    0  0.00000000000E+00  0.00000000000E+00  0.20403550909E+04  0.20403550909E+04  0.00000000000E+00 0. -1.
         -2   -1    0    0    0  501 -0.00000000000E+00 -0.00000000000E+00 -0.10496276082E+04  0.10496276082E+04  0.00000000000E+00 0.  1.
         23    2    1    2    0    0  0.23606534800E+03 -0.13627975184E+04  0.24318961302E+03  0.14071997687E+04  0.90144753114E+02 0.  0.
    5000000    2    1    2    0    0 -0.23606534800E+03  0.13627975184E+04  0.74753786962E+03  0.16827829304E+04  0.60000133322E+03 0.  0.
         23    2    4    4    0    0  0.45479042547E+02  0.61260703606E+03  0.61382952546E+02  0.62440354264E+03  0.93574533142E+02 0.  0.
         23    2    4    4    0    0 -0.28154439054E+03  0.75019048230E+03  0.68615491708E+03  0.10583793878E+04  0.85471367721E+02 0.  0.
          1    1    3    3  502    0  0.11260110507E+03 -0.72533370331E+03  0.17278431478E+03  0.75408382124E+03  0.00000000000E+00 0. -1.
         -1    1    3    3    0  502  0.12346424292E+03 -0.63746381505E+03  0.70405298243E+02  0.65311594744E+03  0.00000000000E+00 0.  1.
         11    1    5    5    0    0 -0.24431512351E+02  0.27174995644E+03  0.13593265239E+02  0.27318439648E+03  0.00000000000E+00 0. -1.
        -11    1    5    5    0    0  0.69910554899E+02  0.34085707962E+03  0.47789687307E+02  0.35121914616E+03  0.00000000000E+00 0.  1.
          5    1    6    6  503    0 -0.12817300484E+03  0.25741819283E+03  0.20929051432E+03  0.35569235943E+03  0.47000000000E+01 0. -1.
         -5    1    6    6    0  503 -0.15337138571E+03  0.49277228947E+03  0.47686440276E+03  0.70268702837E+03  0.47000000000E+01 0.  1.
<mgrwt>
<rscale>  0 0.14039208E+04</rscale>
<asrwt>0</asrwt>
<pdfrwt beam="1">  1        2 0.31390078E+00 0.14039208E+04</pdfrwt>
<pdfrwt beam="2">  1       -2 0.16148117E+00 0.14039208E+04</pdfrwt>
<totfact> 0.14831437E+00</totfact>
</mgrwt>
</event>
<event>
12    1  0.3166324E-008  0.1103649E+04  0.7818608E-02  0.9201643E-01
         -2   -1    0    0    0  501 -0.00000000000E+00  0.00000000000E+00  0.12158344248E+04  0.12158344248E+04  0.00000000000E+00 0.  1.
          2   -1    0    0  501    0  0.00000000000E+00 -0.00000000000E+00 -0.12168904468E+04  0.12168904468E+04  0.00000000000E+00 0. -1.
         23    2    1    2    0    0 -0.47108187492E+03 -0.97138332573E+03  0.36622892237E+03  0.11435849156E+04  0.90327943003E+02 0.  0.
    5000000    2    1    2    0    0  0.47108187492E+03  0.97138332573E+03 -0.36728494430E+03  0.12891399560E+04  0.60123198305E+03 0.  0.
         23    2    4    4    0    0  0.46169968929E+03  0.67120841952E+03 -0.20992855864E+02  0.82133064237E+03  0.10225447949E+03 0.  0.
         23    2    4    4    0    0  0.93821856349E+01  0.30017490621E+03 -0.34629208844E+03  0.46780931362E+03  0.93457710605E+02 0.  0.
          1    1    3    3  502    0 -0.15111834927E+03 -0.24910776037E+03  0.12999435566E+03  0.31904539530E+03  0.00000000000E+00 0. -1.
         -1    1    3    3    0  502 -0.31996352565E+03 -0.72227556537E+03  0.23623456670E+03  0.82453952033E+03  0.00000000000E+00 0.  1.
         11    1    5    5    0    0  0.12749569071E+03  0.14207183285E+03 -0.40686031649E+02  0.19517917412E+03  0.00000000000E+00 0. -1.
        -11    1    5    5    0    0  0.33420399858E+03  0.52913658668E+03  0.19693175785E+02  0.62615146825E+03  0.00000000000E+00 0.  1.
          5    1    6    6  503    0  0.34386375077E+01  0.30148349468E+03 -0.34742926112E+03  0.46003619779E+03  0.47000000000E+01 0. -1.
         -5    1    6    6    0  503  0.59435481272E+01 -0.13085884683E+01  0.11371726798E+01  0.77731158375E+01  0.47000000000E+01 0.  1.
<mgrwt>
<rscale>  0 0.11036488E+04</rscale>
<asrwt>0</asrwt>
<pdfrwt beam="1">  1        2 0.18721392E+00 0.11036488E+04</pdfrwt>
<pdfrwt beam="2">  1       -2 0.18705145E+00 0.11036488E+04</pdfrwt>
<totfact> 0.29442607E+00</totfact>
</mgrwt>
</event>
<event>
12    1  0.3166324E-008  0.6258340E+03  0.7818608E-02  0.9853212E-01
         -2   -1    0    0    0  501 -0.00000000000E+00  0.00000000000E+00  0.12469008524E+04  0.12469008524E+04  0.00000000000E+00 0.  1.
          2   -1    0    0  501    0  0.00000000000E+00 -0.00000000000E+00 -0.46598355230E+03  0.46598355230E+03  0.00000000000E+00 0. -1.
         23    2    1    2    0    0 -0.24626191329E+03 -0.43211469333E+03  0.78454163514E+03  0.93348169680E+03  0.92273847105E+02 0.  0.
    5000000    2    1    2    0    0  0.24626191329E+03  0.43211469333E+03 -0.36243350180E+01  0.77940270792E+03  0.60007283489E+03 0.  0.
         23    2    4    4    0    0 -0.15815949654E+03  0.23856099148E+03  0.87681186023E+02  0.31227447910E+03  0.88890870795E+02 0.  0.
         23    2    4    4    0    0  0.40442140983E+03  0.19355370185E+03 -0.91305521041E+02  0.46712822882E+03  0.94087043535E+02 0.  0.
          3    1    3    3  502    0 -0.15937462876E+03 -0.31919163643E+03  0.62434255717E+03  0.71908775665E+03  0.00000000000E+00 0. -1.
         -3    1    3    3    0  502 -0.86887284533E+02 -0.11292305690E+03  0.16019907797E+03  0.21439394016E+03  0.00000000000E+00 0.  1.
         11    1    5    5    0    0 -0.16914680218E+03  0.21783245254E+03  0.76033240894E+02  0.28608158240E+03  0.00000000000E+00 0.  1.
        -11    1    5    5    0    0  0.10987305637E+02  0.20728538945E+02  0.11647945130E+02  0.26192896703E+02  0.00000000000E+00 0. -1.
          5    1    6    6  503    0  0.10031650008E+03  0.80440381874E+02  0.46161792656E+01  0.12875346339E+03  0.47000000000E+01 0. -1.
         -5    1    6    6    0  503  0.30410490976E+03  0.11311331998E+03 -0.95921700307E+02  0.33837476544E+03  0.47000000000E+01 0.  1.
<mgrwt>
<rscale>  0 0.62583398E+03</rscale>
<asrwt>0</asrwt>
<pdfrwt beam="1">  1        2 0.71689778E-01 0.62583398E+03</pdfrwt>
<pdfrwt beam="2">  1       -2 0.19183090E+00 0.62583398E+03</pdfrwt>
<totfact> 0.10393706E+01</totfact>
</mgrwt>
</event>
<event>
12    1  0.3166324E-008  0.5646859E+03  0.7818608E-02  0.9981507E-01
         -2   -1    0    0    0  501 -0.00000000000E+00  0.00000000000E+00  0.47345470902E+03  0.47345470902E+03  0.00000000000E+00 0.  1.
          2   -1    0    0  501    0  0.00000000000E+00 -0.00000000000E+00 -0.11130851924E+04  0.11130851924E+04  0.00000000000E+00 0. -1.
         23    2    1    2    0    0 -0.53525793778E+03 -0.15715908931E+03 -0.50194839103E+03  0.75580707613E+03  0.89956154688E+02 0.  0.
    5000000    2    1    2    0    0  0.53525793778E+03  0.15715908931E+03 -0.13768209234E+03  0.83073282528E+03  0.59996719005E+03 0.  0.
         23    2    4    4    0    0  0.15462653852E+03  0.25090160859E+01 -0.32379295421E+03  0.37055794431E+03  0.92496763819E+02 0.  0.
         23    2    4    4    0    0  0.38063139925E+03  0.15465007322E+03  0.18611086187E+03  0.46017488097E+03  0.91251087258E+02 0.  0.
          1    1    3    3  502    0 -0.35034131242E+03 -0.10648820986E+03 -0.38450191691E+03  0.53096186128E+03  0.00000000000E+00 0. -1.
         -1    1    3    3    0  502 -0.18491662535E+03 -0.50670879444E+02 -0.11744647411E+03  0.22484521484E+03  0.00000000000E+00 0.  1.
         13    1    5    5    0    0  0.18731452130E+02 -0.73124503697E+01 -0.14177433018E+03  0.14319322584E+03  0.00000000000E+00 0.  1.
        -13    1    5    5    0    0  0.13589508639E+03  0.98214664556E+01 -0.18201862403E+03  0.22736471847E+03  0.00000000000E+00 0. -1.
          5    1    6    6  503    0  0.29102921507E+03  0.90493216101E+02  0.16908132786E+03  0.34856507515E+03  0.47000000000E+01 0. -1.
         -5    1    6    6    0  503  0.89602184186E+02  0.64156857119E+02  0.17029534002E+02  0.11160980582E+03  0.47000000000E+01 0.  1.
<mgrwt>
<rscale>  0 0.56468587E+03</rscale>
<asrwt>0</asrwt>
<pdfrwt beam="1">  1        2 0.17124387E+00 0.56468587E+03</pdfrwt>
<pdfrwt beam="2">  1       -2 0.72839187E-01 0.56468587E+03</pdfrwt>
<totfact> 0.37830494E+01</totfact>
</mgrwt>
</event>
<event>
12    1  0.3166324E-008  0.9040028E+03  0.7818608E-02  0.9420592E-01
         -1   -1    0    0    0  501 -0.00000000000E+00  0.00000000000E+00  0.11436478075E+04  0.11436478075E+04  0.00000000000E+00 0.  1.
          1   -1    0    0  501    0  0.00000000000E+00 -0.00000000000E+00 -0.87535332874E+03  0.87535332874E+03  0.00000000000E+00 0. -1.
         23    2    1    2    0    0 -0.73649973777E+03 -0.37819035273E+03  0.49888992587E+03  0.97083577614E+03  0.90394355285E+02 0.  0.
    5000000    2    1    2    0    0  0.73649973777E+03  0.37819035273E+03 -0.23059544708E+03  0.10481653601E+04  0.60001379594E+03 0.  0.
         23    2    4    4    0    0  0.46132376055E+03  0.48802729303E+03 -0.28175257263E+03  0.73432076813E+03  0.94086277086E+02 0.  0.
         23    2    4    4    0    0  0.27517597722E+03 -0.10983694030E+03  0.51157125558E+02  0.31384459200E+03  0.89974466017E+02 0.  0.
          3    1    3    3  502    0 -0.44268529957E+03 -0.22922334943E+03  0.35134097827E+03  0.60988039925E+03  0.00000000000E+00 0. -1.
         -3    1    3    3    0  502 -0.29381443821E+03 -0.14896700331E+03  0.14754894760E+03  0.36095537689E+03  0.00000000000E+00 0.  1.
         11    1    5    5    0    0  0.17999000194E+03  0.19426030156E+03 -0.16140744671E+03  0.31013840365E+03  0.00000000000E+00 0.  1.
        -11    1    5    5    0    0  0.28133375861E+03  0.29376699147E+03 -0.12034512592E+03  0.42418236449E+03  0.00000000000E+00 0. -1.
          5    1    6    6  503    0  0.13468120002E+03 -0.81741018064E+01  0.35841247650E+02  0.13968724570E+03  0.47000000000E+01 0. -1.
         -5    1    6    6    0  503  0.14049477720E+03 -0.10166283849E+03  0.15315877907E+02  0.17415734629E+03  0.47000000000E+01 0.  1.
<mgrwt>
<rscale>  0 0.90400279E+03</rscale>
<asrwt>0</asrwt>
<pdfrwt beam="1">  1        1 0.13466974E+00 0.90400279E+03</pdfrwt>
<pdfrwt beam="2">  1       -1 0.17594582E+00 0.90400279E+03</pdfrwt>
<totfact> 0.43082871E+00</totfact>
</mgrwt>
</event>
<event>
12    1  0.3166324E-008  0.5819770E+03  0.7818608E-02  0.9943520E-01
          2   -1    0    0  501    0  0.00000000000E+00  0.00000000000E+00  0.21264159843E+04  0.21264159843E+04  0.00000000000E+00 0. -1.
         -2   -1    0    0    0  501 -0.00000000000E+00 -0.00000000000E+00 -0.16862256817E+03  0.16862256817E+03  0.00000000000E+00 0.  1.
         23    2    1    2    0    0  0.42366172653E+03 -0.12134514911E+03  0.81630771261E+03  0.93226159928E+03  0.92409437239E+02 0.  0.
    5000000    2    1    2    0    0 -0.42366172653E+03  0.12134514911E+03  0.11414857036E+04  0.13627769532E+04  0.59996458985E+03 0.  0.
         23    2    4    4    0    0 -0.58997075268E+02 -0.19494761985E+03  0.54665170917E+03  0.59133404765E+03  0.96760712065E+02 0.  0.
         23    2    4    4    0    0 -0.36466465126E+03  0.31629276897E+03  0.59483399440E+03  0.77144290558E+03  0.90968412644E+02 0.  0.
          1    1    3    3  502    0  0.30408469696E+03 -0.12669054059E+03  0.62740910918E+03  0.70863261729E+03  0.00000000000E+00 0. -1.
         -1    1    3    3    0  502  0.11957702957E+03  0.53453914763E+01  0.18889860343E+03  0.22362898200E+03  0.00000000000E+00 0.  1.
         13    1    5    5    0    0 -0.62536155082E+02 -0.49000822014E+02  0.19908789143E+03  0.21435447223E+03  0.00000000000E+00 0.  1.
        -13    1    5    5    0    0  0.35390798140E+01 -0.14594679784E+03  0.34756381774E+03  0.37697957542E+03  0.00000000000E+00 0. -1.
          5    1    6    6  503    0 -0.21310823858E+03  0.13189568864E+03  0.27145636649E+03  0.36948916485E+03  0.47000000000E+01 0. -1.
         -5    1    6    6    0  503 -0.15155641268E+03  0.18439708032E+03  0.32337762790E+03  0.40195374073E+03  0.47000000000E+01 0.  1.
<mgrwt>
<rscale>  0 0.58197703E+03</rscale>
<asrwt>0</asrwt>
<pdfrwt beam="1">  1        2 0.32714090E+00 0.58197703E+03</pdfrwt>
<pdfrwt beam="2">  1       -2 0.25941935E-01 0.58197703E+03</pdfrwt>
<totfact> 0.80111577E+01</totfact>
</mgrwt>
</event>
<event>
12    1  0.3166324E-008  0.6267947E+03  0.7818608E-02  0.9851324E-01
          2   -1    0    0  501    0  0.00000000000E+00  0.00000000000E+00  0.12976522619E+04  0.12976522619E+04  0.00000000000E+00 0. -1.
         -2   -1    0    0    0  501 -0.00000000000E+00 -0.00000000000E+00 -0.39024347245E+03  0.39024347245E+03  0.00000000000E+00 0.  1.
         23    2    1    2    0    0  0.26364675072E+03 -0.47037338900E+03  0.11842058591E+03  0.55979868333E+03  0.92684391591E+02 0.  0.
    5000000    2    1    2    0    0 -0.26364675072E+03  0.47037338900E+03  0.78898820355E+03  0.11280970510E+04  0.59944961170E+03 0.  0.
         23    2    4    4    0    0 -0.38289159867E+03  0.29978804469E+03  0.27527566921E+03  0.56625718096E+03  0.91605965219E+02 0.  0.
         23    2    4    4    0    0  0.11924484795E+03  0.17058534432E+03  0.51371253433E+03  0.56183987007E+03  0.91895474385E+02 0.  0.
          1    1    3    3  502    0  0.12808678176E+03 -0.23131389395E+03  0.10713887779E+02  0.26462639435E+03  0.00000000000E+00 0. -1.
         -1    1    3    3    0  502  0.13555996896E+03 -0.23905949505E+03  0.10770669813E+03  0.29517228898E+03  0.00000000000E+00 0.  1.
         11    1    5    5    0    0 -0.16960250935E+03  0.10621391056E+03  0.15919113076E+03  0.25571120837E+03  0.00000000000E+00 0. -1.
        -11    1    5    5    0    0 -0.21328908932E+03  0.19357413413E+03  0.11608453845E+03  0.31054597259E+03  0.00000000000E+00 0.  1.
          5    1    6    6  503    0  0.11490153021E+03  0.91743747347E+02  0.30452496271E+03  0.33819642183E+03  0.47000000000E+01 0. -1.
         -5    1    6    6    0  503  0.43433177388E+01  0.78841596970E+02  0.20918757162E+03  0.22364344824E+03  0.47000000000E+01 0.  1.
<mgrwt>
<rscale>  0 0.62679475E+03</rscale>
<asrwt>0</asrwt>
<pdfrwt beam="1">  1        2 0.19963881E+00 0.62679475E+03</pdfrwt>
<pdfrwt beam="2">  1       -2 0.60037458E-01 0.62679475E+03</pdfrwt>
<totfact> 0.44317168E+01</totfact>
</mgrwt>
</event>
<event>
12    1  0.3166324E-008  0.1574683E+04  0.7818608E-02  0.8836254E-01
          1   -1    0    0  501    0  0.00000000000E+00  0.00000000000E+00  0.22305982507E+04  0.22305982507E+04  0.00000000000E+00 0. -1.
         -1   -1    0    0    0  501 -0.00000000000E+00 -0.00000000000E+00 -0.11570318701E+04  0.11570318701E+04  0.00000000000E+00 0.  1.
         23    2    1    2    0    0  0.13746590965E+04  0.70854965362E+03  0.43564202497E+03  0.16103414678E+04  0.10809914709E+03 0.  0.
    5000000    2    1    2    0    0 -0.13746590965E+04 -0.70854965362E+03  0.63792435560E+03  0.17772886530E+04  0.60006435424E+03 0.  0.
         23    2    4    4    0    0  0.26571465833E+01 -0.86975102775E+02  0.13092489192E+03  0.18061094522E+03  0.88922760181E+02 0.  0.
         23    2    4    4    0    0 -0.13773162431E+04 -0.62157455084E+03  0.50699946369E+03  0.15966777078E+04  0.94743287358E+02 0.  0.
          1    1    3    3  502    0  0.92874777233E+03  0.50181783907E+03  0.34466459458E+03  0.11104896447E+04  0.00000000000E+00 0. -1.
         -1    1    3    3    0  502  0.44591132419E+03  0.20673181455E+03  0.90977430383E+02  0.49985182307E+03  0.00000000000E+00 0.  1.
         11    1    5    5    0    0  0.82917578850E+01 -0.39487426810E+02  0.12627496379E+03  0.13256461295E+03  0.00000000000E+00 0. -1.
        -11    1    5    5    0    0 -0.56346113016E+01 -0.47487675966E+02  0.46499281244E+01  0.48046332271E+02  0.00000000000E+00 0.  1.
          5    1    6    6  503    0 -0.90286217888E+03 -0.35788548904E+03  0.32483377501E+03  0.10241001947E+04  0.47000000000E+01 0. -1.
         -5    1    6    6    0  503 -0.47445406422E+03 -0.26368906181E+03  0.18216568867E+03  0.57257751310E+03  0.47000000000E+01 0.  1.
<mgrwt>
<rscale>  0 0.15746825E+04</rscale>
<asrwt>0</asrwt>
<pdfrwt beam="1">  1        1 0.34316896E+00 0.15746825E+04</pdfrwt>
<pdfrwt beam="2">  1       -1 0.17800490E+00 0.15746825E+04</pdfrwt>
<totfact> 0.41946055E-01</totfact>
</mgrwt>
</event>
<event>
12    1  0.3166324E-008  0.9546009E+03  0.7818608E-02  0.9359789E-01
          2   -1    0    0  501    0  0.00000000000E+00  0.00000000000E+00  0.15047120693E+04  0.15047120693E+04  0.00000000000E+00 0. -1.
         -2   -1    0    0    0  501 -0.00000000000E+00 -0.00000000000E+00 -0.78567636257E+03  0.78567636257E+03  0.00000000000E+00 0.  1.
         23    2    1    2    0    0  0.92472439483E+03 -0.20551223566E+03 -0.12299424930E+02  0.95166904544E+03  0.90400280954E+02 0.  0.
    5000000    2    1    2    0    0 -0.92472439483E+03  0.20551223566E+03  0.73133513168E+03  0.13387193864E+04  0.59997336226E+03 0.  0.
         23    2    4    4    0    0 -0.61685115658E+03  0.15378229071E+03  0.13017085221E+03  0.65533806757E+03  0.91483275703E+02 0.  0.
         23    2    4    4    0    0 -0.30787323825E+03  0.51729944948E+02  0.60116427947E+03  0.68338131887E+03  0.90275234935E+02 0.  0.
          1    1    3    3  502    0  0.78643545959E+03 -0.15792525584E+03 -0.38652582176E+02  0.80306608734E+03  0.00000000000E+00 0. -1.
         -1    1    3    3    0  502  0.13828893524E+03 -0.47586979823E+02  0.26353157246E+02  0.14860295810E+03  0.00000000000E+00 0.  1.
         11    1    5    5    0    0 -0.23669405885E+03  0.21178373084E+02  0.73514576449E+02  0.24875086720E+03  0.00000000000E+00 0.  1.
        -11    1    5    5    0    0 -0.38015709773E+03  0.13260391763E+03  0.56656275760E+02  0.40658720038E+03  0.00000000000E+00 0. -1.
          5    1    6    6  503    0 -0.54269239612E+02  0.38236082417E+02  0.83678808350E+02  0.10691763808E+03  0.47000000000E+01 0. -1.
         -5    1    6    6    0  503 -0.25360399863E+03  0.13493862531E+02  0.51748547112E+03  0.57646368079E+03  0.47000000000E+01 0.  1.
<mgrwt>
<rscale>  0 0.95460087E+03</rscale>
<asrwt>0</asrwt>
<pdfrwt beam="1">  1        2 0.23149416E+00 0.95460087E+03</pdfrwt>
<pdfrwt beam="2">  1       -2 0.12087329E+00 0.95460087E+03</pdfrwt>
<totfact> 0.65725007E+00</totfact>
</mgrwt>
</event>
<event>
12    1  0.3166324E-008  0.8336689E+03  0.7818608E-02  0.9512522E-01
          2   -1    0    0  501    0  0.00000000000E+00  0.00000000000E+00  0.74046944762E+03  0.74046944762E+03  0.00000000000E+00 0. -1.
         -2   -1    0    0    0  501 -0.00000000000E+00 -0.00000000000E+00 -0.13431362338E+04  0.13431362338E+04  0.00000000000E+00 0.  1.
         23    2    1    2    0    0  0.74658254345E+03 -0.93806979629E+02  0.24973486428E+03  0.79797303265E+03  0.90599198591E+02 0.  0.
    5000000    2    1    2    0    0 -0.74658254345E+03  0.93806979629E+02 -0.85240165051E+03  0.12856326488E+04  0.60006457175E+03 0.  0.
         23    2    4    4    0    0 -0.78196977016E+03  0.11450397930E+02 -0.56081248728E+03  0.96697979951E+03  0.94506368633E+02 0.  0.
         23    2    4    4    0    0  0.35387226706E+02  0.82356581700E+02 -0.29158916323E+03  0.31865284930E+03  0.92089825126E+02 0.  0.
          4    1    3    3  502    0  0.56618566683E+03 -0.32042712048E+02  0.19299767507E+03  0.59903342754E+03  0.00000000000E+00 0. -1.
         -4    1    3    3    0  502  0.18039687662E+03 -0.61764267581E+02  0.56737189216E+02  0.19893960512E+03  0.00000000000E+00 0.  1.
         11    1    5    5    0    0 -0.72466049755E+03  0.18052810375E+02 -0.54574330293E+03  0.90735577001E+03  0.00000000000E+00 0.  1.
        -11    1    5    5    0    0 -0.57309272608E+02 -0.66024124454E+01 -0.15069184352E+02  0.59624029501E+02  0.00000000000E+00 0. -1.
          5    1    6    6  503    0  0.49249157621E+02  0.95351450475E+02 -0.26209645622E+03  0.28325610496E+03  0.47000000000E+01 0. -1.
         -5    1    6    6    0  503 -0.13861930916E+02 -0.12994868775E+02 -0.29492707007E+02  0.35396744339E+02  0.47000000000E+01 0.  1.
<mgrwt>
<rscale>  0 0.83366890E+03</rscale>
<asrwt>0</asrwt>
<pdfrwt beam="1">  1        2 0.11391838E+00 0.83366890E+03</pdfrwt>
<pdfrwt beam="2">  1       -2 0.20663634E+00 0.83366890E+03</pdfrwt>
<totfact> 0.46434924E+00</totfact>
</mgrwt>
</event>
<event>
12    1  0.3166324E-008  0.5509769E+03  0.7818608E-02  0.1001268E+00
          2   -1    0    0  501    0  0.00000000000E+00  0.00000000000E+00  0.72428438364E+03  0.72428438364E+03  0.00000000000E+00 0. -1.
         -2   -1    0    0    0  501 -0.00000000000E+00 -0.00000000000E+00 -0.13740801919E+04  0.13740801919E+04  0.00000000000E+00 0.  1.
         23    2    1    2    0    0  0.41937755115E+03 -0.34678756487E+03 -0.10567213584E+04  0.11918726770E+04  0.88098259440E+02 0.  0.
    5000000    2    1    2    0    0 -0.41937755115E+03  0.34678756487E+03  0.40692555014E+03  0.90649189855E+03  0.60000001102E+03 0.  0.
         23    2    4    4    0    0 -0.15138297762E+03  0.11989571923E+03 -0.13612405583E+03  0.25299940838E+03  0.90482886023E+02 0.  0.
         23    2    4    4    0    0 -0.26799457353E+03  0.22689184565E+03  0.54304960596E+03  0.65349249017E+03  0.94066780057E+02 0.  0.
          3    1    3    3  502    0  0.27850961821E+03 -0.23654285803E+03 -0.61585575189E+03  0.71609946115E+03  0.00000000000E+00 0. -1.
         -3    1    3    3    0  502  0.14086793294E+03 -0.11024470684E+03 -0.44086560647E+03  0.47577321581E+03  0.00000000000E+00 0.  1.
         13    1    5    5    0    0  0.54345952241E+01  0.17130776407E+02 -0.36500990303E+02  0.40685631599E+02  0.00000000000E+00 0.  1.
        -13    1    5    5    0    0 -0.15681757285E+03  0.10276494282E+03 -0.99623065523E+02  0.21231377678E+03  0.00000000000E+00 0. -1.
          5    1    6    6  503    0 -0.73384713957E+02  0.77421106233E+02  0.24595638652E+03  0.26813425369E+03  0.47000000000E+01 0. -1.
         -5    1    6    6    0  503 -0.19460985957E+03  0.14947073941E+03  0.29709321945E+03  0.38535823648E+03  0.47000000000E+01 0.  1.
<mgrwt>
<rscale>  0 0.55097688E+03</rscale>
<asrwt>0</asrwt>
<pdfrwt beam="1">  1        2 0.11142837E+00 0.55097688E+03</pdfrwt>
<pdfrwt beam="2">  1       -2 0.21139695E+00 0.55097688E+03</pdfrwt>
<totfact> 0.46439445E+00</totfact>
</mgrwt>
</event>
<event>
12    1  0.3166324E-008  0.1224858E+04  0.7818608E-02  0.9091372E-01
          2   -1    0    0  501    0  0.00000000000E+00  0.00000000000E+00  0.58850916991E+03  0.58850916991E+03  0.00000000000E+00 0. -1.
         -2   -1    0    0    0  501 -0.00000000000E+00 -0.00000000000E+00 -0.27207341982E+04  0.27207341982E+04  0.00000000000E+00 0.  1.
         23    2    1    2    0    0 -0.62184375015E+03 -0.10153648461E+04 -0.10919260906E+04  0.16180955868E+04  0.90968788082E+02 0.  0.
    5000000    2    1    2    0    0  0.62184375015E+03  0.10153648461E+04 -0.10402989376E+04  0.16911477813E+04  0.60008625897E+03 0.  0.
         23    2    4    4    0    0  0.48682885163E+03  0.43966152653E+03 -0.81907605101E+03  0.10533790690E+04  0.91745828456E+02 0.  0.
         23    2    4    4    0    0  0.13501489852E+03  0.57570331955E+03 -0.22122288662E+03  0.63776871224E+03  0.90255358773E+02 0.  0.
          1    1    3    3  502    0 -0.46850429497E+03 -0.83436699197E+03 -0.87517160132E+03  0.12967613055E+04  0.00000000000E+00 0. -1.
         -1    1    3    3    0  502 -0.15333945518E+03 -0.18099785410E+03 -0.21675448932E+03  0.32133428130E+03  0.00000000000E+00 0.  1.
         13    1    5    5    0    0  0.91226176744E+02  0.44926418163E+02 -0.99426379766E+02  0.14221885728E+03  0.00000000000E+00 0. -1.
        -13    1    5    5    0    0  0.39560267489E+03  0.39473510836E+03 -0.71964967124E+03  0.91116021175E+03  0.00000000000E+00 0.  1.
          5    1    6    6  503    0  0.99332150515E+02  0.27938997240E+03 -0.14278703502E+03  0.32914413282E+03  0.47000000000E+01 0. -1.
         -5    1    6    6    0  503  0.35682748005E+02  0.29631334715E+03 -0.78435851605E+02  0.30862457942E+03  0.47000000000E+01 0.  1.
<mgrwt>
<rscale>  0 0.12248583E+04</rscale>
<asrwt>0</asrwt>
<pdfrwt beam="1">  1        2 0.90539872E-01 0.12248583E+04</pdfrwt>
<pdfrwt beam="2">  1       -2 0.41857449E+00 0.12248583E+04</pdfrwt>
<totfact> 0.28143441E-01</totfact>
</mgrwt>
</event>
<event>
12    1  0.3166324E-008  0.6194690E+03  0.7818608E-02  0.9865818E-01
          2   -1    0    0  501    0  0.00000000000E+00  0.00000000000E+00  0.33159776333E+03  0.33159776333E+03  0.00000000000E+00 0. -1.
         -2   -1    0    0    0  501 -0.00000000000E+00 -0.00000000000E+00 -0.15565172916E+04  0.15565172916E+04  0.00000000000E+00 0.  1.
         23    2    1    2    0    0  0.88164789929E+02 -0.48047946374E+03 -0.75875377393E+02  0.50285489110E+03  0.92045767699E+02 0.  0.
    5000000    2    1    2    0    0 -0.88164789929E+02  0.48047946374E+03 -0.11490441508E+04  0.13852601638E+04  0.60000809624E+03 0.  0.
         23    2    4    4    0    0 -0.32127486284E+03  0.24012473054E+03 -0.74945345080E+03  0.85613777423E+03  0.10204895807E+03 0.  0.
         23    2    4    4    0    0  0.23311007291E+03  0.24035473320E+03 -0.39959070002E+03  0.52912238955E+03  0.90482438698E+02 0.  0.
          3    1    3    3  502    0  0.79785596376E+02 -0.41834298067E+03 -0.33541002818E+02  0.42720204791E+03  0.00000000000E+00 0. -1.
         -3    1    3    3    0  502  0.83791935536E+01 -0.62136483068E+02 -0.42334374575E+02  0.75652843195E+02  0.00000000000E+00 0.  1.
         11    1    5    5    0    0 -0.32144376206E+03  0.24798324137E+03 -0.73659326359E+03  0.84106564318E+03  0.00000000000E+00 0.  1.
        -11    1    5    5    0    0  0.16889922720E+00 -0.78585108295E+01 -0.12860187213E+02  0.15072131056E+02  0.00000000000E+00 0. -1.
          5    1    6    6  503    0  0.99576261907E+02  0.80229587850E+02 -0.21707815189E+03  0.25198657252E+03  0.47000000000E+01 0. -1.
         -5    1    6    6    0  503  0.13353381100E+03  0.16012514535E+03 -0.18251254813E+03  0.27713581703E+03  0.47000000000E+01 0.  1.
<mgrwt>
<rscale>  0 0.61946898E+03</rscale>
<asrwt>0</asrwt>
<pdfrwt beam="1">  1        2 0.51015040E-01 0.61946898E+03</pdfrwt>
<pdfrwt beam="2">  1       -2 0.23946420E+00 0.61946898E+03</pdfrwt>
<totfact> 0.76354751E+00</totfact>
</mgrwt>
</event>
<event>
12    1  0.3166324E-008  0.3561582E+03  0.7818608E-02  0.1060115E+00
         -2   -1    0    0    0  501 -0.00000000000E+00  0.00000000000E+00  0.66115182693E+03  0.66115182693E+03  0.00000000000E+00 0.  1.
          2   -1    0    0  501    0  0.00000000000E+00 -0.00000000000E+00 -0.37477177579E+03  0.37477177579E+03  0.00000000000E+00 0. -1.
         23    2    1    2    0    0  0.16691723942E+03  0.10929915245E+03 -0.15156983146E+03  0.26682504653E+03  0.91730704245E+02 0.  0.
    5000000    2    1    2    0    0 -0.16691723942E+03 -0.10929915245E+03  0.43794988261E+03  0.76909855619E+03  0.59992067802E+03 0.  0.
         23    2    4    4    0    0  0.77262080850E+02  0.10698617223E+03 -0.56955992041E+02  0.16924370323E+03  0.89353096572E+02 0.  0.
         23    2    4    4    0    0 -0.24417932027E+03 -0.21628532468E+03  0.49490587465E+03  0.59985485297E+03  0.92147369726E+02 0.  0.
          3    1    3    3  502    0  0.12924772910E+03  0.12340512129E+03 -0.11533911847E+03  0.21268970752E+03  0.00000000000E+00 0. -1.
         -3    1    3    3    0  502  0.37669510326E+02 -0.14105968838E+02 -0.36230712992E+02  0.54135339003E+02  0.00000000000E+00 0.  1.
         11    1    5    5    0    0  0.13192406368E+02  0.88509299315E+02 -0.49180967182E+02  0.10211122947E+03  0.00000000000E+00 0.  1.
        -11    1    5    5    0    0  0.64069674483E+02  0.18476872912E+02 -0.77750248586E+01  0.67132473755E+02  0.00000000000E+00 0. -1.
          5    1    6    6  503    0 -0.21362663269E+03 -0.14144687390E+03  0.34881279181E+03  0.43282330120E+03  0.47000000000E+01 0. -1.
         -5    1    6    6    0  503 -0.30552687586E+02 -0.74838450773E+02  0.14609308284E+03  0.16703155177E+03  0.47000000000E+01 0.  1.
<mgrwt>
<rscale>  0 0.35615824E+03</rscale>
<asrwt>0</asrwt>
<pdfrwt beam="1">  1        2 0.57657196E-01 0.35615824E+03</pdfrwt>
<pdfrwt beam="2">  1       -2 0.10171567E+00 0.35615824E+03</pdfrwt>
<totfact> 0.70679716E+01</totfact>
</mgrwt>
</event>
<event>
12    1  0.3166324E-008  0.1854179E+04  0.7818608E-02  0.8678006E-01
         -2   -1    0    0    0  501 -0.00000000000E+00  0.00000000000E+00  0.76947016674E+03  0.76947016674E+03  0.00000000000E+00 0.  1.
          2   -1    0    0  501    0  0.00000000000E+00 -0.00000000000E+00 -0.45568826660E+04  0.45568826660E+04  0.00000000000E+00 0. -1.
         23    2    1    2    0    0 -0.17167233957E+04 -0.61211420523E+03 -0.19178759512E+04  0.26473598971E+04  0.91887119725E+02 0.  0.
    5000000    2    1    2    0    0  0.17167233957E+04  0.61211420523E+03 -0.18695365480E+04  0.26789929356E+04  0.60001102274E+03 0.  0.
         23    2    4    4    0    0  0.12235464874E+04  0.64544949474E+03 -0.11498983720E+04  0.18011269177E+04  0.90115762434E+02 0.  0.
         23    2    4    4    0    0  0.49317690823E+03 -0.33335289509E+02 -0.71963817598E+03  0.87786601790E+03  0.91841911542E+02 0.  0.
          1    1    3    3  502    0 -0.94664993216E+03 -0.33851028529E+03 -0.11239454252E+04  0.15079750085E+04  0.00000000000E+00 0. -1.
         -1    1    3    3    0  502 -0.77007346351E+03 -0.27360391994E+03 -0.79393052599E+03  0.11393848886E+04  0.00000000000E+00 0.  1.
         11    1    5    5    0    0  0.45201569535E+03  0.21617631949E+03 -0.36672338901E+03  0.62091580266E+03  0.00000000000E+00 0. -1.
        -11    1    5    5    0    0  0.77153079209E+03  0.42927317525E+03 -0.78317498300E+03  0.11802111151E+04  0.00000000000E+00 0.  1.
          5    1    6    6  503    0  0.22289937743E+03 -0.57993843193E+02 -0.30355619625E+03  0.38107200447E+03  0.47000000000E+01 0. -1.
         -5    1    6    6    0  503  0.27027753080E+03  0.24658553684E+02 -0.41608197973E+03  0.49679401343E+03  0.47000000000E+01 0.  1.
<mgrwt>
<rscale>  0 0.18541795E+04</rscale>
<asrwt>0</asrwt>
<pdfrwt beam="1">  1        2 0.70105888E+00 0.18541795E+04</pdfrwt>
<pdfrwt beam="2">  1       -2 0.11838002E+00 0.18541795E+04</pdfrwt>
<totfact> 0.55353435E-02</totfact>
</mgrwt>
</event>
<event>
12    1  0.3166324E-008  0.3917436E+03  0.7818608E-02  0.1046677E+00
          1   -1    0    0  501    0  0.00000000000E+00  0.00000000000E+00  0.23833659678E+03  0.23833659678E+03  0.00000000000E+00 0. -1.
         -1   -1    0    0    0  501 -0.00000000000E+00 -0.00000000000E+00 -0.11334579279E+04  0.11334579279E+04  0.00000000000E+00 0.  1.
         23    2    1    2    0    0 -0.14628337739E+03  0.11225448826E+03  0.72877739241E+02  0.21818929963E+03  0.91079684694E+02 0.  0.
    5000000    2    1    2    0    0  0.14628337739E+03 -0.11225448826E+03 -0.96799907039E+03  0.11536052251E+04  0.59981907139E+03 0.  0.
         23    2    4    4    0    0  0.18185208613E+03  0.18328245537E+03 -0.66446269307E+03  0.71914829070E+03  0.94873356958E+02 0.  0.
         23    2    4    4    0    0 -0.35568708743E+02 -0.29553694363E+03 -0.30353637732E+03  0.43445693438E+03  0.89505739366E+02 0.  0.
          3    1    3    3  502    0 -0.14115873423E+03  0.62540745945E+02  0.44318980365E+02  0.16062784681E+03  0.00000000000E+00 0. -1.
         -3    1    3    3    0  502 -0.51246431621E+01  0.49713742312E+02  0.28558758876E+02  0.57561452820E+02  0.00000000000E+00 0.  1.
         13    1    5    5    0    0  0.14055236181E+03  0.17784977658E+03 -0.49174174442E+03  0.54147525581E+03  0.00000000000E+00 0. -1.
        -13    1    5    5    0    0  0.41299724318E+02  0.54326787863E+01 -0.17272094864E+03  0.17767303489E+03  0.00000000000E+00 0.  1.
          5    1    6    6  503    0 -0.65557104576E+02 -0.20676738977E+03 -0.20806233867E+03  0.30060358316E+03  0.47000000000E+01 0.  1.
         -5    1    6    6    0  503  0.29988395833E+02 -0.88769553853E+02 -0.95474038649E+02  0.13385335122E+03  0.47000000000E+01 0. -1.
<mgrwt>
<rscale>  0 0.39174364E+03</rscale>
<asrwt>0</asrwt>
<pdfrwt beam="1">  1        1 0.36667169E-01 0.39174364E+03</pdfrwt>
<pdfrwt beam="2">  1       -1 0.17437814E+00 0.39174364E+03</pdfrwt>
<totfact> 0.28949333E+01</totfact>
</mgrwt>
</event>
<event>
12    1  0.3166324E-008  0.6501705E+03  0.7818608E-02  0.9806459E-01
          2   -1    0    0  501    0  0.00000000000E+00  0.00000000000E+00  0.26920801283E+04  0.26920801283E+04  0.00000000000E+00 0.  1.
         -2   -1    0    0    0  501 -0.00000000000E+00 -0.00000000000E+00 -0.17036165705E+03  0.17036165705E+03  0.00000000000E+00 0. -1.
         23    2    1    2    0    0 -0.24705051488E+03 -0.46668241690E+03  0.12581096382E+04  0.13671651964E+04  0.86454482357E+02 0.  0.
    5000000    2    1    2    0    0  0.24705051488E+03  0.46668241690E+03  0.12636088331E+04  0.14952765890E+04  0.60026524074E+03 0.  0.
         23    2    4    4    0    0  0.41638478130E+03  0.42726170035E+03  0.97607266810E+03  0.11474870616E+04  0.89888021930E+02 0.  0.
         23    2    4    4    0    0 -0.16933426642E+03  0.39420716543E+02  0.28753616502E+03  0.34778952735E+03  0.89735291079E+02 0.  0.
          4    1    3    3  502    0 -0.19720562871E+03 -0.33520359690E+03  0.10049293266E+04  0.10775594939E+04  0.00000000000E+00 0.  1.
         -4    1    3    3    0  502 -0.49844886172E+02 -0.13147882000E+03  0.25318031155E+03  0.28960570254E+03  0.00000000000E+00 0. -1.
         11    1    5    5    0    0  0.13421755685E+03  0.13617044954E+03  0.39658144525E+03  0.44026535932E+03  0.00000000000E+00 0. -1.
        -11    1    5    5    0    0  0.28216722445E+03  0.29109125081E+03  0.57949122285E+03  0.70722170230E+03  0.00000000000E+00 0.  1.
          5    1    6    6  503    0 -0.70036923517E+02  0.19213407769E+02  0.20329843307E+03  0.21593209252E+03  0.47000000000E+01 0. -1.
         -5    1    6    6    0  503 -0.99297342899E+02  0.20207308774E+02  0.84237731952E+02  0.13185743483E+03  0.47000000000E+01 0.  1.
<mgrwt>
<rscale>  0 0.65017051E+03</rscale>
<asrwt>0</asrwt>
<pdfrwt beam="1">  1        2 0.41416614E+00 0.65017051E+03</pdfrwt>
<pdfrwt beam="2">  1       -2 0.26209488E-01 0.65017051E+03</pdfrwt>
<totfact> 0.37559712E+01</totfact>
</mgrwt>
</event>
<event>
12    1  0.3166324E-008  0.1151356E+04  0.7818608E-02  0.9156533E-01
         -2   -1    0    0    0  501 -0.00000000000E+00  0.00000000000E+00  0.69014670256E+03  0.69014670256E+03  0.00000000000E+00 0.  1.
          2   -1    0    0  501    0  0.00000000000E+00 -0.00000000000E+00 -0.20732609327E+04  0.20732609327E+04  0.00000000000E+00 0. -1.
         23    2    1    2    0    0  0.98682874019E+03  0.46304233077E+03 -0.94101855426E+03  0.14429001340E+04  0.90585399348E+02 0.  0.
    5000000    2    1    2    0    0 -0.98682874019E+03 -0.46304233077E+03 -0.44209567585E+03  0.13205075013E+04  0.60004359153E+03 0.  0.
         23    2    4    4    0    0 -0.50736967668E+03  0.39667228126E+02 -0.52610740519E+02  0.51893939027E+03  0.86791260823E+02 0.  0.
         23    2    4    4    0    0 -0.47945906351E+03 -0.50270955889E+03 -0.38948493533E+03  0.80156811100E+03  0.90636789030E+02 0.  0.
          1    1    3    3  502    0  0.51655994204E+03  0.20010974540E+03 -0.44508603372E+03  0.71061920980E+03  0.00000000000E+00 0.  1.
         -1    1    3    3    0  502  0.47026879816E+03  0.26293258537E+03 -0.49593252053E+03  0.73228092416E+03  0.00000000000E+00 0. -1.
         13    1    5    5    0    0 -0.24483924497E+03 -0.44078169637E+01 -0.61869975284E+02  0.25257390714E+03  0.00000000000E+00 0. -1.
        -13    1    5    5    0    0 -0.26253043171E+03  0.44075045090E+02  0.92592347652E+01  0.26636548313E+03  0.00000000000E+00 0.  1.
          5    1    6    6  503    0 -0.45510226946E+02 -0.85047185725E+02 -0.35197615655E+02  0.10278699677E+03  0.47000000000E+01 0. -1.
         -5    1    6    6    0  503 -0.43394883657E+03 -0.41766237317E+03 -0.35428731968E+03  0.69878111423E+03  0.47000000000E+01 0.  1.
<mgrwt>
<rscale>  0 0.11513563E+04</rscale>
<asrwt>0</asrwt>
<pdfrwt beam="1">  1        2 0.31896322E+00 0.11513563E+04</pdfrwt>
<pdfrwt beam="2">  1       -2 0.10617642E+00 0.11513563E+04</pdfrwt>
<totfact> 0.42808986E+00</totfact>
</mgrwt>
</event>
<event>
12    1  0.3166324E-008  0.3451944E+03  0.7818608E-02  0.1064605E+00
          1   -1    0    0  501    0  0.00000000000E+00  0.00000000000E+00  0.50096669814E+03  0.50096669814E+03  0.00000000000E+00 0. -1.
         -1   -1    0    0    0  501 -0.00000000000E+00 -0.00000000000E+00 -0.27017180852E+03  0.27017180852E+03  0.00000000000E+00 0.  1.
         23    2    1    2    0    0  0.36524016746E+02 -0.68467831990E+02  0.90103077179E+02  0.14998347312E+03  0.91403664452E+02 0.  0.
    5000000    2    1    2    0    0 -0.36524016746E+02  0.68467831990E+02  0.14069181245E+03  0.62115503354E+03  0.60001461798E+03 0.  0.
         23    2    4    4    0    0 -0.24551868629E+03 -0.12729193329E+03  0.92561688530E+01  0.29041149286E+03  0.88150422132E+02 0.  0.
         23    2    4    4    0    0  0.20899466954E+03  0.19575976528E+03  0.13143564359E+03  0.33074354069E+03  0.10057486613E+03 0.  0.
          3    1    3    3  502    0 -0.28515821291E+02 -0.36401148675E+02  0.25180917843E+02  0.52652391324E+02  0.00000000000E+00 0. -1.
         -3    1    3    3    0  502  0.65039838037E+02 -0.32066683316E+02  0.64922159335E+02  0.97331081796E+02  0.00000000000E+00 0.  1.
         11    1    5    5    0    0 -0.23062729303E+02 -0.23576381758E+02  0.29343888579E+02  0.44145204231E+02  0.00000000000E+00 0.  1.
        -11    1    5    5    0    0 -0.22245595699E+03 -0.10371555154E+03 -0.20087719726E+02  0.24626628863E+03  0.00000000000E+00 0. -1.
          5    1    6    6  503    0  0.91054423203E+02  0.12785190062E+03  0.11269534290E+03  0.19328566110E+03  0.47000000000E+01 0. -1.
         -5    1    6    6    0  503  0.11794024634E+03  0.67907864668E+02  0.18740300697E+02  0.13745787959E+03  0.47000000000E+01 0.  1.
<mgrwt>
<rscale>  0 0.34519445E+03</rscale>
<asrwt>0</asrwt>
<pdfrwt beam="1">  1        1 0.77071799E-01 0.34519445E+03</pdfrwt>
<pdfrwt beam="2">  1       -1 0.41564894E-01 0.34519445E+03</pdfrwt>
<totfact> 0.26000842E+02</totfact>
</mgrwt>
</event>
<event>
12    1  0.3166324E-008  0.1195113E+04  0.7818608E-02  0.9117145E-01
         -2   -1    0    0    0  501 -0.00000000000E+00  0.00000000000E+00  0.83859222611E+03  0.83859222611E+03  0.00000000000E+00 0.  1.
          2   -1    0    0  501    0  0.00000000000E+00 -0.00000000000E+00 -0.18790350777E+04  0.18790350777E+04  0.00000000000E+00 0. -1.
         23    2    1    2    0    0  0.52122159006E+03 -0.99587625091E+03 -0.96909573573E+02  0.11321051606E+04  0.93963695930E+02 0.  0.
    5000000    2    1    2    0    0 -0.52122159006E+03  0.99587625091E+03 -0.94353327805E+03  0.15855221432E+04  0.60015328611E+03 0.  0.
         23    2    4    4    0    0 -0.53959470933E+03  0.43335036702E+03 -0.44288419721E+03  0.82672593410E+03  0.91511567752E+02 0.  0.
         23    2    4    4    0    0  0.18373119271E+02  0.56252588389E+03 -0.50064908084E+03  0.75879620914E+03  0.91374193833E+02 0.  0.
          3    1    3    3  502    0  0.32578612953E+03 -0.53204159171E+03 -0.74291046992E+02  0.62827065598E+03  0.00000000000E+00 0. -1.
         -3    1    3    3    0  502  0.19543546053E+03 -0.46383465920E+03 -0.22618526581E+02  0.50383450463E+03  0.00000000000E+00 0.  1.
         11    1    5    5    0    0 -0.13854116578E+03  0.16418518100E+03 -0.14678473071E+03  0.26018490626E+03  0.00000000000E+00 0. -1.
        -11    1    5    5    0    0 -0.40105354355E+03  0.26916518603E+03 -0.29609946650E+03  0.56654102784E+03  0.00000000000E+00 0.  1.
          5    1    6    6  503    0  0.36207855458E+02  0.37823029668E+03 -0.28801224524E+03  0.47680426753E+03  0.47000000000E+01 0. -1.
         -5    1    6    6    0  503 -0.17834736187E+02  0.18429558721E+03 -0.21263683560E+03  0.28199194161E+03  0.47000000000E+01 0.  1.
<mgrwt>
<rscale>  0 0.11951128E+04</rscale>
<asrwt>0</asrwt>
<pdfrwt beam="1">  1        2 0.28908232E+00 0.11951128E+04</pdfrwt>
<pdfrwt beam="2">  1       -2 0.12901419E+00 0.11951128E+04</pdfrwt>
<totfact> 0.33676254E+00</totfact>
</mgrwt>
</event>
<event>
12    1  0.3166324E-008  0.6437761E+03  0.7818608E-02  0.9818529E-01
          1   -1    0    0  501    0  0.00000000000E+00  0.00000000000E+00  0.66779036062E+03  0.66779036062E+03  0.00000000000E+00 0. -1.
         -1   -1    0    0    0  501 -0.00000000000E+00 -0.00000000000E+00 -0.84002667394E+03  0.84002667394E+03  0.00000000000E+00 0.  1.
         23    2    1    2    0    0  0.37431380598E+03  0.42191591704E+03  0.19846333198E+03  0.60477839884E+03  0.90803915997E+02 0.  0.
    5000000    2    1    2    0    0 -0.37431380598E+03 -0.42191591704E+03 -0.37069964530E+03  0.90303863572E+03  0.59994723449E+03 0.  0.
         23    2    4    4    0    0 -0.38688523678E+03 -0.11790332352E+03  0.51714270461E+00  0.41457260914E+03  0.91042850747E+02 0.  0.
         23    2    4    4    0    0  0.12571430800E+02 -0.30401259352E+03 -0.37121678800E+03  0.48846602658E+03  0.90639161190E+02 0.  0.
          1    1    3    3  502    0  0.29209533960E+03  0.31579601858E+03  0.19001734138E+03  0.47026950018E+03  0.00000000000E+00 0. -1.
         -1    1    3    3    0  502  0.82218466380E+02  0.10611989846E+03  0.84459906016E+01  0.13450889866E+03  0.00000000000E+00 0.  1.
         13    1    5    5    0    0 -0.10787063666E+03  0.85852797265E+01  0.16041693294E+01  0.10822363254E+03  0.00000000000E+00 0. -1.
        -13    1    5    5    0    0 -0.27901460012E+03 -0.12648860325E+03 -0.10870266248E+01  0.30634897659E+03  0.00000000000E+00 0.  1.
          5    1    6    6  503    0  0.25352536006E+02 -0.77888883862E+02 -0.15465793890E+03  0.17507312009E+03  0.47000000000E+01 0. -1.
         -5    1    6    6    0  503 -0.12781105206E+02 -0.22612370966E+03 -0.21655884910E+03  0.31339290650E+03  0.47000000000E+01 0.  1.
<mgrwt>
<rscale>  0 0.64377608E+03</rscale>
<asrwt>0</asrwt>
<pdfrwt beam="1">  1        1 0.10273698E+00 0.64377608E+03</pdfrwt>
<pdfrwt beam="2">  1       -1 0.12923487E+00 0.64377608E+03</pdfrwt>
<totfact> 0.15693426E+01</totfact>
</mgrwt>
</event>
<event>
12    1  0.3166324E-008  0.1321712E+04  0.7818608E-02  0.9012522E-01
         -1   -1    0    0    0  501 -0.00000000000E+00  0.00000000000E+00  0.25106590092E+04  0.25106590092E+04  0.00000000000E+00 0.  1.
          1   -1    0    0  501    0  0.00000000000E+00 -0.00000000000E+00 -0.73585777055E+03  0.73585777055E+03  0.00000000000E+00 0. -1.
         23    2    1    2    0    0 -0.59880629261E+03 -0.11432486503E+04  0.89682623911E+03  0.15742400178E+04  0.91366723278E+02 0.  0.
    5000000    2    1    2    0    0  0.59880629261E+03  0.11432486503E+04  0.87797499950E+03  0.16722767619E+04  0.60006917611E+03 0.  0.
         23    2    4    4    0    0  0.16744690299E+03  0.72930307268E+03  0.23481694970E+03  0.78934169285E+03  0.89441998285E+02 0.  0.
         23    2    4    4    0    0  0.43135938961E+03  0.41394557761E+03  0.64315804980E+03  0.88293506903E+03  0.92196501399E+02 0.  0.
          2    1    3    3  502    0 -0.16902140853E+03 -0.37794265905E+03  0.24648795477E+03  0.48183524355E+03  0.00000000000E+00 0. -1.
         -2    1    3    3    0  502 -0.42978488407E+03 -0.76530599124E+03  0.65033828434E+03  0.10924047743E+04  0.00000000000E+00 0.  1.
         11    1    5    5    0    0  0.88712964481E+02  0.20609964907E+03  0.63247698890E+02  0.23312513126E+03  0.00000000000E+00 0. -1.
        -11    1    5    5    0    0  0.78733938513E+02  0.52320342362E+03  0.17156925081E+03  0.55621656159E+03  0.00000000000E+00 0.  1.
          5    1    6    6  503    0  0.23186637999E+03  0.23515701820E+03  0.28913021868E+03  0.43895240600E+03  0.47000000000E+01 0. -1.
         -5    1    6    6    0  503  0.19949300962E+03  0.17878855941E+03  0.35402783112E+03  0.44398266303E+03  0.47000000000E+01 0.  1.
<mgrwt>
<rscale>  0 0.13217123E+04</rscale>
<asrwt>0</asrwt>
<pdfrwt beam="1">  1        1 0.11320889E+00 0.13217123E+04</pdfrwt>
<pdfrwt beam="2">  1       -1 0.38625523E+00 0.13217123E+04</pdfrwt>
<totfact> 0.21899410E-01</totfact>
</mgrwt>
</event>
<event>
12    1  0.3166324E-008  0.1209320E+04  0.7818608E-02  0.9104738E-01
         -2   -1    0    0    0  501 -0.00000000000E+00  0.00000000000E+00  0.55771162975E+03  0.55771162975E+03  0.00000000000E+00 0. -1.
          2   -1    0    0  501    0  0.00000000000E+00 -0.00000000000E+00 -0.29163729461E+04  0.29163729461E+04  0.00000000000E+00 0.  1.
         23    2    1    2    0    0  0.43665801012E+03  0.11147594304E+04 -0.95756393769E+03  0.15358942222E+04  0.93185629837E+02 0.  0.
    5000000    2    1    2    0    0 -0.43665801012E+03 -0.11147594304E+04 -0.14010973787E+04  0.19381903537E+04  0.60012430128E+03 0.  0.
         23    2    4    4    0    0 -0.39031209604E+03 -0.10562540439E+04 -0.14276011202E+04  0.18206204154E+04  0.92723247918E+02 0.  0.
         23    2    4    4    0    0 -0.46345914084E+02 -0.58505386501E+02  0.26503741552E+02  0.11756993831E+03  0.86887387325E+02 0.  0.
          2    1    3    3  502    0  0.18033259962E+03  0.51069587021E+03 -0.48768618846E+03  0.72881268975E+03  0.00000000000E+00 0.  1.
         -2    1    3    3    0  502  0.25632541050E+03  0.60406356020E+03 -0.46987774923E+03  0.80708153247E+03  0.00000000000E+00 0. -1.
         13    1    5    5    0    0 -0.32281671586E+03 -0.93790234399E+03 -0.12206996561E+04  0.15728887720E+04  0.00000000000E+00 0.  1.
        -13    1    5    5    0    0 -0.67495380177E+02 -0.11835169991E+03 -0.20690146419E+03  0.24773164332E+03  0.00000000000E+00 0. -1.
          5    1    6    6  503    0  0.32466662756E+01  0.78577869931E+01 -0.20153593353E+02  0.22372817958E+02  0.47000000000E+01 0. -1.
         -5    1    6    6    0  503 -0.49592580360E+02 -0.66363173495E+02  0.46657334906E+02  0.95197120353E+02  0.47000000000E+01 0.  1.
<mgrwt>
<rscale>  0 0.12093198E+04</rscale>
<asrwt>0</asrwt>
<pdfrwt beam="1">  1        2 0.44867276E+00 0.12093198E+04</pdfrwt>
<pdfrwt beam="2">  1       -2 0.85801789E-01 0.12093198E+04</pdfrwt>
<totfact> 0.22920085E+00</totfact>
</mgrwt>
</event>
<event>
12    1  0.3166324E-008  0.7710286E+03  0.7818608E-02  0.9602925E-01
          2   -1    0    0  501    0  0.00000000000E+00  0.00000000000E+00  0.15260508475E+04  0.15260508475E+04  0.00000000000E+00 0.  1.
         -2   -1    0    0    0  501 -0.00000000000E+00 -0.00000000000E+00 -0.60506673747E+03  0.60506673747E+03  0.00000000000E+00 0. -1.
         23    2    1    2    0    0  0.65789175066E+03  0.19654615979E+03  0.99952672203E+03  0.12161515875E+04  0.92298793486E+02 0.  0.
    5000000    2    1    2    0    0 -0.65789175066E+03 -0.19654615979E+03 -0.78542611965E+02  0.91496599748E+03  0.59961811691E+03 0.  0.
         23    2    4    4    0    0 -0.67432457312E+03 -0.42038162281E+02 -0.18509718644E+03  0.70624631503E+03  0.89677489163E+02 0.  0.
         23    2    4    4    0    0  0.16432822452E+02 -0.15450799751E+03  0.10655457448E+03  0.20871968246E+03  0.89817980127E+02 0.  0.
          3    1    3    3  502    0  0.27936894998E+03  0.80364387295E+02  0.50441212814E+03  0.58218299526E+03  0.00000000000E+00 0. -1.
         -3    1    3    3    0  502  0.37852280069E+03  0.11618177250E+03  0.49511459389E+03  0.63396859227E+03  0.00000000000E+00 0.  1.
         11    1    5    5    0    0 -0.41043916977E+03 -0.69018580620E+02 -0.11883152157E+03  0.43283346344E+03  0.00000000000E+00 0.  1.
        -11    1    5    5    0    0 -0.26388540335E+03  0.26980418339E+02 -0.66265664871E+02  0.27341285159E+03  0.00000000000E+00 0. -1.
          5    1    6    6  503    0 -0.12300835995E+02 -0.14140424362E+03  0.10524807264E+03  0.17676458207E+03  0.47000000000E+01 0. -1.
         -5    1    6    6    0  503  0.28733658446E+02 -0.13103753892E+02  0.13065018389E+01  0.31955100388E+02  0.47000000000E+01 0.  1.
<mgrwt>
<rscale>  0 0.77102856E+03</rscale>
<asrwt>0</asrwt>
<pdfrwt beam="1">  1        2 0.23477705E+00 0.77102856E+03</pdfrwt>
<pdfrwt beam="2">  1       -2 0.93087191E-01 0.77102856E+03</pdfrwt>
<totfact> 0.12258613E+01</totfact>
</mgrwt>
</event>
<event>
12    1  0.3166324E-008  0.1593856E+04  0.7818608E-02  0.8824331E-01
          1   -1    0    0  501    0  0.00000000000E+00  0.00000000000E+00  0.22743267868E+04  0.22743267868E+04  0.00000000000E+00 0. -1.
         -1   -1    0    0    0  501 -0.00000000000E+00 -0.00000000000E+00 -0.11672052310E+04  0.11672052310E+04  0.00000000000E+00 0.  1.
         23    2    1    2    0    0 -0.15394792485E+04 -0.38377883218E+02  0.19779004908E+03  0.15551342285E+04  0.88613467649E+02 0.  0.
    5000000    2    1    2    0    0  0.15394792485E+04  0.38377883218E+02  0.90933150673E+03  0.18863977893E+04  0.60011966458E+03 0.  0.
         23    2    4    4    0    0  0.10963420595E+04  0.28770543648E+03  0.60663678274E+03  0.12887134919E+04  0.89632295993E+02 0.  0.
         23    2    4    4    0    0  0.44313718900E+03 -0.24932755327E+03  0.30269472399E+03  0.59768429736E+03  0.84069175643E+02 0.  0.
          3    1    3    3  502    0 -0.10095035196E+04 -0.63071854486E+02  0.14819347616E+03  0.10222703758E+04  0.00000000000E+00 0. -1.
         -3    1    3    3    0  502 -0.52997572891E+03  0.24693971268E+02  0.49596572920E+02  0.53286385269E+03  0.00000000000E+00 0.  1.
         13    1    5    5    0    0  0.71099120547E+03  0.14414873783E+03  0.40189033347E+03  0.82933900970E+03  0.00000000000E+00 0.  1.
        -13    1    5    5    0    0  0.38535085399E+03  0.14355669866E+03  0.20474644927E+03  0.45937448220E+03  0.00000000000E+00 0. -1.
          5    1    6    6  503    0  0.13035005347E+03 -0.84590562615E+02  0.13708577649E+03  0.20727107815E+03  0.47000000000E+01 0. -1.
         -5    1    6    6    0  503  0.31278713553E+03 -0.16473699065E+03  0.16560894749E+03  0.39041321921E+03  0.47000000000E+01 0.  1.
<mgrwt>
<rscale>  0 0.15938564E+04</rscale>
<asrwt>0</asrwt>
<pdfrwt beam="1">  1        1 0.34989643E+00 0.15938564E+04</pdfrwt>
<pdfrwt beam="2">  1       -1 0.17957004E+00 0.15938564E+04</pdfrwt>
<totfact> 0.38064158E-01</totfact>
</mgrwt>
</event>
<event>
12    1  0.3166324E-008  0.1021576E+04  0.7818608E-02  0.9285192E-01
         -2   -1    0    0    0  501 -0.00000000000E+00  0.00000000000E+00  0.75581674786E+03  0.75581674786E+03  0.00000000000E+00 0. -1.
          2   -1    0    0  501    0  0.00000000000E+00 -0.00000000000E+00 -0.26002299346E+04  0.26002299346E+04  0.00000000000E+00 0.  1.
         23    2    1    2    0    0  0.18015353710E+03  0.97860601270E+03 -0.19481892534E+04  0.21894928842E+04  0.91173996769E+02 0.  0.
    5000000    2    1    2    0    0 -0.18015353710E+03 -0.97860601270E+03  0.10377606667E+03  0.11665537983E+04  0.59996105479E+03 0.  0.
         23    2    4    4    0    0 -0.13262923553E+03 -0.10843011889E+03  0.20746934546E+03  0.28395966519E+03  0.90785226504E+02 0.  0.
         23    2    4    4    0    0 -0.47524301570E+02 -0.87017589381E+03 -0.10369327878E+03  0.88259413310E+03  0.93570627366E+02 0.  0.
          1    1    3    3  502    0  0.10402714654E+03  0.55695469097E+03 -0.12070579265E+04  0.13334200437E+04  0.00000000000E+00 0.  1.
         -1    1    3    3    0  502  0.76126390554E+02  0.42165132174E+03 -0.74113132691E+03  0.85607284047E+03  0.00000000000E+00 0. -1.
         11    1    5    5    0    0 -0.57539642212E+02 -0.68651148787E+02  0.44169332248E+02  0.99873522852E+02  0.00000000000E+00 0. -1.
        -11    1    5    5    0    0 -0.75089593316E+02 -0.39778970104E+02  0.16330001321E+03  0.18408614234E+03  0.00000000000E+00 0.  1.
          5    1    6    6  503    0 -0.27000303323E+02 -0.12060109135E+03  0.10319780210E+02  0.12410571090E+03  0.47000000000E+01 0. -1.
         -5    1    6    6    0  503 -0.20523998247E+02 -0.74957480246E+03 -0.11401305899E+03  0.75848842220E+03  0.47000000000E+01 0.  1.
<mgrwt>
<rscale>  0 0.10215760E+04</rscale>
<asrwt>0</asrwt>
<pdfrwt beam="1">  1        2 0.40003537E+00 0.10215760E+04</pdfrwt>
<pdfrwt beam="2">  1       -2 0.11627950E+00 0.10215760E+04</pdfrwt>
<totfact> 0.17566479E+00</totfact>
</mgrwt>
</event>
<event>
12    1  0.3166324E-008  0.6123307E+03  0.7818608E-02  0.9880149E-01
         -1   -1    0    0    0  501 -0.00000000000E+00  0.00000000000E+00  0.23509189768E+04  0.23509189768E+04  0.00000000000E+00 0.  1.
          1   -1    0    0  501    0  0.00000000000E+00 -0.00000000000E+00 -0.19288861016E+03  0.19288861016E+03  0.00000000000E+00 0. -1.
         23    2    1    2    0    0 -0.44929167316E+03  0.17978041449E+03  0.44090959627E+03  0.66114851932E+03  0.92369299629E+02 0.  0.
    5000000    2    1    2    0    0  0.44929167316E+03 -0.17978041449E+03  0.17171207704E+04  0.18826590676E+04  0.60142948042E+03 0.  0.
         23    2    4    4    0    0  0.56545533214E+03 -0.20713876807E+03  0.14968988852E+04  0.16161396817E+04  0.92493223163E+02 0.  0.
         23    2    4    4    0    0 -0.11616365897E+03  0.27358353576E+02  0.22022188520E+03  0.26651938598E+03  0.91062776188E+02 0.  0.
          2    1    3    3  502    0 -0.32157312495E+03  0.17138160585E+03  0.31645875460E+03  0.48262518881E+03  0.00000000000E+00 0. -1.
         -2    1    3    3    0  502 -0.12771854822E+03  0.83988086389E+01  0.12445084167E+03  0.17852333051E+03  0.00000000000E+00 0.  1.
         11    1    5    5    0    0  0.39058503112E+03 -0.99729779378E+02  0.10332584043E+04  0.11091102855E+04  0.00000000000E+00 0. -1.
        -11    1    5    5    0    0  0.17487030101E+03 -0.10740898869E+03  0.46364048086E+03  0.50702939611E+03  0.00000000000E+00 0.  1.
          5    1    6    6  503    0 -0.66023720570E+02  0.31700577888E+02  0.49629200778E+02  0.88595744177E+02  0.47000000000E+01 0. -1.
         -5    1    6    6    0  503 -0.50139938402E+02 -0.43422243118E+01  0.17059268443E+03  0.17792364181E+03  0.47000000000E+01 0.  1.
<mgrwt>
<rscale>  0 0.61233069E+03</rscale>
<asrwt>0</asrwt>
<pdfrwt beam="1">  1        1 0.29675172E-01 0.61233069E+03</pdfrwt>
<pdfrwt beam="2">  1       -1 0.36167982E+00 0.61233069E+03</pdfrwt>
<totfact> 0.21966451E+00</totfact>
</mgrwt>
</event>
<event>
12    1  0.3166324E-008  0.5461787E+03  0.7818608E-02  0.1002382E+00
          2   -1    0    0  501    0  0.00000000000E+00  0.00000000000E+00  0.44147914884E+03  0.44147914884E+03  0.00000000000E+00 0.  1.
         -2   -1    0    0    0  501 -0.00000000000E+00 -0.00000000000E+00 -0.69357732844E+03  0.69357732844E+03  0.00000000000E+00 0. -1.
         23    2    1    2    0    0  0.12491300343E+03 -0.36159401441E+03 -0.12212016127E+03  0.41174095129E+03  0.90905376609E+02 0.  0.
    5000000    2    1    2    0    0 -0.12491300343E+03  0.36159401441E+03 -0.12997801833E+03  0.72331552600E+03  0.59994797709E+03 0.  0.
         23    2    4    4    0    0  0.22738029628E+03  0.18995250604E+03 -0.59165406729E+02  0.31530567963E+03  0.90185212543E+02 0.  0.
         23    2    4    4    0    0 -0.35229329971E+03  0.17164150837E+03 -0.70812611604E+02  0.40800984637E+03  0.88804461358E+02 0.  0.
          1    1    3    3  502    0 -0.59516363580E+01 -0.47705190499E+02 -0.38355052235E+02  0.61500546402E+02  0.00000000000E+00 0. -1.
         -1    1    3    3    0  502  0.13086463978E+03 -0.31388882391E+03 -0.83765109033E+02  0.35024040489E+03  0.00000000000E+00 0.  1.
         11    1    5    5    0    0  0.11759351906E+03  0.48101258912E+02 -0.47193283724E+02  0.13553292170E+03  0.00000000000E+00 0. -1.
        -11    1    5    5    0    0  0.10978677722E+03  0.14185124713E+03 -0.11972123006E+02  0.17977275793E+03  0.00000000000E+00 0.  1.
          5    1    6    6  503    0 -0.14613077348E+02  0.25587710380E+02 -0.21499104715E+02  0.36777363358E+02  0.47000000000E+01 0. -1.
         -5    1    6    6    0  503 -0.33768022236E+03  0.14605379799E+03 -0.49313506889E+02  0.37123248301E+03  0.47000000000E+01 0.  1.
<mgrwt>
<rscale>  0 0.54617867E+03</rscale>
<asrwt>0</asrwt>
<pdfrwt beam="1">  1        2 0.67919869E-01 0.54617867E+03</pdfrwt>
<pdfrwt beam="2">  1       -2 0.10670420E+00 0.54617867E+03</pdfrwt>
<totfact> 0.51615860E+01</totfact>
</mgrwt>
</event>
<event>
12    1  0.3166324E-008  0.7848273E+03  0.7818608E-02  0.9582242E-01
         -1   -1    0    0    0  501 -0.00000000000E+00  0.00000000000E+00  0.58337933857E+03  0.58337933857E+03  0.00000000000E+00 0.  1.
          1   -1    0    0  501    0  0.00000000000E+00 -0.00000000000E+00 -0.13695934598E+04  0.13695934598E+04  0.00000000000E+00 0. -1.
         23    2    1    2    0    0  0.43887534902E+03 -0.63881143741E+03 -0.18499144097E+03  0.80309128904E+03  0.10021058202E+03 0.  0.
    5000000    2    1    2    0    0 -0.43887534902E+03  0.63881143741E+03 -0.60122268023E+03  0.11498815093E+04  0.60005595545E+03 0.  0.
         23    2    4    4    0    0 -0.79820831082E+02  0.11468583153E+03 -0.46533098380E+03  0.49381522376E+03  0.88296917877E+02 0.  0.
         23    2    4    4    0    0 -0.35905451793E+03  0.52412560588E+03 -0.13589169643E+03  0.65606628554E+03  0.91261274777E+02 0.  0.
          2    1    3    3  502    0  0.13911509479E+03 -0.24957790343E+03 -0.26880836409E+02  0.28699254145E+03  0.00000000000E+00 0. -1.
         -2    1    3    3    0  502  0.29976025422E+03 -0.38923353399E+03 -0.15811060456E+03  0.51609874759E+03  0.00000000000E+00 0.  1.
         11    1    5    5    0    0 -0.22592785514E+02 -0.48106501025E+01 -0.25248575877E+02  0.34220854687E+02  0.00000000000E+00 0.  1.
        -11    1    5    5    0    0 -0.57228045568E+02  0.11949648163E+03 -0.44008240792E+03  0.45959436908E+03  0.00000000000E+00 0. -1.
          5    1    6    6  503    0 -0.33579075748E+03  0.50547627761E+03 -0.11097690812E+03  0.61692760043E+03  0.47000000000E+01 0. -1.
         -5    1    6    6    0  503 -0.23263760456E+02  0.18649328269E+02 -0.24914788314E+02  0.39138685110E+02  0.47000000000E+01 0.  1.
<mgrwt>
<rscale>  0 0.78482726E+03</rscale>
<asrwt>0</asrwt>
<pdfrwt beam="1">  1        1 0.21070668E+00 0.78482726E+03</pdfrwt>
<pdfrwt beam="2">  1       -1 0.89750668E-01 0.78482726E+03</pdfrwt>
<totfact> 0.10118863E+01</totfact>
</mgrwt>
</event>
<event>
12    1  0.3166324E-008  0.6519920E+03  0.7818608E-02  0.9803049E-01
         -2   -1    0    0    0  501 -0.00000000000E+00  0.00000000000E+00  0.35551486546E+03  0.35551486546E+03  0.00000000000E+00 0. -1.
          2   -1    0    0  501    0  0.00000000000E+00 -0.00000000000E+00 -0.15534552295E+04  0.15534552295E+04  0.00000000000E+00 0.  1.
         23    2    1    2    0    0  0.15482786898E+03  0.56072095938E+03 -0.77197251168E+03  0.97090781465E+03  0.91327774826E+02 0.  0.
    5000000    2    1    2    0    0 -0.15482786898E+03 -0.56072095938E+03 -0.42596785231E+03  0.93806228026E+03  0.60011046246E+03 0.  0.
         23    2    4    4    0    0  0.13970035593E+03 -0.20722648002E+03 -0.38143687259E+03  0.46504471093E+03  0.91178352286E+02 0.  0.
         23    2    4    4    0    0 -0.29452822491E+03 -0.35349447936E+03 -0.44530979724E+02  0.47301756933E+03  0.10028654215E+03 0.  0.
          2    1    3    3  502    0  0.33739852843E+02  0.25368852359E+03 -0.29022348149E+03  0.38694432917E+03  0.00000000000E+00 0. -1.
         -2    1    3    3    0  502  0.12108801614E+03  0.30703243579E+03 -0.48174903019E+03  0.58396348547E+03  0.00000000000E+00 0.  1.
         11    1    5    5    0    0  0.24754794785E+02 -0.84331590088E+02 -0.75417479057E+02  0.11581197304E+03  0.00000000000E+00 0. -1.
        -11    1    5    5    0    0  0.11494556115E+03 -0.12289488993E+03 -0.30601939353E+03  0.34923273789E+03  0.00000000000E+00 0.  1.
          5    1    6    6  503    0 -0.80264185754E+02 -0.12457038908E+03  0.28642978039E+02  0.15100540236E+03  0.47000000000E+01 0. -1.
         -5    1    6    6    0  503 -0.21426403916E+03 -0.22892409028E+03 -0.73173957763E+02  0.32201216698E+03  0.47000000000E+01 0.  1.
<mgrwt>
<rscale>  0 0.65199195E+03</rscale>
<asrwt>0</asrwt>
<pdfrwt beam="1">  1        2 0.23899311E+00 0.65199195E+03</pdfrwt>
<pdfrwt beam="2">  1       -2 0.54694595E-01 0.65199195E+03</pdfrwt>
<totfact> 0.38574697E+01</totfact>
</mgrwt>
</event>
<event>
12    1  0.3166324E-008  0.6055849E+03  0.7818608E-02  0.9893886E-01
          1   -1    0    0  501    0  0.00000000000E+00  0.00000000000E+00  0.45762452297E+03  0.45762452297E+03  0.00000000000E+00 0. -1.
         -1   -1    0    0    0  501 -0.00000000000E+00 -0.00000000000E+00 -0.16045834568E+04  0.16045834568E+04  0.00000000000E+00 0.  1.
         23    2    1    2    0    0  0.67253573342E+01  0.48208350683E+03 -0.11943206921E+04  0.12911150395E+04  0.90146500450E+02 0.  0.
    5000000    2    1    2    0    0 -0.67253573342E+01 -0.48208350683E+03  0.47361758249E+02  0.77109294034E+03  0.59990953360E+03 0.  0.
         23    2    4    4    0    0  0.90582708132E+02 -0.56884456979E+03 -0.48344378836E+02  0.58492935936E+03  0.89531027478E+02 0.  0.
         23    2    4    4    0    0 -0.97308065466E+02  0.86761062963E+02  0.95706137085E+02  0.18616358098E+03  0.92200176548E+02 0.  0.
          4    1    3    3  502    0 -0.38749620806E+02  0.14378824585E+03 -0.34483826913E+03  0.37561952108E+03  0.00000000000E+00 0. -1.
         -4    1    3    3    0  502  0.45474978141E+02  0.33829526098E+03 -0.84948242296E+03  0.91549551837E+03  0.00000000000E+00 0.  1.
         13    1    5    5    0    0 -0.23448973209E+00 -0.23198051527E+03  0.47028142637E+01  0.23202829766E+03  0.00000000000E+00 0. -1.
        -13    1    5    5    0    0  0.90817197864E+02 -0.33686405452E+03 -0.53047193099E+02  0.35290106170E+03  0.00000000000E+00 0.  1.
          5    1    6    6  503    0 -0.92950325227E+02  0.55995490695E+02  0.28992171966E+02  0.11241838806E+03  0.47000000000E+01 0. -1.
         -5    1    6    6    0  503 -0.43577402382E+01  0.30765572269E+02  0.66713965119E+02  0.73745192921E+02  0.47000000000E+01 0.  1.
<mgrwt>
<rscale>  0 0.60558489E+03</rscale>
<asrwt>0</asrwt>
<pdfrwt beam="1">  1        1 0.70403774E-01 0.60558489E+03</pdfrwt>
<pdfrwt beam="2">  1       -1 0.24685899E+00 0.60558489E+03</pdfrwt>
<totfact> 0.39024083E+00</totfact>
</mgrwt>
</event>
<event>
12    1  0.3166324E-008  0.7941289E+03  0.7818608E-02  0.9568554E-01
          1   -1    0    0  501    0  0.00000000000E+00  0.00000000000E+00  0.27034202968E+04  0.27034202968E+04  0.00000000000E+00 0. -1.
         -1   -1    0    0    0  501 -0.00000000000E+00 -0.00000000000E+00 -0.18217881734E+04  0.18217881734E+04  0.00000000000E+00 0.  1.
         23    2    1    2    0    0  0.57088263640E+03  0.51703247859E+03 -0.16427470791E+04  0.18187221392E+04  0.12610584956E+03 0.  0.
    5000000    2    1    2    0    0 -0.57088263640E+03 -0.51703247859E+03  0.25243792026E+04  0.27064863309E+04  0.59945669799E+03 0.  0.
         23    2    4    4    0    0 -0.44143061490E+03 -0.24538951413E+03  0.77821017527E+03  0.93222197285E+03  0.91376848001E+02 0.  0.
         23    2    4    4    0    0 -0.12945202150E+03 -0.27164296446E+03  0.17461690273E+04  0.17742643581E+04  0.91433114963E+02 0.  0.
          2    1    3    3  502    0  0.35968302523E+03  0.39913716585E+03 -0.11803203437E+04  0.12968571508E+04  0.00000000000E+00 0. -1.
         -2    1    3    3    0  502  0.21119961117E+03  0.11789531274E+03 -0.46242673543E+03  0.52186498845E+03  0.00000000000E+00 0.  1.
         13    1    5    5    0    0 -0.27430774882E+03 -0.13745356204E+03  0.54722790781E+03  0.62737278063E+03  0.00000000000E+00 0. -1.
        -13    1    5    5    0    0 -0.16712286607E+03 -0.10793595209E+03  0.23098226746E+03  0.30484919222E+03  0.00000000000E+00 0.  1.
          5    1    6    6  503    0 -0.33950100565E+02 -0.11307809744E+03  0.92267292972E+03  0.93020787499E+03  0.47000000000E+01 0. -1.
         -5    1    6    6    0  503 -0.95501920938E+02 -0.15856486703E+03  0.82349609756E+03  0.84405648309E+03  0.47000000000E+01 0.  1.
<mgrwt>
<rscale>  0 0.79412894E+03</rscale>
<asrwt>0</asrwt>
<pdfrwt beam="1">  1        1 0.41591082E+00 0.79412894E+03</pdfrwt>
<pdfrwt beam="2">  1       -1 0.28027510E+00 0.79412894E+03</pdfrwt>
<totfact> 0.46980305E-02</totfact>
</mgrwt>
</event>
<event>
12    1  0.3166324E-008  0.5580668E+03  0.7818608E-02  0.9996438E-01
         -2   -1    0    0    0  501 -0.00000000000E+00  0.00000000000E+00  0.61544607119E+03  0.61544607119E+03  0.00000000000E+00 0.  1.
          2   -1    0    0  501    0  0.00000000000E+00 -0.00000000000E+00 -0.14821213012E+04  0.14821213012E+04  0.00000000000E+00 0. -1.
         23    2    1    2    0    0  0.20859151920E+03 -0.35768655439E+03  0.43334311422E+03  0.60692728233E+03  0.95521611790E+02 0.  0.
    5000000    2    1    2    0    0 -0.20859151920E+03  0.35768655439E+03 -0.13000183442E+04  0.14906400901E+04  0.60042492428E+03 0.  0.
         23    2    4    4    0    0 -0.25675908657E+02 -0.14019334950E+03 -0.15771181222E+03  0.22802024451E+03  0.82503264566E+02 0.  0.
         23    2    4    4    0    0 -0.18291561054E+03  0.49787990389E+03 -0.11423065320E+04  0.12626198455E+04  0.89454692708E+02 0.  0.
          2    1    3    3  502    0  0.18452162599E+03 -0.24029687034E+03  0.28214294249E+03  0.41399934342E+03  0.00000000000E+00 0.  1.
         -2    1    3    3    0  502  0.24069893204E+02 -0.11738968405E+03  0.15120017173E+03  0.19292793891E+03  0.00000000000E+00 0. -1.
         11    1    5    5    0    0  0.20214848246E+02 -0.22649639180E+02 -0.64027975171E+02  0.70860622697E+02  0.00000000000E+00 0.  1.
        -11    1    5    5    0    0 -0.45890756903E+02 -0.11754371032E+03 -0.93683837054E+02  0.15715962182E+03  0.00000000000E+00 0. -1.
          5    1    6    6  503    0 -0.19095119285E+03  0.46753514100E+03 -0.10533296513E+04  0.11681510649E+04  0.47000000000E+01 0. -1.
         -5    1    6    6    0  503  0.80355823099E+01  0.30344762891E+02 -0.88976880724E+02  0.94468780670E+02  0.47000000000E+01 0.  1.
<mgrwt>
<rscale>  0 0.55806679E+03</rscale>
<asrwt>0</asrwt>
<pdfrwt beam="1">  1        2 0.22801866E+00 0.55806679E+03</pdfrwt>
<pdfrwt beam="2">  1       -2 0.94684012E-01 0.55806679E+03</pdfrwt>
<totfact> 0.12868693E+01</totfact>
</mgrwt>
</event>
<event>
12    1  0.3166324E-008  0.3604606E+03  0.7818608E-02  0.1058402E+00
          1   -1    0    0  501    0  0.00000000000E+00  0.00000000000E+00  0.25133823361E+04  0.25133823361E+04  0.00000000000E+00 0. -1.
         -1   -1    0    0    0  501 -0.00000000000E+00 -0.00000000000E+00 -0.61404621315E+02  0.61404621315E+02  0.00000000000E+00 0.  1.
         23    2    1    2    0    0 -0.68092352201E+02 -0.55860364520E+02  0.15791188839E+03  0.20190998847E+03  0.89858389701E+02 0.  0.
    5000000    2    1    2    0    0  0.68092352201E+02  0.55860364520E+02  0.22940658264E+04  0.23728769689E+04  0.60004178614E+03 0.  0.
         23    2    4    4    0    0  0.20555688696E+03  0.25737469627E+03  0.11823592394E+04  0.12309480309E+04  0.93617924539E+02 0.  0.
         23    2    4    4    0    0 -0.13746453476E+03 -0.20151433175E+03  0.11117065870E+04  0.11419289380E+04  0.92766587015E+02 0.  0.
          1    1    3    3  502    0 -0.68667293566E+02  0.44175511927E+00  0.98316258597E+02  0.11992280458E+03  0.00000000000E+00 0. -1.
         -1    1    3    3    0  502  0.57494136471E+00 -0.56302119639E+02  0.59595629790E+02  0.81987183898E+02  0.00000000000E+00 0.  1.
         13    1    5    5    0    0  0.13727479698E+03  0.22060751533E+03  0.81208131182E+03  0.85263597315E+03  0.00000000000E+00 0. -1.
        -13    1    5    5    0    0  0.68282089984E+02  0.36767180944E+02  0.37027792756E+03  0.37831205776E+03  0.00000000000E+00 0.  1.
          5    1    6    6  503    0 -0.55333271027E+02 -0.19558216144E+02  0.32395136313E+03  0.32925806046E+03  0.47000000000E+01 0. -1.
         -5    1    6    6    0  503 -0.82131263733E+02 -0.18195611561E+03  0.78775522384E+03  0.81267087753E+03  0.47000000000E+01 0.  1.
<mgrwt>
<rscale>  0 0.36046061E+03</rscale>
<asrwt>0</asrwt>
<pdfrwt beam="1">  1        1 0.38667413E+00 0.36046061E+03</pdfrwt>
<pdfrwt beam="2">  1       -1 0.94468668E-02 0.36046061E+03</pdfrwt>
<totfact> 0.10128844E+02</totfact>
</mgrwt>
</event>
<event>
12    1  0.3166324E-008  0.6127106E+03  0.7818608E-02  0.9879381E-01
          1   -1    0    0  501    0  0.00000000000E+00  0.00000000000E+00  0.19794031706E+04  0.19794031706E+04  0.00000000000E+00 0. -1.
         -1   -1    0    0    0  501 -0.00000000000E+00 -0.00000000000E+00 -0.22464762350E+03  0.22464762350E+03  0.00000000000E+00 0.  1.
         23    2    1    2    0    0 -0.15362942696E+03  0.50385376059E+03  0.74808761163E+03  0.91912010003E+03  0.87613188101E+02 0.  0.
    5000000    2    1    2    0    0  0.15362942696E+03 -0.50385376059E+03  0.10066679355E+04  0.12849306941E+04  0.60016326392E+03 0.  0.
         23    2    4    4    0    0  0.27754123523E+03 -0.17219932112E+03  0.18645123963E+03  0.38683395743E+03  0.90524595673E+02 0.  0.
         23    2    4    4    0    0 -0.12391180827E+03 -0.33165443947E+03  0.82021669584E+03  0.89809673663E+03  0.92051706964E+02 0.  0.
          3    1    3    3  502    0 -0.95836431832E+02  0.25255214166E+03  0.45124728673E+03  0.52591949927E+03  0.00000000000E+00 0. -1.
         -3    1    3    3    0  502 -0.57792995124E+02  0.25130161892E+03  0.29684032489E+03  0.39320060076E+03  0.00000000000E+00 0.  1.
         13    1    5    5    0    0  0.68693557660E+02 -0.73805233050E+01  0.16166792050E+02  0.70955212306E+02  0.00000000000E+00 0.  1.
        -13    1    5    5    0    0  0.20884767757E+03 -0.16481879781E+03  0.17028444758E+03  0.31587874513E+03  0.00000000000E+00 0. -1.
          5    1    6    6  503    0 -0.73244106927E+02 -0.28126605793E+03  0.70311544439E+03  0.76083422156E+03  0.47000000000E+01 0.  1.
         -5    1    6    6    0  503 -0.50667701343E+02 -0.50388381539E+02  0.11710125145E+03  0.13726251507E+03  0.47000000000E+01 0. -1.
<mgrwt>
<rscale>  0 0.61271061E+03</rscale>
<asrwt>0</asrwt>
<pdfrwt beam="1">  1        1 0.30452355E+00 0.61271061E+03</pdfrwt>
<pdfrwt beam="2">  1       -1 0.34561174E-01 0.61271061E+03</pdfrwt>
<totfact> 0.25893692E+01</totfact>
</mgrwt>
</event>
<event>
12    1  0.3166324E-008  0.4292090E+03  0.7818608E-02  0.1034110E+00
         -1   -1    0    0    0  501 -0.00000000000E+00  0.00000000000E+00  0.19779197318E+03  0.19779197318E+03  0.00000000000E+00 0.  1.
          1   -1    0    0  501    0  0.00000000000E+00 -0.00000000000E+00 -0.12654959569E+04  0.12654959569E+04  0.00000000000E+00 0. -1.
         23    2    1    2    0    0  0.21140780434E+03  0.10682494871E+03 -0.64236380887E+03  0.69079089325E+03  0.91956325785E+02 0.  0.
    5000000    2    1    2    0    0 -0.21140780434E+03 -0.10682494871E+03 -0.42534017487E+03  0.77249703684E+03  0.59977710707E+03 0.  0.
         23    2    4    4    0    0  0.17230053700E+03  0.70284805292E+02 -0.96922358238E+02  0.22908918297E+03  0.91980874769E+02 0.  0.
         23    2    4    4    0    0 -0.38370834134E+03 -0.17710975401E+03 -0.32841781663E+03  0.54340785387E+03  0.93988707792E+02 0.  0.
          4    1    3    3  502    0  0.11156748344E+03  0.60744835874E+02 -0.46557595254E+03  0.48259528182E+03  0.00000000000E+00 0. -1.
         -4    1    3    3    0  502  0.99840320894E+02  0.46080112840E+02 -0.17678785633E+03  0.20819561143E+03  0.00000000000E+00 0.  1.
         11    1    5    5    0    0  0.16048074715E+03  0.74882290479E+02 -0.11188500190E+03  0.20947477481E+03  0.00000000000E+00 0.  1.
        -11    1    5    5    0    0  0.11819789851E+02 -0.45974851864E+01  0.14962643661E+02  0.19614408161E+02  0.00000000000E+00 0. -1.
          5    1    6    6  503    0 -0.24831989760E+03 -0.67453007192E+02 -0.17508666180E+03  0.31127176047E+03  0.47000000000E+01 0. -1.
         -5    1    6    6    0  503 -0.13538844373E+03 -0.10965674681E+03 -0.15333115483E+03  0.23213609340E+03  0.47000000000E+01 0.  1.
<mgrwt>
<rscale>  0 0.42920901E+03</rscale>
<asrwt>0</asrwt>
<pdfrwt beam="1">  1        1 0.19469169E+00 0.42920901E+03</pdfrwt>
<pdfrwt beam="2">  1       -1 0.30429534E-01 0.42920901E+03</pdfrwt>
<totfact> 0.10090636E+02</totfact>
</mgrwt>
</event>
<event>
12    1  0.3166324E-008  0.6986006E+03  0.7818608E-02  0.9719628E-01
         -1   -1    0    0    0  501 -0.00000000000E+00  0.00000000000E+00  0.17491597881E+04  0.17491597881E+04  0.00000000000E+00 0.  1.
          1   -1    0    0  501    0  0.00000000000E+00 -0.00000000000E+00 -0.78786821320E+03  0.78786821320E+03  0.00000000000E+00 0. -1.
         23    2    1    2    0    0 -0.59640291689E+03 -0.29480730510E+02  0.14419562715E+04  0.15636461077E+04  0.95842101337E+02 0.  0.
    5000000    2    1    2    0    0  0.59640291689E+03  0.29480730510E+02 -0.48066469663E+03  0.97338189360E+03  0.59989016283E+03 0.  0.
         23    2    4    4    0    0 -0.55254008989E+02  0.12325073797E+03 -0.19222638621E+02  0.16435422665E+03  0.91646342332E+02 0.  0.
         23    2    4    4    0    0  0.65165692588E+03 -0.93770007458E+02 -0.46144205801E+03  0.80902766695E+03  0.90263113441E+02 0.  0.
          2    1    3    3  502    0 -0.44031937169E+03 -0.57442604007E+02  0.11182326799E+04  0.12031729420E+04  0.00000000000E+00 0. -1.
         -2    1    3    3    0  502 -0.15608354520E+03  0.27961873496E+02  0.32372359160E+03  0.36047316573E+03  0.00000000000E+00 0.  1.
         11    1    5    5    0    0 -0.34368519814E+02  0.57752961072E+02 -0.55011214926E+02  0.86849487243E+02  0.00000000000E+00 0. -1.
        -11    1    5    5    0    0 -0.20885489175E+02  0.65497776896E+02  0.35788576305E+02  0.77504739406E+02  0.00000000000E+00 0.  1.
          5    1    6    6  503    0  0.22564674064E+03 -0.24944188154E+02 -0.21151878014E+03  0.31032394113E+03  0.47000000000E+01 0. -1.
         -5    1    6    6    0  503  0.42601018524E+03 -0.68825819304E+02 -0.24992327786E+03  0.49870372582E+03  0.47000000000E+01 0.  1.
<mgrwt>
<rscale>  0 0.69860061E+03</rscale>
<asrwt>0</asrwt>
<pdfrwt beam="1">  1        1 0.12121049E+00 0.69860061E+03</pdfrwt>
<pdfrwt beam="2">  1       -1 0.26910150E+00 0.69860061E+03</pdfrwt>
<totfact> 0.12602974E+00</totfact>
</mgrwt>
</event>
<event>
12    1  0.3166324E-008  0.5276577E+03  0.7818608E-02  0.1006802E+00
         -1   -1    0    0    0  501 -0.00000000000E+00  0.00000000000E+00  0.57183066277E+03  0.57183066277E+03  0.00000000000E+00 0.  1.
          1   -1    0    0  501    0  0.00000000000E+00 -0.00000000000E+00 -0.74739043546E+03  0.74739043546E+03  0.00000000000E+00 0. -1.
         23    2    1    2    0    0 -0.27477696036E+03  0.41322558266E+03 -0.19348736663E+03  0.54041606251E+03  0.91402404081E+02 0.  0.
    5000000    2    1    2    0    0  0.27477696036E+03 -0.41322558266E+03  0.17927593933E+02  0.77880503572E+03  0.59996510310E+03 0.  0.
         23    2    4    4    0    0  0.33777033062E+02 -0.42077476267E+02 -0.23558932712E+03  0.26049101465E+03  0.97169108726E+02 0.  0.
         23    2    4    4    0    0  0.24099992729E+03 -0.37114810639E+03  0.25351692106E+03  0.51831402107E+03  0.92448436124E+02 0.  0.
          1    1    3    3  502    0 -0.14146650543E+03  0.19882110369E+03 -0.14338578557E+03  0.28302312085E+03  0.00000000000E+00 0. -1.
         -1    1    3    3    0  502 -0.13331045493E+03  0.21440447897E+03 -0.50101581057E+02  0.25739294167E+03  0.00000000000E+00 0.  1.
         11    1    5    5    0    0  0.23092853059E+02 -0.72329494756E+02 -0.13472330019E+03  0.15464541147E+03  0.00000000000E+00 0.  1.
        -11    1    5    5    0    0  0.10684180004E+02  0.30252018489E+02 -0.10086602693E+03  0.10584560319E+03  0.00000000000E+00 0. -1.
          5    1    6    6  503    0  0.84112889631E+02 -0.63662935405E+02  0.43358242249E+02  0.11414891466E+03  0.47000000000E+01 0. -1.
         -5    1    6    6    0  503  0.15688703766E+03 -0.30748517099E+03  0.21015867881E+03  0.40416510641E+03  0.47000000000E+01 0.  1.
<mgrwt>
<rscale>  0 0.52765767E+03</rscale>
<asrwt>0</asrwt>
<pdfrwt beam="1">  1        1 0.11498314E+00 0.52765767E+03</pdfrwt>
<pdfrwt beam="2">  1       -1 0.87973948E-01 0.52765767E+03</pdfrwt>
<totfact> 0.32934888E+01</totfact>
</mgrwt>
</event>
<event>
12    1  0.3166324E-008  0.5232914E+03  0.7818608E-02  0.1007872E+00
         -2   -1    0    0    0  501 -0.00000000000E+00  0.00000000000E+00  0.44648182552E+03  0.44648182552E+03  0.00000000000E+00 0.  1.
          2   -1    0    0  501    0  0.00000000000E+00 -0.00000000000E+00 -0.70076804176E+03  0.70076804176E+03  0.00000000000E+00 0. -1.
         23    2    1    2    0    0  0.32680670706E+03 -0.18657289196E+03 -0.20323412261E+03  0.43715796830E+03  0.90503662132E+02 0.  0.
    5000000    2    1    2    0    0 -0.32680670706E+03  0.18657289196E+03 -0.51052093631E+02  0.71009189898E+03  0.60001010069E+03 0.  0.
         23    2    4    4    0    0 -0.39533677611E+03  0.30739671413E+03  0.55647639814E+02  0.51211443803E+03  0.91545788622E+02 0.  0.
         23    2    4    4    0    0  0.68530069049E+02 -0.12082382217E+03 -0.10669973344E+03  0.19797746095E+03  0.92279334421E+02 0.  0.
          1    1    3    3  502    0  0.15202995773E+03 -0.38996167238E+02 -0.10071607606E+03  0.18648736441E+03  0.00000000000E+00 0. -1.
         -1    1    3    3    0  502  0.17477674933E+03 -0.14757672472E+03 -0.10251804655E+03  0.25067060389E+03  0.00000000000E+00 0.  1.
         11    1    5    5    0    0 -0.19000939492E+03  0.90791397037E+02  0.19956894175E+02  0.21152996374E+03  0.00000000000E+00 0.  1.
        -11    1    5    5    0    0 -0.20532738120E+03  0.21660531709E+03  0.35690745639E+02  0.30058447429E+03  0.00000000000E+00 0. -1.
          5    1    6    6  503    0  0.33741885024E+02 -0.98771181396E+01  0.60080909864E+01  0.35975817225E+02  0.47000000000E+01 0. -1.
         -5    1    6    6    0  503  0.34788184025E+02 -0.11094670403E+03 -0.11270782443E+03  0.16200164373E+03  0.47000000000E+01 0.  1.
<mgrwt>
<rscale>  0 0.52329143E+03</rscale>
<asrwt>0</asrwt>
<pdfrwt beam="1">  1        2 0.10781047E+00 0.52329143E+03</pdfrwt>
<pdfrwt beam="2">  1       -2 0.68689511E-01 0.52329143E+03</pdfrwt>
<totfact> 0.81670555E+01</totfact>
</mgrwt>
</event>
<event>
12    1  0.3166324E-008  0.4054783E+03  0.7818608E-02  0.1041899E+00
          2   -1    0    0  501    0  0.00000000000E+00  0.00000000000E+00  0.26340569990E+04  0.26340569990E+04  0.00000000000E+00 0. -1.
         -2   -1    0    0    0  501 -0.00000000000E+00 -0.00000000000E+00 -0.12770668364E+03  0.12770668364E+03  0.00000000000E+00 0.  1.
         23    2    1    2    0    0  0.19881724505E+03  0.30741010812E+03  0.14085918000E+04  0.14582712599E+04  0.91623888391E+02 0.  0.
    5000000    2    1    2    0    0 -0.19881724505E+03 -0.30741010812E+03  0.10977585154E+04  0.13034924227E+04  0.59999122209E+03 0.  0.
         23    2    4    4    0    0 -0.62475801481E+02 -0.17354914826E+02  0.91701866184E+03  0.92430647842E+03  0.95993859371E+02 0.  0.
         23    2    4    4    0    0 -0.13634144357E+03 -0.29005519329E+03  0.18073985353E+03  0.37918594433E+03  0.91619219226E+02 0.  0.
          1    1    3    3  502    0  0.17425737329E+03  0.22470016861E+03  0.95037307345E+03  0.99200039146E+03  0.00000000000E+00 0. -1.
         -1    1    3    3    0  502  0.24559871754E+02  0.82709939514E+02  0.45821872658E+03  0.46627086847E+03  0.00000000000E+00 0.  1.
         13    1    5    5    0    0 -0.78145356341E+02 -0.40047240433E+02  0.73094624711E+03  0.73620166690E+03  0.00000000000E+00 0.  1.
        -13    1    5    5    0    0  0.15669554861E+02  0.22692325607E+02  0.18607241473E+03  0.18810481152E+03  0.00000000000E+00 0. -1.
          5    1    6    6  503    0 -0.49848398292E+02 -0.54725367373E+02  0.78306546505E+01  0.74586445140E+02  0.47000000000E+01 0. -1.
         -5    1    6    6    0  503 -0.86493045273E+02 -0.23532982592E+03  0.17290919887E+03  0.30459949919E+03  0.47000000000E+01 0.  1.
<mgrwt>
<rscale>  0 0.40547827E+03</rscale>
<asrwt>0</asrwt>
<pdfrwt beam="1">  1        2 0.40523950E+00 0.40547827E+03</pdfrwt>
<pdfrwt beam="2">  1       -2 0.19647184E-01 0.40547827E+03</pdfrwt>
<totfact> 0.70897634E+01</totfact>
</mgrwt>
</event>
<event>
12    1  0.3166324E-008  0.2003559E+04  0.7818608E-02  0.8604959E-01
         -1   -1    0    0    0  501 -0.00000000000E+00  0.00000000000E+00  0.12878699021E+04  0.12878699021E+04  0.00000000000E+00 0.  1.
          1   -1    0    0  501    0  0.00000000000E+00 -0.00000000000E+00 -0.36672001140E+04  0.36672001140E+04  0.00000000000E+00 0. -1.
         23    2    1    2    0    0 -0.63519418576E+03 -0.18649474265E+04 -0.20926675312E+04  0.28756353971E+04  0.92309175633E+02 0.  0.
    5000000    2    1    2    0    0  0.63519418576E+03  0.18649474265E+04 -0.28666268065E+03  0.20794346190E+04  0.60031015719E+03 0.  0.
         23    2    4    4    0    0  0.39522264936E+03  0.48329942290E+03  0.54300061059E+02  0.63347051301E+03  0.92504699763E+02 0.  0.
         23    2    4    4    0    0  0.23997153640E+03  0.13816480036E+04 -0.34096274171E+03  0.14459641059E+04  0.89549206245E+02 0.  0.
          1    1    3    3  502    0 -0.39128743389E+03 -0.12808802980E+04 -0.14113993930E+04  0.19457154058E+04  0.00000000000E+00 0. -1.
         -1    1    3    3    0  502 -0.24390675187E+03 -0.58406712845E+03 -0.68126813818E+03  0.92991999131E+03  0.00000000000E+00 0.  1.
         13    1    5    5    0    0  0.26753161081E+03  0.38942367932E+03  0.33953583871E+02  0.47368429429E+03  0.00000000000E+00 0. -1.
        -13    1    5    5    0    0  0.12769103855E+03  0.93875743574E+02  0.20346477188E+02  0.15978621872E+03  0.00000000000E+00 0.  1.
          5    1    6    6  503    0  0.22950831169E+03  0.11916551670E+04 -0.27331198751E+03  0.12439604635E+04  0.47000000000E+01 0. -1.
         -5    1    6    6    0  503  0.10463224703E+02  0.18999283658E+03 -0.67650754195E+02  0.20200364246E+03  0.47000000000E+01 0.  1.
<mgrwt>
<rscale>  0 0.20035585E+04</rscale>
<asrwt>0</asrwt>
<pdfrwt beam="1">  1        1 0.56418463E+00 0.20035585E+04</pdfrwt>
<pdfrwt beam="2">  1       -1 0.19813383E+00 0.20035585E+04</pdfrwt>
<totfact> 0.25457669E-02</totfact>
</mgrwt>
</event>
<event>
12    1  0.3166324E-008  0.5578816E+03  0.7818608E-02  0.9996859E-01
         -1   -1    0    0    0  501 -0.00000000000E+00  0.00000000000E+00  0.16033123769E+04  0.16033123769E+04  0.00000000000E+00 0.  1.
          1   -1    0    0  501    0  0.00000000000E+00 -0.00000000000E+00 -0.24143404468E+03  0.24143404468E+03  0.00000000000E+00 0. -1.
         23    2    1    2    0    0  0.11960995253E+02  0.41581821878E+03  0.85695724352E+03  0.95707603572E+03  0.92579503365E+02 0.  0.
    5000000    2    1    2    0    0 -0.11960995253E+02 -0.41581821878E+03  0.50492108873E+03  0.88767038590E+03  0.59997129237E+03 0.  0.
         23    2    4    4    0    0  0.25936216954E+03 -0.27589983154E+03  0.38879290729E+03  0.54912823903E+03  0.83620847354E+02 0.  0.
         23    2    4    4    0    0 -0.27132316479E+03 -0.13991838725E+03  0.11612818144E+03  0.33854214686E+03  0.89059619560E+02 0.  0.
          2    1    3    3  502    0  0.36733584373E+02  0.33465137350E+03  0.73571966144E+03  0.80908857255E+03  0.00000000000E+00 0. -1.
         -2    1    3    3    0  502 -0.24772589121E+02  0.81166845286E+02  0.12123758208E+03  0.14798746316E+03  0.00000000000E+00 0.  1.
         13    1    5    5    0    0  0.13030444149E+03 -0.93758530616E+02  0.20226115238E+03  0.25822370785E+03  0.00000000000E+00 0.  1.
        -13    1    5    5    0    0  0.12905772805E+03 -0.18214130092E+03  0.18653175492E+03  0.29090453118E+03  0.00000000000E+00 0. -1.
          5    1    6    6  503    0 -0.96755888875E+01 -0.19811175665E+02 -0.94108912875E+01  0.24428560670E+02  0.47000000000E+01 0. -1.
         -5    1    6    6    0  503 -0.26164757590E+03 -0.12010721158E+03  0.12553907273E+03  0.31411358619E+03  0.47000000000E+01 0.  1.
<mgrwt>
<rscale>  0 0.55788161E+03</rscale>
<asrwt>0</asrwt>
<pdfrwt beam="1">  1        1 0.37143700E-01 0.55788161E+03</pdfrwt>
<pdfrwt beam="2">  1       -1 0.24666344E+00 0.55788161E+03</pdfrwt>
<totfact> 0.90771440E+00</totfact>
</mgrwt>
</event>
<event>
12    1  0.3166324E-008  0.6071796E+03  0.7818608E-02  0.9890622E-01
         -1   -1    0    0    0  501 -0.00000000000E+00  0.00000000000E+00  0.29633362651E+03  0.29633362651E+03  0.00000000000E+00 0.  1.
          1   -1    0    0  501    0  0.00000000000E+00 -0.00000000000E+00 -0.19945384932E+04  0.19945384932E+04  0.00000000000E+00 0. -1.
         23    2    1    2    0    0  0.52921905292E+03  0.26215867240E+03 -0.11204333931E+04  0.12697555352E+04  0.90045295282E+02 0.  0.
    5000000    2    1    2    0    0 -0.52921905292E+03 -0.26215867240E+03 -0.57777147354E+03  0.10211165845E+04  0.60004935466E+03 0.  0.
         23    2    4    4    0    0 -0.14601837027E+03 -0.57755695297E+01 -0.51938568601E+03  0.54726016621E+03  0.91528558553E+02 0.  0.
         23    2    4    4    0    0 -0.38320068265E+03 -0.25638310288E+03 -0.58385787531E+02  0.47385641830E+03  0.92498358643E+02 0.  0.
          1    1    3    3  502    0  0.93099469696E+02  0.83242447933E+02 -0.26780952407E+03  0.29549747474E+03  0.00000000000E+00 0. -1.
         -1    1    3    3    0  502  0.43611958322E+03  0.17891622447E+03 -0.85262386906E+03  0.97425806044E+03  0.00000000000E+00 0.  1.
         11    1    5    5    0    0 -0.22957080255E+02  0.20378097078E+02 -0.22547101809E+03  0.22755103686E+03  0.00000000000E+00 0. -1.
        -11    1    5    5    0    0 -0.12306129001E+03 -0.26153666608E+02 -0.29391466792E+03  0.31970912936E+03  0.00000000000E+00 0.  1.
          5    1    6    6  503    0 -0.29963779835E+03 -0.19101504439E+03 -0.59636727162E+01  0.35542539692E+03  0.47000000000E+01 0. -1.
         -5    1    6    6    0  503 -0.83562884302E+02 -0.65368058488E+02 -0.52422114815E+02  0.11843102138E+03  0.47000000000E+01 0.  1.
<mgrwt>
<rscale>  0 0.60717961E+03</rscale>
<asrwt>0</asrwt>
<pdfrwt beam="1">  1        1 0.30685207E+00 0.60717961E+03</pdfrwt>
<pdfrwt beam="2">  1       -1 0.45589790E-01 0.60717961E+03</pdfrwt>
<totfact> 0.15338061E+01</totfact>
</mgrwt>
</event>
<event>
12    1  0.3166324E-008  0.6779720E+03  0.7818608E-02  0.9755663E-01
          1   -1    0    0  501    0  0.00000000000E+00  0.00000000000E+00  0.26691472368E+04  0.26691472368E+04  0.00000000000E+00 0. -1.
         -1   -1    0    0    0  501 -0.00000000000E+00 -0.00000000000E+00 -0.18206772121E+03  0.18206772121E+03  0.00000000000E+00 0.  1.
         23    2    1    2    0    0 -0.50464808704E+03 -0.22618908009E+03  0.79407708331E+03  0.97184147975E+03  0.89923611047E+02 0.  0.
    5000000    2    1    2    0    0  0.50464808704E+03  0.22618908009E+03  0.16930024323E+04  0.18793734783E+04  0.59996353504E+03 0.  0.
         23    2    4    4    0    0  0.36889522636E+03 -0.14608840567E+03  0.91800093890E+03  0.10041399330E+04  0.90253924403E+02 0.  0.
         23    2    4    4    0    0  0.13575286068E+03  0.37227748576E+03  0.77500149343E+03  0.87523354533E+03  0.91580994059E+02 0.  0.
          3    1    3    3  502    0 -0.21766055760E+03 -0.68075516780E+02  0.26611758823E+03  0.35046963504E+03  0.00000000000E+00 0. -1.
         -3    1    3    3    0  502 -0.28698752944E+03 -0.15811356331E+03  0.52795949507E+03  0.62137184471E+03  0.00000000000E+00 0.  1.
         13    1    5    5    0    0  0.21196980852E+03 -0.85722378013E+02  0.63560938541E+03  0.67548413500E+03  0.00000000000E+00 0.  1.
        -13    1    5    5    0    0  0.15692541784E+03 -0.60366027653E+02  0.28239155349E+03  0.32865579797E+03  0.00000000000E+00 0. -1.
          5    1    6    6  503    0  0.12257038137E+02  0.13748861976E+03  0.31978437292E+03  0.34833531362E+03  0.47000000000E+01 0. -1.
         -5    1    6    6    0  503  0.12349582255E+03  0.23478886600E+03  0.45521712051E+03  0.52689823172E+03  0.47000000000E+01 0.  1.
<mgrwt>
<rscale>  0 0.67797203E+03</rscale>
<asrwt>0</asrwt>
<pdfrwt beam="1">  1        1 0.41063801E+00 0.67797203E+03</pdfrwt>
<pdfrwt beam="2">  1       -1 0.28010420E-01 0.67797203E+03</pdfrwt>
<totfact> 0.12668018E+01</totfact>
</mgrwt>
</event>
<event>
12    1  0.3166324E-008  0.7255744E+03  0.7818608E-02  0.9674469E-01
         -2   -1    0    0    0  501 -0.00000000000E+00  0.00000000000E+00  0.57769660694E+03  0.57769660694E+03  0.00000000000E+00 0.  1.
          2   -1    0    0  501    0  0.00000000000E+00 -0.00000000000E+00 -0.14992816306E+04  0.14992816306E+04  0.00000000000E+00 0. -1.
         23    2    1    2    0    0 -0.69156743383E+03  0.51313013810E+02 -0.92529396718E+03  0.11598625992E+04  0.90629919962E+02 0.  0.
    5000000    2    1    2    0    0  0.69156743383E+03 -0.51313013810E+02  0.37089435243E+01  0.91711563834E+03  0.60015731014E+03 0.  0.
         23    2    4    4    0    0  0.38195647267E+03 -0.16522106184E+03  0.25121296091E+03  0.49448707326E+03  0.90668448762E+02 0.  0.
         23    2    4    4    0    0  0.30961096116E+03  0.11390804803E+03 -0.24750401739E+03  0.42262856508E+03  0.92318333640E+02 0.  0.
          3    1    3    3  502    0 -0.15253524647E+03 -0.21169254594E+02 -0.17391913818E+03  0.23229938739E+03  0.00000000000E+00 0. -1.
         -3    1    3    3    0  502 -0.53903218736E+03  0.72482268404E+02 -0.75137482900E+03  0.92756321181E+03  0.00000000000E+00 0.  1.
         11    1    5    5    0    0  0.29207130304E+02 -0.22430958195E+02  0.55365953208E+02  0.66495060875E+02  0.00000000000E+00 0.  1.
        -11    1    5    5    0    0  0.35274934237E+03 -0.14279010364E+03  0.19584700771E+03  0.42799201239E+03  0.00000000000E+00 0. -1.
          5    1    6    6  503    0  0.28318154783E+03  0.83386894251E+02 -0.18612980729E+03  0.34901512621E+03  0.47000000000E+01 0. -1.
         -5    1    6    6    0  503  0.26429413325E+02  0.30521153775E+02 -0.61374210101E+02  0.73613438868E+02  0.47000000000E+01 0.  1.
<mgrwt>
<rscale>  0 0.72557439E+03</rscale>
<asrwt>0</asrwt>
<pdfrwt beam="1">  1        2 0.23065871E+00 0.72557439E+03</pdfrwt>
<pdfrwt beam="2">  1       -2 0.88876402E-01 0.72557439E+03</pdfrwt>
<totfact> 0.14203754E+01</totfact>
</mgrwt>
</event>
<event>
12    1  0.3166324E-008  0.6859137E+03  0.7818608E-02  0.9741630E-01
          1   -1    0    0  501    0  0.00000000000E+00  0.00000000000E+00  0.25300403793E+04  0.25300403793E+04  0.00000000000E+00 0. -1.
         -1   -1    0    0    0  501 -0.00000000000E+00 -0.00000000000E+00 -0.23480909058E+03  0.23480909058E+03  0.00000000000E+00 0.  1.
         23    2    1    2    0    0  0.39044937478E+03  0.51690006169E+03  0.86815587112E+03  0.10867442361E+04  0.87647190514E+02 0.  0.
    5000000    2    1    2    0    0 -0.39044937478E+03 -0.51690006169E+03  0.14270754176E+04  0.16781052338E+04  0.59988043826E+03 0.  0.
         23    2    4    4    0    0 -0.40518962167E+03 -0.44863035777E+03  0.14383481460E+04  0.15629671773E+04  0.92591471126E+02 0.  0.
         23    2    4    4    0    0  0.14740246889E+02 -0.68269703914E+02 -0.11272728451E+02  0.11513805655E+03  0.90838704909E+02 0.  0.
          4    1    3    3  502    0  0.33210064055E+03  0.40130419295E+03  0.64893717749E+03  0.83213902147E+03  0.00000000000E+00 0.  1.
         -4    1    3    3    0  502  0.58348734230E+02  0.11559586873E+03  0.21921869364E+03  0.25460521459E+03  0.00000000000E+00 0. -1.
         13    1    5    5    0    0 -0.14545891509E+03 -0.20153445033E+03  0.68429792052E+03  0.72803713825E+03  0.00000000000E+00 0. -1.
        -13    1    5    5    0    0 -0.25973070657E+03 -0.24709590744E+03  0.75405022552E+03  0.83493003900E+03  0.00000000000E+00 0.  1.
          5    1    6    6  503    0 -0.28694914438E+02 -0.64259505874E+02 -0.38046516210E+01  0.70634606134E+02  0.47000000000E+01 0.  1.
         -5    1    6    6    0  503  0.43435161327E+02 -0.40101980404E+01 -0.74680768296E+01  0.44503450421E+02  0.47000000000E+01 0. -1.
<mgrwt>
<rscale>  0 0.68591372E+03</rscale>
<asrwt>0</asrwt>
<pdfrwt beam="1">  1        1 0.38923696E+00 0.68591372E+03</pdfrwt>
<pdfrwt beam="2">  1       -1 0.36124477E-01 0.68591372E+03</pdfrwt>
<totfact> 0.10086064E+01</totfact>
</mgrwt>
</event>
<event>
12    1  0.3166324E-008  0.4719523E+03  0.7818608E-02  0.1021371E+00
         -1   -1    0    0    0  501 -0.00000000000E+00  0.00000000000E+00  0.23415818214E+03  0.23415818214E+03  0.00000000000E+00 0.  1.
          1   -1    0    0  501    0  0.00000000000E+00 -0.00000000000E+00 -0.36101497707E+04  0.36101497707E+04  0.00000000000E+00 0. -1.
         23    2    1    2    0    0 -0.15744598827E+03 -0.25241845431E+03 -0.31070680595E+04  0.31226100367E+04  0.91198681397E+02 0.  0.
    5000000    2    1    2    0    0  0.15744598827E+03  0.25241845431E+03 -0.26892352906E+03  0.72169791617E+03  0.60001975168E+03 0.  0.
         23    2    4    4    0    0 -0.57829072792E+02 -0.15055871429E+03 -0.15573737383E+03  0.24236339065E+03  0.92053003261E+02 0.  0.
         23    2    4    4    0    0  0.21527506107E+03  0.40297716860E+03 -0.11318615523E+03  0.47933452552E+03  0.90645084160E+02 0.  0.
          2    1    3    3  502    0 -0.12607070752E+03 -0.13853542259E+03 -0.21832200009E+04  0.21912406210E+04  0.00000000000E+00 0. -1.
         -2    1    3    3    0  502 -0.31375280754E+02 -0.11388303172E+03 -0.92384805856E+03  0.93136941568E+03  0.00000000000E+00 0.  1.
         11    1    5    5    0    0 -0.73796114317E+02 -0.11913220139E+03 -0.15227363031E+03  0.20694348597E+03  0.00000000000E+00 0. -1.
        -11    1    5    5    0    0  0.15967041525E+02 -0.31426512905E+02 -0.34637435178E+01  0.35419904680E+02  0.00000000000E+00 0.  1.
          5    1    6    6  503    0  0.21944899158E+03  0.37600670431E+03 -0.11830308090E+03  0.45117248425E+03  0.47000000000E+01 0. -1.
         -5    1    6    6    0  503 -0.41739305133E+01  0.26970464292E+02  0.51169256677E+01  0.28162041267E+02  0.47000000000E+01 0.  1.
<mgrwt>
<rscale>  0 0.47195230E+03</rscale>
<asrwt>0</asrwt>
<pdfrwt beam="1">  1        1 0.55540763E+00 0.47195230E+03</pdfrwt>
<pdfrwt beam="2">  1       -1 0.36024337E-01 0.47195230E+03</pdfrwt>
<totfact> 0.17699638E+00</totfact>
</mgrwt>
</event>
<event>
12    1  0.3166324E-008  0.8563543E+03  0.7818608E-02  0.9481848E-01
          1   -1    0    0  501    0  0.00000000000E+00  0.00000000000E+00  0.12662981419E+04  0.12662981419E+04  0.00000000000E+00 0. -1.
         -1   -1    0    0    0  501 -0.00000000000E+00 -0.00000000000E+00 -0.66034783114E+03  0.66034783114E+03  0.00000000000E+00 0.  1.
         23    2    1    2    0    0  0.29568764572E+03 -0.72946992497E+03  0.48613014934E+03  0.92972303158E+03  0.92221679108E+02 0.  0.
    5000000    2    1    2    0    0 -0.29568764572E+03  0.72946992497E+03  0.11982016144E+03  0.99692294148E+03  0.59995076873E+03 0.  0.
         23    2    4    4    0    0 -0.35572225239E+03  0.25822463828E+03  0.22510635487E+03  0.50220242143E+03  0.91192743295E+02 0.  0.
         23    2    4    4    0    0  0.60034606667E+02  0.47124528668E+03 -0.10528619342E+03  0.49472052005E+03  0.89369660463E+02 0.  0.
          4    1    3    3  502    0  0.25091727172E+02 -0.83795001336E+02  0.89250295127E+02  0.12496724452E+03  0.00000000000E+00 0. -1.
         -4    1    3    3    0  502  0.27059591855E+03 -0.64567492363E+03  0.39687985421E+03  0.80475578707E+03  0.00000000000E+00 0.  1.
         13    1    5    5    0    0 -0.33465999435E+03  0.26216768906E+03  0.20194658829E+03  0.47065022419E+03  0.00000000000E+00 0. -1.
        -13    1    5    5    0    0 -0.21062258037E+02 -0.39430507767E+01  0.23159766575E+02  0.31552197243E+02  0.00000000000E+00 0.  1.
          5    1    6    6  503    0  0.29232930864E+02  0.68141877880E+02  0.83091579163E+01  0.74759694175E+02  0.47000000000E+01 0. -1.
         -5    1    6    6    0  503  0.30801675804E+02  0.40310340880E+03 -0.11359535134E+03  0.41996082587E+03  0.47000000000E+01 0.  1.
<mgrwt>
<rscale>  0 0.85635432E+03</rscale>
<asrwt>0</asrwt>
<pdfrwt beam="1">  1        1 0.19481510E+00 0.85635432E+03</pdfrwt>
<pdfrwt beam="2">  1       -1 0.10159197E+00 0.85635432E+03</pdfrwt>
<totfact> 0.89741842E+00</totfact>
</mgrwt>
</event>
<event>
12    1  0.3166324E-008  0.1555881E+04  0.7818608E-02  0.8848120E-01
         -2   -1    0    0    0  501 -0.00000000000E+00  0.00000000000E+00  0.22459751927E+04  0.22459751927E+04  0.00000000000E+00 0. -1.
          2   -1    0    0  501    0  0.00000000000E+00 -0.00000000000E+00 -0.11584300682E+04  0.11584300682E+04  0.00000000000E+00 0.  1.
         23    2    1    2    0    0 -0.22509505228E+02  0.15522674564E+04  0.63925019006E+03  0.16807318706E+04  0.78599500693E+02 0.  0.
    5000000    2    1    2    0    0  0.22509505228E+02 -0.15522674564E+04  0.44829493448E+03  0.17236733902E+04  0.60003389390E+03 0.  0.
         23    2    4    4    0    0  0.45682012394E+01 -0.32070505977E+03 -0.13133544866E+03  0.35935562254E+03  0.94946614217E+02 0.  0.
         23    2    4    4    0    0  0.17941303989E+02 -0.12315623966E+04  0.57963038314E+03  0.13643177677E+04  0.91234658720E+02 0.  0.
          4    1    3    3  502    0 -0.36040973419E+02  0.87940539048E+03  0.32842573059E+03  0.93942336201E+03  0.00000000000E+00 0. -1.
         -4    1    3    3    0  502  0.13531468190E+02  0.67286206591E+03  0.31082445946E+03  0.74130850863E+03  0.00000000000E+00 0.  1.
         13    1    5    5    0    0  0.27177559563E+02 -0.10361804751E+03 -0.83729304874E+02  0.13596292145E+03  0.00000000000E+00 0.  1.
        -13    1    5    5    0    0 -0.22609358324E+02 -0.21708701225E+03 -0.47606143786E+02  0.22339270109E+03  0.00000000000E+00 0. -1.
          5    1    6    6  503    0 -0.21427119085E+02 -0.62196103848E+03  0.25537711934E+03  0.67270663584E+03  0.47000000000E+01 0. -1.
         -5    1    6    6    0  503  0.39368423074E+02 -0.60960135815E+03  0.32425326380E+03  0.69161113183E+03  0.47000000000E+01 0.  1.
<mgrwt>
<rscale>  0 0.15558815E+04</rscale>
<asrwt>0</asrwt>
<pdfrwt beam="1">  1        2 0.17822001E+00 0.15558815E+04</pdfrwt>
<pdfrwt beam="2">  1       -2 0.34553464E+00 0.15558815E+04</pdfrwt>
<totfact> 0.31335655E-01</totfact>
</mgrwt>
</event>
<event>
12    1  0.3166324E-008  0.6072013E+03  0.7818608E-02  0.9890577E-01
         -1   -1    0    0    0  501 -0.00000000000E+00  0.00000000000E+00  0.53886038391E+03  0.53886038391E+03  0.00000000000E+00 0.  1.
          1   -1    0    0  501    0  0.00000000000E+00 -0.00000000000E+00 -0.10267596515E+04  0.10267596515E+04  0.00000000000E+00 0. -1.
         23    2    1    2    0    0 -0.34022951103E+03  0.35544630273E+03  0.19002195353E+03  0.53522219401E+03  0.90863963330E+02 0.  0.
    5000000    2    1    2    0    0  0.34022951103E+03 -0.35544630273E+03 -0.67792122110E+03  0.10303978414E+04  0.60003694486E+03 0.  0.
         23    2    4    4    0    0 -0.12913049858E+03 -0.75328711386E+02 -0.33973668967E+03  0.38256580563E+03  0.92663244598E+02 0.  0.
         23    2    4    4    0    0  0.46936000962E+03 -0.28011759134E+03 -0.33818453143E+03  0.64783203576E+03  0.80949895898E+02 0.  0.
          1    1    3    3  502    0 -0.26927284094E+03  0.32572494045E+03  0.14955526981E+03  0.44829831410E+03  0.00000000000E+00 0. -1.
         -1    1    3    3    0  502 -0.70956670094E+02  0.29721362282E+02  0.40466683723E+02  0.86923879908E+02  0.00000000000E+00 0.  1.
         11    1    5    5    0    0 -0.74973887357E-01 -0.30882293530E+02 -0.11980041384E+03  0.12371685751E+03  0.00000000000E+00 0. -1.
        -11    1    5    5    0    0 -0.12905552470E+03 -0.44446417856E+02 -0.21993627583E+03  0.25884894812E+03  0.00000000000E+00 0.  1.
          5    1    6    6  503    0  0.23364789164E+03 -0.15671217709E+03 -0.12993334847E+03  0.30992710233E+03  0.47000000000E+01 0. -1.
         -5    1    6    6    0  503  0.23571211798E+03 -0.12340541425E+03 -0.20825118295E+03  0.33790493342E+03  0.47000000000E+01 0.  1.
<mgrwt>
<rscale>  0 0.60720127E+03</rscale>
<asrwt>0</asrwt>
<pdfrwt beam="1">  1        1 0.15796302E+00 0.60720127E+03</pdfrwt>
<pdfrwt beam="2">  1       -1 0.82901598E-01 0.60720127E+03</pdfrwt>
<totfact> 0.21859760E+01</totfact>
</mgrwt>
</event>
<event>
12    1  0.3166324E-008  0.9911616E+03  0.7818608E-02  0.9318292E-01
          1   -1    0    0  501    0  0.00000000000E+00  0.00000000000E+00  0.69791238823E+03  0.69791238823E+03  0.00000000000E+00 0. -1.
         -1   -1    0    0    0  501 -0.00000000000E+00 -0.00000000000E+00 -0.16313322169E+04  0.16313322169E+04  0.00000000000E+00 0.  1.
         23    2    1    2    0    0  0.52448800941E+03 -0.82643797190E+03 -0.37199586426E+03  0.10511863975E+04  0.92328359185E+02 0.  0.
    5000000    2    1    2    0    0 -0.52448800941E+03  0.82643797190E+03 -0.56142396444E+03  0.12780582076E+04  0.60012375459E+03 0.  0.
         23    2    4    4    0    0 -0.51139182079E+03  0.68615491779E+03 -0.65951120704E+03  0.10841903177E+04  0.90462407410E+02 0.  0.
         23    2    4    4    0    0 -0.13096188620E+02  0.14028305412E+03  0.98087242600E+02  0.19386788996E+03  0.90071117270E+02 0.  0.
          2    1    3    3  502    0  0.30074876741E+03 -0.40738239838E+03 -0.16057899798E+03  0.53122109729E+03  0.00000000000E+00 0. -1.
         -2    1    3    3    0  502  0.22373924200E+03 -0.41905557352E+03 -0.21141686628E+03  0.51996530024E+03  0.00000000000E+00 0.  1.
         11    1    5    5    0    0 -0.29805552870E+03  0.43126043167E+03 -0.35264997405E+03  0.63181062219E+03  0.00000000000E+00 0. -1.
        -11    1    5    5    0    0 -0.21333629209E+03  0.25489448611E+03 -0.30686123299E+03  0.45237969548E+03  0.00000000000E+00 0.  1.
          5    1    6    6  503    0 -0.17025564218E+02  0.13512659221E+03  0.11294060587E+03  0.17699360501E+03  0.47000000000E+01 0. -1.
         -5    1    6    6    0  503  0.39293755975E+01  0.51564619118E+01 -0.14853363274E+02  0.16874284950E+02  0.47000000000E+01 0.  1.
<mgrwt>
<rscale>  0 0.99116158E+03</rscale>
<asrwt>0</asrwt>
<pdfrwt beam="1">  1        1 0.10737114E+00 0.99116158E+03</pdfrwt>
<pdfrwt beam="2">  1       -1 0.25097418E+00 0.99116158E+03</pdfrwt>
<totfact> 0.18978595E+00</totfact>
</mgrwt>
</event>
<event>
12    1  0.3166324E-008  0.1105224E+04  0.7818608E-02  0.9200115E-01
         -2   -1    0    0    0  501 -0.00000000000E+00  0.00000000000E+00  0.17931157297E+04  0.17931157297E+04  0.00000000000E+00 0.  1.
          2   -1    0    0  501    0  0.00000000000E+00 -0.00000000000E+00 -0.21605836828E+04  0.21605836828E+04  0.00000000000E+00 0. -1.
         23    2    1    2    0    0 -0.72954972988E+02  0.10923243238E+04 -0.17655287221E+04  0.20793621353E+04  0.90334736532E+02 0.  0.
    5000000    2    1    2    0    0  0.72954972988E+02 -0.10923243238E+04  0.13980607690E+04  0.18743372773E+04  0.60005954607E+03 0.  0.
         23    2    4    4    0    0 -0.32258835429E+02 -0.77164538549E+03  0.12956441053E+04  0.15109027754E+04  0.87500376203E+02 0.  0.
         23    2    4    4    0    0  0.10521380842E+03 -0.32067893829E+03  0.10241666373E+03  0.36343450187E+03  0.87695707973E+02 0.  0.
          3    1    3    3  502    0  0.32807971790E+01  0.54559386263E+03 -0.91862065576E+03  0.10684321859E+04  0.00000000000E+00 0. -1.
         -3    1    3    3    0  502 -0.76235770167E+02  0.54673046114E+03 -0.84690806635E+03  0.10109299494E+04  0.00000000000E+00 0.  1.
         13    1    5    5    0    0 -0.22292209034E+02 -0.59200229821E+03  0.10613753970E+04  0.12155169259E+04  0.00000000000E+00 0.  1.
        -13    1    5    5    0    0 -0.99666263947E+01 -0.17964308728E+03  0.23426870823E+03  0.29538584954E+03  0.00000000000E+00 0. -1.
          5    1    6    6  503    0  0.31929647697E+02 -0.16787924857E+03  0.90640383919E+02  0.19349603019E+03  0.47000000000E+01 0. -1.
         -5    1    6    6    0  503  0.73284160720E+02 -0.15279968972E+03  0.11776279807E+02  0.16993847168E+03  0.47000000000E+01 0.  1.
<mgrwt>
<rscale>  0 0.11052241E+04</rscale>
<asrwt>0</asrwt>
<pdfrwt beam="1">  1        2 0.33239749E+00 0.11052241E+04</pdfrwt>
<pdfrwt beam="2">  1       -2 0.27586396E+00 0.11052241E+04</pdfrwt>
<totfact> 0.24028027E-01</totfact>
</mgrwt>
</event>
<event>
12    1  0.3166324E-008  0.1336466E+04  0.7818608E-02  0.9001137E-01
          2   -1    0    0  501    0  0.00000000000E+00  0.00000000000E+00  0.19481791096E+04  0.19481791096E+04  0.00000000000E+00 0. -1.
         -2   -1    0    0    0  501 -0.00000000000E+00 -0.00000000000E+00 -0.18009188161E+04  0.18009188161E+04  0.00000000000E+00 0.  1.
         23    2    1    2    0    0  0.27696551842E+03 -0.12395210441E+04 -0.12382044207E+04  0.17760990607E+04  0.90859059158E+02 0.  0.
    5000000    2    1    2    0    0 -0.27696551842E+03  0.12395210441E+04  0.13854647142E+04  0.19729988650E+04  0.60007477002E+03 0.  0.
         23    2    4    4    0    0  0.13762191680E+03  0.69559127348E+03  0.71579070085E+03  0.10113277568E+04  0.87409911196E+02 0.  0.
         23    2    4    4    0    0 -0.41458743522E+03  0.54392977066E+03  0.66967401337E+03  0.96167110816E+03  0.92766908033E+02 0.  0.
          4    1    3    3  502    0  0.18815728262E+03 -0.67416140485E+03 -0.64413940585E+03  0.95121624090E+03  0.00000000000E+00 0. -1.
         -4    1    3    3    0  502  0.88808235799E+02 -0.56535963930E+03 -0.59406501484E+03  0.82488281977E+03  0.00000000000E+00 0.  1.
         11    1    5    5    0    0  0.48690055780E+02  0.12672336725E+03  0.10245156942E+03  0.17007603422E+03  0.00000000000E+00 0. -1.
        -11    1    5    5    0    0  0.88931861021E+02  0.56886790623E+03  0.61333913143E+03  0.84125172261E+03  0.00000000000E+00 0.  1.
          5    1    6    6  503    0 -0.17715137700E+03  0.16593004815E+03  0.26090103860E+03  0.35638018070E+03  0.47000000000E+01 0. -1.
         -5    1    6    6    0  503 -0.23743605822E+03  0.37799972251E+03  0.40877297477E+03  0.60529092746E+03  0.47000000000E+01 0.  1.
<mgrwt>
<rscale>  0 0.13364658E+04</rscale>
<asrwt>0</asrwt>
<pdfrwt beam="1">  1        2 0.29971986E+00 0.13364658E+04</pdfrwt>
<pdfrwt beam="2">  1       -2 0.27706443E+00 0.13364658E+04</pdfrwt>
<totfact> 0.29973157E-01</totfact>
</mgrwt>
</event>
<event>
12    1  0.3166324E-008  0.8963040E+03  0.7818608E-02  0.9430213E-01
         -2   -1    0    0    0  501 -0.00000000000E+00  0.00000000000E+00  0.86934912398E+03  0.86934912398E+03  0.00000000000E+00 0.  1.
          2   -1    0    0  501    0  0.00000000000E+00 -0.00000000000E+00 -0.13084139438E+04  0.13084139438E+04  0.00000000000E+00 0. -1.
         23    2    1    2    0    0 -0.60096180089E+03 -0.63574220795E+03 -0.65287246085E+03  0.10953520166E+04  0.90721270811E+02 0.  0.
    5000000    2    1    2    0    0  0.60096180089E+03  0.63574220795E+03  0.21380764100E+03  0.10824110512E+04  0.60048042048E+03 0.  0.
         23    2    4    4    0    0  0.50218441768E+03  0.37889485280E+03 -0.11262672366E+03  0.64567286518E+03  0.91968315809E+02 0.  0.
         23    2    4    4    0    0  0.98777383215E+02  0.25684735515E+03  0.32643436466E+03  0.43673818605E+03  0.91941902544E+02 0.  0.
          1    1    3    3  502    0 -0.31706719213E+03 -0.28737145114E+03 -0.27975589453E+03  0.51125073671E+03  0.00000000000E+00 0. -1.
         -1    1    3    3    0  502 -0.28389460876E+03 -0.34837075680E+03 -0.37311656632E+03  0.58410127986E+03  0.00000000000E+00 0.  1.
         13    1    5    5    0    0  0.30937096222E+03  0.24269081291E+03 -0.25467518431E+02  0.39402768612E+03  0.00000000000E+00 0. -1.
        -13    1    5    5    0    0  0.19281345546E+03  0.13620403989E+03 -0.87159205227E+02  0.25164517906E+03  0.00000000000E+00 0.  1.
          5    1    6    6  503    0  0.69574991189E+02  0.24400409063E+03  0.26238611088E+03  0.36503046013E+03  0.47000000000E+01 0. -1.
         -5    1    6    6    0  503  0.29202392027E+02  0.12843264513E+02  0.64048253785E+02  0.71707725918E+02  0.47000000000E+01 0.  1.
<mgrwt>
<rscale>  0 0.89630399E+03</rscale>
<asrwt>0</asrwt>
<pdfrwt beam="1">  1        2 0.20129445E+00 0.89630399E+03</pdfrwt>
<pdfrwt beam="2">  1       -2 0.13374602E+00 0.89630399E+03</pdfrwt>
<totfact> 0.66270584E+00</totfact>
</mgrwt>
</event>
<event>
12    1  0.3166324E-008  0.1399754E+04  0.7818608E-02  0.8953997E-01
         -2   -1    0    0    0  501 -0.00000000000E+00  0.00000000000E+00  0.20023750014E+04  0.20023750014E+04  0.00000000000E+00 0.  1.
          2   -1    0    0  501    0  0.00000000000E+00 -0.00000000000E+00 -0.14315181842E+04  0.14315181842E+04  0.00000000000E+00 0. -1.
         23    2    1    2    0    0 -0.12731121126E+04  0.52674621172E+03 -0.62282969775E+03  0.15147468709E+04  0.90913298577E+02 0.  0.
    5000000    2    1    2    0    0  0.12731121126E+04 -0.52674621172E+03  0.11936865149E+04  0.19191463147E+04  0.59996588114E+03 0.  0.
         23    2    4    4    0    0  0.93373182794E+03 -0.53685622962E+03  0.11264281603E+04  0.15610391303E+04  0.89067547458E+02 0.  0.
         23    2    4    4    0    0  0.33938028465E+03  0.10110017899E+02  0.67258354601E+02  0.35810718445E+03  0.91847042524E+02 0.  0.
          4    1    3    3  502    0 -0.87655091247E+03  0.36414456635E+03 -0.47473244462E+03  0.10612792570E+04  0.00000000000E+00 0.  1.
         -4    1    3    3    0  502 -0.39656120011E+03  0.16260164537E+03 -0.14809725313E+03  0.45346761394E+03  0.00000000000E+00 0. -1.
         13    1    5    5    0    0  0.61148367415E+03 -0.32558420997E+03  0.67066162573E+03  0.96421179092E+03  0.00000000000E+00 0.  1.
        -13    1    5    5    0    0  0.32224815379E+03 -0.21127201966E+03  0.45576653460E+03  0.59682733933E+03  0.00000000000E+00 0. -1.
          5    1    6    6  503    0  0.15532802034E+03  0.30604617914E+02 -0.69753928718E+01  0.15853763795E+03  0.47000000000E+01 0. -1.
         -5    1    6    6    0  503  0.18405226431E+03 -0.20494600015E+02  0.74233747473E+02  0.19956954650E+03  0.47000000000E+01 0.  1.
<mgrwt>
<rscale>  0 0.13997537E+04</rscale>
<asrwt>0</asrwt>
<pdfrwt beam="1">  1        2 0.22023357E+00 0.13997537E+04</pdfrwt>
<pdfrwt beam="2">  1       -2 0.30805769E+00 0.13997537E+04</pdfrwt>
<totfact> 0.37502706E-01</totfact>
</mgrwt>
</event>
<event>
12    1  0.3166324E-008  0.5767316E+03  0.7818608E-02  0.9954892E-01
         -2   -1    0    0    0  501 -0.00000000000E+00  0.00000000000E+00  0.37056227700E+03  0.37056227700E+03  0.00000000000E+00 0.  1.
          2   -1    0    0  501    0  0.00000000000E+00 -0.00000000000E+00 -0.11469020391E+04  0.11469020391E+04  0.00000000000E+00 0. -1.
         23    2    1    2    0    0  0.93545455318E+02 -0.42748024373E+03 -0.61000779321E+03  0.75649175411E+03  0.93167350907E+02 0.  0.
    5000000    2    1    2    0    0 -0.93545455318E+02  0.42748024373E+03 -0.16633196889E+03  0.76097256199E+03  0.59993566759E+03 0.  0.
         23    2    4    4    0    0 -0.27156746506E+03  0.44036311657E+03 -0.47875371537E+02  0.52742667971E+03  0.90654777888E+02 0.  0.
         23    2    4    4    0    0  0.17802200974E+03 -0.12882872841E+02 -0.11845659735E+03  0.23354588229E+03  0.93026390399E+02 0.  0.
          1    1    3    3  502    0  0.69141637822E+02 -0.11661612390E+03 -0.18728651562E+03  0.23120580738E+03  0.00000000000E+00 0. -1.
         -1    1    3    3    0  502  0.24403817495E+02 -0.31086411983E+03 -0.42272127760E+03  0.52528594674E+03  0.00000000000E+00 0.  1.
         11    1    5    5    0    0 -0.21416075056E+03  0.28956674941E+03 -0.38660444206E+01  0.36017867197E+03  0.00000000000E+00 0. -1.
        -11    1    5    5    0    0 -0.57406714501E+02  0.15079636716E+03 -0.44009327116E+02  0.16724800774E+03  0.00000000000E+00 0.  1.
          5    1    6    6  503    0  0.11048811807E+03 -0.30285689448E+02 -0.25879122481E+02  0.11754431590E+03  0.47000000000E+01 0. -1.
         -5    1    6    6    0  503  0.67533891672E+02  0.17402816606E+02 -0.92577474872E+02  0.11600156639E+03  0.47000000000E+01 0.  1.
<mgrwt>
<rscale>  0 0.57673160E+03</rscale>
<asrwt>0</asrwt>
<pdfrwt beam="1">  1        2 0.17644647E+00 0.57673160E+03</pdfrwt>
<pdfrwt beam="2">  1       -2 0.57009581E-01 0.57673160E+03</pdfrwt>
<totfact> 0.60847825E+01</totfact>
</mgrwt>
</event>
<event>
12    1  0.3166324E-008  0.6509959E+03  0.7818608E-02  0.9804912E-01
          1   -1    0    0  501    0  0.00000000000E+00  0.00000000000E+00  0.36642066731E+04  0.36642066731E+04  0.00000000000E+00 0. -1.
         -1   -1    0    0    0  501 -0.00000000000E+00 -0.00000000000E+00 -0.20025849575E+03  0.20025849575E+03  0.00000000000E+00 0.  1.
         23    2    1    2    0    0 -0.25324159867E+03  0.48480393134E+03  0.37271623949E+03  0.66838970584E+03  0.93065807660E+02 0.  0.
    5000000    2    1    2    0    0  0.25324159867E+03 -0.48480393134E+03  0.30912319379E+04  0.31960754630E+04  0.60001442696E+03 0.  0.
         23    2    4    4    0    0  0.13273531351E+02  0.90955995698E+02  0.10939676154E+04  0.11016463849E+04  0.91708418044E+02 0.  0.
         23    2    4    4    0    0  0.23996806732E+03 -0.57575992704E+03  0.19972643224E+04  0.20944290781E+04  0.92109840789E+02 0.  0.
          4    1    3    3  502    0 -0.14976916621E+03  0.24664193362E+03  0.14461957107E+03  0.32276596305E+03  0.00000000000E+00 0. -1.
         -4    1    3    3    0  502 -0.10347243246E+03  0.23816199772E+03  0.22809666842E+03  0.34562374279E+03  0.00000000000E+00 0.  1.
         11    1    5    5    0    0 -0.30132177581E+02  0.97497345714E+01  0.45208990272E+03  0.45319784376E+03  0.00000000000E+00 0.  1.
        -11    1    5    5    0    0  0.43405708931E+02  0.81206261127E+02  0.64187771272E+03  0.64844854113E+03  0.00000000000E+00 0. -1.
          5    1    6    6  503    0  0.11465241098E+03 -0.16827286638E+03  0.68562132546E+03  0.71523396510E+03  0.47000000000E+01 0. -1.
         -5    1    6    6    0  503  0.12531565634E+03 -0.40748706065E+03  0.13116429970E+04  0.13791951130E+04  0.47000000000E+01 0.  1.
<mgrwt>
<rscale>  0 0.65099587E+03</rscale>
<asrwt>0</asrwt>
<pdfrwt beam="1">  1        1 0.56372406E+00 0.65099587E+03</pdfrwt>
<pdfrwt beam="2">  1       -1 0.30809002E-01 0.65099587E+03</pdfrwt>
<totfact> 0.20037929E+00</totfact>
</mgrwt>
</event>
<event>
12    1  0.3166324E-008  0.1356940E+04  0.7818608E-02  0.8985591E-01
          2   -1    0    0  501    0  0.00000000000E+00  0.00000000000E+00  0.25401291899E+04  0.25401291899E+04  0.00000000000E+00 0.  1.
         -2   -1    0    0    0  501 -0.00000000000E+00 -0.00000000000E+00 -0.12155720520E+04  0.12155720520E+04  0.00000000000E+00 0. -1.
         23    2    1    2    0    0  0.11861808957E+04 -0.51122474377E+03 -0.54543109299E+03  0.14050923570E+04  0.91725669485E+02 0.  0.
    5000000    2    1    2    0    0 -0.11861808957E+04  0.51122474377E+03  0.18699882309E+04  0.23506088849E+04  0.60010856541E+03 0.  0.
         23    2    4    4    0    0 -0.56528686879E+03  0.54939163101E+03  0.96351396890E+03  0.12483160422E+04  0.92484402317E+02 0.  0.
         23    2    4    4    0    0 -0.62089402691E+03 -0.38166887246E+02  0.90647426198E+03  0.11022928427E+04  0.79923836048E+02 0.  0.
          3    1    3    3  502    0  0.10077247129E+04 -0.40717434762E+03 -0.48234752846E+03  0.11891001575E+04  0.00000000000E+00 0. -1.
         -3    1    3    3    0  502  0.17845618282E+03 -0.10405039615E+03 -0.63083564528E+02  0.21599219948E+03  0.00000000000E+00 0.  1.
         11    1    5    5    0    0 -0.36236878820E+03  0.29114292191E+03  0.54470742413E+03  0.71608764655E+03  0.00000000000E+00 0. -1.
        -11    1    5    5    0    0 -0.20291808059E+03  0.25824870910E+03  0.41880654477E+03  0.53222839564E+03  0.00000000000E+00 0.  1.
          5    1    6    6  503    0 -0.51529668973E+03 -0.16371668902E+01  0.74838582158E+03  0.90864557816E+03  0.47000000000E+01 0. -1.
         -5    1    6    6    0  503 -0.10559733718E+03 -0.36529720356E+02  0.15808844040E+03  0.19364726457E+03  0.47000000000E+01 0.  1.
<mgrwt>
<rscale>  0 0.13569398E+04</rscale>
<asrwt>0</asrwt>
<pdfrwt beam="1">  1        2 0.39078910E+00 0.13569398E+04</pdfrwt>
<pdfrwt beam="2">  1       -2 0.18701109E+00 0.13569398E+04</pdfrwt>
<totfact> 0.51240107E-01</totfact>
</mgrwt>
</event>
<event>
12    1  0.3166324E-008  0.5423518E+03  0.7818608E-02  0.1003280E+00
         -3   -1    0    0    0  501 -0.00000000000E+00  0.00000000000E+00  0.61623238919E+03  0.61623238919E+03  0.00000000000E+00 0.  1.
          3   -1    0    0  501    0  0.00000000000E+00 -0.00000000000E+00 -0.59810815589E+03  0.59810815589E+03  0.00000000000E+00 0. -1.
         23    2    1    2    0    0 -0.33091476185E+03  0.29582871628E+03 -0.83489906814E+02  0.46111420633E+03  0.92932974506E+02 0.  0.
    5000000    2    1    2    0    0  0.33091476185E+03 -0.29582871628E+03  0.10161414012E+03  0.75322633876E+03  0.60000439577E+03 0.  0.
         23    2    4    4    0    0 -0.61619591216E+02 -0.19373159775E+03  0.22881990114E+03  0.31866714397E+03  0.88663947021E+02 0.  0.
         23    2    4    4    0    0  0.39253435307E+03 -0.10209711854E+03 -0.12720576102E+03  0.43455919479E+03  0.90295892406E+02 0.  0.
          1    1    3    3  502    0 -0.31329737842E+03  0.29939796342E+03 -0.88828560284E+02  0.44236286118E+03  0.00000000000E+00 0. -1.
         -1    1    3    3    0  502 -0.17617383433E+02 -0.35692471412E+01  0.53386534699E+01  0.18751345153E+02  0.00000000000E+00 0.  1.
         13    1    5    5    0    0 -0.74827738920E+02 -0.18991402408E+03  0.19558769568E+03  0.28270315484E+03  0.00000000000E+00 0. -1.
        -13    1    5    5    0    0  0.13208147703E+02 -0.38175736624E+01  0.33232205456E+02  0.35963989126E+02  0.00000000000E+00 0.  1.
          5    1    6    6  503    0  0.17978292420E+03 -0.86041745186E+00 -0.52894930053E+02  0.18746360654E+03  0.47000000000E+01 0. -1.
         -5    1    6    6    0  503  0.21275142887E+03 -0.10123670108E+03 -0.74310830971E+02  0.24709558825E+03  0.47000000000E+01 0.  1.
<mgrwt>
<rscale>  0 0.54235180E+03</rscale>
<asrwt>0</asrwt>
<pdfrwt beam="1">  1        3 0.92016639E-01 0.54235180E+03</pdfrwt>
<pdfrwt beam="2">  1       -3 0.94804983E-01 0.54235180E+03</pdfrwt>
<totfact> 0.27417097E+00</totfact>
</mgrwt>
</event>
<event>
12    1  0.3166324E-008  0.3559581E+03  0.7818608E-02  0.1060196E+00
         -2   -1    0    0    0  501 -0.00000000000E+00  0.00000000000E+00  0.14453766232E+03  0.14453766232E+03  0.00000000000E+00 0.  1.
          2   -1    0    0  501    0  0.00000000000E+00 -0.00000000000E+00 -0.30067426433E+04  0.30067426433E+04  0.00000000000E+00 0. -1.
         23    2    1    2    0    0 -0.40140436527E+02  0.29566643374E+03 -0.21537680191E+04  0.21760062602E+04  0.85186088107E+02 0.  0.
    5000000    2    1    2    0    0  0.40140436527E+02 -0.29566643374E+03 -0.70843696190E+03  0.97527404544E+03  0.60020549818E+03 0.  0.
         23    2    4    4    0    0  0.11755848350E+03 -0.54086985540E+02 -0.68814036240E+03  0.70512472163E+03  0.83176412726E+02 0.  0.
         23    2    4    4    0    0 -0.77418046975E+02 -0.24157944820E+03 -0.20296599497E+02  0.27014932382E+03  0.90633997036E+02 0.  0.
          4    1    3    3  502    0 -0.92680168518E+01  0.24954214524E+03 -0.18928148552E+04  0.19092158743E+04  0.00000000000E+00 0. -1.
         -4    1    3    3    0  502 -0.30872419675E+02  0.46124288491E+02 -0.26095316391E+03  0.26679038596E+03  0.00000000000E+00 0.  1.
         13    1    5    5    0    0  0.82090485066E+02 -0.68850624678E+01 -0.25493468031E+03  0.26791405907E+03  0.00000000000E+00 0. -1.
        -13    1    5    5    0    0  0.35467998436E+02 -0.47201923072E+02 -0.43320568209E+03  0.43721066255E+03  0.00000000000E+00 0.  1.
          5    1    6    6  503    0 -0.14372231835E+02 -0.16624449965E+03  0.10031208477E+02  0.16723190441E+03  0.47000000000E+01 0. -1.
         -5    1    6    6    0  503 -0.63045815140E+02 -0.75334948550E+02 -0.30327807974E+02  0.10291741940E+03  0.47000000000E+01 0.  1.
<mgrwt>
<rscale>  0 0.35595812E+03</rscale>
<asrwt>0</asrwt>
<pdfrwt beam="1">  1        2 0.46257579E+00 0.35595812E+03</pdfrwt>
<pdfrwt beam="2">  1       -2 0.22236563E-01 0.35595812E+03</pdfrwt>
<totfact> 0.35215322E+01</totfact>
</mgrwt>
</event>
<event>
12    1  0.3166324E-008  0.5815400E+03  0.7818608E-02  0.9944462E-01
         -2   -1    0    0    0  501 -0.00000000000E+00  0.00000000000E+00  0.13645739155E+04  0.13645739155E+04  0.00000000000E+00 0.  1.
          2   -1    0    0  501    0  0.00000000000E+00 -0.00000000000E+00 -0.27801777170E+03  0.27801777170E+03  0.00000000000E+00 0. -1.
         23    2    1    2    0    0  0.44539307888E+03  0.12446647351E+03  0.46896519209E+03  0.66523635584E+03  0.93510213285E+02 0.  0.
    5000000    2    1    2    0    0 -0.44539307888E+03 -0.12446647351E+03  0.61759095169E+03  0.97735533134E+03  0.59994829973E+03 0.  0.
         23    2    4    4    0    0  0.10243596618E+03 -0.27092638922E+02 -0.38327034051E+01  0.13821581145E+03  0.88666694248E+02 0.  0.
         23    2    4    4    0    0 -0.54782904506E+03 -0.97373834593E+02  0.62142365509E+03  0.83913951989E+03  0.91593932436E+02 0.  0.
          3    1    3    3  502    0  0.70201597978E+02 -0.25913714119E+01  0.11084086022E+03  0.13122757278E+03  0.00000000000E+00 0. -1.
         -3    1    3    3    0  502  0.37519148090E+03  0.12705784493E+03  0.35812433188E+03  0.53400878306E+03  0.00000000000E+00 0.  1.
         11    1    5    5    0    0  0.10577062751E+03 -0.44908676344E+02 -0.16520242588E+02  0.11609105594E+03  0.00000000000E+00 0. -1.
        -11    1    5    5    0    0 -0.33346613331E+01  0.17816037423E+02  0.12687539183E+02  0.22124755506E+02  0.00000000000E+00 0.  1.
          5    1    6    6  503    0 -0.29088007347E+03 -0.97059092343E+02  0.35001594353E+03  0.46536537825E+03  0.47000000000E+01 0. -1.
         -5    1    6    6    0  503 -0.25694897159E+03 -0.31474225028E+00  0.27140771157E+03  0.37377414165E+03  0.47000000000E+01 0.  1.
<mgrwt>
<rscale>  0 0.58154004E+03</rscale>
<asrwt>0</asrwt>
<pdfrwt beam="1">  1        2 0.42771966E-01 0.58154004E+03</pdfrwt>
<pdfrwt beam="2">  1       -2 0.20993444E+00 0.58154004E+03</pdfrwt>
<totfact> 0.14204624E+01</totfact>
</mgrwt>
</event>
<event>
12    1  0.3166324E-008  0.9993981E+03  0.7818608E-02  0.9309205E-01
         -2   -1    0    0    0  501 -0.00000000000E+00  0.00000000000E+00  0.82725414779E+03  0.82725414779E+03  0.00000000000E+00 0.  1.
          2   -1    0    0  501    0  0.00000000000E+00 -0.00000000000E+00 -0.14617854573E+04  0.14617854573E+04  0.00000000000E+00 0. -1.
         23    2    1    2    0    0  0.76298561747E+03  0.50792587491E+03 -0.74950863354E+03  0.11874994140E+04  0.90862090593E+02 0.  0.
    5000000    2    1    2    0    0 -0.76298561747E+03 -0.50792587491E+03  0.11497732400E+03  0.11015401912E+04  0.60002938333E+03 0.  0.
         23    2    4    4    0    0 -0.16464026066E+03  0.11443551978E+03  0.72451094076E+02  0.23135096985E+03  0.89845459528E+02 0.  0.
         23    2    4    4    0    0 -0.59834535681E+03 -0.62236139469E+03  0.42526229925E+02  0.87018922132E+03  0.10034903615E+03 0.  0.
          3    1    3    3  502    0  0.33264854578E+03  0.25793802022E+03 -0.38689319356E+03  0.57172844997E+03  0.00000000000E+00 0. -1.
         -3    1    3    3    0  502  0.43033707169E+03  0.24998785469E+03 -0.36261543998E+03  0.61577096398E+03  0.00000000000E+00 0.  1.
         13    1    5    5    0    0  0.31795730655E+01  0.27552350592E+02  0.22948428600E+02  0.35998223334E+02  0.00000000000E+00 0. -1.
        -13    1    5    5    0    0 -0.16781983373E+03  0.86883169191E+02  0.49502665476E+02  0.19535274651E+03  0.00000000000E+00 0.  1.
          5    1    6    6  503    0 -0.11962268647E+03 -0.13005415530E+03  0.49083327929E+02  0.18345281003E+03  0.47000000000E+01 0. -1.
         -5    1    6    6    0  503 -0.47872267033E+03 -0.49230723939E+03 -0.65570980041E+01  0.68673641129E+03  0.47000000000E+01 0.  1.
<mgrwt>
<rscale>  0 0.99939809E+03</rscale>
<asrwt>0</asrwt>
<pdfrwt beam="1">  1        2 0.22489007E+00 0.99939809E+03</pdfrwt>
<pdfrwt beam="2">  1       -2 0.12726987E+00 0.99939809E+03</pdfrwt>
<totfact> 0.60739912E+00</totfact>
</mgrwt>
</event>
<event>
12    1  0.3166324E-008  0.5934469E+03  0.7818608E-02  0.9919096E-01
          1   -1    0    0  501    0  0.00000000000E+00  0.00000000000E+00  0.71786925838E+03  0.71786925838E+03  0.00000000000E+00 0. -1.
         -1   -1    0    0    0  501 -0.00000000000E+00 -0.00000000000E+00 -0.13672571546E+04  0.13672571546E+04  0.00000000000E+00 0.  1.
         23    2    1    2    0    0 -0.39721023517E+03  0.22153192194E+03 -0.11098593671E+04  0.12025557371E+04  0.86603249220E+02 0.  0.
    5000000    2    1    2    0    0  0.39721023517E+03 -0.22153192194E+03  0.46047147086E+03  0.88257067588E+03  0.60003721475E+03 0.  0.
         23    2    4    4    0    0  0.18991325798E+03 -0.40119747720E+03  0.34397963452E+03  0.56984555460E+03  0.96827195897E+02 0.  0.
         23    2    4    4    0    0  0.20729697718E+03  0.17966555526E+03  0.11649183634E+03  0.31272512127E+03  0.94735975459E+02 0.  0.
          1    1    3    3  502    0 -0.27751475605E+03  0.18003028887E+03 -0.71371962876E+03  0.78665179921E+03  0.00000000000E+00 0. -1.
         -1    1    3    3    0  502 -0.11969547912E+03  0.41501633072E+02 -0.39613973834E+03  0.41590393790E+03  0.00000000000E+00 0.  1.
         13    1    5    5    0    0  0.20501320251E+02 -0.14779003332E+03  0.12265882588E+03  0.19315119893E+03  0.00000000000E+00 0. -1.
        -13    1    5    5    0    0  0.16941193773E+03 -0.25340744388E+03  0.22132080864E+03  0.37669435568E+03  0.00000000000E+00 0.  1.
          5    1    6    6  503    0  0.46988632924E+02  0.53277717294E+02 -0.10942632865E+02  0.72029702194E+02  0.47000000000E+01 0. -1.
         -5    1    6    6    0  503  0.16030834426E+03  0.12638783797E+03  0.12743446920E+03  0.24069541908E+03  0.47000000000E+01 0.  1.
<mgrwt>
<rscale>  0 0.59344691E+03</rscale>
<asrwt>0</asrwt>
<pdfrwt beam="1">  1        1 0.11044143E+00 0.59344691E+03</pdfrwt>
<pdfrwt beam="2">  1       -1 0.21034725E+00 0.59344691E+03</pdfrwt>
<totfact> 0.35822190E+00</totfact>
</mgrwt>
</event>
<event>
12    1  0.3166324E-008  0.6015503E+03  0.7818608E-02  0.9902195E-01
         -2   -1    0    0    0  501 -0.00000000000E+00  0.00000000000E+00  0.25398509330E+03  0.25398509330E+03  0.00000000000E+00 0.  1.
          2   -1    0    0  501    0  0.00000000000E+00 -0.00000000000E+00 -0.19310045754E+04  0.19310045754E+04  0.00000000000E+00 0. -1.
         23    2    1    2    0    0  0.39972439055E+03  0.22051051773E+03 -0.16246648292E+03  0.49327549236E+03  0.92308593608E+02 0.  0.
    5000000    2    1    2    0    0 -0.39972439055E+03 -0.22051051773E+03 -0.15145529991E+04  0.16917141763E+04  0.59968457566E+03 0.  0.
         23    2    4    4    0    0 -0.28031271357E+03  0.16574225606E+03 -0.63337957151E+03  0.71789378072E+03  0.90311051097E+02 0.  0.
         23    2    4    4    0    0 -0.11941167699E+03 -0.38625277380E+03 -0.88117342763E+03  0.97382039559E+03  0.91701687277E+02 0.  0.
          1    1    3    3  502    0  0.27387515606E+03  0.12893837765E+03 -0.64913568785E+02  0.30959082311E+03  0.00000000000E+00 0. -1.
         -1    1    3    3    0  502  0.12584923449E+03  0.91572140084E+02 -0.97552914139E+02  0.18368466925E+03  0.00000000000E+00 0.  1.
         11    1    5    5    0    0 -0.19023696181E+03  0.72965673697E+02 -0.32617147236E+03  0.38458018742E+03  0.00000000000E+00 0. -1.
        -11    1    5    5    0    0 -0.90075751761E+02  0.92776582367E+02 -0.30720809915E+03  0.33331359330E+03  0.00000000000E+00 0.  1.
          5    1    6    6  503    0 -0.71276689047E+01 -0.14819864394E+03 -0.37434868063E+03  0.40270667541E+03  0.47000000000E+01 0. -1.
         -5    1    6    6    0  503 -0.11228400808E+03 -0.23805412986E+03 -0.50682474700E+03  0.57111372018E+03  0.47000000000E+01 0.  1.
<mgrwt>
<rscale>  0 0.60155034E+03</rscale>
<asrwt>0</asrwt>
<pdfrwt beam="1">  1        2 0.29707763E+00 0.60155034E+03</pdfrwt>
<pdfrwt beam="2">  1       -2 0.39074629E-01 0.60155034E+03</pdfrwt>
<totfact> 0.47428005E+01</totfact>
</mgrwt>
</event>
<event>
12    1  0.3166324E-008  0.1398492E+04  0.7818608E-02  0.8954911E-01
          2   -1    0    0  501    0  0.00000000000E+00  0.00000000000E+00  0.13715551187E+04  0.13715551187E+04  0.00000000000E+00 0. -1.
         -2   -1    0    0    0  501 -0.00000000000E+00 -0.00000000000E+00 -0.18383904264E+04  0.18383904264E+04  0.00000000000E+00 0.  1.
         23    2    1    2    0    0  0.13367962436E+04 -0.38593095087E+03 -0.86812378749E+03  0.16423899656E+04  0.88538088129E+02 0.  0.
    5000000    2    1    2    0    0 -0.13367962436E+04  0.38593095087E+03  0.40128847983E+03  0.15675555795E+04  0.60019259818E+03 0.  0.
         23    2    4    4    0    0 -0.88830067953E+03  0.31728000421E+03  0.53186427010E+03  0.10870140208E+04  0.94737432918E+02 0.  0.
         23    2    4    4    0    0 -0.44849556407E+03  0.68650946654E+02 -0.13057579028E+03  0.48054155869E+03  0.89492620703E+02 0.  0.
          2    1    3    3  502    0  0.52349848041E+03 -0.12744405103E+03 -0.29310747258E+03  0.61335522792E+03  0.00000000000E+00 0.  1.
         -2    1    3    3    0  502  0.81329776319E+03 -0.25848689984E+03 -0.57501631491E+03  0.10290347377E+04  0.00000000000E+00 0. -1.
         11    1    5    5    0    0 -0.66175607229E+03  0.23972784476E+03  0.34834129564E+03  0.78532298898E+03  0.00000000000E+00 0. -1.
        -11    1    5    5    0    0 -0.22654460724E+03  0.77552159452E+02  0.18352297446E+03  0.30169103179E+03  0.00000000000E+00 0.  1.
          5    1    6    6  503    0 -0.22576060463E+03  0.77003300525E+02 -0.52172237854E+02  0.24421587028E+03  0.47000000000E+01 0. -1.
         -5    1    6    6    0  503 -0.22273495943E+03 -0.83523538714E+01 -0.78403552423E+02  0.23632568841E+03  0.47000000000E+01 0.  1.
<mgrwt>
<rscale>  0 0.13984923E+04</rscale>
<asrwt>0</asrwt>
<pdfrwt beam="1">  1        2 0.21100848E+00 0.13984923E+04</pdfrwt>
<pdfrwt beam="2">  1       -2 0.28282930E+00 0.13984923E+04</pdfrwt>
<totfact> 0.57891582E-01</totfact>
</mgrwt>
</event>
<event>
12    1  0.3166324E-008  0.5661532E+03  0.7818608E-02  0.9978227E-01
         -1   -1    0    0    0  501 -0.00000000000E+00  0.00000000000E+00  0.22870438784E+03  0.22870438784E+03  0.00000000000E+00 0.  1.
          1   -1    0    0  501    0  0.00000000000E+00 -0.00000000000E+00 -0.17402669197E+04  0.17402669197E+04  0.00000000000E+00 0. -1.
         23    2    1    2    0    0 -0.40076857921E+03  0.15163331955E+03 -0.24028698313E+03  0.49950638132E+03  0.90336443604E+02 0.  0.
    5000000    2    1    2    0    0  0.40076857921E+03 -0.15163331955E+03 -0.12712755487E+04  0.14694649262E+04  0.59964783907E+03 0.  0.
         23    2    4    4    0    0  0.19508645273E+03  0.20130337278E+03 -0.71847556444E+03  0.77661226191E+03  0.91310989025E+02 0.  0.
         23    2    4    4    0    0  0.20568212648E+03 -0.35293669233E+03 -0.55279998429E+03  0.69285266431E+03  0.87106520220E+02 0.  0.
          3    1    3    3  502    0 -0.12952710331E+03  0.82295409660E+02 -0.51636816924E+02  0.16191406920E+03  0.00000000000E+00 0. -1.
         -3    1    3    3    0  502 -0.27124147590E+03  0.69337909892E+02 -0.18865016621E+03  0.33759231212E+03  0.00000000000E+00 0.  1.
         11    1    5    5    0    0  0.27092799463E+02  0.44314496718E+02 -0.61143321134E+02  0.80226554964E+02  0.00000000000E+00 0. -1.
        -11    1    5    5    0    0  0.16799365326E+03  0.15698887606E+03 -0.65733224331E+03  0.69638570694E+03  0.00000000000E+00 0.  1.
          5    1    6    6  503    0  0.16545142808E+02 -0.98249026933E+02 -0.14938262060E+03  0.17962146414E+03  0.47000000000E+01 0. -1.
         -5    1    6    6    0  503  0.18913698367E+03 -0.25468766540E+03 -0.40341736370E+03  0.51323120017E+03  0.47000000000E+01 0.  1.
<mgrwt>
<rscale>  0 0.56615321E+03</rscale>
<asrwt>0</asrwt>
<pdfrwt beam="1">  1        1 0.26773338E+00 0.56615321E+03</pdfrwt>
<pdfrwt beam="2">  1       -1 0.35185290E-01 0.56615321E+03</pdfrwt>
<totfact> 0.36457341E+01</totfact>
</mgrwt>
</event>
<event>
12    1  0.3166324E-008  0.1080823E+04  0.7818608E-02  0.9224088E-01
          1   -1    0    0  501    0  0.00000000000E+00  0.00000000000E+00  0.26239275729E+04  0.26239275729E+04  0.00000000000E+00 0. -1.
         -1   -1    0    0    0  501 -0.00000000000E+00 -0.00000000000E+00 -0.49482181221E+03  0.49482181221E+03  0.00000000000E+00 0.  1.
         23    2    1    2    0    0  0.10271296196E+04  0.25091104182E+03  0.10597439404E+04  0.14996714396E+04  0.89474024688E+02 0.  0.
    5000000    2    1    2    0    0 -0.10271296196E+04 -0.25091104182E+03  0.10693618203E+04  0.16190779455E+04  0.59993923414E+03 0.  0.
         23    2    4    4    0    0 -0.97740927729E+03 -0.23751027123E+03  0.68344139153E+03  0.12192984991E+04  0.88637858373E+02 0.  0.
         23    2    4    4    0    0 -0.49720342312E+02 -0.13400770590E+02  0.38592042877E+03  0.39977944647E+03  0.90759767405E+02 0.  0.
          1    1    3    3  502    0  0.22748771126E+03  0.49541443174E+02  0.18356409922E+03  0.29648067709E+03  0.00000000000E+00 0. -1.
         -1    1    3    3    0  502  0.79964190834E+03  0.20136959864E+03  0.87617984121E+03  0.12031907625E+04  0.00000000000E+00 0.  1.
         11    1    5    5    0    0 -0.68127110865E+03 -0.13416947272E+03  0.50349468002E+03  0.85769380533E+03  0.00000000000E+00 0.  1.
        -11    1    5    5    0    0 -0.29613816864E+03 -0.10334079851E+03  0.17994671151E+03  0.36160469375E+03  0.00000000000E+00 0. -1.
          5    1    6    6  503    0 -0.17164979018E+02  0.34081079999E+02  0.83968767514E+02  0.92352587600E+02  0.47000000000E+01 0. -1.
         -5    1    6    6    0  503 -0.32555363294E+02 -0.47481850588E+02  0.30195166126E+03  0.30742685887E+03  0.47000000000E+01 0.  1.
<mgrwt>
<rscale>  0 0.10808227E+04</rscale>
<asrwt>0</asrwt>
<pdfrwt beam="1">  1        1 0.40368116E+00 0.10808227E+04</pdfrwt>
<pdfrwt beam="2">  1       -1 0.76126434E-01 0.10808227E+04</pdfrwt>
<totfact> 0.19413462E+00</totfact>
</mgrwt>
</event>
<event>
12    1  0.3166324E-008  0.9246348E+03  0.7818608E-02  0.9395300E-01
         -1   -1    0    0    0  501 -0.00000000000E+00  0.00000000000E+00  0.32815842562E+03  0.32815842562E+03  0.00000000000E+00 0.  1.
          1   -1    0    0  501    0  0.00000000000E+00 -0.00000000000E+00 -0.30249484774E+04  0.30249484774E+04  0.00000000000E+00 0. -1.
         23    2    1    2    0    0  0.57387167254E+03  0.66390451346E+03 -0.86729356754E+03  0.12371781597E+04  0.91179861131E+02 0.  0.
    5000000    2    1    2    0    0 -0.57387167254E+03 -0.66390451346E+03 -0.18294964843E+04  0.21159287433E+04  0.59999930111E+03 0.  0.
         23    2    4    4    0    0 -0.60998262745E+03 -0.46980013637E+03 -0.16742933704E+04  0.18451689494E+04  0.92731806377E+02 0.  0.
         23    2    4    4    0    0  0.36110954911E+02 -0.19410437709E+03 -0.15520311389E+03  0.27075979390E+03  0.10120449180E+03 0.  0.
          1    1    3    3  502    0  0.26574191433E+03  0.32786142057E+03 -0.35599612129E+03  0.55212780632E+03  0.00000000000E+00 0. -1.
         -1    1    3    3    0  502  0.30812975821E+03  0.33604309289E+03 -0.51129744624E+03  0.68505035341E+03  0.00000000000E+00 0.  1.
         13    1    5    5    0    0 -0.12927229490E+03 -0.75878293823E+02 -0.25551981264E+03  0.29624182074E+03  0.00000000000E+00 0.  1.
        -13    1    5    5    0    0 -0.48071033256E+03 -0.39392184255E+03 -0.14187735577E+04  0.15489271287E+04  0.00000000000E+00 0. -1.
          5    1    6    6  503    0  0.15054478276E+02 -0.14992789524E+03 -0.16180939623E+03  0.22115465583E+03  0.47000000000E+01 0. -1.
         -5    1    6    6    0  503  0.21056476635E+02 -0.44176481846E+02  0.66062823333E+01  0.49605138069E+02  0.47000000000E+01 0.  1.
<mgrwt>
<rscale>  0 0.92463479E+03</rscale>
<asrwt>0</asrwt>
<pdfrwt beam="1">  1        1 0.46537669E+00 0.92463479E+03</pdfrwt>
<pdfrwt beam="2">  1       -1 0.50485912E-01 0.92463479E+03</pdfrwt>
<totfact> 0.23499142E+00</totfact>
</mgrwt>
</event>
<event>
12    1  0.3166324E-008  0.6147659E+03  0.7818608E-02  0.9875236E-01
          1   -1    0    0  501    0  0.00000000000E+00  0.00000000000E+00  0.40846908169E+03  0.40846908169E+03  0.00000000000E+00 0. -1.
         -1   -1    0    0    0  501 -0.00000000000E+00 -0.00000000000E+00 -0.11395274275E+04  0.11395274275E+04  0.00000000000E+00 0.  1.
         23    2    1    2    0    0  0.47118321061E+03  0.27287067011E+03 -0.33938257008E+03  0.64819867302E+03  0.92244079864E+02 0.  0.
    5000000    2    1    2    0    0 -0.47118321061E+03 -0.27287067011E+03 -0.39167577576E+03  0.89979783620E+03  0.59979514181E+03 0.  0.
         23    2    4    4    0    0 -0.25697047227E+03 -0.34242103007E+03 -0.47244441814E+03  0.64369998209E+03  0.88656377429E+02 0.  0.
         23    2    4    4    0    0 -0.21421273834E+03  0.69550359962E+02  0.80768642379E+02  0.25609785411E+03  0.91313676135E+02 0.  0.
          3    1    3    3  502    0  0.36028905492E+03  0.16116583287E+03 -0.24952711206E+03  0.46695439652E+03  0.00000000000E+00 0. -1.
         -3    1    3    3    0  502  0.11089415570E+03  0.11170483724E+03 -0.89855458019E+02  0.18124427650E+03  0.00000000000E+00 0.  1.
         13    1    5    5    0    0 -0.26077409590E+03 -0.31237805812E+03 -0.43996029237E+03  0.59928977895E+03  0.00000000000E+00 0. -1.
        -13    1    5    5    0    0  0.38036236280E+01 -0.30042971952E+02 -0.32484125765E+02  0.44410203142E+02  0.00000000000E+00 0.  1.
          5    1    6    6  503    0 -0.22128535147E+03  0.68411183694E+02  0.69353402703E+02  0.24182489800E+03  0.47000000000E+01 0. -1.
         -5    1    6    6    0  503  0.70726131291E+01  0.11391762673E+01  0.11415239676E+02  0.14272956102E+02  0.47000000000E+01 0.  1.
<mgrwt>
<rscale>  0 0.61476590E+03</rscale>
<asrwt>0</asrwt>
<pdfrwt beam="1">  1        1 0.62841398E-01 0.61476590E+03</pdfrwt>
<pdfrwt beam="2">  1       -1 0.17531191E+00 0.61476590E+03</pdfrwt>
<totfact> 0.13735883E+01</totfact>
</mgrwt>
</event>
<event>
12    1  0.3166324E-008  0.1149722E+04  0.7818608E-02  0.9158040E-01
         -2   -1    0    0    0  501 -0.00000000000E+00  0.00000000000E+00  0.86687135097E+03  0.86687135097E+03  0.00000000000E+00 0.  1.
          2   -1    0    0  501    0  0.00000000000E+00 -0.00000000000E+00 -0.25701715684E+04  0.25701715684E+04  0.00000000000E+00 0. -1.
         23    2    1    2    0    0  0.11180750744E+04  0.56914958267E+02  0.20859639080E+03  0.11416777821E+04  0.81145051772E+02 0.  0.
    5000000    2    1    2    0    0 -0.11180750744E+04 -0.56914958267E+02 -0.19118966082E+04  0.22953651372E+04  0.60001773990E+03 0.  0.
         23    2    4    4    0    0 -0.77600283441E+03 -0.18988429317E+03 -0.86185150804E+03  0.11786802822E+04  0.90899625712E+02 0.  0.
         23    2    4    4    0    0 -0.34207224001E+03  0.13296933491E+03 -0.10500451002E+04  0.11166848550E+04  0.98468734188E+02 0.  0.
          2    1    3    3  502    0  0.35884958200E+03  0.21132382581E+02  0.10561126981E+03  0.37466430362E+03  0.00000000000E+00 0. -1.
         -2    1    3    3    0  502  0.75922549242E+03  0.35782575686E+02  0.10298512099E+03  0.76701347851E+03  0.00000000000E+00 0.  1.
         13    1    5    5    0    0 -0.58372747511E+03 -0.10191781871E+03 -0.64102784382E+03  0.87295000058E+03  0.00000000000E+00 0.  1.
        -13    1    5    5    0    0 -0.19227535930E+03 -0.87966474462E+02 -0.22082366422E+03  0.30573028163E+03  0.00000000000E+00 0. -1.
          5    1    6    6  503    0 -0.19056490504E+03  0.30774008455E+02 -0.62067927053E+03  0.65002066851E+03  0.47000000000E+01 0. -1.
         -5    1    6    6    0  503 -0.15150733498E+03  0.10219532645E+03 -0.42936582965E+03  0.46666418651E+03  0.47000000000E+01 0.  1.
<mgrwt>
<rscale>  0 0.11497218E+04</rscale>
<asrwt>0</asrwt>
<pdfrwt beam="1">  1        2 0.39541101E+00 0.11497218E+04</pdfrwt>
<pdfrwt beam="2">  1       -2 0.13336482E+00 0.11497218E+04</pdfrwt>
<totfact> 0.12720825E+00</totfact>
</mgrwt>
</event>
<event>
12    1  0.3166324E-008  0.1837571E+04  0.7818608E-02  0.8686571E-01
          2   -1    0    0  501    0  0.00000000000E+00  0.00000000000E+00  0.28988448221E+04  0.28988448221E+04  0.00000000000E+00 0.  1.
         -2   -1    0    0    0  501 -0.00000000000E+00 -0.00000000000E+00 -0.23791762017E+04  0.23791762017E+04  0.00000000000E+00 0. -1.
         23    2    1    2    0    0 -0.20898646423E+03 -0.17785909980E+04 -0.16252057197E+04  0.24201085898E+04  0.92577936928E+02 0.  0.
    5000000    2    1    2    0    0  0.20898646423E+03  0.17785909980E+04  0.21448743400E+04  0.28579124340E+04  0.60009688003E+03 0.  0.
         23    2    4    4    0    0  0.33516516692E+03  0.16519257423E+04  0.19100406133E+04  0.25490742523E+04  0.91269118255E+02 0.  0.
         23    2    4    4    0    0 -0.12617870269E+03  0.12666525577E+03  0.23483372673E+03  0.30883818176E+03  0.90933994033E+02 0.  0.
          2    1    3    3  502    0 -0.10747692636E+03 -0.12547498911E+04 -0.11612650446E+04  0.17130338826E+04  0.00000000000E+00 0. -1.
         -2    1    3    3    0  502 -0.10150953786E+03 -0.52384110691E+03 -0.46394067509E+03  0.70707470721E+03  0.00000000000E+00 0.  1.
         11    1    5    5    0    0  0.16138727421E+03  0.57706051764E+03  0.68501568243E+03  0.91010503705E+03  0.00000000000E+00 0. -1.
        -11    1    5    5    0    0  0.17377789271E+03  0.10748652246E+04  0.12250249309E+04  0.16389692152E+04  0.00000000000E+00 0.  1.
          5    1    6    6  503    0 -0.67722840167E+02  0.17244991916E+02  0.49501414165E+02  0.85768600495E+02  0.47000000000E+01 0. -1.
         -5    1    6    6    0  503 -0.58455862524E+02  0.10942026385E+03  0.18533231256E+03  0.22306958126E+03  0.47000000000E+01 0.  1.
<mgrwt>
<rscale>  0 0.18375714E+04</rscale>
<asrwt>0</asrwt>
<pdfrwt beam="1">  1        2 0.44597612E+00 0.18375714E+04</pdfrwt>
<pdfrwt beam="2">  1       -2 0.36602711E+00 0.18375714E+04</pdfrwt>
<totfact> 0.22263844E-02</totfact>
</mgrwt>
</event>
<event>
12    1  0.3166324E-008  0.1363830E+04  0.7818608E-02  0.8980424E-01
         -2   -1    0    0    0  501 -0.00000000000E+00  0.00000000000E+00  0.70335982871E+03  0.70335982871E+03  0.00000000000E+00 0. -1.
          2   -1    0    0  501    0  0.00000000000E+00 -0.00000000000E+00 -0.30699884324E+04  0.30699884324E+04  0.00000000000E+00 0.  1.
         23    2    1    2    0    0  0.60210121272E+03 -0.11791747427E+04 -0.52525409443E+03  0.14273584711E+04  0.92094500188E+02 0.  0.
    5000000    2    1    2    0    0 -0.60210121272E+03  0.11791747427E+04 -0.18413745092E+04  0.23459897900E+04  0.60002422229E+03 0.  0.
         23    2    4    4    0    0 -0.64769816323E+03  0.92473483885E+03 -0.16888804859E+04  0.20332726755E+04  0.85047305999E+02 0.  0.
         23    2    4    4    0    0  0.45596950514E+02  0.25443990389E+03 -0.15249402331E+03  0.31271711454E+03  0.87856815303E+02 0.  0.
          4    1    3    3  502    0  0.39609001104E+03 -0.67884244099E+03 -0.32220414003E+03  0.84942914030E+03  0.00000000000E+00 0. -1.
         -4    1    3    3    0  502  0.20601120167E+03 -0.50033230175E+03 -0.20304995440E+03  0.57792933077E+03  0.00000000000E+00 0.  1.
         11    1    5    5    0    0 -0.27728332333E+03  0.35063064806E+03 -0.72691146620E+03  0.85336286095E+03  0.00000000000E+00 0.  1.
        -11    1    5    5    0    0 -0.37041483990E+03  0.57410419078E+03 -0.96196901973E+03  0.11799098145E+04  0.00000000000E+00 0. -1.
          5    1    6    6  503    0  0.65520448221E+02  0.14708128928E+03 -0.11186625838E+03  0.19611727245E+03  0.47000000000E+01 0. -1.
         -5    1    6    6    0  503 -0.19923497707E+02  0.10735861461E+03 -0.40627764936E+02  0.11659984209E+03  0.47000000000E+01 0.  1.
<mgrwt>
<rscale>  0 0.13638301E+04</rscale>
<asrwt>0</asrwt>
<pdfrwt beam="1">  1        2 0.47230590E+00 0.13638301E+04</pdfrwt>
<pdfrwt beam="2">  1       -2 0.10820921E+00 0.13638301E+04</pdfrwt>
<totfact> 0.10432417E+00</totfact>
</mgrwt>
</event>
<event>
12    1  0.3166324E-008  0.1952993E+04  0.7818608E-02  0.8628919E-01
          2   -1    0    0  501    0  0.00000000000E+00  0.00000000000E+00  0.28904685720E+04  0.28904685720E+04  0.00000000000E+00 0. -1.
         -2   -1    0    0    0  501 -0.00000000000E+00 -0.00000000000E+00 -0.15243234982E+04  0.15243234982E+04  0.00000000000E+00 0.  1.
         23    2    1    2    0    0  0.63408442880E+03  0.18016239279E+04 -0.12860924134E+03  0.19163279947E+04  0.88661185587E+02 0.  0.
    5000000    2    1    2    0    0 -0.63408442880E+03 -0.18016239279E+04  0.14947543151E+04  0.24984640756E+04  0.60010035324E+03 0.  0.
         23    2    4    4    0    0 -0.38534887949E+03 -0.36092436397E+03  0.44189668130E+03  0.69452829804E+03  0.91305664671E+02 0.  0.
         23    2    4    4    0    0 -0.24873554931E+03 -0.14406995639E+04  0.10528576338E+04  0.18039357775E+04  0.90501300597E+02 0.  0.
          4    1    3    3  502    0  0.17973250457E+03  0.40255110196E+03 -0.19386392791E+02  0.44127881788E+03  0.00000000000E+00 0.  1.
         -4    1    3    3    0  502  0.45435192423E+03  0.13990728259E+04 -0.10922284855E+03  0.14750491768E+04  0.00000000000E+00 0. -1.
         11    1    5    5    0    0 -0.26059672469E+03 -0.27215403133E+03  0.35887943509E+03  0.52035845205E+03  0.00000000000E+00 0. -1.
        -11    1    5    5    0    0 -0.12475215479E+03 -0.88770332643E+02  0.83017246210E+02  0.17416984599E+03  0.00000000000E+00 0.  1.
          5    1    6    6  503    0 -0.15036001751E+03 -0.10756687713E+04  0.80322698127E+03  0.13508764243E+04  0.47000000000E+01 0. -1.
         -5    1    6    6    0  503 -0.98375531805E+02 -0.36503079266E+03  0.24963065252E+03  0.45305935320E+03  0.47000000000E+01 0.  1.
<mgrwt>
<rscale>  0 0.19529928E+04</rscale>
<asrwt>0</asrwt>
<pdfrwt beam="1">  1        2 0.44468747E+00 0.19529928E+04</pdfrwt>
<pdfrwt beam="2">  1       -2 0.23451131E+00 0.19529928E+04</pdfrwt>
<totfact> 0.14585510E-01</totfact>
</mgrwt>
</event>
<event>
12    1  0.3166324E-008  0.1762994E+04  0.7818608E-02  0.8726230E-01
         -2   -1    0    0    0  501 -0.00000000000E+00  0.00000000000E+00  0.19695670308E+04  0.19695670308E+04  0.00000000000E+00 0.  1.
          2   -1    0    0  501    0  0.00000000000E+00 -0.00000000000E+00 -0.20007663107E+04  0.20007663107E+04  0.00000000000E+00 0. -1.
         23    2    1    2    0    0 -0.15234962816E+04 -0.78425260607E+03 -0.92225504104E+03  0.19480349813E+04  0.90514404493E+02 0.  0.
    5000000    2    1    2    0    0  0.15234962816E+04  0.78425260607E+03  0.89105576116E+03  0.20222983602E+04  0.59968093020E+03 0.  0.
         23    2    4    4    0    0  0.11061147511E+04  0.82435855054E+03  0.64225797757E+03  0.15244532621E+04  0.91681928793E+02 0.  0.
         23    2    4    4    0    0  0.41738153050E+03 -0.40105944475E+02  0.24879778359E+03  0.49784509813E+03  0.10066566359E+03 0.  0.
          3    1    3    3  502    0 -0.72232479861E+03 -0.37340875100E+03 -0.48900502315E+03  0.94884831384E+03  0.00000000000E+00 0. -1.
         -3    1    3    3    0  502 -0.80117148296E+03 -0.41084385507E+03 -0.43325001789E+03  0.99918666742E+03  0.00000000000E+00 0.  1.
         13    1    5    5    0    0  0.73159709294E+03  0.58810505128E+03  0.46430499474E+03  0.10472253749E+04  0.00000000000E+00 0.  1.
        -13    1    5    5    0    0  0.37451765813E+03  0.23625349926E+03  0.17795298283E+03  0.47722788714E+03  0.00000000000E+00 0. -1.
          5    1    6    6  503    0  0.31355604958E+02  0.23866383485E+02  0.18460878174E+02  0.43768393230E+02  0.47000000000E+01 0. -1.
         -5    1    6    6    0  503  0.38602592555E+03 -0.63972327961E+02  0.23033690541E+03  0.45407670490E+03  0.47000000000E+01 0.  1.
<mgrwt>
<rscale>  0 0.17629938E+04</rscale>
<asrwt>0</asrwt>
<pdfrwt beam="1">  1        2 0.30781020E+00 0.17629938E+04</pdfrwt>
<pdfrwt beam="2">  1       -2 0.30301031E+00 0.17629938E+04</pdfrwt>
<totfact> 0.18525847E-01</totfact>
</mgrwt>
</event>
<event>
12    1  0.3166324E-008  0.8935567E+03  0.7818608E-02  0.9433672E-01
         -1   -1    0    0    0  501 -0.00000000000E+00  0.00000000000E+00  0.57244772220E+03  0.57244772220E+03  0.00000000000E+00 0.  1.
          1   -1    0    0  501    0  0.00000000000E+00 -0.00000000000E+00 -0.18144068341E+04  0.18144068341E+04  0.00000000000E+00 0. -1.
         23    2    1    2    0    0 -0.84156719972E+03 -0.22727115070E+03 -0.94344253143E+03  0.12873630098E+04  0.85628157733E+02 0.  0.
    5000000    2    1    2    0    0  0.84156719972E+03  0.22727115070E+03 -0.29851658046E+03  0.10994915464E+04  0.59990164553E+03 0.  0.
         23    2    4    4    0    0  0.68853971866E+03  0.78983139116E+02 -0.44190837705E+03  0.82702595443E+03  0.91452912154E+02 0.  0.
         23    2    4    4    0    0  0.15302748106E+03  0.14828801158E+03  0.14339179659E+03  0.27246559202E+03  0.90937050591E+02 0.  0.
          4    1    3    3  502    0 -0.39438509389E+03 -0.94555942230E+02 -0.37863041419E+03  0.55483458710E+03  0.00000000000E+00 0. -1.
         -4    1    3    3    0  502 -0.44718210584E+03 -0.13271520847E+03 -0.56481211724E+03  0.73252842274E+03  0.00000000000E+00 0.  1.
         11    1    5    5    0    0  0.42148885527E+03  0.90819855867E+02 -0.25622392605E+03  0.50154940097E+03  0.00000000000E+00 0. -1.
        -11    1    5    5    0    0  0.26705086340E+03 -0.11836716750E+02 -0.18568445100E+03  0.32547655345E+03  0.00000000000E+00 0.  1.
          5    1    6    6  503    0  0.15281236445E+03  0.14123276509E+03  0.15397861514E+03  0.25890117146E+03  0.47000000000E+01 0. -1.
         -5    1    6    6    0  503  0.21511661075E+00  0.70552464875E+01 -0.10586818551E+02  0.13564420562E+02  0.47000000000E+01 0.  1.
<mgrwt>
<rscale>  0 0.89355668E+03</rscale>
<asrwt>0</asrwt>
<pdfrwt beam="1">  1        1 0.27913951E+00 0.89355668E+03</pdfrwt>
<pdfrwt beam="2">  1       -1 0.88068882E-01 0.89355668E+03</pdfrwt>
<totfact> 0.51649487E+00</totfact>
</mgrwt>
</event>
<event>
12    1  0.3166324E-008  0.9772939E+03  0.7818608E-02  0.9333805E-01
         -2   -1    0    0    0  501 -0.00000000000E+00  0.00000000000E+00  0.34947870332E+03  0.34947870332E+03  0.00000000000E+00 0.  1.
          2   -1    0    0  501    0  0.00000000000E+00 -0.00000000000E+00 -0.32151533582E+04  0.32151533582E+04  0.00000000000E+00 0. -1.
         23    2    1    2    0    0  0.93853225022E+03  0.22254475377E+03 -0.11071389028E+04  0.14710993700E+04  0.89486613892E+02 0.  0.
    5000000    2    1    2    0    0 -0.93853225022E+03 -0.22254475377E+03 -0.17585357521E+04  0.20935326916E+04  0.60005182037E+03 0.  0.
         23    2    4    4    0    0 -0.52842881914E+03 -0.29884207992E+02 -0.43307128299E+03  0.68978831540E+03  0.90150436105E+02 0.  0.
         23    2    4    4    0    0 -0.41010343108E+03 -0.19266054578E+03 -0.13254644691E+04  0.14037443762E+04  0.91319793440E+02 0.  0.
          2    1    3    3  502    0  0.21609934149E+03  0.20154451415E+02 -0.28247524591E+03  0.35622660184E+03  0.00000000000E+00 0. -1.
         -2    1    3    3    0  502  0.72243290874E+03  0.20239030236E+03 -0.82466365689E+03  0.11148727681E+04  0.00000000000E+00 0.  1.
         11    1    5    5    0    0 -0.12649432227E+03  0.83689680943E+01 -0.60760557348E+02  0.14057986528E+03  0.00000000000E+00 0.  1.
        -11    1    5    5    0    0 -0.40193449687E+03 -0.38253176087E+02 -0.37231072564E+03  0.54920845012E+03  0.00000000000E+00 0. -1.
          5    1    6    6  503    0 -0.21965656148E+03 -0.13445428587E+03 -0.63902458819E+03  0.68898583026E+03  0.47000000000E+01 0. -1.
         -5    1    6    6    0  503 -0.19044686960E+03 -0.58206259912E+02 -0.68643988091E+03  0.71475854590E+03  0.47000000000E+01 0.  1.
<mgrwt>
<rscale>  0 0.97729390E+03</rscale>
<asrwt>0</asrwt>
<pdfrwt beam="1">  1        2 0.49463900E+00 0.97729390E+03</pdfrwt>
<pdfrwt beam="2">  1       -2 0.53765952E-01 0.97729390E+03</pdfrwt>
<totfact> 0.42638373E+00</totfact>
</mgrwt>
</event>
<event>
12    1  0.3166324E-008  0.7349521E+03  0.7818608E-02  0.9659258E-01
         -2   -1    0    0    0  501 -0.00000000000E+00  0.00000000000E+00  0.23030307664E+03  0.23030307664E+03  0.00000000000E+00 0.  1.
          2   -1    0    0  501    0  0.00000000000E+00 -0.00000000000E+00 -0.26478662689E+04  0.26478662689E+04  0.00000000000E+00 0. -1.
         23    2    1    2    0    0 -0.64154066446E+03  0.66066372698E+01 -0.73376320498E+03  0.97901928124E+03  0.91936066119E+02 0.  0.
    5000000    2    1    2    0    0  0.64154066446E+03 -0.66066372698E+01 -0.16837999873E+04  0.18991500643E+04  0.59997541430E+03 0.  0.
         23    2    4    4    0    0  0.70320559996E+03  0.28830475187E+02 -0.16171932026E+04  0.17659037807E+04  0.88164595949E+02 0.  0.
         23    2    4    4    0    0 -0.61664935499E+02 -0.35437112456E+02 -0.66606784721E+02  0.13324628366E+03  0.90883194971E+02 0.  0.
          3    1    3    3  502    0 -0.15500420897E+03 -0.37258067170E+02 -0.19111131613E+03  0.24887346890E+03  0.00000000000E+00 0. -1.
         -3    1    3    3    0  502 -0.48653645549E+03  0.43864704440E+02 -0.54265188885E+03  0.73014581235E+03  0.00000000000E+00 0.  1.
         11    1    5    5    0    0  0.28661739897E+03 -0.21533251405E+02 -0.72741796445E+03  0.78214455781E+03  0.00000000000E+00 0. -1.
        -11    1    5    5    0    0  0.41658820099E+03  0.50363726592E+02 -0.88977523812E+03  0.98375922284E+03  0.00000000000E+00 0.  1.
          5    1    6    6  503    0 -0.62596402373E+02  0.14775321243E+02 -0.43337463734E+02  0.77697139399E+02  0.47000000000E+01 0.  1.
         -5    1    6    6    0  503  0.93146687456E+00 -0.50212433700E+02 -0.23269320987E+02  0.55549144258E+02  0.47000000000E+01 0. -1.
<mgrwt>
<rscale>  0 0.73495212E+03</rscale>
<asrwt>0</asrwt>
<pdfrwt beam="1">  1        2 0.40736399E+00 0.73495212E+03</pdfrwt>
<pdfrwt beam="2">  1       -2 0.35431247E-01 0.73495212E+03</pdfrwt>
<totfact> 0.22432873E+01</totfact>
</mgrwt>
</event>
<event>
12    1  0.3166324E-008  0.1107428E+04  0.7818608E-02  0.9197982E-01
          1   -1    0    0  501    0  0.00000000000E+00  0.00000000000E+00  0.31498131542E+04  0.31498131542E+04  0.00000000000E+00 0. -1.
         -1   -1    0    0    0  501 -0.00000000000E+00 -0.00000000000E+00 -0.40246128562E+03  0.40246128562E+03  0.00000000000E+00 0.  1.
         23    2    1    2    0    0  0.10379835134E+04 -0.63998362048E+01  0.11051991389E+04  0.15189691819E+04  0.91386581066E+02 0.  0.
    5000000    2    1    2    0    0 -0.10379835134E+04  0.63998362048E+01  0.16421527297E+04  0.20333052579E+04  0.60017826699E+03 0.  0.
         23    2    4    4    0    0 -0.10706362840E+04 -0.25710666916E+02  0.13641802254E+04  0.17373250575E+04  0.10191946289E+03 0.  0.
         23    2    4    4    0    0  0.32652770694E+02  0.32110503121E+02  0.27797250427E+03  0.29598020036E+03  0.90764960378E+02 0.  0.
          2    1    3    3  502    0  0.22644416894E+03 -0.11516571994E+02  0.29668012795E+03  0.37340151499E+03  0.00000000000E+00 0. -1.
         -2    1    3    3    0  502  0.81153934442E+03  0.51167357895E+01  0.80851901091E+03  0.11455676669E+04  0.00000000000E+00 0.  1.
         11    1    5    5    0    0 -0.13483057899E+03  0.27429372400E+02  0.15197795911E+03  0.20500964747E+03  0.00000000000E+00 0. -1.
        -11    1    5    5    0    0 -0.93580570505E+03 -0.53140039316E+02  0.12122022663E+04  0.15323154101E+04  0.00000000000E+00 0.  1.
          5    1    6    6  503    0 -0.28624246756E+02  0.27593121517E+02  0.10790723793E+03  0.11509469951E+03  0.47000000000E+01 0. -1.
         -5    1    6    6    0  503  0.61277017449E+02  0.45173816038E+01  0.17006526634E+03  0.18088550085E+03  0.47000000000E+01 0.  1.
<mgrwt>
<rscale>  0 0.11074280E+04</rscale>
<asrwt>0</asrwt>
<pdfrwt beam="1">  1        1 0.48458662E+00 0.11074280E+04</pdfrwt>
<pdfrwt beam="2">  1       -1 0.61917123E-01 0.11074280E+04</pdfrwt>
<totfact> 0.12441801E+00</totfact>
</mgrwt>
</event>
<event>
12    1  0.3166324E-008  0.5960746E+03  0.7818608E-02  0.9913584E-01
         -1   -1    0    0    0  501 -0.00000000000E+00  0.00000000000E+00  0.83242440405E+03  0.83242440405E+03  0.00000000000E+00 0.  1.
          1   -1    0    0  501    0  0.00000000000E+00 -0.00000000000E+00 -0.60189855025E+03  0.60189855025E+03  0.00000000000E+00 0. -1.
         23    2    1    2    0    0 -0.33215130442E+03 -0.46963655476E+03  0.53755996187E+02  0.58462933717E+03  0.89547597186E+02 0.  0.
    5000000    2    1    2    0    0  0.33215130442E+03  0.46963655476E+03  0.17676985762E+03  0.84969361713E+03  0.59987388493E+03 0.  0.
         23    2    4    4    0    0  0.12859210471E+03  0.41272453376E+02 -0.18410735984E+03  0.24676854058E+03  0.93594058934E+02 0.  0.
         23    2    4    4    0    0  0.20355919971E+03  0.42836410138E+03  0.36087721746E+03  0.60292507655E+03  0.91400933867E+02 0.  0.
          2    1    3    3  502    0 -0.88061996529E+02 -0.11902534464E+03  0.53470374738E+02  0.15741991257E+03  0.00000000000E+00 0. -1.
         -2    1    3    3    0  502 -0.24408930789E+03 -0.35061121012E+03  0.28562144902E+00  0.42720942460E+03  0.00000000000E+00 0.  1.
         13    1    5    5    0    0  0.12120264251E+03  0.48419187324E+02 -0.10641849128E+03  0.16840247486E+03  0.00000000000E+00 0.  1.
        -13    1    5    5    0    0  0.73894622059E+01 -0.71467339487E+01 -0.77688868559E+02  0.78366065716E+02  0.00000000000E+00 0. -1.
          5    1    6    6  503    0  0.11076755713E+03  0.18619984581E+03  0.11409907202E+03  0.24490921282E+03  0.47000000000E+01 0. -1.
         -5    1    6    6    0  503  0.92791642581E+02  0.24216425557E+03  0.24677814544E+03  0.35801586373E+03  0.47000000000E+01 0.  1.
<mgrwt>
<rscale>  0 0.59607465E+03</rscale>
<asrwt>0</asrwt>
<pdfrwt beam="1">  1        1 0.92599777E-01 0.59607465E+03</pdfrwt>
<pdfrwt beam="2">  1       -1 0.12806529E+00 0.59607465E+03</pdfrwt>
<totfact> 0.18797846E+01</totfact>
</mgrwt>
</event>
<event>
12    1  0.3166324E-008  0.3848272E+03  0.7818608E-02  0.1049164E+00
          1   -1    0    0  501    0  0.00000000000E+00  0.00000000000E+00  0.88366600387E+03  0.88366600387E+03  0.00000000000E+00 0. -1.
         -1   -1    0    0    0  501 -0.00000000000E+00 -0.00000000000E+00 -0.25477972966E+03  0.25477972966E+03  0.00000000000E+00 0.  1.
         23    2    1    2    0    0  0.28409354813E+02  0.19850629747E+03  0.41621119466E+03  0.47107920428E+03  0.92043558006E+02 0.  0.
    5000000    2    1    2    0    0 -0.28409354813E+02 -0.19850629747E+03  0.21267507955E+03  0.66736652925E+03  0.59994629204E+03 0.  0.
         23    2    4    4    0    0 -0.26419465054E+03 -0.14969559707E+03 -0.23342868967E+02  0.31804952554E+03  0.91668020634E+02 0.  0.
         23    2    4    4    0    0  0.23578529572E+03 -0.48810700394E+02  0.23601794852E+03  0.34931700371E+03  0.91327470728E+02 0.  0.
          3    1    3    3  502    0  0.53071397015E+02  0.85284418185E+02  0.24009858907E+03  0.26026397684E+03  0.00000000000E+00 0. -1.
         -3    1    3    3    0  502 -0.24662042201E+02  0.11322187928E+03  0.17611260558E+03  0.21081522744E+03  0.00000000000E+00 0.  1.
         11    1    5    5    0    0 -0.20667592592E+03 -0.79155151492E+02  0.88857063999E+01  0.22149363905E+03  0.00000000000E+00 0. -1.
        -11    1    5    5    0    0 -0.57518724616E+02 -0.70540445582E+02 -0.32228575367E+02  0.96555886483E+02  0.00000000000E+00 0.  1.
          5    1    6    6  503    0  0.12703384816E+03 -0.24499395682E+02  0.18710994371E+03  0.22753030567E+03  0.47000000000E+01 0. -1.
         -5    1    6    6    0  503  0.10875144757E+03 -0.24311304712E+02  0.48908004808E+02  0.12178669804E+03  0.47000000000E+01 0.  1.
<mgrwt>
<rscale>  0 0.38482717E+03</rscale>
<asrwt>0</asrwt>
<pdfrwt beam="1">  1        1 0.13594861E+00 0.38482717E+03</pdfrwt>
<pdfrwt beam="2">  1       -1 0.39196882E-01 0.38482717E+03</pdfrwt>
<totfact> 0.12515280E+02</totfact>
</mgrwt>
</event>
<event>
12    1  0.3166324E-008  0.1749872E+04  0.7818608E-02  0.8733421E-01
          2   -1    0    0  501    0  0.00000000000E+00  0.00000000000E+00  0.17218998278E+04  0.17218998278E+04  0.00000000000E+00 0. -1.
         -2   -1    0    0    0  501 -0.00000000000E+00 -0.00000000000E+00 -0.18060494265E+04  0.18060494265E+04  0.00000000000E+00 0.  1.
         23    2    1    2    0    0 -0.14729885477E+03  0.16994977948E+04 -0.17562362160E+03  0.17173252756E+04  0.91502670256E+02 0.  0.
    5000000    2    1    2    0    0  0.14729885477E+03 -0.16994977948E+04  0.91474022889E+02  0.18106239787E+04  0.60000165704E+03 0.  0.
         23    2    4    4    0    0  0.23362941222E+03 -0.16443060991E+04  0.33795751926E+02  0.16636038270E+04  0.90057151941E+02 0.  0.
         23    2    4    4    0    0 -0.86330557452E+02 -0.55191695720E+02  0.57678270963E+02  0.14702015177E+03  0.88255615444E+02 0.  0.
          1    1    3    3  502    0 -0.11213852170E+03  0.10545671729E+04 -0.14858838232E+03  0.10708713637E+04  0.00000000000E+00 0. -1.
         -1    1    3    3    0  502 -0.35160333071E+02  0.64493062185E+03 -0.27035239277E+02  0.64645391188E+03  0.00000000000E+00 0.  1.
         13    1    5    5    0    0  0.53310396878E+02 -0.39974302470E+03 -0.30257205928E+02  0.40441560643E+03  0.00000000000E+00 0. -1.
        -13    1    5    5    0    0  0.18031901534E+03 -0.12445630744E+04  0.64052957854E+02  0.12591882205E+04  0.00000000000E+00 0.  1.
          5    1    6    6  503    0 -0.30091832367E+02  0.21502236896E+02  0.34504762154E+01  0.37441425625E+02  0.47000000000E+01 0. -1.
         -5    1    6    6    0  503 -0.56238725085E+02 -0.76693932616E+02  0.54227794747E+02  0.10957872614E+03  0.47000000000E+01 0.  1.
<mgrwt>
<rscale>  0 0.17498716E+04</rscale>
<asrwt>0</asrwt>
<pdfrwt beam="1">  1        2 0.26490767E+00 0.17498716E+04</pdfrwt>
<pdfrwt beam="2">  1       -2 0.27785376E+00 0.17498716E+04</pdfrwt>
<totfact> 0.37895630E-01</totfact>
</mgrwt>
</event>
<event>
12    1  0.3166324E-008  0.1007729E+04  0.7818608E-02  0.9300109E-01
         -1   -1    0    0    0  501 -0.00000000000E+00  0.00000000000E+00  0.38185957041E+03  0.38185957041E+03  0.00000000000E+00 0.  1.
          1   -1    0    0  501    0  0.00000000000E+00 -0.00000000000E+00 -0.31024497655E+04  0.31024497655E+04  0.00000000000E+00 0. -1.
         23    2    1    2    0    0  0.97693622121E+03 -0.22590114082E+03 -0.13154426741E+04  0.16567391360E+04  0.94654265468E+02 0.  0.
    5000000    2    1    2    0    0 -0.97693622121E+03  0.22590114082E+03 -0.14051475210E+04  0.18275702000E+04  0.60011463439E+03 0.  0.
         23    2    4    4    0    0 -0.66028286028E+03  0.13981749362E+03 -0.13048548353E+04  0.14719061900E+04  0.91319789964E+02 0.  0.
         23    2    4    4    0    0 -0.31665336093E+03  0.86083647201E+02 -0.10029268573E+03  0.35566400996E+03  0.93586964179E+02 0.  0.
          1    1    3    3  502    0  0.24830702527E+02 -0.22531815620E+02 -0.47085025572E+02  0.57803513183E+02  0.00000000000E+00 0. -1.
         -1    1    3    3    0  502  0.95210551868E+03 -0.20336932520E+03 -0.12683576486E+04  0.15989356228E+04  0.00000000000E+00 0.  1.
         11    1    5    5    0    0 -0.32954211082E+03  0.31824917370E+02 -0.57896767291E+03  0.66694407145E+03  0.00000000000E+00 0.  1.
        -11    1    5    5    0    0 -0.33074074946E+03  0.10799257625E+03 -0.72588716236E+03  0.80496211859E+03  0.00000000000E+00 0. -1.
          5    1    6    6  503    0 -0.27647431498E+02  0.11008779927E+01  0.16480883205E+02  0.32546918625E+02  0.47000000000E+01 0. -1.
         -5    1    6    6    0  503 -0.28900592943E+03  0.84982769208E+02 -0.11677356893E+03  0.32311709133E+03  0.47000000000E+01 0.  1.
<mgrwt>
<rscale>  0 0.10077286E+04</rscale>
<asrwt>0</asrwt>
<pdfrwt beam="1">  1        1 0.47729998E+00 0.10077286E+04</pdfrwt>
<pdfrwt beam="2">  1       -1 0.58747624E-01 0.10077286E+04</pdfrwt>
<totfact> 0.15186432E+00</totfact>
</mgrwt>
</event>
<event>
12    1  0.3166324E-008  0.6692030E+03  0.7818608E-02  0.9771399E-01
          2   -1    0    0  501    0  0.00000000000E+00  0.00000000000E+00  0.32758289616E+04  0.32758289616E+04  0.00000000000E+00 0. -1.
         -2   -1    0    0    0  501 -0.00000000000E+00 -0.00000000000E+00 -0.30232013415E+03  0.30232013415E+03  0.00000000000E+00 0.  1.
         23    2    1    2    0    0  0.10337883170E+03 -0.58827777032E+03  0.25704767057E+04  0.26404632320E+04  0.89093587383E+02 0.  0.
    5000000    2    1    2    0    0 -0.10337883170E+03  0.58827777032E+03  0.40303212174E+03  0.93768586369E+03  0.60005163937E+03 0.  0.
         23    2    4    4    0    0  0.90196341457E+02 -0.13194482813E+02  0.24955975633E+03  0.28109878924E+03  0.91798599907E+02 0.  0.
         23    2    4    4    0    0 -0.19357517316E+03  0.60147225314E+03  0.15347236541E+03  0.65658707445E+03  0.91173463413E+02 0.  0.
          2    1    3    3  502    0  0.60659630149E+02 -0.12802618516E+03  0.60480460374E+03  0.62117542089E+03  0.00000000000E+00 0. -1.
         -2    1    3    3    0  502  0.42719201553E+02 -0.46025158516E+03  0.19656721019E+04  0.20192878111E+04  0.00000000000E+00 0.  1.
         13    1    5    5    0    0  0.41494475446E+02  0.17421298510E+02  0.20051721902E+03  0.20550534849E+03  0.00000000000E+00 0. -1.
        -13    1    5    5    0    0  0.48701866010E+02 -0.30615781323E+02  0.49042537310E+02  0.75593440752E+02  0.00000000000E+00 0.  1.
          5    1    6    6  503    0 -0.10107876089E+03  0.32733476205E+03  0.36790542568E+02  0.34458757432E+03  0.47000000000E+01 0. -1.
         -5    1    6    6    0  503 -0.92496412268E+02  0.27413749108E+03  0.11668182284E+03  0.31199950013E+03  0.47000000000E+01 0.  1.
<mgrwt>
<rscale>  0 0.66920303E+03</rscale>
<asrwt>0</asrwt>
<pdfrwt beam="1">  1        2 0.50397366E+00 0.66920303E+03</pdfrwt>
<pdfrwt beam="2">  1       -2 0.46510792E-01 0.66920303E+03</pdfrwt>
<totfact> 0.55411934E+00</totfact>
</mgrwt>
</event>
<event>
12    1  0.7062142E-008  0.8890372E+03  0.7818608E-02  0.9439390E-01
         -2   -1    0    0    0  501 -0.00000000000E+00  0.00000000000E+00  0.54369450991E+03  0.54369450991E+03  0.00000000000E+00 0.  1.
          2   -1    0    0  501    0  0.00000000000E+00 -0.00000000000E+00 -0.15979066567E+04  0.15979066567E+04  0.00000000000E+00 0. -1.
         23    2    1    2    0    0  0.82824328887E+03  0.28018999715E+02 -0.38101664626E+03  0.91685920378E+03  0.93193910283E+02 0.  0.
    5000000    2    1    2    0    0 -0.82824328887E+03 -0.28018999715E+02 -0.67319550054E+03  0.12247419629E+04  0.60002390261E+03 0.  0.
         23    2    4    4    0    0 -0.95501333079E+02  0.13773877213E+03  0.27557822155E+02  0.19303309863E+03  0.91705341369E+02 0.  0.
         23    2    4    4    0    0 -0.73274195579E+03 -0.16575777185E+03 -0.70075332270E+03  0.10317088642E+04  0.94771032118E+02 0.  0.
          3    1    3    3  502    0  0.32843270264E+03  0.54213005113E+02 -0.16880308999E+03  0.37323125978E+03  0.00000000000E+00 0. -1.
         -3    1    3    3    0  502  0.49981058623E+03 -0.26194005397E+02 -0.21221355628E+03  0.54362794400E+03  0.00000000000E+00 0.  1.
         11    1    5    5    0    0  0.59393885742E+01  0.67085125765E+02  0.12510393375E+02  0.68499637794E+02  0.00000000000E+00 0.  1.
        -11    1    5    5    0    0 -0.10144072165E+03  0.70653646370E+02  0.15047428780E+02  0.12453346084E+03  0.00000000000E+00 0. -1.
          5    1    6    6  503    0 -0.37427103937E+03 -0.53747244511E+02 -0.30216293143E+03  0.48403729643E+03  0.47000000000E+01 0. -1.
         -5    1    6    6    0  503 -0.35847091643E+03 -0.11201052734E+03 -0.39859039127E+03  0.54767156779E+03  0.47000000000E+01 0.  1.
<mgrwt>
<rscale>  0 0.88903723E+03</rscale>
<asrwt>0</asrwt>
<pdfrwt beam="1">  1        2 0.24583179E+00 0.88903723E+03</pdfrwt>
<pdfrwt beam="2">  1       -2 0.83645312E-01 0.88903723E+03</pdfrwt>
<totfact> 0.14102220E+01</totfact>
</mgrwt>
</event>
<event>
12    1  0.3166324E-008  0.5476152E+03  0.7818608E-02  0.1002047E+00
         -3   -1    0    0    0  501 -0.00000000000E+00  0.00000000000E+00  0.61383088508E+03  0.61383088508E+03  0.00000000000E+00 0.  1.
          3   -1    0    0  501    0  0.00000000000E+00 -0.00000000000E+00 -0.12089202043E+04  0.12089202043E+04  0.00000000000E+00 0. -1.
         23    2    1    2    0    0  0.41034623006E+03  0.24945464737E+03 -0.87746863669E+03  0.10044290239E+04  0.91185557897E+02 0.  0.
    5000000    2    1    2    0    0 -0.41034623006E+03 -0.24945464737E+03  0.28237931746E+03  0.81832206553E+03  0.59941744584E+03 0.  0.
         23    2    4    4    0    0 -0.81802427419E+02  0.74650795148E+02 -0.12992366378E+03  0.19316038423E+03  0.90368120901E+02 0.  0.
         23    2    4    4    0    0 -0.32854380265E+03 -0.32410544252E+03  0.41230298124E+03  0.62516168130E+03  0.88589002130E+02 0.  0.
          3    1    3    3  502    0  0.25178318591E+03  0.20169475336E+03 -0.55604986722E+03  0.64285846115E+03  0.00000000000E+00 0. -1.
         -3    1    3    3    0  502  0.15856304415E+03  0.47759894015E+02 -0.32141876947E+03  0.36157056270E+03  0.00000000000E+00 0.  1.
         13    1    5    5    0    0 -0.79184007608E+01  0.67640685170E+02 -0.71157355199E+02  0.98495342833E+02  0.00000000000E+00 0. -1.
        -13    1    5    5    0    0 -0.73884026659E+02  0.70101099784E+01 -0.58766308584E+02  0.94665041392E+02  0.00000000000E+00 0.  1.
          5    1    6    6  503    0 -0.32032009541E+03 -0.30035654130E+03  0.36349063820E+03  0.57005837375E+03  0.47000000000E+01 0. -1.
         -5    1    6    6    0  503 -0.82237072397E+01 -0.23748901217E+02  0.48812343041E+02  0.55103307550E+02  0.47000000000E+01 0.  1.
<mgrwt>
<rscale>  0 0.54761521E+03</rscale>
<asrwt>0</asrwt>
<pdfrwt beam="1">  1        3 0.18598772E+00 0.54761521E+03</pdfrwt>
<pdfrwt beam="2">  1       -3 0.94435521E-01 0.54761521E+03</pdfrwt>
<totfact> 0.47695682E-01</totfact>
</mgrwt>
</event>
<event>
12    1  0.3166324E-008  0.9210300E+03  0.7818608E-02  0.9399668E-01
          2   -1    0    0  501    0  0.00000000000E+00  0.00000000000E+00  0.25718037685E+04  0.25718037685E+04  0.00000000000E+00 0. -1.
         -2   -1    0    0    0  501 -0.00000000000E+00 -0.00000000000E+00 -0.41659439889E+03  0.41659439889E+03  0.00000000000E+00 0.  1.
         23    2    1    2    0    0  0.13911604732E+03  0.86361334920E+03  0.15081715390E+04  0.17458244184E+04  0.90223152174E+02 0.  0.
    5000000    2    1    2    0    0 -0.13911604732E+03 -0.86361334920E+03  0.64703783055E+03  0.12425737490E+04  0.60012521686E+03 0.  0.
         23    2    4    4    0    0 -0.26630299004E+03 -0.58457205242E+03  0.65303028301E+03  0.92061282288E+03  0.91856693580E+02 0.  0.
         23    2    4    4    0    0  0.12718694272E+03 -0.27904129677E+03 -0.59924524581E+01  0.32196092608E+03  0.97889553741E+02 0.  0.
          4    1    3    3  502    0  0.41616896478E+02  0.85025719047E+02  0.16843596234E+03  0.19321493830E+03  0.00000000000E+00 0. -1.
         -4    1    3    3    0  502  0.97499150847E+02  0.77858763015E+03  0.13397355767E+04  0.15526094801E+04  0.00000000000E+00 0.  1.
         11    1    5    5    0    0 -0.38673793219E+02 -0.11410668182E+03  0.77837194501E+02  0.14343857907E+03  0.00000000000E+00 0.  1.
        -11    1    5    5    0    0 -0.22762919682E+03 -0.47046537060E+03  0.57519308851E+03  0.77717424381E+03  0.00000000000E+00 0. -1.
          5    1    6    6  503    0  0.12193687288E+03 -0.16435963863E+03  0.14622941319E+02  0.20522819541E+03  0.47000000000E+01 0. -1.
         -5    1    6    6    0  503  0.52500698328E+01 -0.11468165815E+03 -0.20615393778E+02  0.11673273067E+03  0.47000000000E+01 0.  1.
<mgrwt>
<rscale>  0 0.92102997E+03</rscale>
<asrwt>0</asrwt>
<pdfrwt beam="1">  1        2 0.39566211E+00 0.92102997E+03</pdfrwt>
<pdfrwt beam="2">  1       -2 0.64091448E-01 0.92102997E+03</pdfrwt>
<totfact> 0.72823592E+00</totfact>
</mgrwt>
</event>
<event>
12    1  0.3166324E-008  0.9271258E+03  0.7818608E-02  0.9392294E-01
          1   -1    0    0  501    0  0.00000000000E+00  0.00000000000E+00  0.18767923699E+04  0.18767923699E+04  0.00000000000E+00 0. -1.
         -1   -1    0    0    0  501 -0.00000000000E+00 -0.00000000000E+00 -0.64108362040E+03  0.64108362040E+03  0.00000000000E+00 0.  1.
         23    2    1    2    0    0  0.89859005069E+03  0.14441588246E+03  0.10819957695E+04  0.14170806349E+04  0.95302961532E+02 0.  0.
    5000000    2    1    2    0    0 -0.89859005069E+03 -0.14441588246E+03  0.15371298003E+03  0.11007953554E+04  0.59983556734E+03 0.  0.
         23    2    4    4    0    0 -0.82617616115E+03 -0.11444296953E+03  0.31838102874E+03  0.89697739993E+03  0.86820124387E+02 0.  0.
         23    2    4    4    0    0 -0.72413889533E+02 -0.29972912927E+02 -0.16466804871E+03  0.20381795542E+03  0.91016733506E+02 0.  0.
          4    1    3    3  502    0  0.58561534380E+03  0.47866951874E+02  0.69529392146E+03  0.91031325004E+03  0.00000000000E+00 0. -1.
         -4    1    3    3    0  502  0.31297470688E+03  0.96548930583E+02  0.38670184800E+03  0.50676738489E+03  0.00000000000E+00 0.  1.
         13    1    5    5    0    0 -0.39290223820E+03 -0.85791315676E+02  0.12074034354E+03  0.41989349743E+03  0.00000000000E+00 0.  1.
        -13    1    5    5    0    0 -0.43327392295E+03 -0.28651653854E+02  0.19764068520E+03  0.47708390250E+03  0.00000000000E+00 0. -1.
          5    1    6    6  503    0 -0.77636352181E+02 -0.62450999464E+01 -0.66322704373E+02  0.10240700937E+03  0.47000000000E+01 0. -1.
         -5    1    6    6    0  503  0.52224626482E+01 -0.23727812980E+02 -0.98345344339E+02  0.10141094605E+03  0.47000000000E+01 0.  1.
<mgrwt>
<rscale>  0 0.92712578E+03</rscale>
<asrwt>0</asrwt>
<pdfrwt beam="1">  1        1 0.28873729E+00 0.92712578E+03</pdfrwt>
<pdfrwt beam="2">  1       -1 0.98628250E-01 0.92712578E+03</pdfrwt>
<totfact> 0.36242810E+00</totfact>
</mgrwt>
</event>
<event>
12    1  0.3166324E-008  0.4783290E+03  0.7818608E-02  0.1019595E+00
         -2   -1    0    0    0  501 -0.00000000000E+00  0.00000000000E+00  0.28055244548E+03  0.28055244548E+03  0.00000000000E+00 0.  1.
          2   -1    0    0  501    0  0.00000000000E+00 -0.00000000000E+00 -0.13440649069E+04  0.13440649069E+04  0.00000000000E+00 0. -1.
         23    2    1    2    0    0  0.43694138574E+03  0.18152778600E+02 -0.21448834821E+03  0.49634903120E+03  0.95445331547E+02 0.  0.
    5000000    2    1    2    0    0 -0.43694138574E+03 -0.18152778600E+02 -0.84902411317E+03  0.11282683211E+04  0.60074966647E+03 0.  0.
         23    2    4    4    0    0 -0.39598658356E+03  0.25120102655E+02 -0.91426395648E+03  0.10002566883E+04  0.84843777085E+02 0.  0.
         23    2    4    4    0    0 -0.40954802185E+02 -0.43272881255E+02  0.65239843320E+02  0.12801163279E+03  0.92633163064E+02 0.  0.
          4    1    3    3  502    0  0.10782346706E+03 -0.36108754542E+02 -0.46152435684E+02  0.12271833409E+03  0.00000000000E+00 0. -1.
         -4    1    3    3    0  502  0.32911791868E+03  0.54261533142E+02 -0.16833591252E+03  0.37363069711E+03  0.00000000000E+00 0.  1.
         11    1    5    5    0    0 -0.18705280384E+03  0.44657635515E+02 -0.37116543899E+03  0.41802731841E+03  0.00000000000E+00 0. -1.
        -11    1    5    5    0    0 -0.20893377972E+03 -0.19537532861E+02 -0.54309851749E+03  0.58222936992E+03  0.00000000000E+00 0.  1.
          5    1    6    6  503    0 -0.23045671814E+01  0.26672475161E+02  0.30188890805E+02  0.40622544100E+02  0.47000000000E+01 0. -1.
         -5    1    6    6    0  503 -0.38650235004E+02 -0.69945356416E+02  0.35050952515E+02  0.87389088691E+02  0.47000000000E+01 0.  1.
<mgrwt>
<rscale>  0 0.47832905E+03</rscale>
<asrwt>0</asrwt>
<pdfrwt beam="1">  1        2 0.20677922E+00 0.47832905E+03</pdfrwt>
<pdfrwt beam="2">  1       -2 0.43161914E-01 0.47832905E+03</pdfrwt>
<totfact> 0.83194864E+01</totfact>
</mgrwt>
</event>
<event>
12    1  0.3166324E-008  0.5902417E+03  0.7818608E-02  0.9925861E-01
         -2   -1    0    0    0  501 -0.00000000000E+00  0.00000000000E+00  0.51025581579E+03  0.51025581579E+03  0.00000000000E+00 0.  1.
          2   -1    0    0  501    0  0.00000000000E+00 -0.00000000000E+00 -0.99212449858E+03  0.99212449858E+03  0.00000000000E+00 0. -1.
         23    2    1    2    0    0 -0.39082400566E+03 -0.40785523397E+03 -0.61725998886E+02  0.57705432206E+03  0.10046042202E+03 0.  0.
    5000000    2    1    2    0    0  0.39082400566E+03  0.40785523397E+03 -0.42014268391E+03  0.92532599230E+03  0.60051563003E+03 0.  0.
         23    2    4    4    0    0  0.65839570447E+02  0.17572775438E+03  0.12488764821E+03  0.24350464519E+03  0.92100460686E+02 0.  0.
         23    2    4    4    0    0  0.32498443522E+03  0.23212747959E+03 -0.54503033212E+03  0.68182134711E+03  0.91237254105E+02 0.  0.
          1    1    3    3  502    0 -0.30161621576E+02 -0.15325114931E+01  0.47860270931E+00  0.30204322011E+02  0.00000000000E+00 0. -1.
         -1    1    3    3    0  502 -0.36066238409E+03 -0.40632272248E+03 -0.62204601595E+02  0.54685000005E+03  0.00000000000E+00 0.  1.
         13    1    5    5    0    0  0.55450820646E+02  0.57983982576E+02  0.89332347223E+02  0.12007166196E+03  0.00000000000E+00 0. -1.
        -13    1    5    5    0    0  0.10388749801E+02  0.11774377180E+03  0.35555300984E+02  0.12343298323E+03  0.00000000000E+00 0.  1.
          5    1    6    6  503    0  0.63301900699E+02  0.80081337242E+01 -0.10464379552E+03  0.12265265908E+03  0.47000000000E+01 0. -1.
         -5    1    6    6    0  503  0.26168253452E+03  0.22411934587E+03 -0.44038653660E+03  0.55916868803E+03  0.47000000000E+01 0.  1.
<mgrwt>
<rscale>  0 0.59024166E+03</rscale>
<asrwt>0</asrwt>
<pdfrwt beam="1">  1        2 0.15263454E+00 0.59024166E+03</pdfrwt>
<pdfrwt beam="2">  1       -2 0.78500895E-01 0.59024166E+03</pdfrwt>
<totfact> 0.37961446E+01</totfact>
</mgrwt>
</event>
<event>
12    1  0.3166324E-008  0.1511408E+04  0.7818608E-02  0.8876902E-01
          2   -1    0    0  501    0  0.00000000000E+00  0.00000000000E+00  0.21232731804E+04  0.21232731804E+04  0.00000000000E+00 0. -1.
         -2   -1    0    0    0  501 -0.00000000000E+00 -0.00000000000E+00 -0.11481017886E+04  0.11481017886E+04  0.00000000000E+00 0.  1.
         23    2    1    2    0    0  0.84806747685E+03  0.12289188557E+04  0.29798354268E+03  0.15254804310E+04  0.94001886221E+02 0.  0.
    5000000    2    1    2    0    0 -0.84806747685E+03 -0.12289188557E+04  0.67718784908E+03  0.17458945379E+04  0.60008695652E+03 0.  0.
         23    2    4    4    0    0 -0.71387675067E+03 -0.11296683039E+04  0.37884008668E+03  0.13920871124E+04  0.92823623336E+02 0.  0.
         23    2    4    4    0    0 -0.13419072618E+03 -0.99250551776E+02  0.29834776240E+03  0.35380742556E+03  0.91161856262E+02 0.  0.
          1    1    3    3  502    0  0.70940505865E+03  0.10810273953E+04  0.24618104048E+03  0.13162373917E+04  0.00000000000E+00 0. -1.
         -1    1    3    3    0  502  0.13866241820E+03  0.14789146042E+03  0.51802502205E+02  0.20924303936E+03  0.00000000000E+00 0.  1.
         11    1    5    5    0    0 -0.48281150809E+03 -0.83711821732E+03  0.28819157846E+03  0.10084286033E+04  0.00000000000E+00 0.  1.
        -11    1    5    5    0    0 -0.23106524258E+03 -0.29255008660E+03  0.90648508225E+02  0.38365850902E+03  0.00000000000E+00 0. -1.
          5    1    6    6  503    0 -0.10789786034E+03 -0.27642208077E+02  0.20312945664E+03  0.23171039270E+03  0.47000000000E+01 0. -1.
         -5    1    6    6    0  503 -0.26292865833E+02 -0.71608343699E+02  0.95218305761E+02  0.12209703286E+03  0.47000000000E+01 0.  1.
<mgrwt>
<rscale>  0 0.15114079E+04</rscale>
<asrwt>0</asrwt>
<pdfrwt beam="1">  1        2 0.32665741E+00 0.15114079E+04</pdfrwt>
<pdfrwt beam="2">  1       -2 0.17663104E+00 0.15114079E+04</pdfrwt>
<totfact> 0.10259290E+00</totfact>
</mgrwt>
</event>
<event>
12    1  0.3166324E-008  0.7608198E+03  0.7818608E-02  0.9618527E-01
          2   -1    0    0  501    0  0.00000000000E+00  0.00000000000E+00  0.50394283175E+03  0.50394283175E+03  0.00000000000E+00 0. -1.
         -2   -1    0    0    0  501 -0.00000000000E+00 -0.00000000000E+00 -0.15314985092E+04  0.15314985092E+04  0.00000000000E+00 0.  1.
         23    2    1    2    0    0 -0.17696021145E+03 -0.70225402776E+03 -0.14163486501E+03  0.74365274076E+03  0.92104983091E+02 0.  0.
    5000000    2    1    2    0    0  0.17696021145E+03  0.70225402776E+03 -0.88592081243E+03  0.12917886002E+04  0.59948850342E+03 0.  0.
         23    2    4    4    0    0  0.13818583203E+03  0.69508484229E+02 -0.52956074374E+03  0.55906967665E+03  0.90540424583E+02 0.  0.
         23    2    4    4    0    0  0.38774379421E+02  0.63274554353E+03 -0.35636006869E+03  0.73271892354E+03  0.89521768274E+02 0.  0.
          3    1    3    3  502    0 -0.13173789127E+03 -0.38891125458E+03 -0.11235884753E+03  0.42571275122E+03  0.00000000000E+00 0. -1.
         -3    1    3    3    0  502 -0.45222320178E+02 -0.31334277318E+03 -0.29276017480E+02  0.31793998954E+03  0.00000000000E+00 0.  1.
         11    1    5    5    0    0  0.12388174273E+02  0.15879781047E+01 -0.19300408208E+03  0.19340776674E+03  0.00000000000E+00 0. -1.
        -11    1    5    5    0    0  0.12579765776E+03  0.67920506124E+02 -0.33655666166E+03  0.36566190990E+03  0.00000000000E+00 0.  1.
          5    1    6    6  503    0 -0.17923133778E+02  0.35422068882E+03 -0.17507841919E+03  0.39556046058E+03  0.47000000000E+01 0. -1.
         -5    1    6    6    0  503  0.56697513199E+02  0.27852485471E+03 -0.18128164950E+03  0.33715846295E+03  0.47000000000E+01 0.  1.
<mgrwt>
<rscale>  0 0.76081985E+03</rscale>
<asrwt>0</asrwt>
<pdfrwt beam="1">  1        2 0.77529666E-01 0.76081985E+03</pdfrwt>
<pdfrwt beam="2">  1       -2 0.23561516E+00 0.76081985E+03</pdfrwt>
<totfact> 0.49310081E+00</totfact>
</mgrwt>
</event>
<event>
12    1  0.3166324E-008  0.7186472E+03  0.7818608E-02  0.9685864E-01
         -2   -1    0    0    0  501 -0.00000000000E+00  0.00000000000E+00  0.27510537805E+03  0.27510537805E+03  0.00000000000E+00 0.  1.
          2   -1    0    0  501    0  0.00000000000E+00 -0.00000000000E+00 -0.22000756687E+04  0.22000756687E+04  0.00000000000E+00 0. -1.
         23    2    1    2    0    0 -0.37341693709E+03 -0.50690479010E+03 -0.11304824880E+04  0.12972003056E+04  0.91352624186E+02 0.  0.
    5000000    2    1    2    0    0  0.37341693709E+03  0.50690479010E+03 -0.79448780265E+03  0.11779807412E+04  0.60002923504E+03 0.  0.
         23    2    4    4    0    0  0.32839331429E+03  0.62563942767E+02 -0.12698894985E+03  0.36967779985E+03  0.93696672906E+02 0.  0.
         23    2    4    4    0    0  0.45023622798E+02  0.44434084733E+03 -0.66749885280E+03  0.80830294133E+03  0.91285328793E+02 0.  0.
          2    1    3    3  502    0 -0.21728081383E+03 -0.22375543492E+03 -0.59054163246E+03  0.66784494187E+03  0.00000000000E+00 0. -1.
         -2    1    3    3    0  502 -0.15613612326E+03 -0.28314935519E+03 -0.53994085555E+03  0.62935536370E+03  0.00000000000E+00 0.  1.
         13    1    5    5    0    0  0.27696704602E+03  0.86369454461E+02 -0.11264004481E+03  0.31122051176E+03  0.00000000000E+00 0. -1.
        -13    1    5    5    0    0  0.51426268268E+02 -0.23805511694E+02 -0.14348905044E+02  0.58457288091E+02  0.00000000000E+00 0.  1.
          5    1    6    6  503    0  0.71778970317E+02  0.32817129289E+03 -0.47418067794E+03  0.58113511629E+03  0.47000000000E+01 0. -1.
         -5    1    6    6    0  503 -0.26755347519E+02  0.11616955444E+03 -0.19331817486E+03  0.22716782504E+03  0.47000000000E+01 0.  1.
<mgrwt>
<rscale>  0 0.71864724E+03</rscale>
<asrwt>0</asrwt>
<pdfrwt beam="1">  1        2 0.33847317E+00 0.71864724E+03</pdfrwt>
<pdfrwt beam="2">  1       -2 0.42323905E-01 0.71864724E+03</pdfrwt>
<totfact> 0.28455397E+01</totfact>
</mgrwt>
</event>
<event>
12    1  0.3166324E-008  0.3705407E+03  0.7818608E-02  0.1054486E+00
         -2   -1    0    0    0  501 -0.00000000000E+00  0.00000000000E+00  0.88719370583E+02  0.88719370583E+02  0.00000000000E+00 0.  1.
          2   -1    0    0  501    0  0.00000000000E+00 -0.00000000000E+00 -0.25886822858E+04  0.25886822858E+04  0.00000000000E+00 0. -1.
         23    2    1    2    0    0  0.25763516222E+03 -0.77735723983E+02 -0.54848696720E+03  0.61811051975E+03  0.93829322916E+02 0.  0.
    5000000    2    1    2    0    0 -0.25763516222E+03  0.77735723983E+02 -0.19514759480E+04  0.20592911366E+04  0.60000240844E+03 0.  0.
         23    2    4    4    0    0 -0.24935436751E+02 -0.12049901277E+03 -0.14935891217E+04  0.15013273881E+04  0.89630763027E+02 0.  0.
         23    2    4    4    0    0 -0.23269972547E+03  0.19823473675E+03 -0.45788682632E+03  0.55796374855E+03  0.90647812384E+02 0.  0.
          1    1    3    3  502    0  0.13435652368E+03 -0.74890195947E+02 -0.23109622160E+03  0.27760706141E+03  0.00000000000E+00 0. -1.
         -1    1    3    3    0  502  0.12327863854E+03 -0.28455280355E+01 -0.31739074560E+03  0.34050345834E+03  0.00000000000E+00 0.  1.
         11    1    5    5    0    0 -0.31779161067E+02 -0.13338535725E+03 -0.13827589090E+04  0.13895408482E+04  0.00000000000E+00 0.  1.
        -11    1    5    5    0    0  0.68437243164E+01  0.12886344475E+02 -0.11083021270E+03  0.11178653981E+03  0.00000000000E+00 0. -1.
          5    1    6    6  503    0 -0.45502299779E+02  0.75727762309E+02 -0.82653969347E+02  0.12107403486E+03  0.47000000000E+01 0. -1.
         -5    1    6    6    0  503 -0.18719742569E+03  0.12250697445E+03 -0.37523285698E+03  0.43688971369E+03  0.47000000000E+01 0.  1.
<mgrwt>
<rscale>  0 0.37054074E+03</rscale>
<asrwt>0</asrwt>
<pdfrwt beam="1">  1        2 0.39825876E+00 0.37054074E+03</pdfrwt>
<pdfrwt beam="2">  1       -2 0.13649136E-01 0.37054074E+03</pdfrwt>
<totfact> 0.14024934E+02</totfact>
</mgrwt>
</event>
<event>
12    1  0.3166324E-008  0.1064125E+04  0.7818608E-02  0.9240881E-01
          2   -1    0    0  501    0  0.00000000000E+00  0.00000000000E+00  0.25764492115E+04  0.25764492115E+04  0.00000000000E+00 0.  1.
         -2   -1    0    0    0  501 -0.00000000000E+00 -0.00000000000E+00 -0.11889646116E+04  0.11889646116E+04  0.00000000000E+00 0. -1.
         23    2    1    2    0    0  0.41356977624E+02  0.10273418221E+04  0.21268801821E+04  0.23640733808E+04  0.89900064596E+02 0.  0.
    5000000    2    1    2    0    0 -0.41356977624E+02 -0.10273418221E+04 -0.73939558224E+03  0.14013404423E+04  0.59992298610E+03 0.  0.
         23    2    4    4    0    0  0.14983547456E+03 -0.59504441913E+03 -0.14585638658E+03  0.63709626777E+03  0.89939083402E+02 0.  0.
         23    2    4    4    0    0 -0.19119245218E+03 -0.43229740298E+03 -0.59353919566E+03  0.76424417457E+03  0.91349784840E+02 0.  0.
          1    1    3    3  502    0 -0.39578332243E+01  0.78688178287E+03  0.15901386024E+04  0.17741869630E+04  0.00000000000E+00 0. -1.
         -1    1    3    3    0  502  0.45314810849E+02  0.24046003923E+03  0.53674157970E+03  0.58988641782E+03  0.00000000000E+00 0.  1.
         11    1    5    5    0    0  0.51205505904E+01 -0.16899513613E+03 -0.22696514243E+02  0.17058929578E+03  0.00000000000E+00 0.  1.
        -11    1    5    5    0    0  0.14471492397E+03 -0.42604928300E+03 -0.12315987234E+03  0.46650697199E+03  0.00000000000E+00 0. -1.
          5    1    6    6  503    0 -0.33001791736E+02 -0.28232119261E+02 -0.86150146865E+02  0.96592487392E+02  0.47000000000E+01 0. -1.
         -5    1    6    6    0  503 -0.15819066045E+03 -0.40406528371E+03 -0.50738904880E+03  0.66765168718E+03  0.47000000000E+01 0.  1.
<mgrwt>
<rscale>  0 0.10641248E+04</rscale>
<asrwt>0</asrwt>
<pdfrwt beam="1">  1        2 0.39637680E+00 0.10641248E+04</pdfrwt>
<pdfrwt beam="2">  1       -2 0.18291763E+00 0.10641248E+04</pdfrwt>
<totfact> 0.54219967E-01</totfact>
</mgrwt>
</event>
<event>
12    1  0.3166324E-008  0.8764597E+03  0.7818608E-02  0.9455496E-01
          1   -1    0    0  501    0  0.00000000000E+00  0.00000000000E+00  0.96844160620E+03  0.96844160620E+03  0.00000000000E+00 0. -1.
         -1   -1    0    0    0  501 -0.00000000000E+00 -0.00000000000E+00 -0.92825923313E+03  0.92825923313E+03  0.00000000000E+00 0.  1.
         23    2    1    2    0    0  0.38738704549E+02  0.84919963927E+03 -0.20494582330E+02  0.85442434174E+03  0.83547670692E+02 0.  0.
    5000000    2    1    2    0    0 -0.38738704549E+02 -0.84919963927E+03  0.60676955407E+02  0.10422764976E+04  0.60001490811E+03 0.  0.
         23    2    4    4    0    0 -0.14162105899E+03 -0.29762579137E+03  0.27046289625E+03  0.43626641534E+03  0.92415209036E+02 0.  0.
         23    2    4    4    0    0  0.10288235444E+03 -0.55157384790E+03 -0.20978594084E+03  0.60601008226E+03  0.91758325419E+02 0.  0.
          2    1    3    3  502    0  0.59196018774E+02  0.50653183752E+03 -0.31702408545E+02  0.51096351511E+03  0.00000000000E+00 0.  1.
         -2    1    3    3    0  502 -0.20457314225E+02  0.34266780175E+03  0.11207826215E+02  0.34346082663E+03  0.00000000000E+00 0. -1.
         11    1    5    5    0    0  0.40488096348E+01 -0.24282834755E+02  0.51094476196E+02  0.56715909769E+02  0.00000000000E+00 0. -1.
        -11    1    5    5    0    0 -0.14566986863E+03 -0.27334295662E+03  0.21936842005E+03  0.37955050557E+03  0.00000000000E+00 0.  1.
          5    1    6    6  503    0  0.11099619235E+03 -0.45865213235E+03 -0.19840215039E+03  0.51192522550E+03  0.47000000000E+01 0. -1.
         -5    1    6    6    0  503 -0.81138379057E+01 -0.92921715546E+02 -0.11383790449E+02  0.94084856754E+02  0.47000000000E+01 0.  1.
<mgrwt>
<rscale>  0 0.87645973E+03</rscale>
<asrwt>0</asrwt>
<pdfrwt beam="1">  1        1 0.14899102E+00 0.87645973E+03</pdfrwt>
<pdfrwt beam="2">  1       -1 0.14280911E+00 0.87645973E+03</pdfrwt>
<totfact> 0.64825354E+00</totfact>
</mgrwt>
</event>
<event>
12    1  0.3166324E-008  0.5685728E+03  0.7818608E-02  0.9972842E-01
          2   -1    0    0  501    0  0.00000000000E+00  0.00000000000E+00  0.18093709393E+04  0.18093709393E+04  0.00000000000E+00 0. -1.
         -2   -1    0    0    0  501 -0.00000000000E+00 -0.00000000000E+00 -0.22215082107E+03  0.22215082107E+03  0.00000000000E+00 0.  1.
         23    2    1    2    0    0 -0.18592577530E+03  0.41198263867E+03  0.90927874843E+03  0.10196498575E+04  0.92735651207E+02 0.  0.
    5000000    2    1    2    0    0  0.18592577530E+03 -0.41198263867E+03  0.67794136981E+03  0.10118719029E+04  0.59998513190E+03 0.  0.
         23    2    4    4    0    0 -0.16320708311E+03 -0.44975088353E+02  0.35634126489E+03  0.40502775651E+03  0.91701013786E+02 0.  0.
         23    2    4    4    0    0  0.34913285841E+03 -0.36700755032E+03  0.32160010491E+03  0.60684414639E+03  0.90801408146E+02 0.  0.
          3    1    3    3  502    0 -0.13076121951E+03  0.30584670851E+03  0.75005021727E+03  0.82049743087E+03  0.00000000000E+00 0. -1.
         -3    1    3    3    0  502 -0.55164555785E+02  0.10613593016E+03  0.15922853116E+03  0.19915242660E+03  0.00000000000E+00 0.  1.
         11    1    5    5    0    0 -0.14867163455E+03 -0.32761538755E+02  0.22099733981E+03  0.26835871058E+03  0.00000000000E+00 0.  1.
        -11    1    5    5    0    0 -0.14535448556E+02 -0.12213549598E+02  0.13534392508E+03  0.13666904593E+03  0.00000000000E+00 0. -1.
          5    1    6    6  503    0  0.56021030393E+02 -0.20588169008E+02  0.49732947442E+02  0.77831128802E+02  0.47000000000E+01 0. -1.
         -5    1    6    6    0  503  0.29311182801E+03 -0.34641938131E+03  0.27186715747E+03  0.52901301759E+03  0.47000000000E+01 0.  1.
<mgrwt>
<rscale>  0 0.56857279E+03</rscale>
<asrwt>0</asrwt>
<pdfrwt beam="1">  1        2 0.27836475E+00 0.56857279E+03</pdfrwt>
<pdfrwt beam="2">  1       -2 0.34177051E-01 0.56857279E+03</pdfrwt>
<totfact> 0.71620203E+01</totfact>
</mgrwt>
</event>
<event>
12    1  0.3166324E-008  0.2796592E+03  0.7818608E-02  0.1095875E+00
          2   -1    0    0  501    0  0.00000000000E+00  0.00000000000E+00  0.67180611686E+03  0.67180611686E+03  0.00000000000E+00 0.  1.
         -2   -1    0    0    0  501 -0.00000000000E+00 -0.00000000000E+00 -0.25676910452E+03  0.25676910452E+03  0.00000000000E+00 0. -1.
         23    2    1    2    0    0  0.48485924628E+02  0.89962599413E+02 -0.67657407724E+02  0.15184669293E+03  0.89642284408E+02 0.  0.
    5000000    2    1    2    0    0 -0.48485924628E+02 -0.89962599413E+02  0.48269442006E+03  0.77672852845E+03  0.59989094807E+03 0.  0.
         23    2    4    4    0    0 -0.23663902110E+03 -0.27592385411E+02  0.49650199567E+03  0.55805417824E+03  0.90282158268E+02 0.  0.
         23    2    4    4    0    0  0.18815309648E+03 -0.62370214003E+02 -0.13807575612E+02  0.21867435021E+03  0.91302743599E+02 0.  0.
          2    1    3    3  502    0  0.12106404759E+02  0.43782343365E+02 -0.79794499527E+02  0.91818411996E+02  0.00000000000E+00 0. -1.
         -2    1    3    3    0  502  0.36379519868E+02  0.46180256049E+02  0.12137091803E+02  0.60028280935E+02  0.00000000000E+00 0.  1.
         11    1    5    5    0    0 -0.49840513873E+02 -0.20960668532E+02  0.20308068154E+03  0.21015515616E+03  0.00000000000E+00 0. -1.
        -11    1    5    5    0    0 -0.18679850723E+03 -0.66317168791E+01  0.29342131414E+03  0.34789902208E+03  0.00000000000E+00 0.  1.
          5    1    6    6  503    0  0.19577226583E+03 -0.58625803757E+02 -0.33991000543E+01  0.20444414596E+03  0.47000000000E+01 0. -1.
         -5    1    6    6    0  503 -0.76191693552E+01 -0.37444102452E+01 -0.10408475558E+02  0.14230204256E+02  0.47000000000E+01 0.  1.
<mgrwt>
<rscale>  0 0.27965916E+03</rscale>
<asrwt>0</asrwt>
<pdfrwt beam="1">  1        2 0.10335479E+00 0.27965916E+03</pdfrwt>
<pdfrwt beam="2">  1       -2 0.39502939E-01 0.27965916E+03</pdfrwt>
<totfact> 0.27121567E+02</totfact>
</mgrwt>
</event>
<event>
12    1  0.3166324E-008  0.9483123E+03  0.7818608E-02  0.9367125E-01
          2   -1    0    0  501    0  0.00000000000E+00  0.00000000000E+00  0.11997618759E+04  0.11997618759E+04  0.00000000000E+00 0. -1.
         -2   -1    0    0    0  501 -0.00000000000E+00 -0.00000000000E+00 -0.10798732299E+04  0.10798732299E+04  0.00000000000E+00 0.  1.
         23    2    1    2    0    0  0.80035144930E+03  0.49064639232E+03 -0.43041694080E+03  0.10368432831E+04  0.92135367908E+02 0.  0.
    5000000    2    1    2    0    0 -0.80035144930E+03 -0.49064639232E+03  0.55030558685E+03  0.12427918227E+04  0.60033236710E+03 0.  0.
         23    2    4    4    0    0 -0.69559578393E+03 -0.44801740828E+03  0.65908597465E+03  0.10617227439E+04  0.91037191201E+02 0.  0.
         23    2    4    4    0    0 -0.10475566537E+03 -0.42628984041E+02 -0.10878038781E+03  0.18106907881E+03  0.90343006499E+02 0.  0.
          1    1    3    3  502    0  0.10612314267E+03  0.63143593889E+02 -0.92501025742E+02  0.15429087667E+03  0.00000000000E+00 0. -1.
         -1    1    3    3    0  502  0.69422830662E+03  0.42750279844E+03 -0.33791591506E+03  0.88255240640E+03  0.00000000000E+00 0.  1.
         13    1    5    5    0    0 -0.28373976383E+03 -0.23126737321E+03  0.26543791993E+03  0.45216163130E+03  0.00000000000E+00 0. -1.
        -13    1    5    5    0    0 -0.41185602011E+03 -0.21675003508E+03  0.39364805473E+03  0.60956111260E+03  0.00000000000E+00 0.  1.
          5    1    6    6  503    0 -0.78419847957E+02 -0.55994520787E+02 -0.37030230532E+02  0.10333628058E+03  0.47000000000E+01 0. -1.
         -5    1    6    6    0  503 -0.26335817409E+02  0.13365536746E+02 -0.71750157276E+02  0.77732798227E+02  0.47000000000E+01 0.  1.
<mgrwt>
<rscale>  0 0.94831226E+03</rscale>
<asrwt>0</asrwt>
<pdfrwt beam="1">  1        2 0.18457875E+00 0.94831226E+03</pdfrwt>
<pdfrwt beam="2">  1       -2 0.16613434E+00 0.94831226E+03</pdfrwt>
<totfact> 0.42912946E+00</totfact>
</mgrwt>
</event>
<event>
12    1  0.3166324E-008  0.7895319E+03  0.7818608E-02  0.9575294E-01
          2   -1    0    0  501    0  0.00000000000E+00  0.00000000000E+00  0.65525230539E+03  0.65525230539E+03  0.00000000000E+00 0. -1.
         -2   -1    0    0    0  501 -0.00000000000E+00 -0.00000000000E+00 -0.11591752725E+04  0.11591752725E+04  0.00000000000E+00 0.  1.
         23    2    1    2    0    0  0.49751129666E+03 -0.50516473829E+03  0.75214153480E+02  0.71987820222E+03  0.99290251444E+02 0.  0.
    5000000    2    1    2    0    0 -0.49751129666E+03  0.50516473829E+03 -0.57913712060E+03  0.10945493757E+04  0.59994135400E+03 0.  0.
         23    2    4    4    0    0 -0.32586919302E+03  0.58541811193E+03 -0.28587490132E+03  0.73355765798E+03  0.86471276449E+02 0.  0.
         23    2    4    4    0    0 -0.17164210364E+03 -0.80253373636E+02 -0.29326221929E+03  0.36099171770E+03  0.91709733773E+02 0.  0.
          3    1    3    3  502    0  0.16005000484E+03 -0.22544304794E+03  0.48892505338E+02  0.28076867523E+03  0.00000000000E+00 0. -1.
         -3    1    3    3    0  502  0.33746129182E+03 -0.27972169035E+03  0.26321648142E+02  0.43910952699E+03  0.00000000000E+00 0.  1.
         13    1    5    5    0    0 -0.21402707661E+03  0.35889067042E+03 -0.22109990005E+03  0.47275286212E+03  0.00000000000E+00 0.  1.
        -13    1    5    5    0    0 -0.11184211642E+03  0.22652744150E+03 -0.64775001270E+02  0.26080479587E+03  0.00000000000E+00 0. -1.
          5    1    6    6  503    0 -0.10333524336E+03 -0.26668335264E+02 -0.22959271873E+03  0.25322772186E+03  0.47000000000E+01 0. -1.
         -5    1    6    6    0  503 -0.68306860281E+02 -0.53585038372E+02 -0.63669500556E+02  0.10776399584E+03  0.47000000000E+01 0.  1.
<mgrwt>
<rscale>  0 0.78953194E+03</rscale>
<asrwt>0</asrwt>
<pdfrwt beam="1">  1        2 0.10080805E+00 0.78953194E+03</pdfrwt>
<pdfrwt beam="2">  1       -2 0.17833466E+00 0.78953194E+03</pdfrwt>
<totfact> 0.83983536E+00</totfact>
</mgrwt>
</event>
<event>
12    1  0.3166324E-008  0.1011331E+04  0.7818608E-02  0.9296204E-01
          2   -1    0    0  501    0  0.00000000000E+00  0.00000000000E+00  0.12594212228E+04  0.12594212228E+04  0.00000000000E+00 0. -1.
         -2   -1    0    0    0  501 -0.00000000000E+00 -0.00000000000E+00 -0.11151037349E+04  0.11151037349E+04  0.00000000000E+00 0.  1.
         23    2    1    2    0    0  0.80768554621E+03 -0.46923871979E+03  0.66293699818E+03  0.11491944703E+04  0.92852298907E+02 0.  0.
    5000000    2    1    2    0    0 -0.80768554621E+03  0.46923871979E+03 -0.51861951027E+03  0.12253304873E+04  0.59993973786E+03 0.  0.
         23    2    4    4    0    0 -0.61746112370E+03  0.49915788052E+02 -0.19624238253E+03  0.65598998494E+03  0.89788431731E+02 0.  0.
         23    2    4    4    0    0 -0.19022442251E+03  0.41932293173E+03 -0.32237712774E+03  0.56934050239E+03  0.90578933408E+02 0.  0.
          1    1    3    3  502    0  0.52410338272E+03 -0.31182863359E+03  0.37822025216E+03  0.71761550405E+03  0.00000000000E+00 0. -1.
         -1    1    3    3    0  502  0.28358216349E+03 -0.15741008619E+03  0.28471674602E+03  0.43157896629E+03  0.00000000000E+00 0.  1.
         11    1    5    5    0    0 -0.25268294563E+03  0.30844623473E+02 -0.35925741515E+02  0.25708115589E+03  0.00000000000E+00 0.  1.
        -11    1    5    5    0    0 -0.36477817806E+03  0.19071164579E+02 -0.16031664102E+03  0.39890882905E+03  0.00000000000E+00 0. -1.
          5    1    6    6  503    0 -0.19064339180E+03  0.34530461960E+03 -0.28195480804E+03  0.48487192838E+03  0.47000000000E+01 0. -1.
         -5    1    6    6    0  503  0.41896928075E+00  0.74018312131E+02 -0.40422319700E+02  0.84468574013E+02  0.47000000000E+01 0.  1.
<mgrwt>
<rscale>  0 0.10113311E+04</rscale>
<asrwt>0</asrwt>
<pdfrwt beam="1">  1        2 0.19375711E+00 0.10113311E+04</pdfrwt>
<pdfrwt beam="2">  1       -2 0.17155442E+00 0.10113311E+04</pdfrwt>
<totfact> 0.35928180E+00</totfact>
</mgrwt>
</event>
<event>
12    1  0.3166324E-008  0.1135351E+04  0.7818608E-02  0.9171405E-01
         -2   -1    0    0    0  501 -0.00000000000E+00  0.00000000000E+00  0.16615826546E+04  0.16615826546E+04  0.00000000000E+00 0. -1.
          2   -1    0    0  501    0  0.00000000000E+00 -0.00000000000E+00 -0.79759768434E+03  0.79759768434E+03  0.00000000000E+00 0.  1.
         23    2    1    2    0    0 -0.96892856194E+03  0.44544366805E+03  0.29789193799E+03  0.11109437045E+04  0.90629401115E+02 0.  0.
    5000000    2    1    2    0    0  0.96892856194E+03 -0.44544366805E+03  0.56609303225E+03  0.13482366344E+04  0.60003173387E+03 0.  0.
         23    2    4    4    0    0  0.80981484306E+03 -0.10372365061E+03  0.28817330232E+03  0.87072423791E+03  0.92510380926E+02 0.  0.
         23    2    4    4    0    0  0.15911371888E+03 -0.34172001744E+03  0.27791972993E+03  0.47751239650E+03  0.93214626919E+02 0.  0.
          3    1    3    3  502    0 -0.84076600727E+03  0.37294512091E+03  0.28603829470E+03  0.96322035290E+03  0.00000000000E+00 0. -1.
         -3    1    3    3    0  502 -0.12816255466E+03  0.72498547140E+02  0.11853643287E+02  0.14772335162E+03  0.00000000000E+00 0.  1.
         11    1    5    5    0    0  0.54151719590E+03 -0.82290222979E+02  0.23671763708E+03  0.59669740569E+03  0.00000000000E+00 0.  1.
        -11    1    5    5    0    0  0.26829764715E+03 -0.21433427632E+02  0.51455665241E+02  0.27402683221E+03  0.00000000000E+00 0. -1.
          5    1    6    6  503    0  0.16311028289E+03 -0.27480965876E+03  0.21299097483E+03  0.38407363654E+03  0.47000000000E+01 0. -1.
         -5    1    6    6    0  503 -0.39965640079E+01 -0.66910358685E+02  0.64928755102E+02  0.93438759958E+02  0.47000000000E+01 0.  1.
<mgrwt>
<rscale>  0 0.11353510E+04</rscale>
<asrwt>0</asrwt>
<pdfrwt beam="1">  1        2 0.12270734E+00 0.11353510E+04</pdfrwt>
<pdfrwt beam="2">  1       -2 0.25562810E+00 0.11353510E+04</pdfrwt>
<totfact> 0.20183133E+00</totfact>
</mgrwt>
</event>
<event>
12    1  0.3166324E-008  0.7499483E+03  0.7818608E-02  0.9635431E-01
         -1   -1    0    0    0  501 -0.00000000000E+00  0.00000000000E+00  0.39173526037E+03  0.39173526037E+03  0.00000000000E+00 0.  1.
          1   -1    0    0  501    0  0.00000000000E+00 -0.00000000000E+00 -0.17207740805E+04  0.17207740805E+04  0.00000000000E+00 0. -1.
         23    2    1    2    0    0 -0.67850072874E+03  0.19841301437E+03 -0.62852074014E+03  0.95040326056E+03  0.92179573272E+02 0.  0.
    5000000    2    1    2    0    0  0.67850072874E+03 -0.19841301437E+03 -0.70051807999E+03  0.11621060803E+04  0.60002833127E+03 0.  0.
         23    2    4    4    0    0  0.51658334370E+03 -0.27651457807E+03 -0.20503685769E+03  0.62688940107E+03  0.87358716173E+02 0.  0.
         23    2    4    4    0    0  0.16191738504E+03  0.78101563704E+02 -0.49548122230E+03  0.53521667924E+03  0.92941692726E+02 0.  0.
          2    1    3    3  502    0 -0.15610763020E+03  0.62864717245E+01 -0.14304400495E+03  0.21182705041E+03  0.00000000000E+00 0. -1.
         -2    1    3    3    0  502 -0.52239309854E+03  0.19212654265E+03 -0.48547673518E+03  0.73857621015E+03  0.00000000000E+00 0.  1.
         13    1    5    5    0    0  0.16640036090E+03 -0.10599630267E+03 -0.11033527673E+03  0.22604904242E+03  0.00000000000E+00 0.  1.
        -13    1    5    5    0    0  0.35018298280E+03 -0.17051827541E+03 -0.94701580953E+02  0.40084035865E+03  0.00000000000E+00 0. -1.
          5    1    6    6  503    0  0.17263968019E+03  0.72719815966E+02 -0.43967481912E+03  0.47794211718E+03  0.47000000000E+01 0. -1.
         -5    1    6    6    0  503 -0.10722295150E+02  0.53817477385E+01 -0.55806403188E+02  0.57274562057E+02  0.47000000000E+01 0.  1.
<mgrwt>
<rscale>  0 0.74994834E+03</rscale>
<asrwt>0</asrwt>
<pdfrwt beam="1">  1        1 0.26473447E+00 0.74994834E+03</pdfrwt>
<pdfrwt beam="2">  1       -1 0.60266965E-01 0.74994834E+03</pdfrwt>
<totfact> 0.13392898E+01</totfact>
</mgrwt>
</event>
<event>
12    1  0.3166324E-008  0.9989068E+03  0.7818608E-02  0.9309745E-01
         -2   -1    0    0    0  501 -0.00000000000E+00  0.00000000000E+00  0.67478077243E+03  0.67478077243E+03  0.00000000000E+00 0.  1.
          2   -1    0    0  501    0  0.00000000000E+00 -0.00000000000E+00 -0.17254129470E+04  0.17254129470E+04  0.00000000000E+00 0. -1.
         23    2    1    2    0    0 -0.50393372999E+02  0.97175441101E+03 -0.70669452132E+03  0.12064200211E+04  0.95843588925E+02 0.  0.
    5000000    2    1    2    0    0  0.50393372999E+02 -0.97175441101E+03 -0.34393765327E+03  0.11937736983E+04  0.59996367066E+03 0.  0.
         23    2    4    4    0    0 -0.89699434835E+02 -0.20332507959E+03  0.13192850569E+03  0.27474680152E+03  0.93239464445E+02 0.  0.
         23    2    4    4    0    0  0.14009280783E+03 -0.76842933142E+03 -0.47586615896E+03  0.91902689681E+03  0.89734071698E+02 0.  0.
          1    1    3    3  502    0  0.48534741751E+01  0.60141983121E+03 -0.39869592370E+03  0.72158700734E+03  0.00000000000E+00 0. -1.
         -1    1    3    3    0  502 -0.55246847174E+02  0.37033457980E+03 -0.30799859761E+03  0.48483301378E+03  0.00000000000E+00 0.  1.
         13    1    5    5    0    0 -0.14892690959E+02  0.52959211275E+01 -0.17852788741E+01  0.15906798712E+02  0.00000000000E+00 0.  1.
        -13    1    5    5    0    0 -0.74806743876E+02 -0.20862100072E+03  0.13371378456E+03  0.25884000280E+03  0.00000000000E+00 0. -1.
          5    1    6    6  503    0  0.14584065253E+03 -0.75659311136E+03 -0.47466379647E+03  0.90500300649E+03  0.47000000000E+01 0. -1.
         -5    1    6    6    0  503 -0.57478447000E+01 -0.11836220064E+02 -0.12023624935E+01  0.14023890319E+02  0.47000000000E+01 0.  1.
<mgrwt>
<rscale>  0 0.99890683E+03</rscale>
<asrwt>0</asrwt>
<pdfrwt beam="1">  1        2 0.26544814E+00 0.99890683E+03</pdfrwt>
<pdfrwt beam="2">  1       -2 0.10381243E+00 0.99890683E+03</pdfrwt>
<totfact> 0.71507807E+00</totfact>
</mgrwt>
</event>
<event>
12    1  0.3166324E-008  0.7031943E+03  0.7818608E-02  0.9711785E-01
          1   -1    0    0  501    0  0.00000000000E+00  0.00000000000E+00  0.24798242691E+04  0.24798242691E+04  0.00000000000E+00 0. -1.
         -1   -1    0    0    0  501 -0.00000000000E+00 -0.00000000000E+00 -0.33562570803E+03  0.33562570803E+03  0.00000000000E+00 0.  1.
         23    2    1    2    0    0  0.50447599388E+03  0.34737986862E+03  0.13812918766E+03  0.63382435346E+03  0.86514952654E+02 0.  0.
    5000000    2    1    2    0    0 -0.50447599388E+03 -0.34737986862E+03  0.20060693734E+04  0.21816256237E+04  0.60000602453E+03 0.  0.
         23    2    4    4    0    0  0.44637591335E+02 -0.20825785494E+03  0.28694275896E+03  0.36904279304E+03  0.92155235722E+02 0.  0.
         23    2    4    4    0    0 -0.54911358521E+03 -0.13912201368E+03  0.17191266145E+04  0.18125828307E+04  0.95809901815E+02 0.  0.
          1    1    3    3  502    0  0.37872042383E+03  0.22540693370E+03  0.71990885641E+02  0.44656481366E+03  0.00000000000E+00 0. -1.
         -1    1    3    3    0  502  0.12575557005E+03  0.12197293491E+03  0.66138302022E+02  0.18725953979E+03  0.00000000000E+00 0.  1.
         13    1    5    5    0    0  0.32713598266E+01 -0.11930897436E+03  0.21996936172E+03  0.25026356757E+03  0.00000000000E+00 0. -1.
        -13    1    5    5    0    0  0.41366231509E+02 -0.88948880574E+02  0.66973397242E+02  0.11877922547E+03  0.00000000000E+00 0.  1.
          5    1    6    6  503    0 -0.78937316142E+02 -0.52480207559E+02  0.33623158607E+03  0.34936949142E+03  0.47000000000E+01 0. -1.
         -5    1    6    6    0  503 -0.47017626907E+03 -0.86641806120E+02  0.13828950284E+04  0.14632133392E+04  0.47000000000E+01 0.  1.
<mgrwt>
<rscale>  0 0.70319429E+03</rscale>
<asrwt>0</asrwt>
<pdfrwt beam="1">  1        1 0.38151141E+00 0.70319429E+03</pdfrwt>
<pdfrwt beam="2">  1       -1 0.51634726E-01 0.70319429E+03</pdfrwt>
<totfact> 0.56330907E+00</totfact>
</mgrwt>
</event>
<event>
12    1  0.3166324E-008  0.1513196E+04  0.7818608E-02  0.8875725E-01
          2   -1    0    0  501    0  0.00000000000E+00  0.00000000000E+00  0.14897161444E+04  0.14897161444E+04  0.00000000000E+00 0. -1.
         -2   -1    0    0    0  501 -0.00000000000E+00 -0.00000000000E+00 -0.30635535937E+04  0.30635535937E+04  0.00000000000E+00 0.  1.
         23    2    1    2    0    0  0.12330182947E+04  0.86293723449E+03 -0.23221773880E+04  0.27686577124E+04  0.89235201445E+02 0.  0.
    5000000    2    1    2    0    0 -0.12330182947E+04 -0.86293723449E+03  0.74833993869E+03  0.17846120257E+04  0.59986051103E+03 0.  0.
         23    2    4    4    0    0 -0.76942632681E+02 -0.32673166753E+02  0.24131008085E+03  0.27107326582E+03  0.90898051521E+02 0.  0.
         23    2    4    4    0    0 -0.11560756620E+04 -0.83026406774E+03  0.50702985784E+03  0.15135387599E+04  0.88718332037E+02 0.  0.
          2    1    3    3  502    0  0.38813224716E+03  0.24363814272E+03 -0.64525468661E+03  0.79142895857E+03  0.00000000000E+00 0. -1.
         -2    1    3    3    0  502  0.84488604751E+03  0.61929909178E+03 -0.16769227014E+04  0.19772287538E+04  0.00000000000E+00 0.  1.
         11    1    5    5    0    0 -0.11098555118E+02 -0.26656919560E+02  0.17523611101E+03  0.17759916635E+03  0.00000000000E+00 0.  1.
        -11    1    5    5    0    0 -0.65844077563E+02 -0.60162471931E+01  0.66073969838E+02  0.93474099464E+02  0.00000000000E+00 0. -1.
          5    1    6    6  503    0 -0.48591124188E+03 -0.39766229483E+03  0.24329850721E+03  0.67339534401E+03  0.47000000000E+01 0. -1.
         -5    1    6    6    0  503 -0.67016442010E+03 -0.43260177291E+03  0.26373135062E+03  0.84014341585E+03  0.47000000000E+01 0.  1.
<mgrwt>
<rscale>  0 0.15131959E+04</rscale>
<asrwt>0</asrwt>
<pdfrwt beam="1">  1        2 0.22918710E+00 0.15131959E+04</pdfrwt>
<pdfrwt beam="2">  1       -2 0.47131594E+00 0.15131959E+04</pdfrwt>
<totfact> 0.30297542E-02</totfact>
</mgrwt>
</event>
<event>
12    1  0.3166324E-008  0.5821636E+03  0.7818608E-02  0.9943118E-01
          2   -1    0    0  501    0  0.00000000000E+00  0.00000000000E+00  0.30792008482E+04  0.30792008482E+04  0.00000000000E+00 0. -1.
         -2   -1    0    0    0  501 -0.00000000000E+00 -0.00000000000E+00 -0.15420177454E+03  0.15420177454E+03  0.00000000000E+00 0.  1.
         23    2    1    2    0    0  0.40612370428E+03  0.37211784856E+03  0.10567315055E+04  0.11951920502E+04  0.91620988974E+02 0.  0.
    5000000    2    1    2    0    0 -0.40612370428E+03 -0.37211784856E+03  0.18682675682E+04  0.20382105726E+04  0.60039193499E+03 0.  0.
         23    2    4    4    0    0 -0.67520000040E+02  0.84195886163E+01  0.11347841391E+04  0.11404489483E+04  0.90878607627E+02 0.  0.
         23    2    4    4    0    0 -0.33860370424E+03 -0.38053743718E+03  0.73348342907E+03  0.89776162435E+03  0.92286422770E+02 0.  0.
          2    1    3    3  502    0  0.19596209579E+03  0.18595456419E+03  0.61597599269E+03  0.67261182453E+03  0.00000000000E+00 0. -1.
         -2    1    3    3    0  502  0.21016160849E+03  0.18616328437E+03  0.44075551282E+03  0.52258022562E+03  0.00000000000E+00 0.  1.
         11    1    5    5    0    0  0.17902338361E+01 -0.22903555611E+02  0.89506948241E+02  0.92408179184E+02  0.00000000000E+00 0.  1.
        -11    1    5    5    0    0 -0.69310233877E+02  0.31323144227E+02  0.10452771909E+04  0.10480407691E+04  0.00000000000E+00 0. -1.
          5    1    6    6  503    0 -0.27999074819E+03 -0.34966321491E+03  0.60126578610E+03  0.74980118596E+03  0.47000000000E+01 0. -1.
         -5    1    6    6    0  503 -0.58612956047E+02 -0.30874222265E+02  0.13221764297E+03  0.14796043839E+03  0.47000000000E+01 0.  1.
<mgrwt>
<rscale>  0 0.58216359E+03</rscale>
<asrwt>0</asrwt>
<pdfrwt beam="1">  1        2 0.47372316E+00 0.58216359E+03</pdfrwt>
<pdfrwt beam="2">  1       -2 0.23723352E-01 0.58216359E+03</pdfrwt>
<totfact> 0.26736880E+01</totfact>
</mgrwt>
</event>
<event>
12    1  0.3166324E-008  0.7971410E+03  0.7818608E-02  0.9564165E-01
         -2   -1    0    0    0  501 -0.00000000000E+00  0.00000000000E+00  0.55223696368E+03  0.55223696368E+03  0.00000000000E+00 0.  1.
          2   -1    0    0  501    0  0.00000000000E+00 -0.00000000000E+00 -0.29286957902E+04  0.29286957902E+04  0.00000000000E+00 0. -1.
         23    2    1    2    0    0 -0.73238591743E+03 -0.16511024420E+03  0.15604673754E+03  0.77220482674E+03  0.91099864702E+02 0.  0.
    5000000    2    1    2    0    0  0.73238591743E+03  0.16511024420E+03 -0.25325055641E+04  0.27087279272E+04  0.59997668830E+03 0.  0.
         23    2    4    4    0    0  0.68470872938E+03  0.25492364911E+03 -0.15422831761E+04  0.17090781705E+04  0.92188322454E+02 0.  0.
         23    2    4    4    0    0  0.47677188053E+02 -0.89813404910E+02 -0.99022238798E+03  0.99964975662E+03  0.91758903018E+02 0.  0.
          4    1    3    3  502    0 -0.41207167744E+03 -0.10923387070E+03  0.13151569129E+03  0.44612944636E+03  0.00000000000E+00 0. -1.
         -4    1    3    3    0  502 -0.32031424000E+03 -0.55876373496E+02  0.24531046254E+02  0.32607538038E+03  0.00000000000E+00 0.  1.
         11    1    5    5    0    0  0.18353592305E+03  0.98922753799E+02 -0.37127296997E+03  0.42581071440E+03  0.00000000000E+00 0.  1.
        -11    1    5    5    0    0  0.50117280633E+03  0.15600089531E+03 -0.11710102061E+04  0.12832674561E+04  0.00000000000E+00 0. -1.
          5    1    6    6  503    0  0.47670684784E+02 -0.49612441402E+02 -0.28342968811E+03  0.29169910290E+03  0.47000000000E+01 0. -1.
         -5    1    6    6    0  503  0.65032692472E-02 -0.40200963508E+02 -0.70679269987E+03  0.70795065372E+03  0.47000000000E+01 0.  1.
<mgrwt>
<rscale>  0 0.79714098E+03</rscale>
<asrwt>0</asrwt>
<pdfrwt beam="1">  1        2 0.45056859E+00 0.79714098E+03</pdfrwt>
<pdfrwt beam="2">  1       -2 0.84959532E-01 0.79714098E+03</pdfrwt>
<totfact> 0.24541013E+00</totfact>
</mgrwt>
</event>
<event>
12    1  0.3166324E-008  0.7037214E+03  0.7818608E-02  0.9710889E-01
         -2   -1    0    0    0  501 -0.00000000000E+00  0.00000000000E+00  0.35583185663E+03  0.35583185663E+03  0.00000000000E+00 0.  1.
          2   -1    0    0  501    0  0.00000000000E+00 -0.00000000000E+00 -0.22143719380E+04  0.22143719380E+04  0.00000000000E+00 0. -1.
         23    2    1    2    0    0  0.20656992915E+03  0.60878946372E+03 -0.17736176778E+03  0.67292786225E+03  0.89883059380E+02 0.  0.
    5000000    2    1    2    0    0 -0.20656992915E+03 -0.60878946372E+03 -0.16811783136E+04  0.18972759324E+04  0.59999974560E+03 0.  0.
         23    2    4    4    0    0  0.73618640055E+02 -0.38567764020E+03 -0.13212400972E+04  0.13813463541E+04  0.90969276764E+02 0.  0.
         23    2    4    4    0    0 -0.28018856920E+03 -0.22311182352E+03 -0.35993821638E+03  0.51592957823E+03  0.91341611436E+02 0.  0.
          3    1    3    3  502    0  0.40664708034E+02  0.18509959376E+03 -0.16155634770E+02  0.19020116357E+03  0.00000000000E+00 0. -1.
         -3    1    3    3    0  502  0.16590522111E+03  0.42368986996E+03 -0.16120613301E+03  0.48272669868E+03  0.00000000000E+00 0.  1.
         13    1    5    5    0    0  0.65461261936E+02 -0.11924093217E+03 -0.47784137208E+03  0.49682587854E+03  0.00000000000E+00 0.  1.
        -13    1    5    5    0    0  0.81573781190E+01 -0.26643670804E+03 -0.84339872512E+03  0.88452047560E+03  0.00000000000E+00 0. -1.
          5    1    6    6  503    0 -0.19794234074E+03 -0.17880872553E+03 -0.31301030986E+03  0.41128004408E+03  0.47000000000E+01 0. -1.
         -5    1    6    6    0  503 -0.82246228461E+02 -0.44303097983E+02 -0.46927906526E+02  0.10464953415E+03  0.47000000000E+01 0.  1.
<mgrwt>
<rscale>  0 0.70372137E+03</rscale>
<asrwt>0</asrwt>
<pdfrwt beam="1">  1        2 0.34067261E+00 0.70372137E+03</pdfrwt>
<pdfrwt beam="2">  1       -2 0.54743362E-01 0.70372137E+03</pdfrwt>
<totfact> 0.16658715E+01</totfact>
</mgrwt>
</event>
<event>
12    1  0.3166324E-008  0.9423971E+03  0.7818608E-02  0.9374082E-01
         -2   -1    0    0    0  501 -0.00000000000E+00  0.00000000000E+00  0.95596916799E+03  0.95596916799E+03  0.00000000000E+00 0.  1.
          2   -1    0    0  501    0  0.00000000000E+00 -0.00000000000E+00 -0.12090535730E+04  0.12090535730E+04  0.00000000000E+00 0. -1.
         23    2    1    2    0    0 -0.91339418328E+03 -0.11087710470E+03 -0.48241746849E+03  0.10432018751E+04  0.94661881932E+02 0.  0.
    5000000    2    1    2    0    0  0.91339418328E+03  0.11087710470E+03  0.22933306345E+03  0.11218208659E+04  0.59942116650E+03 0.  0.
         23    2    4    4    0    0  0.61590254905E+03 -0.52623715941E+02  0.38833547787E+03  0.73578509090E+03  0.92032881167E+02 0.  0.
         23    2    4    4    0    0  0.29749163423E+03  0.16350082064E+03 -0.15900241442E+03  0.38603577503E+03  0.92239151252E+02 0.  0.
          4    1    3    3  502    0 -0.54634622958E+03 -0.85665424721E+02 -0.33687571949E+03  0.64754769550E+03  0.00000000000E+00 0. -1.
         -4    1    3    3    0  502 -0.36704795370E+03 -0.25211679974E+02 -0.14554174900E+03  0.39565417959E+03  0.00000000000E+00 0.  1.
         13    1    5    5    0    0  0.49389421389E+03 -0.74765877767E+02  0.29063296122E+03  0.57791777022E+03  0.00000000000E+00 0. -1.
        -13    1    5    5    0    0  0.12200833517E+03  0.22142161827E+02  0.97702516648E+02  0.15786732068E+03  0.00000000000E+00 0.  1.
          5    1    6    6  503    0  0.21018177095E+03  0.10379523603E+03 -0.15304737267E+03  0.27999181442E+03  0.47000000000E+01 0. -1.
         -5    1    6    6    0  503  0.87309863279E+02  0.59705584608E+02 -0.59550417575E+01  0.10604396061E+03  0.47000000000E+01 0.  1.
<mgrwt>
<rscale>  0 0.94239713E+03</rscale>
<asrwt>0</asrwt>
<pdfrwt beam="1">  1        2 0.18600824E+00 0.94239713E+03</pdfrwt>
<pdfrwt beam="2">  1       -2 0.14707218E+00 0.94239713E+03</pdfrwt>
<totfact> 0.58902230E+00</totfact>
</mgrwt>
</event>
<event>
12    1  0.3166324E-008  0.9302774E+03  0.7818608E-02  0.9388505E-01
          1   -1    0    0  501    0  0.00000000000E+00  0.00000000000E+00  0.14868173012E+04  0.14868173012E+04  0.00000000000E+00 0. -1.
         -1   -1    0    0    0  501 -0.00000000000E+00 -0.00000000000E+00 -0.71901494971E+03  0.71901494971E+03  0.00000000000E+00 0.  1.
         23    2    1    2    0    0  0.32219491220E+03  0.78498656333E+03  0.79487421832E+03  0.11663326139E+04  0.92158978477E+02 0.  0.
    5000000    2    1    2    0    0 -0.32219491220E+03 -0.78498656333E+03 -0.27071866796E+02  0.10394996370E+04  0.59984426589E+03 0.  0.
         23    2    4    4    0    0  0.38403182129E+01 -0.64089287687E+03  0.89676927776E+02  0.65310086427E+03  0.87979315032E+02 0.  0.
         23    2    4    4    0    0 -0.32603523041E+03 -0.14409368646E+03 -0.11674879457E+03  0.38639877274E+03  0.92799615270E+02 0.  0.
          1    1    3    3  502    0  0.21462883708E+03  0.61650242559E+03  0.63001900640E+03  0.90722914795E+03  0.00000000000E+00 0. -1.
         -1    1    3    3    0  502  0.10756607512E+03  0.16848413774E+03  0.16485521192E+03  0.25910346598E+03  0.00000000000E+00 0.  1.
         13    1    5    5    0    0 -0.19098249795E+01 -0.56667463914E+03  0.50349453973E+02  0.56891024037E+03  0.00000000000E+00 0.  1.
        -13    1    5    5    0    0  0.57501431924E+01 -0.74218237725E+02  0.39327473803E+02  0.84190623905E+02  0.00000000000E+00 0. -1.
          5    1    6    6  503    0 -0.18102069003E+01 -0.18238958275E+02  0.16001732350E+01  0.18989128531E+02  0.47000000000E+01 0. -1.
         -5    1    6    6    0  503 -0.32422502351E+03 -0.12585472819E+03 -0.11834896781E+03  0.36740964421E+03  0.47000000000E+01 0.  1.
<mgrwt>
<rscale>  0 0.93027735E+03</rscale>
<asrwt>0</asrwt>
<pdfrwt beam="1">  1        1 0.22874112E+00 0.93027735E+03</pdfrwt>
<pdfrwt beam="2">  1       -1 0.11061768E+00 0.93027735E+03</pdfrwt>
<totfact> 0.51036649E+00</totfact>
</mgrwt>
</event>
<event>
12    1  0.3166324E-008  0.9750217E+03  0.7818608E-02  0.9336373E-01
          2   -1    0    0  501    0  0.00000000000E+00  0.00000000000E+00  0.11719520211E+04  0.11719520211E+04  0.00000000000E+00 0. -1.
         -2   -1    0    0    0  501 -0.00000000000E+00 -0.00000000000E+00 -0.97779096463E+03  0.97779096463E+03  0.00000000000E+00 0.  1.
         23    2    1    2    0    0  0.56881870504E+03 -0.71842843124E+03  0.45003185510E+03  0.10249498186E+04  0.91100658421E+02 0.  0.
    5000000    2    1    2    0    0 -0.56881870504E+03  0.71842843124E+03 -0.25587079867E+03  0.11247931671E+04  0.59999639426E+03 0.  0.
         23    2    4    4    0    0 -0.19823581707E+03  0.61009391564E+03  0.88936062114E+01  0.64801053639E+03  0.91249843657E+02 0.  0.
         23    2    4    4    0    0 -0.37058288797E+03  0.10833451560E+03 -0.26476440488E+03  0.47678263071E+03  0.90296415932E+02 0.  0.
          1    1    3    3  502    0  0.24153566421E+03 -0.24240119287E+03  0.19048386885E+03  0.39164003841E+03  0.00000000000E+00 0. -1.
         -1    1    3    3    0  502  0.32728304083E+03 -0.47602723837E+03  0.25954798624E+03  0.63330978016E+03  0.00000000000E+00 0.  1.
         13    1    5    5    0    0 -0.79944473256E+02  0.31075721927E+03 -0.36571644102E+02  0.32295302024E+03  0.00000000000E+00 0. -1.
        -13    1    5    5    0    0 -0.11829134382E+03  0.29933669637E+03  0.45465250313E+02  0.32505751615E+03  0.00000000000E+00 0.  1.
          5    1    6    6  503    0 -0.26691775436E+03  0.63633589142E+02 -0.23138772129E+03  0.35896613883E+03  0.47000000000E+01 0. -1.
         -5    1    6    6    0  503 -0.10366513362E+03  0.44700926456E+02 -0.33376683589E+02  0.11781649189E+03  0.47000000000E+01 0.  1.
<mgrwt>
<rscale>  0 0.97502170E+03</rscale>
<asrwt>0</asrwt>
<pdfrwt beam="1">  1        2 0.18030031E+00 0.97502170E+03</pdfrwt>
<pdfrwt beam="2">  1       -2 0.15042938E+00 0.97502170E+03</pdfrwt>
<totfact> 0.58191911E+00</totfact>
</mgrwt>
</event>
<event>
12    1  0.3166324E-008  0.5412209E+03  0.7818608E-02  0.1003547E+00
         -2   -1    0    0    0  501 -0.00000000000E+00  0.00000000000E+00  0.46325513702E+03  0.46325513702E+03  0.00000000000E+00 0.  1.
          2   -1    0    0  501    0  0.00000000000E+00 -0.00000000000E+00 -0.12297196304E+04  0.12297196304E+04  0.00000000000E+00 0. -1.
         23    2    1    2    0    0  0.19856009678E+03  0.45638170629E+03  0.11121452277E+03  0.51895030173E+03  0.96074823538E+02 0.  0.
    5000000    2    1    2    0    0 -0.19856009678E+03 -0.45638170629E+03 -0.87767901616E+03  0.11740244657E+04  0.60025212769E+03 0.  0.
         23    2    4    4    0    0 -0.25658912178E+03 -0.25742314380E+03 -0.87098623121E+03  0.94711484176E+03  0.79403124226E+02 0.  0.
         23    2    4    4    0    0  0.58029025001E+02 -0.19895856249E+03 -0.66927849499E+01  0.22690962395E+03  0.92148286691E+02 0.  0.
          1    1    3    3  502    0  0.81698806285E+02  0.10234571896E+03  0.54471223964E+02  0.14183249056E+03  0.00000000000E+00 0. -1.
         -1    1    3    3    0  502  0.11686129049E+03  0.35403598733E+03  0.56743298806E+02  0.37711781117E+03  0.00000000000E+00 0.  1.
         13    1    5    5    0    0 -0.25707628729E+02 -0.57045624227E+02 -0.20455724969E+03  0.21391295851E+03  0.00000000000E+00 0. -1.
        -13    1    5    5    0    0 -0.23088149305E+03 -0.20037751957E+03 -0.66642898152E+03  0.73320188325E+03  0.00000000000E+00 0.  1.
          5    1    6    6  503    0  0.49170873488E+02 -0.10667177731E+03  0.38454846494E+02  0.12368309542E+03  0.47000000000E+01 0. -1.
         -5    1    6    6    0  503  0.88581515128E+01 -0.92286785176E+02 -0.45147631444E+02  0.10322652853E+03  0.47000000000E+01 0.  1.
<mgrwt>
<rscale>  0 0.54122085E+03</rscale>
<asrwt>0</asrwt>
<pdfrwt beam="1">  1        2 0.18918763E+00 0.54122085E+03</pdfrwt>
<pdfrwt beam="2">  1       -2 0.71270023E-01 0.54122085E+03</pdfrwt>
<totfact> 0.33961352E+01</totfact>
</mgrwt>
</event>
<event>
12    1  0.3166324E-008  0.2238036E+04  0.7818608E-02  0.8502761E-01
          2   -1    0    0  501    0  0.00000000000E+00  0.00000000000E+00  0.19643459496E+04  0.19643459496E+04  0.00000000000E+00 0.  1.
         -2   -1    0    0    0  501 -0.00000000000E+00 -0.00000000000E+00 -0.27131908984E+04  0.27131908984E+04  0.00000000000E+00 0. -1.
         23    2    1    2    0    0 -0.76452342664E+02  0.22025356940E+04 -0.91327087323E+03  0.23875003458E+04  0.95319300444E+02 0.  0.
    5000000    2    1    2    0    0  0.76452342664E+02 -0.22025356940E+04  0.16442592444E+03  0.22900365022E+04  0.60018568204E+03 0.  0.
         23    2    4    4    0    0 -0.15808871919E+03 -0.17180138074E+04  0.31046572455E+02  0.17280022696E+04  0.92002546497E+02 0.  0.
         23    2    4    4    0    0  0.23454106186E+03 -0.48452188661E+03  0.13337935199E+03  0.56203423264E+03  0.91222030360E+02 0.  0.
          3    1    3    3  502    0  0.14788706798E+01  0.12540871286E+04 -0.53474286425E+03  0.13633365850E+04  0.00000000000E+00 0. -1.
         -3    1    3    3    0  502 -0.77931213344E+02  0.94844856544E+03 -0.37852800898E+03  0.10241637608E+04  0.00000000000E+00 0.  1.
         13    1    5    5    0    0 -0.12968810643E+03 -0.11254033352E+04  0.55478813806E+02  0.11342087862E+04  0.00000000000E+00 0.  1.
        -13    1    5    5    0    0 -0.28400612764E+02 -0.59261047214E+03 -0.24432241351E+02  0.59379348339E+03  0.00000000000E+00 0. -1.
          5    1    6    6  503    0  0.15274351439E+03 -0.39133455570E+03  0.83674401532E+02  0.42836527771E+03  0.47000000000E+01 0. -1.
         -5    1    6    6    0  503  0.81797547463E+02 -0.93187330911E+02  0.49704950457E+02  0.13366895493E+03  0.47000000000E+01 0.  1.
<mgrwt>
<rscale>  0 0.22380360E+04</rscale>
<asrwt>0</asrwt>
<pdfrwt beam="1">  1        2 0.30220707E+00 0.22380360E+04</pdfrwt>
<pdfrwt beam="2">  1       -2 0.41741398E+00 0.22380360E+04</pdfrwt>
<totfact> 0.34519009E-02</totfact>
</mgrwt>
</event>
<event>
12    1  0.3166324E-008  0.7366860E+03  0.7818608E-02  0.9656473E-01
          1   -1    0    0  501    0  0.00000000000E+00  0.00000000000E+00  0.15039127530E+04  0.15039127530E+04  0.00000000000E+00 0. -1.
         -1   -1    0    0    0  501 -0.00000000000E+00 -0.00000000000E+00 -0.38174829889E+03  0.38174829889E+03  0.00000000000E+00 0.  1.
         23    2    1    2    0    0 -0.17760479157E+03 -0.60013114741E+03  0.33696063635E+03  0.71599038391E+03  0.86016878154E+02 0.  0.
    5000000    2    1    2    0    0  0.17760479157E+03  0.60013114741E+03  0.78520381775E+03  0.11696706680E+04  0.59990297549E+03 0.  0.
         23    2    4    4    0    0  0.32430761533E+03  0.57672593359E+03  0.49621348901E+03  0.83200184595E+03  0.90614640993E+02 0.  0.
         23    2    4    4    0    0 -0.14670282376E+03  0.23405213820E+02  0.28899032874E+03  0.33766882201E+03  0.91843893197E+02 0.  0.
          1    1    3    3  502    0 -0.11741348529E+03 -0.24793130544E+03  0.15295335740E+03  0.31408691199E+03  0.00000000000E+00 0. -1.
         -1    1    3    3    0  502 -0.60191306279E+02 -0.35219984197E+03  0.18400727894E+03  0.40190347191E+03  0.00000000000E+00 0.  1.
         11    1    5    5    0    0  0.10797764672E+03  0.27989578245E+03  0.20658133428E+03  0.36424808702E+03  0.00000000000E+00 0. -1.
        -11    1    5    5    0    0  0.21632996861E+03  0.29683015113E+03  0.28963215474E+03  0.46775375894E+03  0.00000000000E+00 0.  1.
          5    1    6    6  503    0 -0.11400285695E+03  0.56808289563E+02  0.20353446991E+03  0.24015037705E+03  0.47000000000E+01 0. -1.
         -5    1    6    6    0  503 -0.32699966809E+02 -0.33403075743E+02  0.85455858826E+02  0.97518444953E+02  0.47000000000E+01 0.  1.
<mgrwt>
<rscale>  0 0.73668596E+03</rscale>
<asrwt>0</asrwt>
<pdfrwt beam="1">  1        1 0.23137119E+00 0.73668596E+03</pdfrwt>
<pdfrwt beam="2">  1       -1 0.58730508E-01 0.73668596E+03</pdfrwt>
<totfact> 0.19798808E+01</totfact>
</mgrwt>
</event>
<event>
12    1  0.3166324E-008  0.7907132E+03  0.7818608E-02  0.9573557E-01
          2   -1    0    0  501    0  0.00000000000E+00  0.00000000000E+00  0.24558538605E+04  0.24558538605E+04  0.00000000000E+00 0. -1.
         -2   -1    0    0    0  501 -0.00000000000E+00 -0.00000000000E+00 -0.35626463927E+03  0.35626463927E+03  0.00000000000E+00 0.  1.
         23    2    1    2    0    0  0.43091689761E+01 -0.73689584566E+03  0.34984039413E+03  0.82098032503E+03  0.92662486751E+02 0.  0.
    5000000    2    1    2    0    0 -0.43091689761E+01  0.73689584566E+03  0.17497488271E+04  0.19911381747E+04  0.59998018022E+03 0.  0.
         23    2    4    4    0    0  0.16270467322E+03  0.56141836153E+03  0.73149270970E+03  0.94050889964E+03  0.88385624503E+02 0.  0.
         23    2    4    4    0    0 -0.16701384220E+03  0.17547748413E+03  0.10182561174E+04  0.10506292751E+04  0.91051535550E+02 0.  0.
          1    1    3    3  502    0  0.44794756159E+02 -0.24021533236E+03  0.11179188682E+03  0.26871435027E+03  0.00000000000E+00 0. -1.
         -1    1    3    3    0  502 -0.40485587182E+02 -0.49668051329E+03  0.23804850730E+03  0.55226597476E+03  0.00000000000E+00 0.  1.
         11    1    5    5    0    0  0.48063293575E+02  0.95879303021E+02  0.92389700311E+02  0.14155838958E+03  0.00000000000E+00 0.  1.
        -11    1    5    5    0    0  0.11464137965E+03  0.46553905851E+03  0.63910300938E+03  0.79895051006E+03  0.00000000000E+00 0. -1.
          5    1    6    6  503    0 -0.84420452193E+02  0.13656907188E+03  0.75660596897E+03  0.77346790911E+03  0.47000000000E+01 0. -1.
         -5    1    6    6    0  503 -0.82593390008E+02  0.38908412248E+02  0.26165014841E+03  0.27716136596E+03  0.47000000000E+01 0.  1.
<mgrwt>
<rscale>  0 0.79071321E+03</rscale>
<asrwt>0</asrwt>
<pdfrwt beam="1">  1        2 0.37782366E+00 0.79071321E+03</pdfrwt>
<pdfrwt beam="2">  1       -2 0.54809946E-01 0.79071321E+03</pdfrwt>
<totfact> 0.12024951E+01</totfact>
</mgrwt>
</event>
<event>
12    1  0.3166324E-008  0.1498469E+04  0.7818608E-02  0.8885472E-01
         -2   -1    0    0    0  501 -0.00000000000E+00  0.00000000000E+00  0.15108047847E+04  0.15108047847E+04  0.00000000000E+00 0. -1.
          2   -1    0    0  501    0  0.00000000000E+00 -0.00000000000E+00 -0.15985021340E+04  0.15985021340E+04  0.00000000000E+00 0.  1.
         23    2    1    2    0    0  0.12554984404E+04 -0.76016073050E+03  0.24028263460E+03  0.14900511379E+04  0.91629575957E+02 0.  0.
    5000000    2    1    2    0    0 -0.12554984404E+04  0.76016073050E+03 -0.32797998392E+03  0.16192557807E+04  0.60024806844E+03 0.  0.
         23    2    4    4    0    0 -0.19292784746E+03 -0.16956817129E+02 -0.19962941401E+03  0.29270948607E+03  0.91204453414E+02 0.  0.
         23    2    4    4    0    0 -0.10625705929E+04  0.77711754763E+03 -0.12835056991E+03  0.13265462947E+04  0.10140638728E+03 0.  0.
          1    1    3    3  502    0  0.34060762738E+03 -0.19410846604E+03  0.10410868753E+03  0.40562331199E+03  0.00000000000E+00 0. -1.
         -1    1    3    3    0  502  0.91489081298E+03 -0.56605226446E+03  0.13617394708E+03  0.10844278259E+04  0.00000000000E+00 0.  1.
         13    1    5    5    0    0 -0.12952640618E+03  0.26530263434E+02 -0.94713578718E+02  0.16263949942E+03  0.00000000000E+00 0.  1.
        -13    1    5    5    0    0 -0.63401441271E+02 -0.43487080563E+02 -0.10491583530E+03  0.13006998665E+03  0.00000000000E+00 0. -1.
          5    1    6    6  503    0 -0.46625170120E+03  0.40039605001E+03 -0.75255797860E+02  0.61918750864E+03  0.47000000000E+01 0. -1.
         -5    1    6    6    0  503 -0.59631889169E+03  0.37672149761E+03 -0.53094772045E+02  0.70735878603E+03  0.47000000000E+01 0.  1.
<mgrwt>
<rscale>  0 0.14984688E+04</rscale>
<asrwt>0</asrwt>
<pdfrwt beam="1">  1        2 0.24592341E+00 0.14984688E+04</pdfrwt>
<pdfrwt beam="2">  1       -2 0.23243151E+00 0.14984688E+04</pdfrwt>
<totfact> 0.86715397E-01</totfact>
</mgrwt>
</event>
<event>
12    1  0.3166324E-008  0.4016417E+03  0.7818608E-02  0.1043213E+00
          2   -1    0    0  501    0  0.00000000000E+00  0.00000000000E+00  0.63443701812E+03  0.63443701812E+03  0.00000000000E+00 0. -1.
         -2   -1    0    0    0  501 -0.00000000000E+00 -0.00000000000E+00 -0.43330518936E+03  0.43330518936E+03  0.00000000000E+00 0.  1.
         23    2    1    2    0    0  0.24376655595E+03 -0.24133320532E+03  0.10294278848E+03  0.36964520044E+03  0.91523257814E+02 0.  0.
    5000000    2    1    2    0    0 -0.24376655595E+03  0.24133320532E+03  0.98189040280E+02  0.69809700704E+03  0.60002874416E+03 0.  0.
         23    2    4    4    0    0 -0.31010031578E+03  0.16460777261E+03  0.28836752193E+03  0.46421072461E+03  0.95277722944E+02 0.  0.
         23    2    4    4    0    0  0.66333759832E+02  0.76725432705E+02 -0.19017848165E+03  0.23388628243E+03  0.90818381990E+02 0.  0.
          2    1    3    3  502    0  0.19113024623E+03 -0.16717948869E+03  0.11342001774E+03  0.27810762824E+03  0.00000000000E+00 0.  1.
         -2    1    3    3    0  502  0.52636309719E+02 -0.74153716628E+02 -0.10477229265E+02  0.91537572197E+02  0.00000000000E+00 0. -1.
         11    1    5    5    0    0 -0.26436993287E+03  0.13076209490E+03  0.19082715484E+03  0.35129074837E+03  0.00000000000E+00 0.  1.
        -11    1    5    5    0    0 -0.45730382908E+02  0.33845677708E+02  0.97540367098E+02  0.11291997624E+03  0.00000000000E+00 0. -1.
          5    1    6    6  503    0  0.59595641124E+02  0.47876754453E+02 -0.52203170969E+02  0.92688106665E+02  0.47000000000E+01 0. -1.
         -5    1    6    6    0  503  0.67381187079E+01  0.28848678252E+02 -0.13797531068E+03  0.14119817576E+03  0.47000000000E+01 0.  1.
<mgrwt>
<rscale>  0 0.40164169E+03</rscale>
<asrwt>0</asrwt>
<pdfrwt beam="1">  1        2 0.97605695E-01 0.40164169E+03</pdfrwt>
<pdfrwt beam="2">  1       -2 0.66662337E-01 0.40164169E+03</pdfrwt>
<totfact> 0.99585816E+01</totfact>
</mgrwt>
</event>
<event>
12    1  0.3166324E-008  0.1113394E+04  0.7818608E-02  0.9192234E-01
         -1   -1    0    0    0  501 -0.00000000000E+00  0.00000000000E+00  0.63109323853E+03  0.63109323853E+03  0.00000000000E+00 0.  1.
          1   -1    0    0  501    0  0.00000000000E+00 -0.00000000000E+00 -0.30395127935E+04  0.30395127935E+04  0.00000000000E+00 0. -1.
         23    2    1    2    0    0 -0.14637941356E+03  0.10606456737E+04 -0.12995252292E+03  0.10825918764E+04  0.93388086659E+02 0.  0.
    5000000    2    1    2    0    0  0.14637941356E+03 -0.10606456737E+04 -0.22784670321E+04  0.25880141557E+04  0.60000756319E+03 0.  0.
         23    2    4    4    0    0  0.28994956925E+03 -0.56623490142E+03 -0.84208011249E+03  0.10594579410E+04  0.93056416313E+02 0.  0.
         23    2    4    4    0    0 -0.14357015569E+03 -0.49441077228E+03 -0.14363869196E+04  0.15285562147E+04  0.90676994398E+02 0.  0.
          3    1    3    3  502    0 -0.11451658561E+03  0.95964248934E+03 -0.13855836213E+03  0.97633302486E+03  0.00000000000E+00 0. -1.
         -3    1    3    3    0  502 -0.31862827953E+02  0.10100318436E+03  0.86058392091E+01  0.10625885151E+03  0.00000000000E+00 0.  1.
         13    1    5    5    0    0  0.12409410560E+03 -0.24641183146E+03 -0.29041719663E+03  0.40057494408E+03  0.00000000000E+00 0. -1.
        -13    1    5    5    0    0  0.16585546365E+03 -0.31982306996E+03 -0.55166291586E+03  0.65888299692E+03  0.00000000000E+00 0.  1.
          5    1    6    6  503    0 -0.53026386729E+02 -0.28707448748E+03 -0.90688566865E+03  0.95272622775E+03  0.47000000000E+01 0. -1.
         -5    1    6    6    0  503 -0.90543768956E+02 -0.20733628480E+03 -0.52950125092E+03  0.57582998690E+03  0.47000000000E+01 0.  1.
<mgrwt>
<rscale>  0 0.11133942E+04</rscale>
<asrwt>0</asrwt>
<pdfrwt beam="1">  1        1 0.46761736E+00 0.11133942E+04</pdfrwt>
<pdfrwt beam="2">  1       -1 0.97091267E-01 0.11133942E+04</pdfrwt>
<totfact> 0.57570868E-01</totfact>
</mgrwt>
</event>
<event>
12    1  0.3166324E-008  0.1745790E+04  0.7818608E-02  0.8735671E-01
          2   -1    0    0  501    0  0.00000000000E+00  0.00000000000E+00  0.24405107531E+04  0.24405107531E+04  0.00000000000E+00 0. -1.
         -2   -1    0    0    0  501 -0.00000000000E+00 -0.00000000000E+00 -0.17327224286E+04  0.17327224286E+04  0.00000000000E+00 0.  1.
         23    2    1    2    0    0  0.55109595144E+02  0.17024703009E+04 -0.73930579236E+03  0.18589613331E+04  0.87874855607E+02 0.  0.
    5000000    2    1    2    0    0 -0.55109595144E+02 -0.17024703009E+04  0.14470941169E+04  0.23142718486E+04  0.60027544771E+03 0.  0.
         23    2    4    4    0    0 -0.10085235023E+02 -0.17008695481E+04  0.13138610184E+04  0.21511301043E+04  0.89838846465E+02 0.  0.
         23    2    4    4    0    0 -0.45024360121E+02 -0.16007528304E+01  0.13323309852E+03  0.16314174433E+03  0.82670519469E+02 0.  0.
          4    1    3    3  502    0  0.78000559464E+02  0.11612602937E+04 -0.51152752392E+03  0.12713260654E+04  0.00000000000E+00 0. -1.
         -4    1    3    3    0  502 -0.22890964320E+02  0.54121000726E+03 -0.22777826844E+03  0.58763526765E+03  0.00000000000E+00 0.  1.
         11    1    5    5    0    0 -0.70548513418E+00 -0.95850899309E+03  0.68423911098E+03  0.11776770137E+04  0.00000000000E+00 0. -1.
        -11    1    5    5    0    0 -0.93797498889E+01 -0.74236055500E+03  0.62962190743E+03  0.97345309062E+03  0.00000000000E+00 0.  1.
          5    1    6    6  503    0  0.51121247169E+01  0.26512508238E+02  0.14186303971E+02  0.30860786324E+02  0.47000000000E+01 0. -1.
         -5    1    6    6    0  503 -0.50136484838E+02 -0.28113261068E+02  0.11904679455E+03  0.13228095801E+03  0.47000000000E+01 0.  1.
<mgrwt>
<rscale>  0 0.17457896E+04</rscale>
<asrwt>0</asrwt>
<pdfrwt beam="1">  1        2 0.37546319E+00 0.17457896E+04</pdfrwt>
<pdfrwt beam="2">  1       -2 0.26657268E+00 0.17457896E+04</pdfrwt>
<totfact> 0.17470546E-01</totfact>
</mgrwt>
</event>
<event>
12    1  0.3166324E-008  0.4444850E+03  0.7818608E-02  0.1029380E+00
          1   -1    0    0  501    0  0.00000000000E+00  0.00000000000E+00  0.21510597740E+04  0.21510597740E+04  0.00000000000E+00 0. -1.
         -1   -1    0    0    0  501 -0.00000000000E+00 -0.00000000000E+00 -0.13147002467E+03  0.13147002467E+03  0.00000000000E+00 0.  1.
         23    2    1    2    0    0  0.28779209563E+03 -0.84593947571E+02  0.11002794384E+04  0.11444965590E+04  0.96317727665E+02 0.  0.
    5000000    2    1    2    0    0 -0.28779209563E+03  0.84593947571E+02  0.91931031092E+03  0.11380332397E+04  0.60000648380E+03 0.  0.
         23    2    4    4    0    0 -0.39216105175E+03  0.16320161321E+03  0.87076379987E+03  0.97383952748E+03  0.98533106408E+02 0.  0.
         23    2    4    4    0    0  0.10436895613E+03 -0.78607665640E+02  0.48546511047E+02  0.16419371220E+03  0.86779993616E+02 0.  0.
          2    1    3    3  502    0  0.11298227898E+03 -0.73970070294E+02  0.58069778330E+03  0.59619332619E+03  0.00000000000E+00 0. -1.
         -2    1    3    3    0  502  0.17480981664E+03 -0.10623877277E+02  0.51958165511E+03  0.54830323279E+03  0.00000000000E+00 0.  1.
         11    1    5    5    0    0 -0.30237631892E+03  0.78569795792E+02  0.63861018319E+03  0.71093432687E+03  0.00000000000E+00 0. -1.
        -11    1    5    5    0    0 -0.89784732830E+02  0.84631817420E+02  0.23215361668E+03  0.26290520061E+03  0.00000000000E+00 0.  1.
          5    1    6    6  503    0 -0.37759172806E+01 -0.17891747637E+02 -0.15594030251E+02  0.24487465453E+02  0.47000000000E+01 0. -1.
         -5    1    6    6    0  503  0.10814487341E+03 -0.60715918003E+02  0.64140541299E+02  0.13970624675E+03  0.47000000000E+01 0.  1.
<mgrwt>
<rscale>  0 0.44448495E+03</rscale>
<asrwt>0</asrwt>
<pdfrwt beam="1">  1        1 0.33093225E+00 0.44448495E+03</pdfrwt>
<pdfrwt beam="2">  1       -1 0.20226159E-01 0.44448495E+03</pdfrwt>
<totfact> 0.51282913E+01</totfact>
</mgrwt>
</event>
<event>
12    1  0.3166324E-008  0.4521899E+03  0.7818608E-02  0.1027071E+00
          1   -1    0    0  501    0  0.00000000000E+00  0.00000000000E+00  0.14499173209E+04  0.14499173209E+04  0.00000000000E+00 0. -1.
         -1   -1    0    0    0  501 -0.00000000000E+00 -0.00000000000E+00 -0.21116696042E+03  0.21116696042E+03  0.00000000000E+00 0.  1.
         23    2    1    2    0    0  0.13758306038E+03  0.23546768753E+03  0.84718980372E+03  0.89460699320E+03  0.90647550356E+02 0.  0.
    5000000    2    1    2    0    0 -0.13758306038E+03 -0.23546768753E+03  0.39156055679E+03  0.76647728816E+03  0.59982800306E+03 0.  0.
         23    2    4    4    0    0  0.95574811220E+02 -0.33938014385E+03  0.32388487628E+03  0.48691368909E+03  0.88713589487E+02 0.  0.
         23    2    4    4    0    0 -0.23315787160E+03  0.10391245633E+03  0.67675680517E+02  0.27956359907E+03  0.91735579369E+02 0.  0.
          4    1    3    3  502    0  0.30679774970E+02  0.12485860267E+03  0.46966680162E+03  0.48694745486E+03  0.00000000000E+00 0.  1.
         -4    1    3    3    0  502  0.10690328541E+03  0.11060908486E+03  0.37752300210E+03  0.40765953834E+03  0.00000000000E+00 0. -1.
         11    1    5    5    0    0  0.18155466099E+02 -0.18374081129E+03  0.12605644341E+03  0.22356326534E+03  0.00000000000E+00 0. -1.
        -11    1    5    5    0    0  0.77419345121E+02 -0.15563933256E+03  0.19782843287E+03  0.26335042375E+03  0.00000000000E+00 0.  1.
          5    1    6    6  503    0 -0.12025675185E+03  0.88680272332E+02  0.52774704695E+01  0.14958548981E+03  0.47000000000E+01 0. -1.
         -5    1    6    6    0  503 -0.11290111975E+03  0.15232183993E+02  0.62398210048E+02  0.12997810926E+03  0.47000000000E+01 0.  1.
<mgrwt>
<rscale>  0 0.45218986E+03</rscale>
<asrwt>0</asrwt>
<pdfrwt beam="1">  1        1 0.22306420E+00 0.45218986E+03</pdfrwt>
<pdfrwt beam="2">  1       -1 0.32487226E-01 0.45218986E+03</pdfrwt>
<totfact> 0.66976915E+01</totfact>
</mgrwt>
</event>
<event>
12    1  0.3166324E-008  0.1093152E+04  0.7818608E-02  0.9211893E-01
          2   -1    0    0  501    0  0.00000000000E+00  0.00000000000E+00  0.18146201373E+04  0.18146201373E+04  0.00000000000E+00 0. -1.
         -2   -1    0    0    0  501 -0.00000000000E+00 -0.00000000000E+00 -0.21551701002E+04  0.21551701002E+04  0.00000000000E+00 0.  1.
         23    2    1    2    0    0  0.36346252347E+03  0.10199595478E+04 -0.17712746325E+04  0.20779121381E+04  0.88783696600E+02 0.  0.
    5000000    2    1    2    0    0 -0.36346252347E+03 -0.10199595478E+04  0.14307246696E+04  0.18918780993E+04  0.59983929287E+03 0.  0.
         23    2    4    4    0    0 -0.60544851986E+02 -0.17586681805E+03  0.70467299195E+03  0.73452468715E+03  0.91474989189E+02 0.  0.
         23    2    4    4    0    0 -0.30291767149E+03 -0.84409272978E+03  0.72605167768E+03  0.11573534122E+04  0.89801057238E+02 0.  0.
          3    1    3    3  502    0  0.22254648650E+03  0.51438507157E+03 -0.86772090643E+03  0.10329852429E+04  0.00000000000E+00 0. -1.
         -3    1    3    3    0  502  0.14091603697E+03  0.50557447627E+03 -0.90355372607E+03  0.10449268953E+04  0.00000000000E+00 0.  1.
         13    1    5    5    0    0 -0.60484034103E+02 -0.64350714194E+02  0.21738433472E+03  0.23463861954E+03  0.00000000000E+00 0. -1.
        -13    1    5    5    0    0 -0.60817882450E-01 -0.11151610386E+03  0.48728865723E+03  0.49988606760E+03  0.00000000000E+00 0.  1.
          5    1    6    6  503    0 -0.84942621738E+02 -0.13740771066E+03  0.12298887709E+03  0.20308737485E+03  0.47000000000E+01 0. -1.
         -5    1    6    6    0  503 -0.21797504975E+03 -0.70668501913E+03  0.60306280059E+03  0.95426603735E+03  0.47000000000E+01 0.  1.
<mgrwt>
<rscale>  0 0.10931516E+04</rscale>
<asrwt>0</asrwt>
<pdfrwt beam="1">  1        2 0.27917233E+00 0.10931516E+04</pdfrwt>
<pdfrwt beam="2">  1       -2 0.33156463E+00 0.10931516E+04</pdfrwt>
<totfact> 0.17124834E-01</totfact>
</mgrwt>
</event>
<event>
12    1  0.3166324E-008  0.4633523E+03  0.7818608E-02  0.1023813E+00
         -2   -1    0    0    0  501 -0.00000000000E+00  0.00000000000E+00  0.33333736470E+03  0.33333736470E+03  0.00000000000E+00 0. -1.
          2   -1    0    0  501    0  0.00000000000E+00 -0.00000000000E+00 -0.89750182892E+03  0.89750182892E+03  0.00000000000E+00 0.  1.
         23    2    1    2    0    0 -0.19027094438E+03 -0.18388196928E+03 -0.49923778665E+03  0.57169718034E+03  0.87084369906E+02 0.  0.
    5000000    2    1    2    0    0  0.19027094438E+03  0.18388196928E+03 -0.64926677565E+02  0.65914201329E+03  0.60019755857E+03 0.  0.
         23    2    4    4    0    0  0.26714217466E+03 -0.13532626408E+03 -0.46557952664E+02  0.31672297315E+03  0.92019886623E+02 0.  0.
         23    2    4    4    0    0 -0.76871230278E+02  0.31920823336E+03 -0.18368724902E+02  0.34241904013E+03  0.95447926645E+02 0.  0.
          3    1    3    3  502    0 -0.76637629465E+02 -0.24099422991E+02 -0.17903626681E+03  0.19623479119E+03  0.00000000000E+00 0. -1.
         -3    1    3    3    0  502 -0.11363331492E+03 -0.15978254629E+03 -0.32020151984E+03  0.37546238915E+03  0.00000000000E+00 0.  1.
         13    1    5    5    0    0  0.15280489240E+03 -0.12680764342E+03 -0.32485616970E+02  0.20120842149E+03  0.00000000000E+00 0.  1.
        -13    1    5    5    0    0  0.11433728226E+03 -0.85186206631E+01 -0.14072335693E+02  0.11551455166E+03  0.00000000000E+00 0. -1.
          5    1    6    6  503    0 -0.67269259933E+02  0.31934199068E+03 -0.65053201079E+01  0.32644887737E+03  0.47000000000E+01 0. -1.
         -5    1    6    6    0  503 -0.96019703449E+01 -0.13375731848E+00 -0.11863404794E+02  0.15970162768E+02  0.47000000000E+01 0.  1.
<mgrwt>
<rscale>  0 0.46335230E+03</rscale>
<asrwt>0</asrwt>
<pdfrwt beam="1">  1        2 0.13807720E+00 0.46335230E+03</pdfrwt>
<pdfrwt beam="2">  1       -2 0.51282672E-01 0.46335230E+03</pdfrwt>
<totfact> 0.10974377E+02</totfact>
</mgrwt>
</event>
<event>
12    1  0.3166324E-008  0.4507322E+03  0.7818608E-02  0.1027504E+00
         -2   -1    0    0    0  501 -0.00000000000E+00  0.00000000000E+00  0.10585234135E+03  0.10585234135E+03  0.00000000000E+00 0.  1.
          2   -1    0    0  501    0  0.00000000000E+00 -0.00000000000E+00 -0.27006556144E+04  0.27006556144E+04  0.00000000000E+00 0. -1.
         23    2    1    2    0    0 -0.29306625217E+03  0.10934191627E+03 -0.43729213301E+03  0.54538482947E+03  0.91524421930E+02 0.  0.
    5000000    2    1    2    0    0  0.29306625217E+03 -0.10934191627E+03 -0.21575111400E+04  0.22611231263E+04  0.59998332474E+03 0.  0.
         23    2    4    4    0    0 -0.11566267272E+03  0.20113189346E+02 -0.16702051839E+03  0.22297207761E+03  0.89656564653E+02 0.  0.
         23    2    4    4    0    0  0.40872892490E+03 -0.12945510562E+03 -0.19904906217E+04  0.20381510487E+04  0.90492120463E+02 0.  0.
          1    1    3    3  502    0 -0.12822991738E+03  0.11009645994E+01 -0.15796560254E+03  0.20346315494E+03  0.00000000000E+00 0. -1.
         -1    1    3    3    0  502 -0.16483633479E+03  0.10824095167E+03 -0.27932653047E+03  0.34192167453E+03  0.00000000000E+00 0.  1.
         13    1    5    5    0    0 -0.61349640983E+02  0.55109338191E+02 -0.10384996460E+03  0.13261083196E+03  0.00000000000E+00 0. -1.
        -13    1    5    5    0    0 -0.54313031739E+02 -0.34996148845E+02 -0.63170553786E+02  0.90361245655E+02  0.00000000000E+00 0.  1.
          5    1    6    6  503    0  0.18477710980E+03 -0.63582967569E+02 -0.11180209213E+04  0.11349794027E+04  0.47000000000E+01 0. -1.
         -5    1    6    6    0  503  0.22395181509E+03 -0.65872138050E+02 -0.87246970039E+03  0.90317164601E+03  0.47000000000E+01 0.  1.
<mgrwt>
<rscale>  0 0.45073223E+03</rscale>
<asrwt>0</asrwt>
<pdfrwt beam="1">  1        2 0.41548542E+00 0.45073223E+03</pdfrwt>
<pdfrwt beam="2">  1       -2 0.16284978E-01 0.45073223E+03</pdfrwt>
<totfact> 0.88620069E+01</totfact>
</mgrwt>
</event>
<event>
12    1  0.3166324E-008  0.5893815E+03  0.7818608E-02  0.9927684E-01
          1   -1    0    0  501    0  0.00000000000E+00  0.00000000000E+00  0.97542599408E+03  0.97542599408E+03  0.00000000000E+00 0. -1.
         -1   -1    0    0    0  501 -0.00000000000E+00 -0.00000000000E+00 -0.44220186882E+03  0.44220186882E+03  0.00000000000E+00 0.  1.
         23    2    1    2    0    0  0.32752071391E+03  0.36401499620E+03  0.41496482974E+02  0.50026417139E+03  0.93624503109E+02 0.  0.
    5000000    2    1    2    0    0 -0.32752071391E+03 -0.36401499620E+03  0.49172764229E+03  0.91736369150E+03  0.59998611051E+03 0.  0.
         23    2    4    4    0    0 -0.60730289109E+02 -0.38904018240E+03  0.48823257673E+03  0.63428966801E+03  0.94402872926E+02 0.  0.
         23    2    4    4    0    0 -0.26679042480E+03  0.25025186199E+02  0.34950655542E+01  0.28307402350E+03  0.91188248078E+02 0.  0.
          4    1    3    3  502    0  0.34635410168E+00  0.32320884930E+02 -0.16807253599E+01  0.32366408537E+02  0.00000000000E+00 0.  1.
         -4    1    3    3    0  502  0.32717435981E+03  0.33169411127E+03  0.43177208334E+02  0.46789776286E+03  0.00000000000E+00 0. -1.
         11    1    5    5    0    0 -0.82829322949E+02 -0.25276118644E+03  0.30142644931E+03  0.40200350553E+03  0.00000000000E+00 0. -1.
        -11    1    5    5    0    0  0.22099033840E+02 -0.13627899596E+03  0.18680612743E+03  0.23228616248E+03  0.00000000000E+00 0.  1.
          5    1    6    6  503    0 -0.44933695058E+02  0.30514954890E+02  0.25161142285E+02  0.60044754180E+02  0.47000000000E+01 0. -1.
         -5    1    6    6    0  503 -0.22185672974E+03 -0.54897686908E+01 -0.21666076731E+02  0.22302926932E+03  0.47000000000E+01 0.  1.
<mgrwt>
<rscale>  0 0.58938151E+03</rscale>
<asrwt>0</asrwt>
<pdfrwt beam="1">  1        1 0.15006554E+00 0.58938151E+03</pdfrwt>
<pdfrwt beam="2">  1       -1 0.68031057E-01 0.58938151E+03</pdfrwt>
<totfact> 0.36191513E+01</totfact>
</mgrwt>
</event>
<event>
12    1  0.3166324E-008  0.4031742E+03  0.7818608E-02  0.1042686E+00
         -1   -1    0    0    0  501 -0.00000000000E+00  0.00000000000E+00  0.23703537463E+03  0.23703537463E+03  0.00000000000E+00 0.  1.
          1   -1    0    0  501    0  0.00000000000E+00 -0.00000000000E+00 -0.99283659998E+03  0.99283659998E+03  0.00000000000E+00 0. -1.
         23    2    1    2    0    0  0.21409130043E+02 -0.18050956255E+03 -0.52250663706E+03  0.56094263441E+03  0.92743734577E+02 0.  0.
    5000000    2    1    2    0    0 -0.21409130043E+02  0.18050956255E+03 -0.23329458829E+03  0.66892934020E+03  0.59999837019E+03 0.  0.
         23    2    4    4    0    0 -0.27699391922E+03  0.57137910442E+01 -0.17406257313E+03  0.33873088817E+03  0.87650194211E+02 0.  0.
         23    2    4    4    0    0  0.25558478918E+03  0.17479577150E+03 -0.59232015165E+02  0.33019845203E+03  0.98211200503E+02 0.  0.
          4    1    3    3  502    0  0.44479431803E+02 -0.17451355774E+03 -0.46778956379E+03  0.50125889287E+03  0.00000000000E+00 0. -1.
         -4    1    3    3    0  502 -0.23070301761E+02 -0.59960048138E+01 -0.54717073266E+02  0.59683741537E+02  0.00000000000E+00 0.  1.
         11    1    5    5    0    0 -0.30678918754E+02 -0.51820878814E+01 -0.58884281639E+02  0.66598864216E+02  0.00000000000E+00 0. -1.
        -11    1    5    5    0    0 -0.24631500047E+03  0.10895878926E+02 -0.11517829149E+03  0.27213202396E+03  0.00000000000E+00 0.  1.
          5    1    6    6  503    0  0.20280847013E+03  0.18039458128E+03 -0.52428512648E+02  0.27648565867E+03  0.47000000000E+01 0. -1.
         -5    1    6    6    0  503  0.52776319049E+02 -0.55988097797E+01 -0.68035025170E+01  0.53712793353E+02  0.47000000000E+01 0.  1.
<mgrwt>
<rscale>  0 0.40317417E+03</rscale>
<asrwt>0</asrwt>
<pdfrwt beam="1">  1        1 0.15274409E+00 0.40317417E+03</pdfrwt>
<pdfrwt beam="2">  1       -1 0.36466981E-01 0.40317417E+03</pdfrwt>
<totfact> 0.11658334E+02</totfact>
</mgrwt>
</event>
<event>
12    1  0.3166324E-008  0.1252910E+04  0.7818608E-02  0.9067765E-01
          1   -1    0    0  501    0  0.00000000000E+00  0.00000000000E+00  0.32241786052E+04  0.32241786052E+04  0.00000000000E+00 0. -1.
         -1   -1    0    0    0  501 -0.00000000000E+00 -0.00000000000E+00 -0.53238714606E+03  0.53238714606E+03  0.00000000000E+00 0.  1.
         23    2    1    2    0    0  0.95984981274E+03  0.78097667818E+03  0.13853266525E+04  0.18597380876E+04  0.90882261869E+02 0.  0.
    5000000    2    1    2    0    0 -0.95984981274E+03 -0.78097667818E+03  0.13064648067E+04  0.18968276637E+04  0.59989053978E+03 0.  0.
         23    2    4    4    0    0 -0.74960597428E+03 -0.45070780130E+03  0.11851709022E+04  0.14757513764E+04  0.90362707095E+02 0.  0.
         23    2    4    4    0    0 -0.21024383846E+03 -0.33026887689E+03  0.12129390448E+03  0.42107628723E+03  0.96504019373E+02 0.  0.
          1    1    3    3  502    0  0.43705933179E+03  0.39631969717E+03  0.61086629524E+03  0.84926308794E+03  0.00000000000E+00 0. -1.
         -1    1    3    3    0  502  0.52279048095E+03  0.38465698101E+03  0.77446035724E+03  0.10104749997E+04  0.00000000000E+00 0.  1.
         13    1    5    5    0    0 -0.49031997421E+03 -0.30483324304E+03  0.70979866164E+03  0.91495962930E+03  0.00000000000E+00 0. -1.
        -13    1    5    5    0    0 -0.25928600006E+03 -0.14587455826E+03  0.47537224055E+03  0.56079174715E+03  0.00000000000E+00 0.  1.
          5    1    6    6  503    0 -0.14802745928E+03 -0.21966352793E+03  0.12734099001E+03  0.29394219149E+03  0.47000000000E+01 0. -1.
         -5    1    6    6    0  503 -0.62216379176E+02 -0.11060534896E+03 -0.60470855273E+01  0.12713409574E+03  0.47000000000E+01 0.  1.
<mgrwt>
<rscale>  0 0.12529100E+04</rscale>
<asrwt>0</asrwt>
<pdfrwt beam="1">  1        1 0.49602747E+00 0.12529100E+04</pdfrwt>
<pdfrwt beam="2">  1       -1 0.81905717E-01 0.12529100E+04</pdfrwt>
<totfact> 0.60081654E-01</totfact>
</mgrwt>
</event>
<event>
12    1  0.3166324E-008  0.5934066E+03  0.7818608E-02  0.9919181E-01
          1   -1    0    0  501    0  0.00000000000E+00  0.00000000000E+00  0.79093222822E+03  0.79093222822E+03  0.00000000000E+00 0. -1.
         -1   -1    0    0    0  501 -0.00000000000E+00 -0.00000000000E+00 -0.49406544418E+03  0.49406544418E+03  0.00000000000E+00 0.  1.
         23    2    1    2    0    0 -0.12806060169E+02  0.47493534217E+03  0.14508939328E+03  0.50496445180E+03  0.90612312181E+02 0.  0.
    5000000    2    1    2    0    0  0.12806060169E+02 -0.47493534217E+03  0.15177739075E+03  0.78003322060E+03  0.59973983899E+03 0.  0.
         23    2    4    4    0    0  0.56634828433E+02  0.98312436236E+02  0.13295592584E+03  0.19748141517E+03  0.91917311816E+02 0.  0.
         23    2    4    4    0    0 -0.43828768264E+02 -0.57324777841E+03  0.18821464918E+02  0.58255180543E+03  0.92078130387E+02 0.  0.
          2    1    3    3  502    0  0.92291241394E+01  0.65227064009E+02  0.52769665606E+02  0.84406067435E+02  0.00000000000E+00 0. -1.
         -2    1    3    3    0  502 -0.22035184308E+02  0.40970827816E+03  0.92319727672E+02  0.42055838437E+03  0.00000000000E+00 0.  1.
         11    1    5    5    0    0  0.58346249575E+02  0.36978707218E+02  0.11394071275E+03  0.13324487100E+03  0.00000000000E+00 0.  1.
        -11    1    5    5    0    0 -0.17114211421E+01  0.61333729018E+02  0.19015213089E+02  0.64236544166E+02  0.00000000000E+00 0. -1.
          5    1    6    6  503    0  0.20472667889E+02 -0.22948390002E+03  0.31373380348E+02  0.23256906393E+03  0.47000000000E+01 0. -1.
         -5    1    6    6    0  503 -0.64301436153E+02 -0.34376387838E+03 -0.12551915430E+02  0.34998274151E+03  0.47000000000E+01 0.  1.
<mgrwt>
<rscale>  0 0.59340657E+03</rscale>
<asrwt>0</asrwt>
<pdfrwt beam="1">  1        1 0.12168188E+00 0.59340657E+03</pdfrwt>
<pdfrwt beam="2">  1       -1 0.76010068E-01 0.59340657E+03</pdfrwt>
<totfact> 0.40780550E+01</totfact>
</mgrwt>
</event>
<event>
12    1  0.3166324E-008  0.6762196E+03  0.7818608E-02  0.9758787E-01
          1   -1    0    0  501    0  0.00000000000E+00  0.00000000000E+00  0.33631800206E+04  0.33631800206E+04  0.00000000000E+00 0. -1.
         -1   -1    0    0    0  501 -0.00000000000E+00 -0.00000000000E+00 -0.18432523033E+03  0.18432523033E+03  0.00000000000E+00 0.  1.
         23    2    1    2    0    0  0.50614856243E+03  0.43419107262E+03  0.12313982225E+04  0.14033705469E+04  0.91646357043E+02 0.  0.
    5000000    2    1    2    0    0 -0.50614856243E+03 -0.43419107262E+03  0.19474565677E+04  0.21441347040E+04  0.60001524217E+03 0.  0.
         23    2    4    4    0    0 -0.18271160968E+03 -0.75702392560E+02  0.13657259857E+04  0.13825424111E+04  0.84271383613E+02 0.  0.
         23    2    4    4    0    0 -0.32343695275E+03 -0.35848868006E+03  0.58173058203E+03  0.76159229283E+03  0.92123581592E+02 0.  0.
          3    1    3    3  502    0  0.21550704931E+03  0.22375570038E+03  0.49912794359E+03  0.58791037227E+03  0.00000000000E+00 0. -1.
         -3    1    3    3    0  502  0.29064151313E+03  0.21043537224E+03  0.73227027894E+03  0.81546017466E+03  0.00000000000E+00 0.  1.
         11    1    5    5    0    0 -0.11043601899E+03 -0.29765807121E+02  0.51667721679E+03  0.52918566110E+03  0.00000000000E+00 0. -1.
        -11    1    5    5    0    0 -0.72275590697E+02 -0.45936585439E+02  0.84904876887E+03  0.85335675003E+03  0.00000000000E+00 0.  1.
          5    1    6    6  503    0 -0.22053322580E+03 -0.24345643163E+03  0.45842285123E+03  0.56398540612E+03  0.47000000000E+01 0. -1.
         -5    1    6    6    0  503 -0.10290372694E+03 -0.11503224843E+03  0.12330773080E+03  0.19760688671E+03  0.47000000000E+01 0.  1.
<mgrwt>
<rscale>  0 0.67621956E+03</rscale>
<asrwt>0</asrwt>
<pdfrwt beam="1">  1        1 0.51741227E+00 0.67621956E+03</pdfrwt>
<pdfrwt beam="2">  1       -1 0.28357730E-01 0.67621956E+03</pdfrwt>
<totfact> 0.39338285E+00</totfact>
</mgrwt>
</event>
<event>
12    1  0.3166324E-008  0.7343029E+03  0.7818608E-02  0.9660304E-01
          1   -1    0    0  501    0  0.00000000000E+00  0.00000000000E+00  0.18754436689E+04  0.18754436689E+04  0.00000000000E+00 0. -1.
         -1   -1    0    0    0  501 -0.00000000000E+00 -0.00000000000E+00 -0.36937501424E+03  0.36937501424E+03  0.00000000000E+00 0.  1.
         23    2    1    2    0    0  0.54054520163E+03  0.47462396568E+03  0.72263493847E+03  0.10236718158E+04  0.90805882850E+02 0.  0.
    5000000    2    1    2    0    0 -0.54054520163E+03 -0.47462396568E+03  0.78343371619E+03  0.12211468673E+04  0.59997854973E+03 0.  0.
         23    2    4    4    0    0 -0.34640163337E+03 -0.33441803436E+03  0.82285106683E+03  0.95766638842E+03  0.90617437697E+02 0.  0.
         23    2    4    4    0    0 -0.19414356826E+03 -0.14020593133E+03 -0.39417350641E+02  0.26348047892E+03  0.10256123519E+03 0.  0.
          1    1    3    3  502    0  0.28304504697E+03  0.25682172190E+03  0.32016538824E+03  0.49857574277E+03  0.00000000000E+00 0. -1.
         -1    1    3    3    0  502  0.25750015466E+03  0.21780224378E+03  0.40246955023E+03  0.52509607302E+03  0.00000000000E+00 0.  1.
         13    1    5    5    0    0 -0.11056280789E+03 -0.16859106442E+03  0.34346285796E+03  0.39826350108E+03  0.00000000000E+00 0.  1.
        -13    1    5    5    0    0 -0.23583882548E+03 -0.16582696993E+03  0.47938820887E+03  0.55940288734E+03  0.00000000000E+00 0. -1.
          5    1    6    6  503    0 -0.80287055203E+02 -0.11853397117E+03 -0.88038814604E+01  0.14351275860E+03  0.47000000000E+01 0.  1.
         -5    1    6    6    0  503 -0.11385651305E+03 -0.21671960162E+02 -0.30613469180E+02  0.11996772031E+03  0.47000000000E+01 0. -1.
<mgrwt>
<rscale>  0 0.73430291E+03</rscale>
<asrwt>0</asrwt>
<pdfrwt beam="1">  1        1 0.28852979E+00 0.73430291E+03</pdfrwt>
<pdfrwt beam="2">  1       -1 0.56826926E-01 0.73430291E+03</pdfrwt>
<totfact> 0.11864780E+01</totfact>
</mgrwt>
</event>
<event>
12    1  0.3166324E-008  0.7181071E+03  0.7818608E-02  0.9686758E-01
         -2   -1    0    0    0  501 -0.00000000000E+00  0.00000000000E+00  0.49901963257E+03  0.49901963257E+03  0.00000000000E+00 0.  1.
          2   -1    0    0  501    0  0.00000000000E+00 -0.00000000000E+00 -0.21479596709E+04  0.21479596709E+04  0.00000000000E+00 0. -1.
         23    2    1    2    0    0 -0.49901464607E+03 -0.35794990752E+03 -0.16762177466E+04  0.17875715340E+04  0.92532706582E+02 0.  0.
    5000000    2    1    2    0    0  0.49901464607E+03  0.35794990752E+03  0.27277708293E+02  0.85940776947E+03  0.60057796128E+03 0.  0.
         23    2    4    4    0    0 -0.10250584222E+03 -0.17224659080E+02  0.42527640283E+02  0.14471391893E+03  0.91265445679E+02 0.  0.
         23    2    4    4    0    0  0.60152048829E+03  0.37517456660E+03 -0.15249931990E+02  0.71469385054E+03  0.89285420523E+02 0.  0.
          2    1    3    3  502    0 -0.15681754476E+03 -0.85718847082E+02 -0.59557552782E+03  0.62181160525E+03  0.00000000000E+00 0. -1.
         -2    1    3    3    0  502 -0.34219710132E+03 -0.27223106043E+03 -0.10806422188E+04  0.11657599288E+04  0.00000000000E+00 0.  1.
         11    1    5    5    0    0 -0.10877673917E+02  0.43115038094E+01 -0.25849244215E+02  0.28374218605E+02  0.00000000000E+00 0. -1.
        -11    1    5    5    0    0 -0.91628168301E+02 -0.21536162890E+02  0.68376884499E+02  0.11633970033E+03  0.00000000000E+00 0.  1.
          5    1    6    6  503    0  0.25195055790E+03  0.10692727912E+03  0.86245538543E+00  0.27374323823E+03  0.47000000000E+01 0. -1.
         -5    1    6    6    0  503  0.34956993040E+03  0.26824728747E+03 -0.16112387375E+02  0.44095061231E+03  0.47000000000E+01 0.  1.
<mgrwt>
<rscale>  0 0.71810714E+03</rscale>
<asrwt>0</asrwt>
<pdfrwt beam="1">  1        2 0.33045533E+00 0.71810714E+03</pdfrwt>
<pdfrwt beam="2">  1       -2 0.76772253E-01 0.71810714E+03</pdfrwt>
<totfact> 0.87469616E+00</totfact>
</mgrwt>
</event>
<event>
12    1  0.3166324E-008  0.1395479E+04  0.7818608E-02  0.8957098E-01
          1   -1    0    0  501    0  0.00000000000E+00  0.00000000000E+00  0.21448591496E+04  0.21448591496E+04  0.00000000000E+00 0. -1.
         -1   -1    0    0    0  501 -0.00000000000E+00 -0.00000000000E+00 -0.14077061967E+04  0.14077061967E+04  0.00000000000E+00 0.  1.
         23    2    1    2    0    0 -0.15260379705E+03  0.13683392680E+04 -0.63455892579E+03  0.15185754072E+04  0.88124716925E+02 0.  0.
    5000000    2    1    2    0    0  0.15260379705E+03 -0.13683392680E+04  0.13717118787E+04  0.20339899391E+04  0.59990109421E+03 0.  0.
         23    2    4    4    0    0  0.22181430171E+03 -0.70894658476E+03  0.38332030038E+03  0.84052628566E+03  0.87995111847E+02 0.  0.
         23    2    4    4    0    0 -0.69210504669E+02 -0.65939268327E+03  0.98839157829E+03  0.11934636534E+04  0.88593313901E+02 0.  0.
          1    1    3    3  502    0 -0.97378018096E+02  0.68024483418E+03 -0.27415457973E+03  0.73984879971E+03  0.00000000000E+00 0. -1.
         -1    1    3    3    0  502 -0.55225778949E+02  0.68809443385E+03 -0.36040434606E+03  0.77872660749E+03  0.00000000000E+00 0.  1.
         13    1    5    5    0    0  0.10392287312E+03 -0.23037230030E+03  0.16232937735E+03  0.30037008349E+03  0.00000000000E+00 0.  1.
        -13    1    5    5    0    0  0.11789142860E+03 -0.47857428446E+03  0.22099092303E+03  0.54015620217E+03  0.00000000000E+00 0. -1.
          5    1    6    6  503    0 -0.86834919054E+02 -0.57333241416E+03  0.87966282561E+03  0.10536029314E+04  0.47000000000E+01 0. -1.
         -5    1    6    6    0  503  0.17624414386E+02 -0.86060269108E+02  0.10872875268E+03  0.13986072201E+03  0.47000000000E+01 0.  1.
<mgrwt>
<rscale>  0 0.13954787E+04</rscale>
<asrwt>0</asrwt>
<pdfrwt beam="1">  1        1 0.32997833E+00 0.13954787E+04</pdfrwt>
<pdfrwt beam="2">  1       -1 0.21657018E+00 0.13954787E+04</pdfrwt>
<totfact> 0.26370846E-01</totfact>
</mgrwt>
</event>
<event>
12    1  0.3166324E-008  0.1104185E+04  0.7818608E-02  0.9201123E-01
          1   -1    0    0  501    0  0.00000000000E+00  0.00000000000E+00  0.19093205133E+04  0.19093205133E+04  0.00000000000E+00 0. -1.
         -1   -1    0    0    0  501 -0.00000000000E+00 -0.00000000000E+00 -0.68227753887E+03  0.68227753887E+03  0.00000000000E+00 0.  1.
         23    2    1    2    0    0  0.33146538471E+03 -0.99294864485E+03  0.38078776960E+03  0.11177556288E+04  0.92531116821E+02 0.  0.
    5000000    2    1    2    0    0 -0.33146538471E+03  0.99294864485E+03  0.84625520479E+03  0.14738424234E+04  0.60020605186E+03 0.  0.
         23    2    4    4    0    0  0.85522593073E+01 -0.51377782359E+02  0.69191520755E+02  0.12532632705E+03  0.90589204922E+02 0.  0.
         23    2    4    4    0    0 -0.34001764401E+03  0.10443264272E+04  0.77706368404E+03  0.13485160963E+04  0.91858631294E+02 0.  0.
          4    1    3    3  502    0  0.55224369698E+02 -0.23184630756E+03  0.12186004836E+03  0.26767949627E+03  0.00000000000E+00 0. -1.
         -4    1    3    3    0  502  0.27624101501E+03 -0.76110233729E+03  0.25892772124E+03  0.85007613249E+03  0.00000000000E+00 0.  1.
         13    1    5    5    0    0  0.14203424850E+02 -0.11261847474E+02 -0.20225815094E+02  0.27159714325E+02  0.00000000000E+00 0. -1.
        -13    1    5    5    0    0 -0.56511655431E+01 -0.40115934884E+02  0.89417335849E+02  0.98166612726E+02  0.00000000000E+00 0.  1.
          5    1    6    6  503    0 -0.26078686921E+03  0.89965325922E+03  0.64743947246E+03  0.11386771880E+04  0.47000000000E+01 0. -1.
         -5    1    6    6    0  503 -0.79230774801E+02  0.14467316799E+03  0.12962421158E+03  0.20983890831E+03  0.47000000000E+01 0.  1.
<mgrwt>
<rscale>  0 0.11041845E+04</rscale>
<asrwt>0</asrwt>
<pdfrwt beam="1">  1        1 0.29374162E+00 0.11041845E+04</pdfrwt>
<pdfrwt beam="2">  1       -1 0.10496578E+00 0.11041845E+04</pdfrwt>
<totfact> 0.29150981E+00</totfact>
</mgrwt>
</event>
<event>
12    1  0.3166324E-008  0.4521307E+03  0.7818608E-02  0.1027089E+00
          2   -1    0    0  501    0  0.00000000000E+00  0.00000000000E+00  0.17232162986E+04  0.17232162986E+04  0.00000000000E+00 0. -1.
         -2   -1    0    0    0  501 -0.00000000000E+00 -0.00000000000E+00 -0.32874825194E+03  0.32874825194E+03  0.00000000000E+00 0.  1.
         23    2    1    2    0    0 -0.43315485586E+03  0.63507646619E+02  0.12078486404E+04  0.12878911867E+04  0.90050098691E+02 0.  0.
    5000000    2    1    2    0    0  0.43315485586E+03 -0.63507646619E+02  0.18661940628E+03  0.76407336388E+03  0.59776663696E+03 0.  0.
         23    2    4    4    0    0  0.17595636701E+03 -0.43213483845E+02  0.37987461642E+03  0.42955999853E+03  0.85959408249E+02 0.  0.
         23    2    4    4    0    0  0.25719848885E+03 -0.20294162774E+02 -0.19325521014E+03  0.33451336535E+03  0.89379525864E+02 0.  0.
          1    1    3    3  502    0 -0.23077917701E+03 -0.10271332071E+02  0.59339431119E+03  0.63677416511E+03  0.00000000000E+00 0. -1.
         -1    1    3    3    0  502 -0.20237567885E+03  0.73778978689E+02  0.61445432922E+03  0.65111702157E+03  0.00000000000E+00 0.  1.
         11    1    5    5    0    0  0.48468290656E+02 -0.52948084223E+02  0.11754287051E+03  0.13772799727E+03  0.00000000000E+00 0. -1.
        -11    1    5    5    0    0  0.12748807635E+03  0.97346003784E+01  0.26233174590E+03  0.29183200127E+03  0.00000000000E+00 0.  1.
          5    1    6    6  503    0  0.18310973280E+03 -0.14095047558E+02 -0.18301761856E+03  0.25931714814E+03  0.47000000000E+01 0. -1.
         -5    1    6    6    0  503  0.74088756044E+02 -0.61991152160E+01 -0.10237591571E+02  0.75196217211E+02  0.47000000000E+01 0.  1.
<mgrwt>
<rscale>  0 0.45213072E+03</rscale>
<asrwt>0</asrwt>
<pdfrwt beam="1">  1        2 0.26511019E+00 0.45213072E+03</pdfrwt>
<pdfrwt beam="2">  1       -2 0.50576655E-01 0.45213072E+03</pdfrwt>
<totfact> 0.37792905E+01</totfact>
</mgrwt>
</event>
<event>
12    1  0.3166324E-008  0.3803784E+03  0.7818608E-02  0.1050794E+00
         -2   -1    0    0    0  501 -0.00000000000E+00  0.00000000000E+00  0.30538328593E+03  0.30538328593E+03  0.00000000000E+00 0.  1.
          2   -1    0    0  501    0  0.00000000000E+00 -0.00000000000E+00 -0.70297552463E+03  0.70297552463E+03  0.00000000000E+00 0. -1.
         23    2    1    2    0    0 -0.11223488453E+03 -0.22614897739E+03 -0.17352240693E+03  0.31992107460E+03  0.92192402002E+02 0.  0.
    5000000    2    1    2    0    0  0.11223488453E+03  0.22614897739E+03 -0.22406983178E+03  0.68843773596E+03  0.59999933124E+03 0.  0.
         23    2    4    4    0    0  0.25946298363E+03  0.23063872660E+03  0.52791963514E+02  0.36176021719E+03  0.86995409326E+02 0.  0.
         23    2    4    4    0    0 -0.14722809910E+03 -0.44897492102E+01 -0.27686179529E+03  0.32667751877E+03  0.91484843369E+02 0.  0.
          3    1    3    3  502    0 -0.27322324887E+02 -0.99897615357E+02 -0.23399285478E+02  0.10617706698E+03  0.00000000000E+00 0. -1.
         -3    1    3    3    0  502 -0.84912559648E+02 -0.12625136203E+03 -0.15012312145E+03  0.21374400762E+03  0.00000000000E+00 0.  1.
         13    1    5    5    0    0  0.10919044914E+03  0.95048267259E+02 -0.21095507868E+02  0.14629336193E+03  0.00000000000E+00 0.  1.
        -13    1    5    5    0    0  0.15027253449E+03  0.13559045934E+03  0.73887471382E+02  0.21546685526E+03  0.00000000000E+00 0. -1.
          5    1    6    6  503    0 -0.41450654378E+02  0.24129898942E+02 -0.15689129811E+03  0.16412610455E+03  0.47000000000E+01 0. -1.
         -5    1    6    6    0  503 -0.10577744472E+03 -0.28619648152E+02 -0.11997049718E+03  0.16255141422E+03  0.47000000000E+01 0.  1.
<mgrwt>
<rscale>  0 0.38037835E+03</rscale>
<asrwt>0</asrwt>
<pdfrwt beam="1">  1        2 0.10815008E+00 0.38037835E+03</pdfrwt>
<pdfrwt beam="2">  1       -2 0.46982045E-01 0.38037835E+03</pdfrwt>
<totfact> 0.18122950E+02</totfact>
</mgrwt>
</event>
<event>
12    1  0.3166324E-008  0.1368762E+04  0.7818608E-02  0.8976746E-01
         -1   -1    0    0    0  501 -0.00000000000E+00  0.00000000000E+00  0.59584297494E+03  0.59584297494E+03  0.00000000000E+00 0.  1.
          1   -1    0    0  501    0  0.00000000000E+00 -0.00000000000E+00 -0.34809172577E+04  0.34809172577E+04  0.00000000000E+00 0. -1.
         23    2    1    2    0    0 -0.70986020378E+02 -0.13583157831E+04 -0.16764182637E+04  0.21607866823E+04  0.92520861019E+02 0.  0.
    5000000    2    1    2    0    0  0.70986020378E+02  0.13583157831E+04 -0.12086560191E+04  0.19159735504E+04  0.60003707538E+03 0.  0.
         23    2    4    4    0    0 -0.37740093322E+02  0.68776604127E+03 -0.96378514807E+03  0.11882543482E+04  0.92844720812E+02 0.  0.
         23    2    4    4    0    0  0.10872611370E+03  0.67054974179E+03 -0.24487087098E+03  0.72771920220E+03  0.90305978708E+02 0.  0.
          3    1    3    3  502    0  0.17488629347E+02 -0.34224216973E+03 -0.45220238786E+03  0.56738219436E+03  0.00000000000E+00 0. -1.
         -3    1    3    3    0  502 -0.88474649725E+02 -0.10160736133E+04 -0.12242158759E+04  0.15934044879E+04  0.00000000000E+00 0.  1.
         13    1    5    5    0    0 -0.46828488698E+02  0.39268325708E+03 -0.48535038711E+03  0.62606552853E+03  0.00000000000E+00 0.  1.
        -13    1    5    5    0    0  0.90883953763E+01  0.29508278419E+03 -0.47843476096E+03  0.56218881966E+03  0.00000000000E+00 0. -1.
          5    1    6    6  503    0  0.90838742814E+02  0.30658763166E+03 -0.13461637650E+03  0.34697451190E+03  0.47000000000E+01 0. -1.
         -5    1    6    6    0  503  0.17887370886E+02  0.36396211012E+03 -0.11025449448E+03  0.38074469031E+03  0.47000000000E+01 0.  1.
<mgrwt>
<rscale>  0 0.13687617E+04</rscale>
<asrwt>0</asrwt>
<pdfrwt beam="1">  1        1 0.53552573E+00 0.13687617E+04</pdfrwt>
<pdfrwt beam="2">  1       -1 0.91668151E-01 0.13687617E+04</pdfrwt>
<totfact> 0.29422761E-01</totfact>
</mgrwt>
</event>
<event>
12    1  0.3166324E-008  0.5634568E+03  0.7818608E-02  0.9984263E-01
          1   -1    0    0  501    0  0.00000000000E+00  0.00000000000E+00  0.42023227407E+03  0.42023227407E+03  0.00000000000E+00 0. -1.
         -1   -1    0    0    0  501 -0.00000000000E+00 -0.00000000000E+00 -0.11601154266E+04  0.11601154266E+04  0.00000000000E+00 0.  1.
         23    2    1    2    0    0  0.26530554936E+03 -0.39897414246E+03 -0.64204129418E+03  0.80626803542E+03  0.91014947374E+02 0.  0.
    5000000    2    1    2    0    0 -0.26530554936E+03  0.39897414246E+03 -0.97841858350E+02  0.77407966525E+03  0.60004907969E+03 0.  0.
         23    2    4    4    0    0  0.76847867793E+02  0.22186683299E+03 -0.24584976292E+03  0.35182479144E+03  0.90598518633E+02 0.  0.
         23    2    4    4    0    0 -0.34215341715E+03  0.17710730946E+03  0.14800790457E+03  0.42225487380E+03  0.89201337989E+02 0.  0.
          3    1    3    3  502    0  0.18067067623E+03 -0.32541659993E+03 -0.45106676163E+03  0.58480687428E+03  0.00000000000E+00 0. -1.
         -3    1    3    3    0  502  0.84634873130E+02 -0.73557542527E+02 -0.19097453255E+03  0.22146116114E+03  0.00000000000E+00 0.  1.
         13    1    5    5    0    0  0.69449891473E+02  0.22855342134E+03 -0.24440092494E+03  0.34174810306E+03  0.00000000000E+00 0.  1.
        -13    1    5    5    0    0  0.73979763207E+01 -0.66865883468E+01 -0.14488379848E+01  0.10076688388E+02  0.00000000000E+00 0. -1.
          5    1    6    6  503    0 -0.14762548846E+03  0.32339033627E+02  0.37763421412E+02  0.15584371639E+03  0.47000000000E+01 0. -1.
         -5    1    6    6    0  503 -0.19452792869E+03  0.14476827584E+03  0.11024448316E+03  0.26641115742E+03  0.47000000000E+01 0.  1.
<mgrwt>
<rscale>  0 0.56345676E+03</rscale>
<asrwt>0</asrwt>
<pdfrwt beam="1">  1        1 0.64651120E-01 0.56345676E+03</pdfrwt>
<pdfrwt beam="2">  1       -1 0.17847929E+00 0.56345676E+03</pdfrwt>
<totfact> 0.12652889E+01</totfact>
</mgrwt>
</event>
<event>
12    1  0.3166324E-008  0.6097739E+03  0.7818608E-02  0.9885333E-01
         -1   -1    0    0    0  501 -0.00000000000E+00  0.00000000000E+00  0.10010082300E+04  0.10010082300E+04  0.00000000000E+00 0.  1.
          1   -1    0    0  501    0  0.00000000000E+00 -0.00000000000E+00 -0.55554276009E+03  0.55554276009E+03  0.00000000000E+00 0. -1.
         23    2    1    2    0    0 -0.41057067909E+03 -0.38960411129E+03 -0.79671743687E+02  0.57873866185E+03  0.90725993614E+02 0.  0.
    5000000    2    1    2    0    0  0.41057067909E+03  0.38960411129E+03  0.52513721358E+03  0.97781232822E+03  0.59999017497E+03 0.  0.
         23    2    4    4    0    0  0.16175905850E+03  0.33625996539E+03  0.58583094729E+03  0.70070439131E+03  0.92476958619E+02 0.  0.
         23    2    4    4    0    0  0.24881162059E+03  0.53344145903E+02 -0.60693733710E+02  0.27710793690E+03  0.91390693950E+02 0.  0.
          4    1    3    3  502    0 -0.12696377179E+03 -0.10818311819E+03 -0.64725507503E+02  0.17892114948E+03  0.00000000000E+00 0. -1.
         -4    1    3    3    0  502 -0.28360690730E+03 -0.28142099310E+03 -0.14946236184E+02  0.39981751238E+03  0.00000000000E+00 0.  1.
         13    1    5    5    0    0  0.52811442031E+02  0.20860849096E+03  0.35873586526E+03  0.41832758926E+03  0.00000000000E+00 0. -1.
        -13    1    5    5    0    0  0.10894761647E+03  0.12765147443E+03  0.22709508203E+03  0.28237680206E+03  0.00000000000E+00 0.  1.
          5    1    6    6  503    0  0.25458917775E+02  0.38374360704E+02 -0.65558676387E+01  0.46752726703E+02  0.47000000000E+01 0. -1.
         -5    1    6    6    0  503  0.22335270281E+03  0.14969785199E+02 -0.54137866071E+02  0.23035521020E+03  0.47000000000E+01 0.  1.
<mgrwt>
<rscale>  0 0.60977388E+03</rscale>
<asrwt>0</asrwt>
<pdfrwt beam="1">  1        1 0.85468117E-01 0.60977388E+03</pdfrwt>
<pdfrwt beam="2">  1       -1 0.15400127E+00 0.60977388E+03</pdfrwt>
<totfact> 0.13021849E+01</totfact>
</mgrwt>
</event>
<event>
12    1  0.3166324E-008  0.1251656E+04  0.7818608E-02  0.9068806E-01
          2   -1    0    0  501    0  0.00000000000E+00  0.00000000000E+00  0.13246977006E+04  0.13246977006E+04  0.00000000000E+00 0. -1.
         -2   -1    0    0    0  501 -0.00000000000E+00 -0.00000000000E+00 -0.15941688110E+04  0.15941688110E+04  0.00000000000E+00 0.  1.
         23    2    1    2    0    0  0.11059373569E+04 -0.47293221527E+03  0.56976720327E+03  0.13342514902E+04  0.93968374811E+02 0.  0.
    5000000    2    1    2    0    0 -0.11059373569E+04  0.47293221527E+03 -0.83923831374E+03  0.15846150214E+04  0.59993458083E+03 0.  0.
         23    2    4    4    0    0 -0.14047839435E+02  0.13497300047E+03  0.37515902792E+01  0.16121450627E+03  0.86953953065E+02 0.  0.
         23    2    4    4    0    0 -0.10918895175E+04  0.33795921480E+03 -0.84298990402E+03  0.14234005152E+04  0.94857256271E+02 0.  0.
          3    1    3    3  502    0  0.23934090683E+03 -0.63056171251E+02  0.10435197811E+03  0.26860656312E+03  0.00000000000E+00 0. -1.
         -3    1    3    3    0  502  0.86659645008E+03 -0.40987604402E+03  0.46541522515E+03  0.10656449271E+04  0.00000000000E+00 0.  1.
         13    1    5    5    0    0 -0.33130750674E+02  0.12477006496E+03 -0.18223328167E+02  0.13037371453E+03  0.00000000000E+00 0.  1.
        -13    1    5    5    0    0  0.19082911240E+02  0.10202935506E+02  0.21974918446E+02  0.30840791738E+02  0.00000000000E+00 0. -1.
          5    1    6    6  503    0 -0.46100693754E+03  0.97276571546E+02 -0.36706316061E+03  0.59728350196E+03  0.47000000000E+01 0. -1.
         -5    1    6    6    0  503 -0.63088257993E+03  0.24068264325E+03 -0.47592674341E+03  0.82611701321E+03  0.47000000000E+01 0.  1.
<mgrwt>
<rscale>  0 0.12516558E+04</rscale>
<asrwt>0</asrwt>
<pdfrwt beam="1">  1        2 0.20379965E+00 0.12516558E+04</pdfrwt>
<pdfrwt beam="2">  1       -2 0.24525674E+00 0.12516558E+04</pdfrwt>
<totfact> 0.10620465E+00</totfact>
</mgrwt>
</event>
<event>
12    1  0.3166324E-008  0.7870546E+03  0.7818608E-02  0.9578946E-01
         -2   -1    0    0    0  501 -0.00000000000E+00  0.00000000000E+00  0.85889182838E+03  0.85889182838E+03  0.00000000000E+00 0.  1.
          2   -1    0    0  501    0  0.00000000000E+00 -0.00000000000E+00 -0.88706868105E+03  0.88706868105E+03  0.00000000000E+00 0. -1.
         23    2    1    2    0    0  0.66105515530E+03  0.27993988156E+03 -0.28168092388E+03  0.77654195590E+03  0.91175713631E+02 0.  0.
    5000000    2    1    2    0    0 -0.66105515530E+03 -0.27993988156E+03  0.25350407121E+03  0.96941855353E+03  0.60012312252E+03 0.  0.
         23    2    4    4    0    0 -0.50568416599E+03 -0.40318520353E+03  0.25260305512E+02  0.65354040539E+03  0.90565966907E+02 0.  0.
         23    2    4    4    0    0 -0.15537098931E+03  0.12324532197E+03  0.22824376570E+03  0.31587814814E+03  0.91401499931E+02 0.  0.
          3    1    3    3  502    0  0.35826964957E+03  0.18314696795E+03 -0.11984576554E+03  0.41983682687E+03  0.00000000000E+00 0. -1.
         -3    1    3    3    0  502  0.30278550572E+03  0.96792913608E+02 -0.16183515834E+03  0.35670512903E+03  0.00000000000E+00 0.  1.
         13    1    5    5    0    0 -0.24360726565E+03 -0.14450396450E+03 -0.11468181952E+02  0.28347383447E+03  0.00000000000E+00 0.  1.
        -13    1    5    5    0    0 -0.26207690034E+03 -0.25868123903E+03  0.36728487464E+02  0.37006657092E+03  0.00000000000E+00 0. -1.
          5    1    6    6  503    0 -0.45504183177E+02  0.15173665034E+02  0.11465017455E+03  0.12436890014E+03  0.47000000000E+01 0. -1.
         -5    1    6    6    0  503 -0.10986680613E+03  0.10807165694E+03  0.11359359115E+03  0.19150924801E+03  0.47000000000E+01 0.  1.
<mgrwt>
<rscale>  0 0.78705463E+03</rscale>
<asrwt>0</asrwt>
<pdfrwt beam="1">  1        2 0.13647210E+00 0.78705463E+03</pdfrwt>
<pdfrwt beam="2">  1       -2 0.13213720E+00 0.78705463E+03</pdfrwt>
<totfact> 0.12617688E+01</totfact>
</mgrwt>
</event>
<event>
12    1  0.3166324E-008  0.3577392E+03  0.7818608E-02  0.1059483E+00
         -2   -1    0    0    0  501 -0.00000000000E+00  0.00000000000E+00  0.28175739876E+03  0.28175739876E+03  0.00000000000E+00 0.  1.
          2   -1    0    0  501    0  0.00000000000E+00 -0.00000000000E+00 -0.87819074099E+03  0.87819074099E+03  0.00000000000E+00 0. -1.
         23    2    1    2    0    0  0.23354564529E+03 -0.31803192599E+02 -0.42191012096E+03  0.49212538661E+03  0.92866756636E+02 0.  0.
    5000000    2    1    2    0    0 -0.23354564529E+03  0.31803192599E+02 -0.17452322128E+03  0.66782275314E+03  0.59997821906E+03 0.  0.
         23    2    4    4    0    0 -0.16085290099E+03  0.19446244473E+03 -0.32239144629E+03  0.41896102529E+03  0.88897682227E+02 0.  0.
         23    2    4    4    0    0 -0.72692744308E+02 -0.16265925213E+03  0.14786822501E+03  0.24886172785E+03  0.91240781665E+02 0.  0.
          2    1    3    3  502    0  0.18642335864E+03  0.14155837020E+02 -0.32587280579E+03  0.37569554419E+03  0.00000000000E+00 0. -1.
         -2    1    3    3    0  502  0.47122286651E+02 -0.45959029618E+02 -0.96037315171E+02  0.11642984243E+03  0.00000000000E+00 0.  1.
         13    1    5    5    0    0 -0.46461817450E+02  0.66552642235E+01 -0.69066504821E+02  0.83505539402E+02  0.00000000000E+00 0. -1.
        -13    1    5    5    0    0 -0.11439108354E+03  0.18780718050E+03 -0.25332494147E+03  0.33545548589E+03  0.00000000000E+00 0.  1.
          5    1    6    6  503    0  0.13074767143E+02 -0.61963147547E+02  0.24932241593E+02  0.68220875549E+02  0.47000000000E+01 0. -1.
         -5    1    6    6    0  503 -0.85767511451E+02 -0.10069610458E+03  0.12293598342E+03  0.18064085230E+03  0.47000000000E+01 0.  1.
<mgrwt>
<rscale>  0 0.35773919E+03</rscale>
<asrwt>0</asrwt>
<pdfrwt beam="1">  1        2 0.13510627E+00 0.35773919E+03</pdfrwt>
<pdfrwt beam="2">  1       -2 0.43347293E-01 0.35773919E+03</pdfrwt>
<totfact> 0.15993062E+02</totfact>
</mgrwt>
</event>
<event>
12    1  0.3166324E-008  0.9401562E+03  0.7818608E-02  0.9376731E-01
          1   -1    0    0  501    0  0.00000000000E+00  0.00000000000E+00  0.11385187387E+04  0.11385187387E+04  0.00000000000E+00 0. -1.
         -1   -1    0    0    0  501 -0.00000000000E+00 -0.00000000000E+00 -0.87146562213E+03  0.87146562213E+03  0.00000000000E+00 0.  1.
         23    2    1    2    0    0  0.86703290242E+03 -0.74252006297E+02 -0.12262262527E+03  0.88346924494E+03  0.90676260473E+02 0.  0.
    5000000    2    1    2    0    0 -0.86703290242E+03  0.74252006297E+02  0.38967574188E+03  0.11265151159E+04  0.59994142074E+03 0.  0.
         23    2    4    4    0    0  0.25461961014E+02 -0.78206601338E+02 -0.27362112334E+02  0.12584573924E+03  0.91235305343E+02 0.  0.
         23    2    4    4    0    0 -0.89249486343E+03  0.15245860763E+03  0.41703785422E+03  0.10006693767E+04  0.87337971860E+02 0.  0.
          3    1    3    3  502    0  0.36463844251E+03 -0.70357063422E+02 -0.29809126869E+02  0.37255857818E+03  0.00000000000E+00 0. -1.
         -3    1    3    3    0  502  0.50239445990E+03 -0.38949428753E+01 -0.92813498402E+02  0.51091066676E+03  0.00000000000E+00 0.  1.
         11    1    5    5    0    0  0.21561605719E+02 -0.87586132871E+02 -0.48485736725E+02  0.10240654363E+03  0.00000000000E+00 0. -1.
        -11    1    5    5    0    0  0.39003552949E+01  0.93795315334E+01  0.21123624391E+02  0.23439195606E+02  0.00000000000E+00 0.  1.
          5    1    6    6  503    0 -0.80149775610E+03  0.12647504500E+03  0.39897952086E+03  0.90421310436E+03  0.47000000000E+01 0. -1.
         -5    1    6    6    0  503 -0.90997107331E+02  0.25983562632E+02  0.18058333360E+02  0.96456272338E+02  0.47000000000E+01 0.  1.
<mgrwt>
<rscale>  0 0.94015624E+03</rscale>
<asrwt>0</asrwt>
<pdfrwt beam="1">  1        1 0.17515673E+00 0.94015624E+03</pdfrwt>
<pdfrwt beam="2">  1       -1 0.13407163E+00 0.94015624E+03</pdfrwt>
<totfact> 0.56185946E+00</totfact>
</mgrwt>
</event>
<event>
12    1  0.3166324E-008  0.2146340E+04  0.7818608E-02  0.8541101E-01
         -2   -1    0    0    0  501 -0.00000000000E+00  0.00000000000E+00  0.14874721514E+04  0.14874721514E+04  0.00000000000E+00 0.  1.
          2   -1    0    0  501    0  0.00000000000E+00 -0.00000000000E+00 -0.32550886886E+04  0.32550886886E+04  0.00000000000E+00 0. -1.
         23    2    1    2    0    0 -0.78478227317E+03  0.19566092802E+04 -0.13675209845E+04  0.25145062053E+04  0.91786282288E+02 0.  0.
    5000000    2    1    2    0    0  0.78478227317E+03 -0.19566092802E+04 -0.40009555265E+03  0.22280546348E+04  0.59995659219E+03 0.  0.
         23    2    4    4    0    0  0.49868756069E+03 -0.54575359268E+03 -0.67728203517E+02  0.74824021777E+03  0.93488217588E+02 0.  0.
         23    2    4    4    0    0  0.28609471249E+03 -0.14108556875E+04 -0.33236734914E+03  0.14798144170E+04  0.83777672422E+02 0.  0.
          2    1    3    3  502    0 -0.58281976543E+03  0.15113612259E+04 -0.10117415088E+04  0.19098462019E+04  0.00000000000E+00 0. -1.
         -2    1    3    3    0  502 -0.20196250774E+03  0.44524805431E+03 -0.35577947565E+03  0.60466000338E+03  0.00000000000E+00 0.  1.
         13    1    5    5    0    0  0.16307064699E+03 -0.23305736367E+03  0.75081860235E+00  0.28444390379E+03  0.00000000000E+00 0.  1.
        -13    1    5    5    0    0  0.33561691369E+03 -0.31269622900E+03 -0.68479022119E+02  0.46379631398E+03  0.00000000000E+00 0. -1.
          5    1    6    6  503    0  0.14773301925E+03 -0.87054694809E+03 -0.23349395436E+03  0.91335565391E+03  0.47000000000E+01 0. -1.
         -5    1    6    6    0  503  0.13836169324E+03 -0.54030873945E+03 -0.98873394776E+02  0.56645876308E+03  0.47000000000E+01 0.  1.
<mgrwt>
<rscale>  0 0.21463398E+04</rscale>
<asrwt>0</asrwt>
<pdfrwt beam="1">  1        2 0.50078287E+00 0.21463398E+04</pdfrwt>
<pdfrwt beam="2">  1       -2 0.22884187E+00 0.21463398E+04</pdfrwt>
<totfact> 0.91021767E-02</totfact>
</mgrwt>
</event>
<event>
12    1  0.3166324E-008  0.1002481E+04  0.7818608E-02  0.9305828E-01
         -2   -1    0    0    0  501 -0.00000000000E+00  0.00000000000E+00  0.13235746289E+04  0.13235746289E+04  0.00000000000E+00 0.  1.
          2   -1    0    0  501    0  0.00000000000E+00 -0.00000000000E+00 -0.86283286771E+03  0.86283286771E+03  0.00000000000E+00 0. -1.
         23    2    1    2    0    0 -0.92206952357E+03 -0.29096032618E+03  0.37338779630E+02  0.97224719770E+03  0.94869970281E+02 0.  0.
    5000000    2    1    2    0    0  0.92206952357E+03  0.29096032618E+03  0.42340298157E+03  0.12141602989E+04  0.60003752294E+03 0.  0.
         23    2    4    4    0    0  0.37693795362E+03  0.30021133858E+03 -0.40341394903E+02  0.49235711913E+03  0.92623085285E+02 0.  0.
         23    2    4    4    0    0  0.54513156995E+03 -0.92510123953E+01  0.46374437647E+03  0.72180317977E+03  0.93203936811E+02 0.  0.
          1    1    3    3  502    0 -0.30099621948E+03 -0.13619009140E+03 -0.90916049782E+01  0.33049829412E+03  0.00000000000E+00 0. -1.
         -1    1    3    3    0  502 -0.62107330409E+03 -0.15477023479E+03  0.46430384608E+02  0.64174890358E+03  0.00000000000E+00 0.  1.
         11    1    5    5    0    0  0.17342348758E+03  0.88364965763E+02 -0.39430590947E+02  0.19859215675E+03  0.00000000000E+00 0. -1.
        -11    1    5    5    0    0  0.20351446605E+03  0.21184637281E+03 -0.91080395609E+00  0.29376496239E+03  0.00000000000E+00 0.  1.
          5    1    6    6  503    0  0.90667006248E+02 -0.12321618866E+02  0.12486876773E+03  0.15487616817E+03  0.47000000000E+01 0. -1.
         -5    1    6    6    0  503  0.45446456370E+03  0.30706064712E+01  0.33887560875E+03  0.56692701161E+03  0.47000000000E+01 0.  1.
<mgrwt>
<rscale>  0 0.10024812E+04</rscale>
<asrwt>0</asrwt>
<pdfrwt beam="1">  1        2 0.13274352E+00 0.10024812E+04</pdfrwt>
<pdfrwt beam="2">  1       -2 0.20362687E+00 0.10024812E+04</pdfrwt>
<totfact> 0.38860946E+00</totfact>
</mgrwt>
</event>
<event>
12    1  0.4104253E-008  0.7502282E+03  0.7818608E-02  0.9634992E-01
         -2   -1    0    0    0  501 -0.00000000000E+00  0.00000000000E+00  0.26151184702E+03  0.26151184702E+03  0.00000000000E+00 0.  1.
          2   -1    0    0  501    0  0.00000000000E+00 -0.00000000000E+00 -0.23615224795E+04  0.23615224795E+04  0.00000000000E+00 0. -1.
         23    2    1    2    0    0  0.63987786705E+03  0.14053067016E+02 -0.12181363607E+04  0.13790895101E+04  0.91599727057E+02 0.  0.
    5000000    2    1    2    0    0 -0.63987786705E+03 -0.14053067016E+02 -0.88187427179E+03  0.12439448165E+04  0.60004608307E+03 0.  0.
         23    2    4    4    0    0 -0.54797150920E+03  0.21647829519E+03 -0.49140826182E+03  0.77233766094E+03  0.88813036957E+02 0.  0.
         23    2    4    4    0    0 -0.91906357848E+02 -0.23053136221E+03 -0.39046600997E+03  0.47160715556E+03  0.91422735982E+02 0.  0.
          4    1    3    3  502    0  0.24221323035E+03 -0.24324195220E+01 -0.55711252595E+03  0.60749282481E+03  0.00000000000E+00 0. -1.
         -4    1    3    3    0  502  0.39766463670E+03  0.16485486538E+02 -0.66102383477E+03  0.77159668525E+03  0.00000000000E+00 0.  1.
         13    1    5    5    0    0 -0.32397495554E+03  0.80636947891E+02 -0.27303888700E+03  0.43129145946E+03  0.00000000000E+00 0. -1.
        -13    1    5    5    0    0 -0.22399655366E+03  0.13584134730E+03 -0.21836937481E+03  0.34104620148E+03  0.00000000000E+00 0.  1.
          5    1    6    6  503    0 -0.83335467193E+02 -0.87114556371E+02 -0.17230881043E+03  0.21034771730E+03  0.47000000000E+01 0. -1.
         -5    1    6    6    0  503 -0.85708906549E+01 -0.14341680584E+03 -0.21815719955E+03  0.26125943826E+03  0.47000000000E+01 0.  1.
<mgrwt>
<rscale>  0 0.75022816E+03</rscale>
<asrwt>0</asrwt>
<pdfrwt beam="1">  1        2 0.36331116E+00 0.75022816E+03</pdfrwt>
<pdfrwt beam="2">  1       -2 0.40232591E-01 0.75022816E+03</pdfrwt>
<totfact> 0.25460737E+01</totfact>
</mgrwt>
</event>
<event>
12    1  0.3166324E-008  0.3820294E+03  0.7818608E-02  0.1050186E+00
          1   -1    0    0  501    0  0.00000000000E+00  0.00000000000E+00  0.18268613113E+04  0.18268613113E+04  0.00000000000E+00 0. -1.
         -1   -1    0    0    0  501 -0.00000000000E+00 -0.00000000000E+00 -0.27225455188E+03  0.27225455188E+03  0.00000000000E+00 0.  1.
         23    2    1    2    0    0 -0.27063331738E+03 -0.21189743631E+03 -0.42597584770E+02  0.35863230585E+03  0.93057297284E+02 0.  0.
    5000000    2    1    2    0    0  0.27063331738E+03  0.21189743631E+03  0.15972043442E+04  0.17404835573E+04  0.60006531333E+03 0.  0.
         23    2    4    4    0    0  0.62283654945E+02 -0.72987662746E+01 -0.17560554383E+01  0.11103809475E+03  0.91617951801E+02 0.  0.
         23    2    4    4    0    0  0.20834966243E+03  0.21919620259E+03  0.15989603996E+04  0.16294454626E+04  0.83436196606E+02 0.  0.
          2    1    3    3  502    0 -0.53963044377E+02 -0.30648998794E+01  0.36464418179E+01  0.54172874279E+02  0.00000000000E+00 0.  1.
         -2    1    3    3    0  502 -0.21667027300E+03 -0.20883253643E+03 -0.46244026588E+02  0.30445943157E+03  0.00000000000E+00 0. -1.
         13    1    5    5    0    0  0.34422686072E+02 -0.46383016095E+02 -0.17780919105E+02  0.60435640004E+02  0.00000000000E+00 0.  1.
        -13    1    5    5    0    0  0.27860968872E+02  0.39084249820E+02  0.16024863667E+02  0.50602454744E+02  0.00000000000E+00 0. -1.
          5    1    6    6  503    0  0.66163605144E+02  0.84352880023E+02  0.38142159248E+03  0.39622916630E+03  0.47000000000E+01 0. -1.
         -5    1    6    6    0  503  0.14218605729E+03  0.13484332256E+03  0.12175388071E+04  0.12332162963E+04  0.47000000000E+01 0.  1.
<mgrwt>
<rscale>  0 0.38202941E+03</rscale>
<asrwt>0</asrwt>
<pdfrwt beam="1">  1        1 0.28105558E+00 0.38202941E+03</pdfrwt>
<pdfrwt beam="2">  1       -1 0.41885317E-01 0.38202941E+03</pdfrwt>
<totfact> 0.24306167E+01</totfact>
</mgrwt>
</event>
<event>
12    1  0.3166324E-008  0.4294446E+03  0.7818608E-02  0.1034036E+00
          1   -1    0    0  501    0  0.00000000000E+00  0.00000000000E+00  0.65768783914E+03  0.65768783914E+03  0.00000000000E+00 0. -1.
         -1   -1    0    0    0  501 -0.00000000000E+00 -0.00000000000E+00 -0.56942448868E+03  0.56942448868E+03  0.00000000000E+00 0.  1.
         23    2    1    2    0    0  0.31652577517E+03  0.24167561511E+03 -0.19851347980E+03  0.45199927159E+03  0.79372983913E+02 0.  0.
    5000000    2    1    2    0    0 -0.31652577517E+03 -0.24167561511E+03  0.28677683025E+03  0.77511305623E+03  0.59996969113E+03 0.  0.
         23    2    4    4    0    0 -0.25165626391E+02 -0.12270316111E+03  0.40040003727E+03  0.42887026283E+03  0.88995157131E+02 0.  0.
         23    2    4    4    0    0 -0.29136014878E+03 -0.11897245399E+03 -0.11362320702E+03  0.34624279340E+03  0.89043010402E+02 0.  0.
          4    1    3    3  502    0  0.23862021360E+02  0.45071436895E+02 -0.42785652124E+02  0.66569080772E+02  0.00000000000E+00 0. -1.
         -4    1    3    3    0  502  0.29266375381E+03  0.19660417821E+03 -0.15572782767E+03  0.38543019082E+03  0.00000000000E+00 0.  1.
         13    1    5    5    0    0 -0.21366145830E+02 -0.26646032476E+02  0.23574641217E+03  0.23820767008E+03  0.00000000000E+00 0. -1.
        -13    1    5    5    0    0 -0.37994805609E+01 -0.96057128635E+02  0.16465362510E+03  0.19066259275E+03  0.00000000000E+00 0.  1.
          5    1    6    6  503    0 -0.58269561175E+02  0.88981594048E+01 -0.61835352612E+01  0.59454563397E+02  0.47000000000E+01 0. -1.
         -5    1    6    6    0  503 -0.23309058761E+03 -0.12787061340E+03 -0.10743967175E+03  0.28678823000E+03  0.47000000000E+01 0.  1.
<mgrwt>
<rscale>  0 0.42944464E+03</rscale>
<asrwt>0</asrwt>
<pdfrwt beam="1">  1        1 0.10118274E+00 0.42944464E+03</pdfrwt>
<pdfrwt beam="2">  1       -1 0.87603768E-01 0.42944464E+03</pdfrwt>
<totfact> 0.40851816E+01</totfact>
</mgrwt>
</event>
<event>
12    1  0.3166324E-008  0.8060387E+03  0.7818608E-02  0.9551317E-01
          1   -1    0    0  501    0  0.00000000000E+00  0.00000000000E+00  0.12210604481E+04  0.12210604481E+04  0.00000000000E+00 0. -1.
         -1   -1    0    0    0  501 -0.00000000000E+00 -0.00000000000E+00 -0.15464350998E+04  0.15464350998E+04  0.00000000000E+00 0.  1.
         23    2    1    2    0    0  0.38721089553E+02 -0.70770020199E+03  0.95069628046E+03  0.11892410728E+04  0.90177674506E+02 0.  0.
    5000000    2    1    2    0    0 -0.38721089553E+02  0.70770020199E+03 -0.12760709321E+04  0.15782544751E+04  0.60015936691E+03 0.  0.
         23    2    4    4    0    0 -0.25128990823E+03  0.58240130204E+03 -0.10493477838E+04  0.12304069571E+04  0.10214016869E+03 0.  0.
         23    2    4    4    0    0  0.21256881868E+03  0.12529889996E+03 -0.22672314835E+03  0.34784751805E+03  0.93323056158E+02 0.  0.
          4    1    3    3  502    0  0.67085580228E+02 -0.48091465983E+03  0.62892800257E+03  0.79456265803E+03  0.00000000000E+00 0. -1.
         -4    1    3    3    0  502 -0.28364490675E+02 -0.22678554216E+03  0.32176827790E+03  0.39467841482E+03  0.00000000000E+00 0.  1.
         13    1    5    5    0    0 -0.12962939031E+03  0.38316358453E+03 -0.59309087474E+03  0.71789616034E+03  0.00000000000E+00 0.  1.
        -13    1    5    5    0    0 -0.12166051792E+03  0.19923771751E+03 -0.45625690904E+03  0.51251079672E+03  0.00000000000E+00 0. -1.
          5    1    6    6  503    0  0.70236129786E+02  0.10294903240E+00 -0.89095832276E+02  0.11354858808E+03  0.47000000000E+01 0. -1.
         -5    1    6    6    0  503  0.14233268889E+03  0.12519595093E+03 -0.13762731607E+03  0.23429892997E+03  0.47000000000E+01 0.  1.
<mgrwt>
<rscale>  0 0.80603869E+03</rscale>
<asrwt>0</asrwt>
<pdfrwt beam="1">  1        1 0.18785545E+00 0.80603869E+03</pdfrwt>
<pdfrwt beam="2">  1       -1 0.23791309E+00 0.80603869E+03</pdfrwt>
<totfact> 0.89906090E-01</totfact>
</mgrwt>
</event>
<event>
12    1  0.3166324E-008  0.9912802E+03  0.7818608E-02  0.9318161E-01
         -2   -1    0    0    0  501 -0.00000000000E+00  0.00000000000E+00  0.88502837530E+03  0.88502837530E+03  0.00000000000E+00 0.  1.
          2   -1    0    0  501    0  0.00000000000E+00 -0.00000000000E+00 -0.12239217609E+04  0.12239217609E+04  0.00000000000E+00 0. -1.
         23    2    1    2    0    0  0.24973570696E+03  0.87229345264E+03 -0.44810599800E+03  0.10155235088E+04  0.85001297415E+02 0.  0.
    5000000    2    1    2    0    0 -0.24973570696E+03 -0.87229345264E+03  0.10921261243E+03  0.10934266274E+04  0.60032541506E+03 0.  0.
         23    2    4    4    0    0 -0.42566324084E+03 -0.70650321830E+03  0.80183625168E+02  0.83390389736E+03  0.92899430617E+02 0.  0.
         23    2    4    4    0    0  0.17592753388E+03 -0.16579023434E+03  0.29028987261E+02  0.25952273005E+03  0.89846904978E+02 0.  0.
          1    1    3    3  502    0  0.12345192613E+03  0.55189772228E+03 -0.25114334802E+03  0.61879274009E+03  0.00000000000E+00 0. -1.
         -1    1    3    3    0  502  0.12628378083E+03  0.32039573036E+03 -0.19696264997E+03  0.39673076868E+03  0.00000000000E+00 0.  1.
         13    1    5    5    0    0 -0.18229222303E+03 -0.38746673012E+03  0.56808332363E+02  0.43195845652E+03  0.00000000000E+00 0. -1.
        -13    1    5    5    0    0 -0.24337101781E+03 -0.31903648818E+03  0.23375292804E+02  0.40194544084E+03  0.00000000000E+00 0.  1.
          5    1    6    6  503    0  0.14875115111E+03 -0.15038489481E+03  0.55020985635E+02  0.21861363271E+03  0.47000000000E+01 0. -1.
         -5    1    6    6    0  503  0.27176382764E+02 -0.15405339525E+02 -0.25991998374E+02  0.40909097344E+02  0.47000000000E+01 0.  1.
<mgrwt>
<rscale>  0 0.99128020E+03</rscale>
<asrwt>0</asrwt>
<pdfrwt beam="1">  1        2 0.18829566E+00 0.99128020E+03</pdfrwt>
<pdfrwt beam="2">  1       -2 0.13615821E+00 0.99128020E+03</pdfrwt>
<totfact> 0.70230648E+00</totfact>
</mgrwt>
</event>
<event>
12    1  0.3166324E-008  0.1208577E+04  0.7818608E-02  0.9105382E-01
          2   -1    0    0  501    0  0.00000000000E+00  0.00000000000E+00  0.91925583021E+03  0.91925583021E+03  0.00000000000E+00 0. -1.
         -2   -1    0    0    0  501 -0.00000000000E+00 -0.00000000000E+00 -0.16321738810E+04  0.16321738810E+04  0.00000000000E+00 0.  1.
         23    2    1    2    0    0  0.97533471828E+03 -0.58542801388E+03 -0.50760509144E+03  0.12490931256E+04  0.92557741375E+02 0.  0.
    5000000    2    1    2    0    0 -0.97533471828E+03  0.58542801388E+03 -0.20531295937E+03  0.13023365856E+04  0.59993616229E+03 0.  0.
         23    2    4    4    0    0 -0.43311464670E+03 -0.48632138295E+02 -0.48657567241E+02  0.44824826711E+03  0.92766201050E+02 0.  0.
         23    2    4    4    0    0 -0.54222007157E+03  0.63406015218E+03 -0.15665539213E+03  0.85408831850E+03  0.94292424464E+02 0.  0.
          4    1    3    3  502    0  0.51337507547E+03 -0.36024145537E+03 -0.29122929833E+03  0.69147840060E+03  0.00000000000E+00 0. -1.
         -4    1    3    3    0  502  0.46195964281E+03 -0.22518655851E+03 -0.21637579311E+03  0.55761472502E+03  0.00000000000E+00 0.  1.
         13    1    5    5    0    0 -0.16085536664E+03 -0.41411912742E+02 -0.57439298201E+02  0.17575172395E+03  0.00000000000E+00 0. -1.
        -13    1    5    5    0    0 -0.27225928006E+03 -0.72202255532E+01  0.87817309601E+01  0.27249654316E+03  0.00000000000E+00 0.  1.
          5    1    6    6  503    0 -0.34564991729E+03  0.45705162046E+03 -0.13429960288E+03  0.58858178907E+03  0.47000000000E+01 0. -1.
         -5    1    6    6    0  503 -0.19657015429E+03  0.17700853171E+03 -0.22355789250E+02  0.26550652943E+03  0.47000000000E+01 0.  1.
<mgrwt>
<rscale>  0 0.12085774E+04</rscale>
<asrwt>0</asrwt>
<pdfrwt beam="1">  1        2 0.14142397E+00 0.12085774E+04</pdfrwt>
<pdfrwt beam="2">  1       -2 0.25110367E+00 0.12085774E+04</pdfrwt>
<totfact> 0.17541562E+00</totfact>
</mgrwt>
</event>
<event>
12    1  0.3166324E-008  0.9567132E+03  0.7818608E-02  0.9357338E-01
         -1   -1    0    0    0  501 -0.00000000000E+00  0.00000000000E+00  0.41465731314E+03  0.41465731314E+03  0.00000000000E+00 0.  1.
          1   -1    0    0  501    0  0.00000000000E+00 -0.00000000000E+00 -0.25411345122E+04  0.25411345122E+04  0.00000000000E+00 0. -1.
         23    2    1    2    0    0 -0.16085493457E+03  0.86398044937E+03 -0.50847628290E+03  0.10192289964E+04  0.89124014730E+02 0.  0.
    5000000    2    1    2    0    0  0.16085493457E+03 -0.86398044937E+03 -0.16180009162E+04  0.19365628289E+04  0.60001008224E+03 0.  0.
         23    2    4    4    0    0 -0.64822127230E+02 -0.76348344098E+03 -0.98559486063E+03  0.12517507918E+04  0.91509248817E+02 0.  0.
         23    2    4    4    0    0  0.22567706180E+03 -0.10049700839E+03 -0.63240605553E+03  0.68481203713E+03  0.89444520290E+02 0.  0.
          2    1    3    3  502    0  0.30368965108E+01  0.15620960350E+03 -0.10452211637E+03  0.18797748742E+03  0.00000000000E+00 0. -1.
         -2    1    3    3    0  502 -0.16389183108E+03  0.70777084587E+03 -0.40395416653E+03  0.83125150900E+03  0.00000000000E+00 0.  1.
         13    1    5    5    0    0 -0.42913002633E+01 -0.36438890326E+03 -0.52817913590E+03  0.64169376472E+03  0.00000000000E+00 0. -1.
        -13    1    5    5    0    0 -0.60530826967E+02 -0.39909453772E+03 -0.45741572473E+03  0.61005702707E+03  0.00000000000E+00 0.  1.
          5    1    6    6  503    0  0.10116700479E+03 -0.93473425542E+02 -0.34220651837E+03  0.36891656964E+03  0.47000000000E+01 0. -1.
         -5    1    6    6    0  503  0.12451005701E+03 -0.70235828500E+01 -0.29019953716E+03  0.31589546749E+03  0.47000000000E+01 0.  1.
<mgrwt>
<rscale>  0 0.95671318E+03</rscale>
<asrwt>0</asrwt>
<pdfrwt beam="1">  1        1 0.39094377E+00 0.95671318E+03</pdfrwt>
<pdfrwt beam="2">  1       -1 0.63793432E-01 0.95671318E+03</pdfrwt>
<totfact> 0.32428179E+00</totfact>
</mgrwt>
</event>
<event>
12    1  0.3166324E-008  0.4466489E+03  0.7818608E-02  0.1028726E+00
          1   -1    0    0  501    0  0.00000000000E+00  0.00000000000E+00  0.20379280662E+04  0.20379280662E+04  0.00000000000E+00 0. -1.
         -1   -1    0    0    0  501 -0.00000000000E+00 -0.00000000000E+00 -0.31689089671E+03  0.31689089671E+03  0.00000000000E+00 0.  1.
         23    2    1    2    0    0  0.23782731412E+03  0.23418079200E+03 -0.13853554679E+03  0.37255196416E+03  0.90556024593E+02 0.  0.
    5000000    2    1    2    0    0 -0.23782731412E+03 -0.23418079200E+03  0.18595727163E+04  0.19822669987E+04  0.59997440984E+03 0.  0.
         23    2    4    4    0    0 -0.35147456123E+03 -0.80554261511E+02  0.16224015114E+04  0.16644463866E+04  0.90397750317E+02 0.  0.
         23    2    4    4    0    0  0.11364724710E+03 -0.15362653049E+03  0.23717120485E+03  0.31782061216E+03  0.90790712403E+02 0.  0.
          3    1    3    3  502    0  0.64554818501E+02  0.64195748345E+02 -0.83776292085E+02  0.12372099989E+03  0.00000000000E+00 0. -1.
         -3    1    3    3    0  502  0.17327249562E+03  0.16998504366E+03 -0.54759254707E+02  0.24883096428E+03  0.00000000000E+00 0.  1.
         13    1    5    5    0    0 -0.18263329362E+03 -0.78565906142E+02  0.99839276447E+03  0.10179958908E+04  0.00000000000E+00 0. -1.
        -13    1    5    5    0    0 -0.16884126760E+03 -0.19883553689E+01  0.62400874696E+03  0.64645049578E+03  0.00000000000E+00 0.  1.
          5    1    6    6  503    0  0.54618706299E+02 -0.61980429729E+02  0.17163426865E+03  0.19053920574E+03  0.47000000000E+01 0. -1.
         -5    1    6    6    0  503  0.59028540804E+02 -0.91646100762E+02  0.65536936194E+02  0.12728140642E+03  0.47000000000E+01 0.  1.
<mgrwt>
<rscale>  0 0.44664893E+03</rscale>
<asrwt>0</asrwt>
<pdfrwt beam="1">  1        1 0.31352739E+00 0.44664893E+03</pdfrwt>
<pdfrwt beam="2">  1       -1 0.48752447E-01 0.44664893E+03</pdfrwt>
<totfact> 0.13128034E+01</totfact>
</mgrwt>
</event>
<event>
12    1  0.3166324E-008  0.1558767E+04  0.7818608E-02  0.8846287E-01
          2   -1    0    0  501    0  0.00000000000E+00  0.00000000000E+00  0.27144815019E+04  0.27144815019E+04  0.00000000000E+00 0. -1.
         -2   -1    0    0    0  501 -0.00000000000E+00 -0.00000000000E+00 -0.95091540854E+03  0.95091540854E+03  0.00000000000E+00 0.  1.
         23    2    1    2    0    0  0.11159346090E+04  0.10744991214E+04  0.85644202342E+03  0.17726327672E+04  0.94210267220E+02 0.  0.
    5000000    2    1    2    0    0 -0.11159346090E+04 -0.10744991214E+04  0.90712406992E+03  0.18927641432E+04  0.59985299029E+03 0.  0.
         23    2    4    4    0    0 -0.21320925210E+03 -0.24189106820E+03  0.48447717673E+03  0.59086685025E+03  0.10215686905E+03 0.  0.
         23    2    4    4    0    0 -0.90272535695E+03 -0.83260805319E+03  0.42264689319E+03  0.13018972929E+04  0.90315694749E+02 0.  0.
          3    1    3    3  502    0  0.33134994491E+03  0.26149009669E+03  0.23987752958E+03  0.48550086082E+03  0.00000000000E+00 0. -1.
         -3    1    3    3    0  502  0.78458466413E+03  0.81300902470E+03  0.61656449384E+03  0.12871319064E+04  0.00000000000E+00 0.  1.
         13    1    5    5    0    0 -0.24181339291E+02 -0.87511768454E+02  0.17076088670E+03  0.19339681284E+03  0.00000000000E+00 0. -1.
        -13    1    5    5    0    0 -0.18902791281E+03 -0.15437929975E+03  0.31371629003E+03  0.39747003741E+03  0.00000000000E+00 0.  1.
          5    1    6    6  503    0 -0.37537408578E+03 -0.29294075257E+03  0.14299763595E+03  0.49718246417E+03  0.47000000000E+01 0. -1.
         -5    1    6    6    0  503 -0.52735127117E+03 -0.53966730061E+03  0.27964925724E+03  0.80471482876E+03  0.47000000000E+01 0.  1.
<mgrwt>
<rscale>  0 0.15587674E+04</rscale>
<asrwt>0</asrwt>
<pdfrwt beam="1">  1        2 0.41761254E+00 0.15587674E+04</pdfrwt>
<pdfrwt beam="2">  1       -2 0.14629468E+00 0.15587674E+04</pdfrwt>
<totfact> 0.78378278E-01</totfact>
</mgrwt>
</event>
<event>
12    1  0.3166324E-008  0.7223102E+03  0.7818608E-02  0.9679821E-01
         -2   -1    0    0    0  501 -0.00000000000E+00  0.00000000000E+00  0.67183369140E+03  0.67183369140E+03  0.00000000000E+00 0.  1.
          2   -1    0    0  501    0  0.00000000000E+00 -0.00000000000E+00 -0.89002369127E+03  0.89002369127E+03  0.00000000000E+00 0. -1.
         23    2    1    2    0    0  0.36966786928E+03  0.51379404026E+03 -0.25902645115E+03  0.69001933702E+03  0.91615138941E+02 0.  0.
    5000000    2    1    2    0    0 -0.36966786928E+03 -0.51379404026E+03  0.40836451287E+02  0.87183804565E+03  0.59815993906E+03 0.  0.
         23    2    4    4    0    0 -0.38591270932E+03 -0.11517914824E+03 -0.12205700041E+03  0.43040410614E+03  0.90304639018E+02 0.  0.
         23    2    4    4    0    0  0.16244840048E+02 -0.39861489203E+03  0.16289345169E+03  0.44143393951E+03  0.95770138187E+02 0.  0.
          2    1    3    3  502    0  0.29095577782E+03  0.34450792042E+03 -0.15845923938E+03  0.47796475019E+03  0.00000000000E+00 0. -1.
         -2    1    3    3    0  502  0.78712091456E+02  0.16928611984E+03 -0.10056721178E+03  0.21205458683E+03  0.00000000000E+00 0.  1.
         11    1    5    5    0    0 -0.23149031974E+03 -0.43227637393E+02 -0.31857881493E+02  0.23763695290E+03  0.00000000000E+00 0. -1.
        -11    1    5    5    0    0 -0.15442238958E+03 -0.71951510844E+02 -0.90199118915E+02  0.19276715325E+03  0.00000000000E+00 0.  1.
          5    1    6    6  503    0 -0.91996382133E-01 -0.40313308853E+01  0.20797936242E+02  0.21700328200E+02  0.47000000000E+01 0. -1.
         -5    1    6    6    0  503  0.16336836430E+02 -0.39458356114E+03  0.14209551545E+03  0.41973361131E+03  0.47000000000E+01 0.  1.
<mgrwt>
<rscale>  0 0.72231022E+03</rscale>
<asrwt>0</asrwt>
<pdfrwt beam="1">  1        2 0.13692672E+00 0.72231022E+03</pdfrwt>
<pdfrwt beam="2">  1       -2 0.10335903E+00 0.72231022E+03</pdfrwt>
<totfact> 0.23145842E+01</totfact>
</mgrwt>
</event>
<event>
12    1  0.3166324E-008  0.8860396E+03  0.7818608E-02  0.9443203E-01
         -2   -1    0    0    0  501 -0.00000000000E+00  0.00000000000E+00  0.69165936977E+03  0.69165936977E+03  0.00000000000E+00 0.  1.
          2   -1    0    0  501    0  0.00000000000E+00 -0.00000000000E+00 -0.12783451937E+04  0.12783451937E+04  0.00000000000E+00 0. -1.
         23    2    1    2    0    0  0.75374667202E+03 -0.22889916520E+03  0.46132190802E+02  0.79484335838E+03  0.95492994172E+02 0.  0.
    5000000    2    1    2    0    0 -0.75374667202E+03  0.22889916520E+03 -0.63281801471E+03  0.11751612051E+04  0.60001362046E+03 0.  0.
         23    2    4    4    0    0  0.76638199573E+02 -0.14502618867E+02 -0.55337700869E+02  0.13096271526E+03  0.89471962438E+02 0.  0.
         23    2    4    4    0    0 -0.83038487159E+03  0.24340178407E+03 -0.57748031384E+03  0.10441984898E+04  0.89908341046E+02 0.  0.
          2    1    3    3  502    0  0.23811095659E+03 -0.54289299335E+02  0.55149781870E+02  0.25037103289E+03  0.00000000000E+00 0. -1.
         -2    1    3    3    0  502  0.51563571542E+03 -0.17460986586E+03 -0.90175910681E+01  0.54447232549E+03  0.00000000000E+00 0.  1.
         11    1    5    5    0    0  0.65644869821E+01 -0.40710000012E+02 -0.33206056743E+02  0.52943732347E+02  0.00000000000E+00 0. -1.
        -11    1    5    5    0    0  0.70073712591E+02  0.26207381145E+02 -0.22131644125E+02  0.78018982911E+02  0.00000000000E+00 0.  1.
          5    1    6    6  503    0 -0.37644221277E+03  0.14120668832E+03 -0.30781484704E+03  0.50637944117E+03  0.47000000000E+01 0. -1.
         -5    1    6    6    0  503 -0.45394265882E+03  0.10219509574E+03 -0.26966546680E+03  0.53781904864E+03  0.47000000000E+01 0.  1.
<mgrwt>
<rscale>  0 0.88603957E+03</rscale>
<asrwt>0</asrwt>
<pdfrwt beam="1">  1        2 0.19666849E+00 0.88603957E+03</pdfrwt>
<pdfrwt beam="2">  1       -2 0.10640913E+00 0.88603957E+03</pdfrwt>
<totfact> 0.12178075E+01</totfact>
</mgrwt>
</event>
<event>
12    1  0.3166324E-008  0.5567065E+03  0.7818608E-02  0.9999534E-01
          2   -1    0    0  501    0  0.00000000000E+00  0.00000000000E+00  0.24363400922E+04  0.24363400922E+04  0.00000000000E+00 0. -1.
         -2   -1    0    0    0  501 -0.00000000000E+00 -0.00000000000E+00 -0.20167897406E+03  0.20167897406E+03  0.00000000000E+00 0.  1.
         23    2    1    2    0    0  0.10233298108E+03  0.54130914485E+03  0.65557796570E+03  0.86115302414E+03  0.91183510421E+02 0.  0.
    5000000    2    1    2    0    0 -0.10233298108E+03 -0.54130914485E+03  0.15790831524E+04  0.17768660421E+04  0.60021804368E+03 0.  0.
         23    2    4    4    0    0 -0.74040635152E+02 -0.28282855890E+03  0.14310007165E+04  0.14631859816E+04  0.87613678114E+02 0.  0.
         23    2    4    4    0    0 -0.28292345927E+02 -0.25848058595E+03  0.14808243590E+03  0.31368006052E+03  0.94096240066E+02 0.  0.
          3    1    3    3  502    0  0.87786796524E+02  0.51293124700E+03  0.64219221960E+03  0.82656871022E+03  0.00000000000E+00 0. -1.
         -3    1    3    3    0  502  0.14546184555E+02  0.28377897848E+02  0.13385746099E+02  0.34584313930E+02  0.00000000000E+00 0.  1.
         13    1    5    5    0    0 -0.30688742082E+02 -0.74668070262E+02  0.60034367032E+03  0.60574717672E+03  0.00000000000E+00 0. -1.
        -13    1    5    5    0    0 -0.43351893069E+02 -0.20816048863E+03  0.83065704619E+03  0.85743880484E+03  0.00000000000E+00 0.  1.
          5    1    6    6  503    0  0.15355419982E+02 -0.14842567966E+03  0.12091995134E+03  0.19211896298E+03  0.47000000000E+01 0. -1.
         -5    1    6    6    0  503 -0.43647765909E+02 -0.11005490629E+03  0.27162484564E+02  0.12156109754E+03  0.47000000000E+01 0.  1.
<mgrwt>
<rscale>  0 0.55670651E+03</rscale>
<asrwt>0</asrwt>
<pdfrwt beam="1">  1        2 0.37482153E+00 0.55670651E+03</pdfrwt>
<pdfrwt beam="2">  1       -2 0.31027536E-01 0.55670651E+03</pdfrwt>
<totfact> 0.39143053E+01</totfact>
</mgrwt>
</event>
<event>
12    1  0.3166324E-008  0.9345928E+03  0.7818608E-02  0.9383343E-01
         -2   -1    0    0    0  501 -0.00000000000E+00  0.00000000000E+00  0.34823769969E+03  0.34823769969E+03  0.00000000000E+00 0.  1.
          2   -1    0    0  501    0  0.00000000000E+00 -0.00000000000E+00 -0.29176857759E+04  0.29176857759E+04  0.00000000000E+00 0. -1.
         23    2    1    2    0    0  0.11483028056E+03  0.90502441042E+03 -0.13128014272E+04  0.16011680398E+04  0.89645567149E+02 0.  0.
    5000000    2    1    2    0    0 -0.11483028056E+03 -0.90502441042E+03 -0.12566466489E+04  0.16647554357E+04  0.59999556966E+03 0.  0.
         23    2    4    4    0    0 -0.17372188341E+02 -0.27901537433E+02  0.35032919746E+02  0.97692557281E+02  0.85066101141E+02 0.  0.
         23    2    4    4    0    0 -0.97458092214E+02 -0.87712287298E+03 -0.12916795687E+04  0.15670628784E+04  0.91691562887E+02 0.  0.
          4    1    3    3  502    0  0.15569586540E+01  0.34707752079E+03 -0.47865969577E+03  0.59125318935E+03  0.00000000000E+00 0.  1.
         -4    1    3    3    0  502  0.11327332190E+03  0.55794688962E+03 -0.83414173146E+03  0.10099148505E+04  0.00000000000E+00 0. -1.
         13    1    5    5    0    0  0.20949314648E+02 -0.77635579566E+01  0.47627344854E+02  0.52607134442E+02  0.00000000000E+00 0.  1.
        -13    1    5    5    0    0 -0.38321502989E+02 -0.20137979476E+02 -0.12594425108E+02  0.45085422839E+02  0.00000000000E+00 0. -1.
          5    1    6    6  503    0 -0.16224384382E+02 -0.20051172251E+02 -0.33840258907E+02  0.42808098301E+02  0.47000000000E+01 0. -1.
         -5    1    6    6    0  503 -0.81233707832E+02 -0.85707170073E+03 -0.12578393098E+04  0.15242547801E+04  0.47000000000E+01 0.  1.
<mgrwt>
<rscale>  0 0.93459281E+03</rscale>
<asrwt>0</asrwt>
<pdfrwt beam="1">  1        2 0.44887475E+00 0.93459281E+03</pdfrwt>
<pdfrwt beam="2">  1       -2 0.53575029E-01 0.93459281E+03</pdfrwt>
<totfact> 0.66288856E+00</totfact>
</mgrwt>
</event>
<event>
12    1  0.3166324E-008  0.6301702E+03  0.7818608E-02  0.9844717E-01
         -1   -1    0    0    0  501 -0.00000000000E+00  0.00000000000E+00  0.55510042020E+03  0.55510042020E+03  0.00000000000E+00 0.  1.
          1   -1    0    0  501    0  0.00000000000E+00 -0.00000000000E+00 -0.83481916106E+03  0.83481916106E+03  0.00000000000E+00 0. -1.
         23    2    1    2    0    0  0.20987911445E+03 -0.49195391901E+03 -0.11548311786E+02  0.54266893901E+03  0.91040171084E+02 0.  0.
    5000000    2    1    2    0    0 -0.20987911445E+03  0.49195391901E+03 -0.26817042907E+03  0.84725064225E+03  0.59987529592E+03 0.  0.
         23    2    4    4    0    0 -0.17670252063E+03  0.58105468640E+03 -0.33663514072E+03  0.70031511152E+03  0.90937935234E+02 0.  0.
         23    2    4    4    0    0 -0.33176593818E+02 -0.89100767392E+02  0.68464711653E+02  0.14693553073E+03  0.88673560449E+02 0.  0.
          4    1    3    3  502    0  0.97935033421E+02 -0.21969355642E+03 -0.50349032585E+02  0.24574693200E+03  0.00000000000E+00 0. -1.
         -4    1    3    3    0  502  0.11194408103E+03 -0.27226036259E+03  0.38800720799E+02  0.29692200701E+03  0.00000000000E+00 0.  1.
         13    1    5    5    0    0 -0.23338577233E+02  0.20722304014E+03 -0.13803021820E+03  0.25007682558E+03  0.00000000000E+00 0. -1.
        -13    1    5    5    0    0 -0.15336394340E+03  0.37383164626E+03 -0.19860492253E+03  0.45023828594E+03  0.00000000000E+00 0.  1.
          5    1    6    6  503    0 -0.27180342309E+02 -0.45738529678E+01 -0.11589501800E+02  0.30267105758E+02  0.47000000000E+01 0. -1.
         -5    1    6    6    0  503 -0.59962515087E+01 -0.84526914424E+02  0.80054213454E+02  0.11666842497E+03  0.47000000000E+01 0.  1.
<mgrwt>
<rscale>  0 0.63017020E+03</rscale>
<asrwt>0</asrwt>
<pdfrwt beam="1">  1        1 0.12843372E+00 0.63017020E+03</pdfrwt>
<pdfrwt beam="2">  1       -1 0.85400064E-01 0.63017020E+03</pdfrwt>
<totfact> 0.29092417E+01</totfact>
</mgrwt>
</event>
<event>
12    1  0.3166324E-008  0.3805672E+03  0.7818608E-02  0.1050724E+00
         -1   -1    0    0    0  501 -0.00000000000E+00  0.00000000000E+00  0.77525688301E+03  0.77525688301E+03  0.00000000000E+00 0.  1.
          1   -1    0    0  501    0  0.00000000000E+00 -0.00000000000E+00 -0.31617046617E+03  0.31617046617E+03  0.00000000000E+00 0. -1.
         23    2    1    2    0    0 -0.15122595391E+03  0.25578649408E+03  0.19467703856E+03  0.37157899690E+03  0.10897606116E+03 0.  0.
    5000000    2    1    2    0    0  0.15122595391E+03 -0.25578649408E+03  0.26440937828E+03  0.71984835228E+03  0.59997775898E+03 0.  0.
         23    2    4    4    0    0  0.48871590773E+02  0.58444013711E+02  0.34713181261E+03  0.36714021587E+03  0.92126584976E+02 0.  0.
         23    2    4    4    0    0  0.10235436314E+03 -0.31423050779E+03 -0.82722434326E+02  0.35270813641E+03  0.91338932945E+02 0.  0.
          3    1    3    3  502    0 -0.16366849498E+03  0.23886761583E+03  0.19733684829E+03  0.35040968285E+03  0.00000000000E+00 0. -1.
         -3    1    3    3    0  502  0.12442541075E+02  0.16918878251E+02 -0.26598097262E+01  0.21169314053E+02  0.00000000000E+00 0.  1.
         13    1    5    5    0    0  0.82094400974E+00  0.60358414808E+02  0.26655403063E+03  0.27330361035E+03  0.00000000000E+00 0.  1.
        -13    1    5    5    0    0  0.48050646763E+02 -0.19144010968E+01  0.80577781978E+02  0.93836605514E+02  0.00000000000E+00 0. -1.
          5    1    6    6  503    0  0.11734761045E+03 -0.25338990219E+03 -0.76458725482E+02  0.28955989176E+03  0.47000000000E+01 0.  1.
         -5    1    6    6    0  503 -0.14993247316E+02 -0.60840605599E+02 -0.62637088433E+01  0.63148244656E+02  0.47000000000E+01 0.  1.
<mgrwt>
<rscale>  0 0.38056718E+03</rscale>
<asrwt>0</asrwt>
<pdfrwt beam="1">  1        1 0.48641611E-01 0.38056718E+03</pdfrwt>
<pdfrwt beam="2">  1       -1 0.11927029E+00 0.38056718E+03</pdfrwt>
<totfact> 0.54556577E+01</totfact>
</mgrwt>
</event>
<event>
12    1  0.3166324E-008  0.7421897E+03  0.7818608E-02  0.9647684E-01
          2   -1    0    0  501    0  0.00000000000E+00  0.00000000000E+00  0.16566505622E+04  0.16566505622E+04  0.00000000000E+00 0. -1.
         -2   -1    0    0    0  501 -0.00000000000E+00 -0.00000000000E+00 -0.40840493406E+03  0.40840493406E+03  0.00000000000E+00 0.  1.
         23    2    1    2    0    0  0.22905509545E+03 -0.58394989682E+03  0.96065627952E+03  0.11505995736E+04  0.86920496581E+02 0.  0.
    5000000    2    1    2    0    0 -0.22905509545E+03  0.58394989682E+03  0.28758934866E+03  0.91445592267E+03  0.60004856661E+03 0.  0.
         23    2    4    4    0    0 -0.29695328486E+03  0.39330512487E+02  0.88675680320E+02  0.32358120043E+03  0.84340229982E+02 0.  0.
         23    2    4    4    0    0  0.67898189413E+02  0.54461938434E+03  0.19891366834E+03  0.59087472223E+03  0.91355634776E+02 0.  0.
          4    1    3    3  502    0  0.12831178465E+02 -0.84766619048E+01  0.46380125506E+02  0.48863165880E+02  0.00000000000E+00 0.  1.
         -4    1    3    3    0  502  0.21622391698E+03 -0.57547323492E+03  0.91427615402E+03  0.11017364078E+04  0.00000000000E+00 0. -1.
         11    1    5    5    0    0 -0.14761334547E+03  0.57947199184E+01  0.21177199164E+01  0.14774221901E+03  0.00000000000E+00 0.  1.
        -11    1    5    5    0    0 -0.14933993939E+03  0.33535792568E+02  0.86557960404E+02  0.17583898143E+03  0.00000000000E+00 0. -1.
          5    1    6    6  503    0 -0.11352448761E+02  0.17404669456E+03  0.91232636703E+02  0.19689239188E+03  0.47000000000E+01 0. -1.
         -5    1    6    6    0  503  0.79250638174E+02  0.37057268978E+03  0.10768103163E+03  0.39398233036E+03  0.47000000000E+01 0.  1.
<mgrwt>
<rscale>  0 0.74218970E+03</rscale>
<asrwt>0</asrwt>
<pdfrwt beam="1">  1        2 0.25486931E+00 0.74218970E+03</pdfrwt>
<pdfrwt beam="2">  1       -2 0.62831530E-01 0.74218970E+03</pdfrwt>
<totfact> 0.25011291E+01</totfact>
</mgrwt>
</event>
<event>
12    1  0.3166324E-008  0.1309774E+04  0.7818608E-02  0.9021850E-01
         -2   -1    0    0    0  501 -0.00000000000E+00  0.00000000000E+00  0.12557394447E+04  0.12557394447E+04  0.00000000000E+00 0.  1.
          2   -1    0    0  501    0  0.00000000000E+00 -0.00000000000E+00 -0.15462612159E+04  0.15462612159E+04  0.00000000000E+00 0. -1.
         23    2    1    2    0    0 -0.37030751252E+03  0.12482312112E+04 -0.39635805384E+03  0.13645459452E+04  0.98372351062E+02 0.  0.
    5000000    2    1    2    0    0  0.37030751252E+03 -0.12482312112E+04  0.10583628261E+03  0.14374547154E+04  0.59988826434E+03 0.  0.
         23    2    4    4    0    0  0.32752016915E+03 -0.79717353812E+03 -0.19163780640E+03  0.88763749432E+03  0.91761437447E+02 0.  0.
         23    2    4    4    0    0  0.42787343365E+02 -0.45105767306E+03  0.29747408901E+03  0.54981722106E+03  0.92327470302E+02 0.  0.
          1    1    3    3  502    0 -0.20556820381E+03  0.62083499725E+03 -0.24570700940E+03  0.69861743086E+03  0.00000000000E+00 0. -1.
         -1    1    3    3    0  502 -0.16473930871E+03  0.62739621392E+03 -0.15065104444E+03  0.66592851438E+03  0.00000000000E+00 0.  1.
         13    1    5    5    0    0  0.20311838894E+03 -0.49755745871E+03 -0.73704506030E+02  0.54245078934E+03  0.00000000000E+00 0. -1.
        -13    1    5    5    0    0  0.12440178021E+03 -0.29961607940E+03 -0.11793330037E+03  0.34518670498E+03  0.00000000000E+00 0.  1.
          5    1    6    6  503    0  0.45026786083E+02 -0.25830652073E+03  0.21891258583E+03  0.34160573818E+03  0.47000000000E+01 0.  1.
         -5    1    6    6    0  503 -0.22394427174E+01 -0.19275115232E+03  0.78561503175E+02  0.20821148289E+03  0.47000000000E+01 0. -1.
<mgrwt>
<rscale>  0 0.13097743E+04</rscale>
<asrwt>0</asrwt>
<pdfrwt beam="1">  1        2 0.23788634E+00 0.13097743E+04</pdfrwt>
<pdfrwt beam="2">  1       -2 0.19319068E+00 0.13097743E+04</pdfrwt>
<totfact> 0.16917450E+00</totfact>
</mgrwt>
</event>
<event>
12    1  0.3166324E-008  0.8815863E+03  0.7818608E-02  0.9448897E-01
         -1   -1    0    0    0  501 -0.00000000000E+00  0.00000000000E+00  0.89473793450E+03  0.89473793450E+03  0.00000000000E+00 0.  1.
          1   -1    0    0  501    0  0.00000000000E+00 -0.00000000000E+00 -0.12729015225E+04  0.12729015225E+04  0.00000000000E+00 0. -1.
         23    2    1    2    0    0 -0.86747719233E+03 -0.39676348445E+02 -0.63725988991E+03  0.10809372810E+04  0.90743299315E+02 0.  0.
    5000000    2    1    2    0    0  0.86747719233E+03  0.39676348445E+02  0.25909630193E+03  0.10867021760E+04  0.59974980927E+03 0.  0.
         23    2    4    4    0    0  0.46091199561E+03 -0.58895966149E+02  0.41552315428E+03  0.63073836760E+03  0.96243410686E+02 0.  0.
         23    2    4    4    0    0  0.40656519672E+03  0.98572314594E+02 -0.15642685234E+03  0.45596380835E+03  0.91770768794E+02 0.  0.
          4    1    3    3  502    0 -0.34106039712E+03 -0.60026092372E+02 -0.25258847029E+03  0.42863301503E+03  0.00000000000E+00 0. -1.
         -4    1    3    3    0  502 -0.52641679521E+03  0.20349743928E+02 -0.38467141962E+03  0.65230426599E+03  0.00000000000E+00 0.  1.
         13    1    5    5    0    0  0.12183128548E+03 -0.35349876812E+02  0.16679552454E+03  0.20955482079E+03  0.00000000000E+00 0.  1.
        -13    1    5    5    0    0  0.33908071013E+03 -0.23546089337E+02  0.24872762974E+03  0.42118354681E+03  0.00000000000E+00 0. -1.
          5    1    6    6  503    0  0.10975642244E+03  0.56372351209E+02 -0.14778216629E+02  0.12435754876E+03  0.47000000000E+01 0.  1.
         -5    1    6    6    0  503  0.29680877428E+03  0.42199963386E+02 -0.14164863572E+03  0.33160625959E+03  0.47000000000E+01 0. -1.
<mgrwt>
<rscale>  0 0.88158632E+03</rscale>
<asrwt>0</asrwt>
<pdfrwt beam="1">  1        1 0.19583100E+00 0.88158632E+03</pdfrwt>
<pdfrwt beam="2">  1       -1 0.13765199E+00 0.88158632E+03</pdfrwt>
<totfact> 0.42241371E+00</totfact>
</mgrwt>
</event>
<event>
12    1  0.3166324E-008  0.7311926E+03  0.7818608E-02  0.9665327E-01
          2   -1    0    0  501    0  0.00000000000E+00  0.00000000000E+00  0.13158375998E+04  0.13158375998E+04  0.00000000000E+00 0. -1.
         -2   -1    0    0    0  501 -0.00000000000E+00 -0.00000000000E+00 -0.44586098558E+03  0.44586098558E+03  0.00000000000E+00 0.  1.
         23    2    1    2    0    0  0.49819209897E+03 -0.39815393756E+03  0.28346282897E+03  0.70776499612E+03  0.11772080892E+03 0.  0.
    5000000    2    1    2    0    0 -0.49819209897E+03  0.39815393756E+03  0.58651378521E+03  0.10539335892E+04  0.60004638553E+03 0.  0.
         23    2    4    4    0    0 -0.15881918729E+03 -0.11700377794E+03  0.29227895416E+03  0.36453697518E+03  0.92448909840E+02 0.  0.
         23    2    4    4    0    0 -0.33937291169E+03  0.51515771550E+03  0.29423483105E+03  0.68939661404E+03  0.90178215922E+02 0.  0.
          3    1    3    3  502    0  0.33757103708E+03 -0.20443951479E+03  0.14429904721E+03  0.42020463504E+03  0.00000000000E+00 0. -1.
         -3    1    3    3    0  502  0.16062106190E+03 -0.19371442276E+03  0.13916378176E+03  0.28756036108E+03  0.00000000000E+00 0.  1.
         11    1    5    5    0    0 -0.26993449886E+02 -0.13659303878E+02  0.12193890430E+03  0.12563566094E+03  0.00000000000E+00 0. -1.
        -11    1    5    5    0    0 -0.13182573740E+03 -0.10334447406E+03  0.17034004986E+03  0.23890131424E+03  0.00000000000E+00 0.  1.
          5    1    6    6  503    0 -0.80517887501E+02  0.15562869817E+03  0.44637728558E+02  0.18088128348E+03  0.47000000000E+01 0. -1.
         -5    1    6    6    0  503 -0.25885502419E+03  0.35952901733E+03  0.24959710250E+03  0.50851533057E+03  0.47000000000E+01 0.  1.
<mgrwt>
<rscale>  0 0.73119261E+03</rscale>
<asrwt>0</asrwt>
<pdfrwt beam="1">  1        2 0.20243655E+00 0.73119261E+03</pdfrwt>
<pdfrwt beam="2">  1       -2 0.68593998E-01 0.73119261E+03</pdfrwt>
<totfact> 0.32147209E+01</totfact>
</mgrwt>
</event>
<event>
12    1  0.3166324E-008  0.4396795E+03  0.7818608E-02  0.1030845E+00
          2   -1    0    0  501    0  0.00000000000E+00  0.00000000000E+00  0.60664516636E+03  0.60664516636E+03  0.00000000000E+00 0. -1.
         -2   -1    0    0    0  501 -0.00000000000E+00 -0.00000000000E+00 -0.47209597854E+03  0.47209597854E+03  0.00000000000E+00 0.  1.
         23    2    1    2    0    0 -0.99229219781E+02 -0.27519950219E+03  0.25704254303E+03  0.40003033107E+03  0.91499687332E+02 0.  0.
    5000000    2    1    2    0    0  0.99229219781E+02  0.27519950219E+03 -0.12249335521E+03  0.67871081382E+03  0.60005211662E+03 0.  0.
         23    2    4    4    0    0 -0.60687673529E+02 -0.11001447602E+03  0.11323726328E+03  0.19066658427E+03  0.88005056154E+02 0.  0.
         23    2    4    4    0    0  0.15991689331E+03  0.38521397821E+03 -0.23573061850E+03  0.48804422956E+03  0.93032380025E+02 0.  0.
          3    1    3    3  502    0 -0.96621644939E+02 -0.13358881770E+03  0.14021687228E+03  0.21643124949E+03  0.00000000000E+00 0. -1.
         -3    1    3    3    0  502 -0.26075748420E+01 -0.14161068449E+03  0.11682567075E+03  0.18359908158E+03  0.00000000000E+00 0.  1.
         13    1    5    5    0    0 -0.21404027546E+02 -0.10977588212E+03  0.68603890683E+02  0.13120735691E+03  0.00000000000E+00 0. -1.
        -13    1    5    5    0    0 -0.39283645983E+02 -0.23859390165E+00  0.44633372599E+02  0.59459227361E+02  0.00000000000E+00 0.  1.
          5    1    6    6  503    0  0.15504021291E+03  0.31429823161E+03 -0.22370836325E+03  0.41579847017E+03  0.47000000000E+01 0. -1.
         -5    1    6    6    0  503  0.48766804050E+01  0.70915746599E+02 -0.12022255244E+02  0.72245759382E+02  0.47000000000E+01 0.  1.
<mgrwt>
<rscale>  0 0.43967947E+03</rscale>
<asrwt>0</asrwt>
<pdfrwt beam="1">  1        2 0.93330025E-01 0.43967947E+03</pdfrwt>
<pdfrwt beam="2">  1       -2 0.72630151E-01 0.43967947E+03</pdfrwt>
<totfact> 0.86947982E+01</totfact>
</mgrwt>
</event>
<event>
12    1  0.3166324E-008  0.1209645E+04  0.7818608E-02  0.9104456E-01
          1   -1    0    0  501    0  0.00000000000E+00  0.00000000000E+00  0.29217622969E+04  0.29217622969E+04  0.00000000000E+00 0. -1.
         -1   -1    0    0    0  501 -0.00000000000E+00 -0.00000000000E+00 -0.72605953990E+03  0.72605953990E+03  0.00000000000E+00 0.  1.
         23    2    1    2    0    0 -0.64859098283E+03 -0.93914383220E+03  0.51848403490E+02  0.11460648850E+04  0.90083645023E+02 0.  0.
    5000000    2    1    2    0    0  0.64859098283E+03  0.93914383220E+03  0.21438543535E+04  0.25017569518E+04  0.60001246346E+03 0.  0.
         23    2    4    4    0    0  0.41962709592E+03  0.94971534120E+03  0.17390689180E+04  0.20274385663E+04  0.90001719680E+02 0.  0.
         23    2    4    4    0    0  0.22896388691E+03 -0.10571509007E+02  0.40478543548E+03  0.47431838551E+03  0.92684754614E+02 0.  0.
          1    1    3    3  502    0 -0.40238093265E+03 -0.50729774097E+03  0.16644789269E+02  0.64771788763E+03  0.00000000000E+00 0. -1.
         -1    1    3    3    0  502 -0.24621005018E+03 -0.43184609123E+03  0.35203614221E+02  0.49834699736E+03  0.00000000000E+00 0.  1.
         11    1    5    5    0    0  0.19158499014E+03  0.53569913343E+03  0.91582513479E+03  0.10781530724E+04  0.00000000000E+00 0. -1.
        -11    1    5    5    0    0  0.22804210578E+03  0.41401620777E+03  0.82324378319E+03  0.94928549387E+03  0.00000000000E+00 0.  1.
          5    1    6    6  503    0  0.13685830784E+03 -0.26559427865E+02  0.31550619988E+03  0.34496645025E+03  0.47000000000E+01 0. -1.
         -5    1    6    6    0  503  0.92105579071E+02  0.15987918858E+02  0.89279235603E+02  0.12935193526E+03  0.47000000000E+01 0.  1.
<mgrwt>
<rscale>  0 0.12096453E+04</rscale>
<asrwt>0</asrwt>
<pdfrwt beam="1">  1        1 0.44950188E+00 0.12096453E+04</pdfrwt>
<pdfrwt beam="2">  1       -1 0.11170147E+00 0.12096453E+04</pdfrwt>
<totfact> 0.49776263E-01</totfact>
</mgrwt>
</event>
<event>
12    1  0.3166324E-008  0.4805825E+03  0.7818608E-02  0.1018975E+00
          2   -1    0    0  501    0  0.00000000000E+00  0.00000000000E+00  0.23272966398E+04  0.23272966398E+04  0.00000000000E+00 0. -1.
         -2   -1    0    0    0  501 -0.00000000000E+00 -0.00000000000E+00 -0.29515569014E+03  0.29515569014E+03  0.00000000000E+00 0.  1.
         23    2    1    2    0    0  0.24916350613E+03 -0.38035136253E+03  0.88265235239E+01  0.46358688556E+03  0.89918191593E+02 0.  0.
    5000000    2    1    2    0    0 -0.24916350613E+03  0.38035136253E+03  0.20233144262E+04  0.21588654444E+04  0.60012426060E+03 0.  0.
         23    2    4    4    0    0 -0.37530386737E+02  0.36243965259E+02  0.14383624756E+04  0.14421297748E+04  0.90163857481E+02 0.  0.
         23    2    4    4    0    0 -0.21163311940E+03  0.34410739727E+03  0.58495195057E+03  0.71673566961E+03  0.91338696833E+02 0.  0.
          4    1    3    3  502    0  0.72417685640E+02 -0.12659944259E+03 -0.38259584781E+02  0.15078307560E+03  0.00000000000E+00 0. -1.
         -4    1    3    3    0  502  0.17674582049E+03 -0.25375191994E+03  0.47086108305E+02  0.31280380997E+03  0.00000000000E+00 0.  1.
         13    1    5    5    0    0 -0.11876666146E+02 -0.28496603752E+02  0.28508729274E+03  0.28675403415E+03  0.00000000000E+00 0. -1.
        -13    1    5    5    0    0 -0.25653720591E+02  0.64740569011E+02  0.11532751829E+04  0.11553757406E+04  0.00000000000E+00 0.  1.
          5    1    6    6  503    0 -0.15308844267E+03  0.21768341059E+03  0.31093406689E+03  0.40929722999E+03  0.47000000000E+01 0. -1.
         -5    1    6    6    0  503 -0.58544676724E+02  0.12642398669E+03  0.27401788368E+03  0.30743843963E+03  0.47000000000E+01 0.  1.
<mgrwt>
<rscale>  0 0.48058255E+03</rscale>
<asrwt>0</asrwt>
<pdfrwt beam="1">  1        2 0.35804563E+00 0.48058255E+03</pdfrwt>
<pdfrwt beam="2">  1       -2 0.45408569E-01 0.48058255E+03</pdfrwt>
<totfact> 0.22013841E+01</totfact>
</mgrwt>
</event>
<event>
12    1  0.3166324E-008  0.6023440E+03  0.7818608E-02  0.9900555E-01
          1   -1    0    0  501    0  0.00000000000E+00  0.00000000000E+00  0.84938286955E+03  0.84938286955E+03  0.00000000000E+00 0. -1.
         -1   -1    0    0    0  501 -0.00000000000E+00 -0.00000000000E+00 -0.63649619061E+03  0.63649619061E+03  0.00000000000E+00 0.  1.
         23    2    1    2    0    0  0.48401759471E+03  0.33280728239E+03 -0.73419263576E+02  0.59870391177E+03  0.89567106153E+02 0.  0.
    5000000    2    1    2    0    0 -0.48401759471E+03 -0.33280728239E+03  0.28630594252E+03  0.88717514839E+03  0.60006244009E+03 0.  0.
         23    2    4    4    0    0 -0.99320927926E+02 -0.11974951876E+03  0.38685546911E+03  0.42653979168E+03  0.89857920845E+02 0.  0.
         23    2    4    4    0    0 -0.38469666678E+03 -0.21305776363E+03 -0.10054952659E+03  0.46063535671E+03  0.93217962215E+02 0.  0.
          3    1    3    3  502    0  0.32088498953E+03  0.16776486374E+03 -0.47784229546E+02  0.36523356719E+03  0.00000000000E+00 0. -1.
         -3    1    3    3    0  502  0.16313260517E+03  0.16504241865E+03 -0.25635034030E+02  0.23347034457E+03  0.00000000000E+00 0.  1.
         13    1    5    5    0    0 -0.67886390321E+02 -0.49060703833E+02  0.10530254629E+03  0.13455162915E+03  0.00000000000E+00 0.  1.
        -13    1    5    5    0    0 -0.31434537605E+02 -0.70688814923E+02  0.28155292282E+03  0.29198816253E+03  0.00000000000E+00 0. -1.
          5    1    6    6  503    0 -0.31773116645E+03 -0.21251721260E+03 -0.89207654527E+02  0.39255159586E+03  0.47000000000E+01 0. -1.
         -5    1    6    6    0  503 -0.66965500332E+02 -0.54055103146E+00 -0.11341872064E+02  0.68083760855E+02  0.47000000000E+01 0.  1.
<mgrwt>
<rscale>  0 0.60234402E+03</rscale>
<asrwt>0</asrwt>
<pdfrwt beam="1">  1        1 0.13067429E+00 0.60234402E+03</pdfrwt>
<pdfrwt beam="2">  1       -1 0.97922491E-01 0.60234402E+03</pdfrwt>
<totfact> 0.21003688E+01</totfact>
</mgrwt>
</event>
<event>
12    1  0.3771108E-008  0.1197541E+04  0.7818608E-02  0.9115012E-01
         -1   -1    0    0    0  501 -0.00000000000E+00  0.00000000000E+00  0.11575395989E+04  0.11575395989E+04  0.00000000000E+00 0.  1.
          1   -1    0    0  501    0  0.00000000000E+00 -0.00000000000E+00 -0.13890789290E+04  0.13890789290E+04  0.00000000000E+00 0. -1.
         23    2    1    2    0    0  0.42683653380E+03  0.10670122997E+04 -0.43953705353E+03  0.12336115660E+04  0.88881944277E+02 0.  0.
    5000000    2    1    2    0    0 -0.42683653380E+03 -0.10670122997E+04  0.20799772349E+03  0.13130069619E+04  0.60001629533E+03 0.  0.
         23    2    4    4    0    0  0.10275297675E+03 -0.15939332837E+03  0.14342807488E+03  0.25557928440E+03  0.93727000321E+02 0.  0.
         23    2    4    4    0    0 -0.52958951054E+03 -0.90761897135E+03  0.64569648614E+02  0.10574276775E+04  0.98725917464E+02 0.  0.
          3    1    3    3  502    0  0.17981653907E+03  0.44903530534E+03 -0.23217247072E+03  0.53653587888E+03  0.00000000000E+00 0. -1.
         -3    1    3    3    0  502  0.24701999473E+03  0.61797699438E+03 -0.20736458281E+03  0.69707568713E+03  0.00000000000E+00 0.  1.
         11    1    5    5    0    0  0.20605668723E+02 -0.63044821661E+02  0.10329553263E+03  0.12275671136E+03  0.00000000000E+00 0. -1.
        -11    1    5    5    0    0  0.82147308027E+02 -0.96348506710E+02  0.40132542246E+02  0.13282257304E+03  0.00000000000E+00 0.  1.
          5    1    6    6  503    0 -0.36617627251E+03 -0.68472842212E+03  0.79780678589E+02  0.78059280120E+03  0.47000000000E+01 0. -1.
         -5    1    6    6    0  503 -0.16341323803E+03 -0.22289054922E+03 -0.15211029975E+02  0.27683487629E+03  0.47000000000E+01 0.  1.
<mgrwt>
<rscale>  0 0.11975411E+04</rscale>
<asrwt>0</asrwt>
<pdfrwt beam="1">  1        1 0.21370445E+00 0.11975411E+04</pdfrwt>
<pdfrwt beam="2">  1       -1 0.17808302E+00 0.11975411E+04</pdfrwt>
<totfact> 0.16470250E+00</totfact>
</mgrwt>
</event>
<event>
12    1  0.3166324E-008  0.6061190E+03  0.7818608E-02  0.9892792E-01
          1   -1    0    0  501    0  0.00000000000E+00  0.00000000000E+00  0.27626855891E+03  0.27626855891E+03  0.00000000000E+00 0. -1.
         -1   -1    0    0    0  501 -0.00000000000E+00 -0.00000000000E+00 -0.16815477342E+04  0.16815477342E+04  0.00000000000E+00 0.  1.
         23    2    1    2    0    0  0.40068907632E+03  0.36516205636E+03 -0.48774908405E+03  0.73481628333E+03  0.90336802922E+02 0.  0.
    5000000    2    1    2    0    0 -0.40068907632E+03 -0.36516205636E+03 -0.91753009127E+03  0.12230000098E+04  0.59997707652E+03 0.  0.
         23    2    4    4    0    0  0.51092836163E+02 -0.98338205232E+02 -0.56811386365E+03  0.58598271642E+03  0.91331820112E+02 0.  0.
         23    2    4    4    0    0 -0.45178191248E+03 -0.26682385113E+03 -0.34941622762E+03  0.63701729339E+03  0.91637699553E+02 0.  0.
          4    1    3    3  502    0  0.25537088788E+03  0.24575887748E+03 -0.37282591778E+03  0.51440342262E+03  0.00000000000E+00 0. -1.
         -4    1    3    3    0  502  0.14531818844E+03  0.11940317888E+03 -0.11492316627E+03  0.22041286070E+03  0.00000000000E+00 0.  1.
         11    1    5    5    0    0 -0.11685465062E+02  0.11845787150E+02 -0.75006059027E+02  0.76829562394E+02  0.00000000000E+00 0.  1.
        -11    1    5    5    0    0  0.62778301225E+02 -0.11018399238E+03 -0.49310780462E+03  0.50915315403E+03  0.00000000000E+00 0. -1.
          5    1    6    6  503    0 -0.43816841524E+03 -0.26410622764E+03 -0.31813957892E+03  0.60247700477E+03  0.47000000000E+01 0. -1.
         -5    1    6    6    0  503 -0.13613497237E+02 -0.27176234852E+01 -0.31276648698E+02  0.34540288624E+02  0.47000000000E+01 0. -1.
<mgrwt>
<rscale>  0 0.60611900E+03</rscale>
<asrwt>0</asrwt>
<pdfrwt beam="1">  1        1 0.42502854E-01 0.60611900E+03</pdfrwt>
<pdfrwt beam="2">  1       -1 0.25869966E+00 0.60611900E+03</pdfrwt>
<totfact> 0.63388290E+00</totfact>
</mgrwt>
</event>
<event>
12    1  0.3166324E-008  0.4882818E+03  0.7818608E-02  0.1016884E+00
          2   -1    0    0  501    0  0.00000000000E+00  0.00000000000E+00  0.98197762515E+03  0.98197762515E+03  0.00000000000E+00 0. -1.
         -2   -1    0    0    0  501 -0.00000000000E+00 -0.00000000000E+00 -0.70717412217E+03  0.70717412217E+03  0.00000000000E+00 0.  1.
         23    2    1    2    0    0 -0.39943567988E+03 -0.17112763277E+03  0.70566690449E+03  0.83268732915E+03  0.81048621116E+02 0.  0.
    5000000    2    1    2    0    0  0.39943567988E+03  0.17112763277E+03 -0.43086340152E+03  0.85646441817E+03  0.59921156512E+03 0.  0.
         23    2    4    4    0    0  0.38467015033E+02  0.15253415959E+03 -0.44830415925E+03  0.48341697731E+03  0.89269108116E+02 0.  0.
         23    2    4    4    0    0  0.36096866484E+03  0.18593473182E+02  0.17440757733E+02  0.37304744086E+03  0.90642809195E+02 0.  0.
          1    1    3    3  502    0 -0.18669971651E+03 -0.74202076848E+02  0.25156987473E+03  0.32194740910E+03  0.00000000000E+00 0. -1.
         -1    1    3    3    0  502 -0.21273596336E+03 -0.96925555923E+02  0.45409702976E+03  0.51073992005E+03  0.00000000000E+00 0.  1.
         11    1    5    5    0    0 -0.12461757569E+02  0.11043965598E+03 -0.32572509762E+03  0.34416428088E+03  0.00000000000E+00 0.  1.
        -11    1    5    5    0    0  0.50928772602E+02  0.42094503612E+02 -0.12257906163E+03  0.13925269643E+03  0.00000000000E+00 0. -1.
          5    1    6    6  503    0  0.10648171718E+03  0.27171211395E+02 -0.29954535456E+02  0.11399997814E+03  0.47000000000E+01 0. -1.
         -5    1    6    6    0  503  0.25448694767E+03 -0.85777382136E+01  0.47395293189E+02  0.25904746272E+03  0.47000000000E+01 0.  1.
<mgrwt>
<rscale>  0 0.48828176E+03</rscale>
<asrwt>0</asrwt>
<pdfrwt beam="1">  1        2 0.15107348E+00 0.48828176E+03</pdfrwt>
<pdfrwt beam="2">  1       -2 0.10879602E+00 0.48828176E+03</pdfrwt>
<totfact> 0.18366153E+01</totfact>
</mgrwt>
</event>
<event>
12    1  0.3166324E-008  0.1036061E+04  0.7818608E-02  0.9269854E-01
          2   -1    0    0  501    0  0.00000000000E+00  0.00000000000E+00  0.86115843014E+03  0.86115843014E+03  0.00000000000E+00 0. -1.
         -2   -1    0    0    0  501 -0.00000000000E+00 -0.00000000000E+00 -0.13174168063E+04  0.13174168063E+04  0.00000000000E+00 0.  1.
         23    2    1    2    0    0 -0.19325675873E+02  0.97315977349E+03 -0.31154256041E+03  0.10260203090E+04  0.90804630678E+02 0.  0.
    5000000    2    1    2    0    0  0.19325675873E+02 -0.97315977349E+03 -0.14471581575E+03  0.11525549275E+04  0.60002230545E+03 0.  0.
         23    2    4    4    0    0 -0.23359979244E+03 -0.41646806416E+03 -0.21063161810E+03  0.53075221274E+03  0.96528344539E+02 0.  0.
         23    2    4    4    0    0  0.25292546831E+03 -0.55669170933E+03  0.65915802346E+02  0.62180271474E+03  0.91742963197E+02 0.  0.
          3    1    3    3  502    0  0.25666172377E+01  0.33773803298E+03 -0.15280130376E+03  0.37070447107E+03  0.00000000000E+00 0. -1.
         -3    1    3    3    0  502 -0.21892293111E+02  0.63542174051E+03 -0.15874125665E+03  0.65531583788E+03  0.00000000000E+00 0.  1.
         11    1    5    5    0    0 -0.17467427637E+03 -0.21543742980E+03 -0.11035937906E+03  0.29850223036E+03  0.00000000000E+00 0. -1.
        -11    1    5    5    0    0 -0.58925516064E+02 -0.20103063436E+03 -0.10027223904E+03  0.23224998238E+03  0.00000000000E+00 0.  1.
          5    1    6    6  503    0  0.19215655770E+03 -0.40679991001E+03  0.88129815811E+02  0.45847493267E+03  0.47000000000E+01 0. -1.
         -5    1    6    6    0  503  0.60768910608E+02 -0.14989179933E+03 -0.22214013465E+02  0.16332778207E+03  0.47000000000E+01 0.  1.
<mgrwt>
<rscale>  0 0.10360614E+04</rscale>
<asrwt>0</asrwt>
<pdfrwt beam="1">  1        2 0.13248591E+00 0.10360614E+04</pdfrwt>
<pdfrwt beam="2">  1       -2 0.20267951E+00 0.10360614E+04</pdfrwt>
<totfact> 0.39386002E+00</totfact>
</mgrwt>
</event>
<event>
12    1  0.3166324E-008  0.1286151E+04  0.7818608E-02  0.9040620E-01
          2   -1    0    0  501    0  0.00000000000E+00  0.00000000000E+00  0.22150222922E+04  0.22150222922E+04  0.00000000000E+00 0. -1.
         -2   -1    0    0    0  501 -0.00000000000E+00 -0.00000000000E+00 -0.11579949961E+04  0.11579949961E+04  0.00000000000E+00 0.  1.
         23    2    1    2    0    0  0.10887529981E+04 -0.57210694034E+03 -0.47234487592E+03  0.13207924535E+04  0.93239376147E+02 0.  0.
    5000000    2    1    2    0    0 -0.10887529981E+04  0.57210694034E+03  0.15293721721E+04  0.20522248348E+04  0.59996507374E+03 0.  0.
         23    2    4    4    0    0 -0.19109852638E+03  0.36796200117E+03  0.64590813284E+03  0.77227452361E+03  0.85416290342E+02 0.  0.
         23    2    4    4    0    0 -0.89765447175E+03  0.20414493917E+03  0.88346403924E+03  0.12799503112E+04  0.10151543551E+03 0.  0.
          1    1    3    3  502    0  0.51968163592E+03 -0.27264193363E+03 -0.17557513329E+03  0.61255959230E+03  0.00000000000E+00 0. -1.
         -1    1    3    3    0  502  0.56907136222E+03 -0.29946500671E+03 -0.29676974263E+03  0.70823286120E+03  0.00000000000E+00 0.  1.
         11    1    5    5    0    0 -0.16876270233E+03  0.29393294994E+03  0.46394138970E+03  0.57455986793E+03  0.00000000000E+00 0. -1.
        -11    1    5    5    0    0 -0.22335824058E+02  0.74029051235E+02  0.18196674314E+03  0.19771465568E+03  0.00000000000E+00 0.  1.
          5    1    6    6  503    0 -0.29954092532E+03  0.11729768520E+03  0.31169580622E+03  0.44795075456E+03  0.47000000000E+01 0. -1.
         -5    1    6    6    0  503 -0.59811354643E+03  0.86847253969E+02  0.57176823302E+03  0.83199955663E+03  0.47000000000E+01 0.  1.
<mgrwt>
<rscale>  0 0.12861513E+04</rscale>
<asrwt>0</asrwt>
<pdfrwt beam="1">  1        2 0.34077266E+00 0.12861513E+04</pdfrwt>
<pdfrwt beam="2">  1       -2 0.17815308E+00 0.12861513E+04</pdfrwt>
<totfact> 0.91083674E-01</totfact>
</mgrwt>
</event>
<event>
12    1  0.3166324E-008  0.4239736E+03  0.7818608E-02  0.1035781E+00
         -2   -1    0    0    0  501 -0.00000000000E+00  0.00000000000E+00  0.26921445289E+03  0.26921445289E+03  0.00000000000E+00 0.  1.
          2   -1    0    0  501    0  0.00000000000E+00 -0.00000000000E+00 -0.76064733383E+03  0.76064733383E+03  0.00000000000E+00 0. -1.
         23    2    1    2    0    0 -0.15255244088E+03 -0.17188207102E+03 -0.55022652053E+02  0.25317338610E+03  0.90849202707E+02 0.  0.
    5000000    2    1    2    0    0  0.15255244088E+03  0.17188207102E+03 -0.43641022890E+03  0.77668840062E+03  0.59997940816E+03 0.  0.
         23    2    4    4    0    0  0.63108920357E+02  0.37822308976E+03 -0.33250907040E+03  0.51393705423E+03  0.80830516224E+02 0.  0.
         23    2    4    4    0    0  0.89443520523E+02 -0.20634101874E+03 -0.10390115850E+03  0.26275134639E+03  0.87556038722E+02 0.  0.
          1    1    3    3  502    0 -0.53503367580E+02 -0.58350189957E+02 -0.64635315435E+02  0.10220116933E+03  0.00000000000E+00 0. -1.
         -1    1    3    3    0  502 -0.99049073300E+02 -0.11353188107E+03  0.96126633813E+01  0.15097221677E+03  0.00000000000E+00 0.  1.
         11    1    5    5    0    0  0.59019180258E+02  0.12250979242E+03 -0.10874460835E+03  0.17411864553E+03  0.00000000000E+00 0.  1.
        -11    1    5    5    0    0  0.40897400989E+01  0.25571329734E+03 -0.22376446205E+03  0.33981840870E+03  0.00000000000E+00 0. -1.
          5    1    6    6  503    0  0.34380773352E+02 -0.10970337390E+03 -0.98222965333E+02  0.15128353757E+03  0.47000000000E+01 0. -1.
         -5    1    6    6    0  503  0.55062747171E+02 -0.96637644843E+02 -0.56781931674E+01  0.11146780883E+03  0.47000000000E+01 0.  1.
<mgrwt>
<rscale>  0 0.42397362E+03</rscale>
<asrwt>0</asrwt>
<pdfrwt beam="1">  1        2 0.11702267E+00 0.42397362E+03</pdfrwt>
<pdfrwt beam="2">  1       -2 0.41417609E-01 0.42397362E+03</pdfrwt>
<totfact> 0.20953889E+02</totfact>
</mgrwt>
</event>
<event>
12    1  0.3166324E-008  0.1625561E+04  0.7818608E-02  0.8804997E-01
          2   -1    0    0  501    0  0.00000000000E+00  0.00000000000E+00  0.22932807459E+04  0.22932807459E+04  0.00000000000E+00 0. -1.
         -2   -1    0    0    0  501 -0.00000000000E+00 -0.00000000000E+00 -0.12279995222E+04  0.12279995222E+04  0.00000000000E+00 0.  1.
         23    2    1    2    0    0  0.34340034551E+03 -0.15382178782E+04  0.92340291181E+03  0.18288895076E+04  0.90143527272E+02 0.  0.
    5000000    2    1    2    0    0 -0.34340034551E+03  0.15382178782E+04  0.14187831187E+03  0.16923907605E+04  0.60001582705E+03 0.  0.
         23    2    4    4    0    0 -0.25045940592E+03  0.19150278528E+03 -0.37543203604E+02  0.32766992000E+03  0.80962050092E+02 0.  0.
         23    2    4    4    0    0 -0.92940939590E+02  0.13467150929E+04  0.17942151548E+03  0.13647208405E+04  0.89394253227E+02 0.  0.
          3    1    3    3  502    0  0.59330782192E+02 -0.41985024465E+03  0.22325328890E+03  0.47920392387E+03  0.00000000000E+00 0. -1.
         -3    1    3    3    0  502  0.28406956331E+03 -0.11183676335E+04  0.70014962291E+03  0.13496855837E+04  0.00000000000E+00 0.  1.
         13    1    5    5    0    0 -0.17651019236E+03  0.17260351909E+03 -0.45131824843E+02  0.25096753659E+03  0.00000000000E+00 0. -1.
        -13    1    5    5    0    0 -0.73949213562E+02  0.18899266187E+02  0.75886212388E+01  0.76702383412E+02  0.00000000000E+00 0.  1.
          5    1    6    6  503    0 -0.17953870505E+02  0.20836656099E+03 -0.40822719922E+01  0.20923125997E+03  0.47000000000E+01 0. -1.
         -5    1    6    6    0  503 -0.74987069086E+02  0.11383485319E+04  0.18350378747E+03  0.11554895805E+04  0.47000000000E+01 0.  1.
<mgrwt>
<rscale>  0 0.16255609E+04</rscale>
<asrwt>0</asrwt>
<pdfrwt beam="1">  1        2 0.35281242E+00 0.16255609E+04</pdfrwt>
<pdfrwt beam="2">  1       -2 0.18892300E+00 0.16255609E+04</pdfrwt>
<totfact> 0.66920913E-01</totfact>
</mgrwt>
</event>
<event>
12    1  0.3166324E-008  0.1029716E+04  0.7818608E-02  0.9276540E-01
         -1   -1    0    0    0  501 -0.00000000000E+00  0.00000000000E+00  0.13485925017E+04  0.13485925017E+04  0.00000000000E+00 0.  1.
          1   -1    0    0  501    0  0.00000000000E+00 -0.00000000000E+00 -0.85460156608E+03  0.85460156608E+03  0.00000000000E+00 0. -1.
         23    2    1    2    0    0 -0.81641967888E+02 -0.96880174463E+03  0.40527159989E+03  0.10572662857E+04  0.91239782665E+02 0.  0.
    5000000    2    1    2    0    0  0.81641967888E+02  0.96880174463E+03  0.88719335732E+02  0.11459277821E+04  0.60003094074E+03 0.  0.
         23    2    4    4    0    0 -0.20040392101E+03  0.32462870683E+03  0.17984743414E+03  0.43161256559E+03  0.91644849012E+02 0.  0.
         23    2    4    4    0    0  0.28204588890E+03  0.64417303780E+03 -0.91128098407E+02  0.71431521647E+03  0.86215497962E+02 0.  0.
          3    1    3    3  502    0 -0.21488338508E+02 -0.48539059496E+03  0.15764177375E+03  0.51080006577E+03  0.00000000000E+00 0. -1.
         -3    1    3    3    0  502 -0.60153629379E+02 -0.48341114968E+03  0.24762982614E+03  0.54646621996E+03  0.00000000000E+00 0.  1.
         11    1    5    5    0    0 -0.12090766261E+03  0.16411314430E+03  0.48610680100E+02  0.20955854846E+03  0.00000000000E+00 0. -1.
        -11    1    5    5    0    0 -0.79496258402E+02  0.16051556253E+03  0.13123675404E+03  0.22205401713E+03  0.00000000000E+00 0.  1.
          5    1    6    6  503    0  0.56658709378E+02  0.11570076809E+03 -0.50091413815E+02  0.13830443530E+03  0.47000000000E+01 0. -1.
         -5    1    6    6    0  503  0.22538717952E+03  0.52847226972E+03 -0.41036684592E+02  0.57601078118E+03  0.47000000000E+01 0.  1.
<mgrwt>
<rscale>  0 0.10297161E+04</rscale>
<asrwt>0</asrwt>
<pdfrwt beam="1">  1        1 0.13147716E+00 0.10297161E+04</pdfrwt>
<pdfrwt beam="2">  1       -1 0.20747577E+00 0.10297161E+04</pdfrwt>
<totfact> 0.26569581E+00</totfact>
</mgrwt>
</event>
<event>
12    1  0.3166324E-008  0.5792098E+03  0.7818608E-02  0.9949503E-01
          2   -1    0    0  501    0  0.00000000000E+00  0.00000000000E+00  0.24056851424E+04  0.24056851424E+04  0.00000000000E+00 0. -1.
         -2   -1    0    0    0  501 -0.00000000000E+00 -0.00000000000E+00 -0.14930894679E+03  0.14930894679E+03  0.00000000000E+00 0.  1.
         23    2    1    2    0    0 -0.33774690816E+03  0.26626958630E+03  0.10798977312E+04  0.11660531462E+04  0.92349138339E+02 0.  0.
    5000000    2    1    2    0    0  0.33774690816E+03 -0.26626958630E+03  0.11764784644E+04  0.13889409430E+04  0.60006907878E+03 0.  0.
         23    2    4    4    0    0 -0.19191146623E+02 -0.34519066310E+03  0.49650409912E+03  0.61131734226E+03  0.87565281361E+02 0.  0.
         23    2    4    4    0    0  0.35693805478E+03  0.78921076799E+02  0.67997436530E+03  0.77762360073E+03  0.93273874351E+02 0.  0.
          1    1    3    3  502    0 -0.39437219979E+02  0.45209750402E+02  0.84240682628E+02  0.10342005831E+03  0.00000000000E+00 0. -1.
         -1    1    3    3    0  502 -0.29830968818E+03  0.22105983590E+03  0.99565704853E+03  0.10626330879E+04  0.00000000000E+00 0.  1.
         11    1    5    5    0    0 -0.44453223599E+02 -0.31022333080E+03  0.43134700069E+03  0.53317430458E+03  0.00000000000E+00 0. -1.
        -11    1    5    5    0    0  0.25262076976E+02 -0.34967332301E+02  0.65157098426E+02  0.78143037672E+02  0.00000000000E+00 0.  1.
          5    1    6    6  503    0  0.96670251871E+02 -0.55229467309E+01  0.11925951360E+03  0.15368982439E+03  0.47000000000E+01 0. -1.
         -5    1    6    6    0  503  0.26026780291E+03  0.84444023530E+02  0.56071485170E+03  0.62393377634E+03  0.47000000000E+01 0.  1.
<mgrwt>
<rscale>  0 0.57920984E+03</rscale>
<asrwt>0</asrwt>
<pdfrwt beam="1">  1        2 0.37010538E+00 0.57920984E+03</pdfrwt>
<pdfrwt beam="2">  1       -2 0.22970609E-01 0.57920984E+03</pdfrwt>
<totfact> 0.69976333E+01</totfact>
</mgrwt>
</event>
<event>
12    1  0.3166324E-008  0.5754259E+03  0.7818608E-02  0.9957743E-01
         -2   -1    0    0    0  501 -0.00000000000E+00  0.00000000000E+00  0.81667495763E+02  0.81667495763E+02  0.00000000000E+00 0.  1.
          2   -1    0    0  501    0  0.00000000000E+00 -0.00000000000E+00 -0.43737799031E+04  0.43737799031E+04  0.00000000000E+00 0. -1.
         23    2    1    2    0    0 -0.83211258929E+02 -0.42295157186E+03 -0.12746799737E+04  0.13487052397E+04  0.91567693861E+02 0.  0.
    5000000    2    1    2    0    0  0.83211258929E+02  0.42295157186E+03 -0.30174324337E+04  0.31067421592E+04  0.60094609247E+03 0.  0.
         23    2    4    4    0    0 -0.15036209313E+03  0.42985050368E+03 -0.22963607060E+04  0.23428255159E+04  0.90436116796E+02 0.  0.
         23    2    4    4    0    0  0.23357335206E+03 -0.68989318227E+01 -0.72107172769E+03  0.76391664331E+03  0.94974182810E+02 0.  0.
          4    1    3    3  502    0 -0.87370273102E+02 -0.22065152944E+03 -0.73341080803E+03  0.77085152617E+03  0.00000000000E+00 0. -1.
         -4    1    3    3    0  502  0.41590141735E+01 -0.20230004242E+03 -0.54126916563E+03  0.57785371352E+03  0.00000000000E+00 0.  1.
         11    1    5    5    0    0 -0.60249429681E+02  0.26957111783E+03 -0.12206710673E+04  0.12515336335E+04  0.00000000000E+00 0. -1.
        -11    1    5    5    0    0 -0.90112663454E+02  0.16027938585E+03 -0.10756896387E+04  0.10912918824E+04  0.00000000000E+00 0.  1.
          5    1    6    6  503    0  0.23098057520E+03  0.12105142561E+02 -0.64181719665E+03  0.68223893506E+03  0.47000000000E+01 0. -1.
         -5    1    6    6    0  503  0.25927768661E+01 -0.19004074384E+02 -0.79254531035E+02  0.81677708248E+02  0.47000000000E+01 0.  1.
<mgrwt>
<rscale>  0 0.57542588E+03</rscale>
<asrwt>0</asrwt>
<pdfrwt beam="1">  1        2 0.67288937E+00 0.57542588E+03</pdfrwt>
<pdfrwt beam="2">  1       -2 0.12564227E-01 0.57542588E+03</pdfrwt>
<totfact> 0.89758283E+00</totfact>
</mgrwt>
</event>
<event>
12    1  0.3166324E-008  0.8055893E+03  0.7818608E-02  0.9551962E-01
          1   -1    0    0  501    0  0.00000000000E+00  0.00000000000E+00  0.15536339849E+04  0.15536339849E+04  0.00000000000E+00 0. -1.
         -1   -1    0    0    0  501 -0.00000000000E+00 -0.00000000000E+00 -0.48949174840E+03  0.48949174840E+03  0.00000000000E+00 0.  1.
         23    2    1    2    0    0 -0.27913983274E+03  0.71274804783E+03  0.49996727473E+03  0.91877217590E+03  0.90808642169E+02 0.  0.
    5000000    2    1    2    0    0  0.27913983274E+03 -0.71274804783E+03  0.56417496181E+03  0.11243535574E+04  0.59995725573E+03 0.  0.
         23    2    4    4    0    0 -0.51090623822E+02 -0.23077362096E+01  0.25787168429E+03  0.27819796112E+03  0.90998475377E+02 0.  0.
         23    2    4    4    0    0  0.33023045656E+03 -0.71044031162E+03  0.30630327752E+03  0.84615559633E+03  0.91542364885E+02 0.  0.
          4    1    3    3  502    0 -0.12269617442E+03  0.24490663598E+03  0.22167810575E+03  0.35238444082E+03  0.00000000000E+00 0.  1.
         -4    1    3    3    0  502 -0.15644365832E+03  0.46784141185E+03  0.27828916898E+03  0.56638773508E+03  0.00000000000E+00 0. -1.
         11    1    5    5    0    0 -0.20309066959E+02 -0.12134633611E+02  0.61953603821E+01  0.24455879128E+02  0.00000000000E+00 0. -1.
        -11    1    5    5    0    0 -0.30781556862E+02  0.98268974015E+01  0.25167632391E+03  0.25374208199E+03  0.00000000000E+00 0.  1.
          5    1    6    6  503    0  0.33311058963E+02 -0.15001561816E+03  0.44942426141E+02  0.16017560366E+03  0.47000000000E+01 0. -1.
         -5    1    6    6    0  503  0.29691939760E+03 -0.56042469346E+03  0.26136085138E+03  0.68597999267E+03  0.47000000000E+01 0.  1.
<mgrwt>
<rscale>  0 0.80558929E+03</rscale>
<asrwt>0</asrwt>
<pdfrwt beam="1">  1        1 0.23902061E+00 0.80558929E+03</pdfrwt>
<pdfrwt beam="2">  1       -1 0.75306424E-01 0.80558929E+03</pdfrwt>
<totfact> 0.10971355E+01</totfact>
</mgrwt>
</event>
<event>
12    1  0.3166324E-008  0.1069510E+04  0.7818608E-02  0.9235429E-01
          1   -1    0    0  501    0  0.00000000000E+00  0.00000000000E+00  0.10027196365E+04  0.10027196365E+04  0.00000000000E+00 0. -1.
         -1   -1    0    0    0  501 -0.00000000000E+00 -0.00000000000E+00 -0.13112734219E+04  0.13112734219E+04  0.00000000000E+00 0.  1.
         23    2    1    2    0    0 -0.34140930902E+03 -0.98041090499E+03  0.97925714996E+02  0.10468396811E+04  0.92293084185E+02 0.  0.
    5000000    2    1    2    0    0  0.34140930902E+03  0.98041090499E+03 -0.40647950041E+03  0.12671533774E+04  0.60223437180E+03 0.  0.
         23    2    4    4    0    0  0.10518497614E+03  0.31821807882E+02  0.86638697926E+02  0.16860443402E+03  0.94046182958E+02 0.  0.
         23    2    4    4    0    0  0.23622433288E+03  0.94858909711E+03 -0.49311819833E+03  0.10985489433E+04  0.89560107078E+02 0.  0.
          1    1    3    3  502    0 -0.27690048291E+03 -0.73943456223E+03  0.39165408322E+02  0.79055124973E+03  0.00000000000E+00 0. -1.
         -1    1    3    3    0  502 -0.64508826116E+02 -0.24097634277E+03  0.58760306674E+02  0.25628843138E+03  0.00000000000E+00 0.  1.
         11    1    5    5    0    0  0.47996306918E+02 -0.12790049991E+02 -0.69983287924E+01  0.50161812790E+02  0.00000000000E+00 0.  1.
        -11    1    5    5    0    0  0.57188669226E+02  0.44611857872E+02  0.93637026719E+02  0.11844262123E+03  0.00000000000E+00 0. -1.
          5    1    6    6  503    0  0.13671811197E+03  0.58561223455E+03 -0.25537072412E+03  0.65335275934E+03  0.47000000000E+01 0. -1.
         -5    1    6    6    0  503  0.99506220913E+02  0.36297686256E+03 -0.23774747421E+03  0.44519618400E+03  0.47000000000E+01 0.  1.
<mgrwt>
<rscale>  0 0.10695104E+04</rscale>
<asrwt>0</asrwt>
<pdfrwt beam="1">  1        1 0.15426456E+00 0.10695104E+04</pdfrwt>
<pdfrwt beam="2">  1       -1 0.20173437E+00 0.10695104E+04</pdfrwt>
<totfact> 0.21950775E+00</totfact>
</mgrwt>
</event>
<event>
12    1  0.3166324E-008  0.7334153E+03  0.7818608E-02  0.9661734E-01
         -2   -1    0    0    0  501 -0.00000000000E+00  0.00000000000E+00  0.38703066420E+03  0.38703066420E+03  0.00000000000E+00 0. -1.
          2   -1    0    0  501    0  0.00000000000E+00 -0.00000000000E+00 -0.15311105162E+04  0.15311105162E+04  0.00000000000E+00 0.  1.
         23    2    1    2    0    0  0.60480172290E+03  0.15632003764E+03 -0.71026718847E+03  0.94942080957E+03  0.81849352050E+02 0.  0.
    5000000    2    1    2    0    0 -0.60480172290E+03 -0.15632003764E+03 -0.43381266353E+03  0.96872037083E+03  0.60000387635E+03 0.  0.
         23    2    4    4    0    0 -0.48088392047E+03  0.15015116071E+03 -0.18756740452E+03  0.54608980924E+03  0.96113643571E+02 0.  0.
         23    2    4    4    0    0 -0.12391780243E+03 -0.30647119835E+03 -0.24624525900E+03  0.42263056159E+03  0.93271897349E+02 0.  0.
          4    1    3    3  502    0  0.29825810737E+03  0.11268043674E+03 -0.32704816709E+03  0.45674422058E+03  0.00000000000E+00 0. -1.
         -4    1    3    3    0  502  0.30654361553E+03  0.43639600901E+02 -0.38321902138E+03  0.49267658898E+03  0.00000000000E+00 0.  1.
         11    1    5    5    0    0 -0.54951857007E+02  0.16079759311E+02 -0.57155105080E+02  0.80900996809E+02  0.00000000000E+00 0. -1.
        -11    1    5    5    0    0 -0.42593206347E+03  0.13407140140E+03 -0.13041229944E+03  0.46518881243E+03  0.00000000000E+00 0.  1.
          5    1    6    6  503    0 -0.10824108755E+03 -0.20577478668E+03 -0.21293110141E+03  0.31531117934E+03  0.47000000000E+01 0. -1.
         -5    1    6    6    0  503 -0.15676714875E+02 -0.10069641166E+03 -0.33314157598E+02  0.10731938225E+03  0.47000000000E+01 0.  1.
<mgrwt>
<rscale>  0 0.73341531E+03</rscale>
<asrwt>0</asrwt>
<pdfrwt beam="1">  1        2 0.23555547E+00 0.73341531E+03</pdfrwt>
<pdfrwt beam="2">  1       -2 0.59543179E-01 0.73341531E+03</pdfrwt>
<totfact> 0.32907035E+01</totfact>
</mgrwt>
</event>
<event>
12    1  0.3166324E-008  0.6542063E+03  0.7818608E-02  0.9798918E-01
         -2   -1    0    0    0  501 -0.00000000000E+00  0.00000000000E+00  0.10475959824E+04  0.10475959824E+04  0.00000000000E+00 0.  1.
          2   -1    0    0  501    0  0.00000000000E+00 -0.00000000000E+00 -0.63535905556E+03  0.63535905556E+03  0.00000000000E+00 0. -1.
         23    2    1    2    0    0 -0.47809767687E+03  0.20804777241E+03  0.66466918645E+03  0.84885489835E+03  0.83115863746E+02 0.  0.
    5000000    2    1    2    0    0  0.47809767687E+03 -0.20804777241E+03 -0.25243225956E+03  0.83410013965E+03  0.60011643292E+03 0.  0.
         23    2    4    4    0    0  0.16000830872E+03 -0.37874707718E+03 -0.15008064498E+03  0.44691071306E+03  0.90293843189E+02 0.  0.
         23    2    4    4    0    0  0.31808936815E+03  0.17069930477E+03 -0.10235161458E+03  0.38718942659E+03  0.95502357416E+02 0.  0.
          1    1    3    3  502    0 -0.11425975902E+03  0.12576925361E+02  0.14734204014E+03  0.18687736186E+03  0.00000000000E+00 0. -1.
         -1    1    3    3    0  502 -0.36383791785E+03  0.19547084705E+03  0.51732714631E+03  0.66197753650E+03  0.00000000000E+00 0.  1.
         11    1    5    5    0    0  0.77713753165E+02 -0.10613198004E+03 -0.78875348465E+02  0.15337778592E+03  0.00000000000E+00 0.  1.
        -11    1    5    5    0    0  0.82294555555E+02 -0.27261509715E+03 -0.71205296516E+02  0.29353292715E+03  0.00000000000E+00 0. -1.
          5    1    6    6  503    0  0.11267964333E+02  0.17014329668E+02  0.13564140923E+02  0.24950558175E+02  0.47000000000E+01 0. -1.
         -5    1    6    6    0  503  0.30682140382E+03  0.15368497511E+03 -0.11591575550E+03  0.36223886841E+03  0.47000000000E+01 0.  1.
<mgrwt>
<rscale>  0 0.65420631E+03</rscale>
<asrwt>0</asrwt>
<pdfrwt beam="1">  1        2 0.97747547E-01 0.65420631E+03</pdfrwt>
<pdfrwt beam="2">  1       -2 0.16116861E+00 0.65420631E+03</pdfrwt>
<totfact> 0.11723423E+01</totfact>
</mgrwt>
</event>
<event>
12    1  0.3166324E-008  0.6469408E+03  0.7818608E-02  0.9812536E-01
          1   -1    0    0  501    0  0.00000000000E+00  0.00000000000E+00  0.10670368866E+04  0.10670368866E+04  0.00000000000E+00 0. -1.
         -1   -1    0    0    0  501 -0.00000000000E+00 -0.00000000000E+00 -0.59395677340E+03  0.59395677340E+03  0.00000000000E+00 0.  1.
         23    2    1    2    0    0  0.44173230524E+03  0.28533134659E+03  0.65284390591E+03  0.84332845901E+03  0.91958237562E+02 0.  0.
    5000000    2    1    2    0    0 -0.44173230524E+03 -0.28533134659E+03 -0.17976379269E+03  0.81766520100E+03  0.59976658204E+03 0.  0.
         23    2    4    4    0    0 -0.23238470480E+03  0.14176850762E+03 -0.16827099799E+03  0.33339166000E+03  0.93455387295E+02 0.  0.
         23    2    4    4    0    0 -0.20934760044E+03 -0.42709985422E+03 -0.11492794700E+02  0.48427354100E+03  0.90266687675E+02 0.  0.
          2    1    3    3  502    0  0.11559605974E+03  0.78278036682E+02  0.24205009298E+03  0.27942467243E+03  0.00000000000E+00 0. -1.
         -2    1    3    3    0  502  0.32613624550E+03  0.20705330991E+03  0.41079381294E+03  0.56390378658E+03  0.00000000000E+00 0.  1.
         11    1    5    5    0    0 -0.10250489530E+03  0.17319584758E+02 -0.35619907651E+02  0.10989085220E+03  0.00000000000E+00 0. -1.
        -11    1    5    5    0    0 -0.12987980950E+03  0.12444892287E+03 -0.13265109034E+03  0.22350080780E+03  0.00000000000E+00 0.  1.
          5    1    6    6  503    0 -0.88829885497E+02 -0.91943885799E+02 -0.43171583095E+01  0.12800450988E+03  0.47000000000E+01 0. -1.
         -5    1    6    6    0  503 -0.12051771494E+03 -0.33515596842E+03 -0.71756363906E+01  0.35626903112E+03  0.47000000000E+01 0.  1.
<mgrwt>
<rscale>  0 0.64694085E+03</rscale>
<asrwt>0</asrwt>
<pdfrwt beam="1">  1        1 0.16415952E+00 0.64694085E+03</pdfrwt>
<pdfrwt beam="2">  1       -1 0.91377965E-01 0.64694085E+03</pdfrwt>
<totfact> 0.16400761E+01</totfact>
</mgrwt>
</event>
<event>
12    1  0.3166324E-008  0.5632630E+03  0.7818608E-02  0.9984698E-01
         -1   -1    0    0    0  501 -0.00000000000E+00  0.00000000000E+00  0.15915842459E+04  0.15915842459E+04  0.00000000000E+00 0.  1.
          1   -1    0    0  501    0  0.00000000000E+00 -0.00000000000E+00 -0.22595602674E+03  0.22595602674E+03  0.00000000000E+00 0. -1.
         23    2    1    2    0    0  0.31517149627E+03  0.30453827130E+03  0.41040242314E+03  0.60734204660E+03  0.91419811347E+02 0.  0.
    5000000    2    1    2    0    0 -0.31517149627E+03 -0.30453827130E+03  0.95522579597E+03  0.12101982260E+04  0.60003899385E+03 0.  0.
         23    2    4    4    0    0 -0.96592695541E+02  0.14287779748E+03  0.10350439903E+03  0.21996975453E+03  0.89046720573E+02 0.  0.
         23    2    4    4    0    0 -0.21857880073E+03 -0.44741606878E+03  0.85172139694E+03  0.99022847145E+03  0.84647840678E+02 0.  0.
          3    1    3    3  502    0  0.19482456386E+03  0.13121990261E+03  0.24327745179E+03  0.33817035954E+03  0.00000000000E+00 0. -1.
         -3    1    3    3    0  502  0.12034693241E+03  0.17331836869E+03  0.16712497135E+03  0.26917168706E+03  0.00000000000E+00 0.  1.
         11    1    5    5    0    0 -0.59254964063E+02  0.11564997132E+03  0.30352318778E+02  0.13344410773E+03  0.00000000000E+00 0.  1.
        -11    1    5    5    0    0 -0.37337731478E+02  0.27227826165E+02  0.73152080253E+02  0.86525646804E+02  0.00000000000E+00 0. -1.
          5    1    6    6  503    0 -0.16713288392E+03 -0.25261115469E+03  0.53539408445E+03  0.61515421808E+03  0.47000000000E+01 0. -1.
         -5    1    6    6    0  503 -0.51445916807E+02 -0.19480491410E+03  0.31632731249E+03  0.37507425337E+03  0.47000000000E+01 0.  1.
<mgrwt>
<rscale>  0 0.56326303E+03</rscale>
<asrwt>0</asrwt>
<pdfrwt beam="1">  1        1 0.34762467E-01 0.56326303E+03</pdfrwt>
<pdfrwt beam="2">  1       -1 0.24485911E+00 0.56326303E+03</pdfrwt>
<totfact> 0.10143021E+01</totfact>
</mgrwt>
</event>
<event>
12    1  0.3166324E-008  0.7507219E+03  0.7818608E-02  0.9634218E-01
         -1   -1    0    0    0  501 -0.00000000000E+00  0.00000000000E+00  0.63354064580E+03  0.63354064580E+03  0.00000000000E+00 0.  1.
          1   -1    0    0  501    0  0.00000000000E+00 -0.00000000000E+00 -0.98728906480E+03  0.98728906480E+03  0.00000000000E+00 0. -1.
         23    2    1    2    0    0  0.55148167952E+03 -0.33812430557E+03  0.39780903809E+02  0.65469434797E+03  0.92639516895E+02 0.  0.
    5000000    2    1    2    0    0 -0.55148167952E+03  0.33812430557E+03 -0.39352932281E+03  0.96613536264E+03  0.60007676356E+03 0.  0.
         23    2    4    4    0    0 -0.65285361535E+03  0.27336868416E+03 -0.24691518095E+03  0.75576016519E+03  0.96218709983E+02 0.  0.
         23    2    4    4    0    0  0.10137193583E+03  0.64755621408E+02 -0.14661414186E+03  0.21037519745E+03  0.91062930046E+02 0.  0.
          3    1    3    3  502    0  0.23214724102E+03 -0.15174156943E+03  0.62336140332E+02  0.28425981039E+03  0.00000000000E+00 0. -1.
         -3    1    3    3    0  502  0.31933443850E+03 -0.18638273613E+03 -0.22555236523E+02  0.37043453758E+03  0.00000000000E+00 0.  1.
         11    1    5    5    0    0 -0.50426576668E+03  0.19793532988E+03 -0.14640808453E+03  0.56115745159E+03  0.00000000000E+00 0.  1.
        -11    1    5    5    0    0 -0.14858784868E+03  0.75433354283E+02 -0.10050709642E+03  0.19460271361E+03  0.00000000000E+00 0. -1.
          5    1    6    6  503    0 -0.11036869966E+02  0.23091498663E+02 -0.83778300056E+01  0.27336931883E+02  0.47000000000E+01 0. -1.
         -5    1    6    6    0  503  0.11240880580E+03  0.41664122745E+02 -0.13823631186E+03  0.18303826556E+03  0.47000000000E+01 0.  1.
<mgrwt>
<rscale>  0 0.75072195E+03</rscale>
<asrwt>0</asrwt>
<pdfrwt beam="1">  1        1 0.15189063E+00 0.75072195E+03</pdfrwt>
<pdfrwt beam="2">  1       -1 0.97467792E-01 0.75072195E+03</pdfrwt>
<totfact> 0.16114416E+01</totfact>
</mgrwt>
</event>
<event>
12    1  0.3166324E-008  0.5191947E+03  0.7818608E-02  0.1008887E+00
         -1   -1    0    0    0  501 -0.00000000000E+00  0.00000000000E+00  0.35073949234E+03  0.35073949234E+03  0.00000000000E+00 0.  1.
          1   -1    0    0  501    0  0.00000000000E+00 -0.00000000000E+00 -0.10672585398E+04  0.10672585398E+04  0.00000000000E+00 0. -1.
         23    2    1    2    0    0  0.44947618476E+03 -0.91089762855E+02 -0.24627882206E+03  0.52835299500E+03  0.90429218563E+02 0.  0.
    5000000    2    1    2    0    0 -0.44947618476E+03  0.91089762855E+02 -0.47024022538E+03  0.88964503711E+03  0.60001353062E+03 0.  0.
         23    2    4    4    0    0 -0.39836663270E+03 -0.44608168399E+02 -0.23570290453E+02  0.41107583991E+03  0.87988208492E+02 0.  0.
         23    2    4    4    0    0 -0.51109552061E+02  0.13569793125E+03 -0.44666993493E+03  0.47856919720E+03  0.92132138154E+02 0.  0.
          1    1    3    3  502    0  0.29443047743E+03 -0.23352712216E+02 -0.12791594910E+03  0.32186510411E+03  0.00000000000E+00 0. -1.
         -1    1    3    3    0  502  0.15504570732E+03 -0.67737050640E+02 -0.11836287296E+03  0.20648789089E+03  0.00000000000E+00 0.  1.
         11    1    5    5    0    0 -0.18349964124E+03  0.19838888975E+02  0.68651732408E+01  0.18469659026E+03  0.00000000000E+00 0. -1.
        -11    1    5    5    0    0 -0.21486699146E+03 -0.64447057374E+02 -0.30435463694E+02  0.22637924965E+03  0.00000000000E+00 0.  1.
          5    1    6    6  503    0 -0.70895808827E+02  0.88076521714E+02 -0.23745303831E+03  0.26303939779E+03  0.47000000000E+01 0. -1.
         -5    1    6    6    0  503  0.19786256766E+02  0.47621409540E+02 -0.20921689662E+03  0.21552979941E+03  0.47000000000E+01 0.  1.
<mgrwt>
<rscale>  0 0.51919468E+03</rscale>
<asrwt>0</asrwt>
<pdfrwt beam="1">  1        1 0.16419362E+00 0.51919468E+03</pdfrwt>
<pdfrwt beam="2">  1       -1 0.53959922E-01 0.51919468E+03</pdfrwt>
<totfact> 0.49051992E+01</totfact>
</mgrwt>
</event>
<event>
12    1  0.3166324E-008  0.3653930E+03  0.7818608E-02  0.1056469E+00
          2   -1    0    0  501    0  0.00000000000E+00  0.00000000000E+00  0.19667431744E+03  0.19667431744E+03  0.00000000000E+00 0. -1.
         -2   -1    0    0    0  501 -0.00000000000E+00 -0.00000000000E+00 -0.16034145371E+04  0.16034145371E+04  0.00000000000E+00 0.  1.
         23    2    1    2    0    0  0.27990521678E+03  0.18588698138E+03 -0.83849101285E+03  0.90815198310E+03  0.93658665177E+02 0.  0.
    5000000    2    1    2    0    0 -0.27990521678E+03 -0.18588698138E+03 -0.56824920678E+03  0.89193687140E+03  0.59978606297E+03 0.  0.
         23    2    4    4    0    0 -0.18869081277E+03 -0.61205241217E+02 -0.65655438126E+03  0.69195043942E+03  0.91550263224E+02 0.  0.
         23    2    4    4    0    0 -0.91214404005E+02 -0.12468174016E+03  0.88305174479E+02  0.19998643198E+03  0.91275217371E+02 0.  0.
          4    1    3    3  502    0  0.12846797829E+03  0.13335664713E+03 -0.38617913093E+03  0.42827834167E+03  0.00000000000E+00 0. -1.
         -4    1    3    3    0  502  0.15143723849E+03  0.52530334252E+02 -0.45231188192E+03  0.47987364143E+03  0.00000000000E+00 0.  1.
         11    1    5    5    0    0 -0.97390311085E+02  0.25238615412E+01 -0.41008315135E+03  0.42149665905E+03  0.00000000000E+00 0.  1.
        -11    1    5    5    0    0 -0.91300501686E+02 -0.63729102758E+02 -0.24647122990E+03  0.27045378037E+03  0.00000000000E+00 0. -1.
          5    1    6    6  503    0 -0.76526542847E+02 -0.32796885241E+02  0.59582436276E+02  0.10248953193E+03  0.47000000000E+01 0. -1.
         -5    1    6    6    0  503 -0.14687861158E+02 -0.91884854922E+02  0.28722738203E+02  0.97496900050E+02  0.47000000000E+01 0.  1.
<mgrwt>
<rscale>  0 0.36539304E+03</rscale>
<asrwt>0</asrwt>
<pdfrwt beam="1">  1        2 0.30257589E-01 0.36539304E+03</pdfrwt>
<pdfrwt beam="2">  1       -2 0.24667915E+00 0.36539304E+03</pdfrwt>
<totfact> 0.12829008E+01</totfact>
</mgrwt>
</event>
<event>
12    1  0.3166324E-008  0.6499584E+03  0.7818608E-02  0.9806857E-01
          2   -1    0    0  501    0  0.00000000000E+00  0.00000000000E+00  0.11282943770E+04  0.11282943770E+04  0.00000000000E+00 0. -1.
         -2   -1    0    0    0  501 -0.00000000000E+00 -0.00000000000E+00 -0.53575221196E+03  0.53575221196E+03  0.00000000000E+00 0.  1.
         23    2    1    2    0    0  0.22868482091E+03 -0.55123926241E+03  0.55518820063E+03  0.81696575588E+03  0.55114756923E+02 0.  0.
    5000000    2    1    2    0    0 -0.22868482091E+03  0.55123926241E+03  0.37353964371E+02  0.84708083305E+03  0.59999095604E+03 0.  0.
         23    2    4    4    0    0 -0.11318304573E+03  0.57044397672E+03 -0.14983593494E+03  0.60781960927E+03  0.93686378960E+02 0.  0.
         23    2    4    4    0    0 -0.11550177518E+03 -0.19204714311E+02  0.18718989931E+03  0.23926122378E+03  0.92175884471E+02 0.  0.
          4    1    3    3  502    0  0.17512808761E+03 -0.39738869315E+03  0.43371906954E+03  0.61375878959E+03  0.00000000000E+00 0.  1.
         -4    1    3    3    0  502  0.53556733305E+02 -0.15385056926E+03  0.12146913108E+03  0.20320696629E+03  0.00000000000E+00 0. -1.
         11    1    5    5    0    0 -0.63893607396E+02  0.41524467152E+03 -0.68085945196E+02  0.42561276558E+03  0.00000000000E+00 0.  1.
        -11    1    5    5    0    0 -0.49289438335E+02  0.15519930520E+03 -0.81749989741E+02  0.18220684369E+03  0.00000000000E+00 0. -1.
          5    1    6    6  503    0 -0.66690742513E+02 -0.22721296795E+02  0.33990596501E+02  0.78366849595E+02  0.47000000000E+01 0. -1.
         -5    1    6    6    0  503 -0.48811032669E+02  0.35165824837E+01  0.15319930281E+03  0.16089437418E+03  0.47000000000E+01 0.  1.
<mgrwt>
<rscale>  0 0.64995836E+03</rscale>
<asrwt>0</asrwt>
<pdfrwt beam="1">  1        2 0.17358375E+00 0.64995836E+03</pdfrwt>
<pdfrwt beam="2">  1       -2 0.82423417E-01 0.64995836E+03</pdfrwt>
<totfact> 0.27834800E+01</totfact>
</mgrwt>
</event>
<event>
12    1  0.3166324E-008  0.6284794E+03  0.7818608E-02  0.9848021E-01
         -2   -1    0    0    0  501 -0.00000000000E+00  0.00000000000E+00  0.79594701179E+03  0.79594701179E+03  0.00000000000E+00 0. -1.
          2   -1    0    0  501    0  0.00000000000E+00 -0.00000000000E+00 -0.62319291062E+03  0.62319291062E+03  0.00000000000E+00 0.  1.
         23    2    1    2    0    0  0.34012751744E+03  0.45790910000E+03  0.11788790617E+03  0.58951485782E+03  0.90899599522E+02 0.  0.
    5000000    2    1    2    0    0 -0.34012751744E+03 -0.45790910000E+03  0.54866194997E+02  0.82962506459E+03  0.59991664126E+03 0.  0.
         23    2    4    4    0    0 -0.49508812543E+02  0.47728511429E+02  0.19280601682E+03  0.22284611022E+03  0.88074374227E+02 0.  0.
         23    2    4    4    0    0 -0.29061870489E+03 -0.50563761143E+03 -0.13793982182E+03  0.60677895437E+03  0.94998312072E+02 0.  0.
          3    1    3    3  502    0  0.23865199002E+03  0.32270646702E+03  0.39895778362E+02  0.40334341364E+03  0.00000000000E+00 0. -1.
         -3    1    3    3    0  502  0.10147552742E+03  0.13520263298E+03  0.77992127804E+02  0.18617144419E+03  0.00000000000E+00 0.  1.
         11    1    5    5    0    0 -0.70307773538E+02  0.32430380348E+02  0.99743029687E+02  0.12626790788E+03  0.00000000000E+00 0. -1.
        -11    1    5    5    0    0  0.20798960995E+02  0.15298131081E+02  0.93062987130E+02  0.96578202336E+02  0.00000000000E+00 0.  1.
          5    1    6    6  503    0 -0.20972922318E+03 -0.36445418952E+03 -0.55043466289E+02  0.42410503003E+03  0.47000000000E+01 0. -1.
         -5    1    6    6    0  503 -0.80889481710E+02 -0.14118342191E+03 -0.82896355530E+02  0.18267392434E+03  0.47000000000E+01 0.  1.
<mgrwt>
<rscale>  0 0.62847935E+03</rscale>
<asrwt>0</asrwt>
<pdfrwt beam="1">  1        2 0.95875832E-01 0.62847935E+03</pdfrwt>
<pdfrwt beam="2">  1       -2 0.12245339E+00 0.62847935E+03</pdfrwt>
<totfact> 0.24504260E+01</totfact>
</mgrwt>
</event>
<event>
12    1  0.3166324E-008  0.7911050E+03  0.7818608E-02  0.9572982E-01
          2   -1    0    0  501    0  0.00000000000E+00  0.00000000000E+00  0.25639165589E+04  0.25639165589E+04  0.00000000000E+00 0. -1.
         -2   -1    0    0    0  501 -0.00000000000E+00 -0.00000000000E+00 -0.26474269633E+03  0.26474269633E+03  0.00000000000E+00 0.  1.
         23    2    1    2    0    0 -0.59430284544E+03 -0.35779555660E+03  0.12818837473E+04  0.14589229705E+04  0.63377913809E+02 0.  0.
    5000000    2    1    2    0    0  0.59430284544E+03  0.35779555660E+03  0.10172901153E+04  0.13697362847E+04  0.60007064466E+03 0.  0.
         23    2    4    4    0    0  0.31618895616E+03 -0.10606711290E+03  0.54821962376E+03  0.64799563376E+03  0.90154850502E+02 0.  0.
         23    2    4    4    0    0  0.27811388928E+03  0.46386266950E+03  0.46907049155E+03  0.72174065097E+03  0.91468735929E+02 0.  0.
          2    1    3    3  502    0 -0.31330563068E+03 -0.22536780726E+03  0.70776708094E+03  0.80615464251E+03  0.00000000000E+00 0. -1.
         -2    1    3    3    0  502 -0.28099721476E+03 -0.13242774933E+03  0.57411666635E+03  0.65276832803E+03  0.00000000000E+00 0.  1.
         13    1    5    5    0    0  0.65884284492E+02 -0.44042696208E+02  0.75200209551E+02  0.10925003226E+03  0.00000000000E+00 0. -1.
        -13    1    5    5    0    0  0.25030467167E+03 -0.62024416690E+02  0.47301941420E+03  0.53874560150E+03  0.00000000000E+00 0.  1.
          5    1    6    6  503    0  0.40703474099E+02  0.21103558401E+02  0.41249997146E+02  0.61852932392E+02  0.47000000000E+01 0. -1.
         -5    1    6    6    0  503  0.23741041518E+03  0.44275911109E+03  0.42782049441E+03  0.65988771858E+03  0.47000000000E+01 0.  1.
<mgrwt>
<rscale>  0 0.79110504E+03</rscale>
<asrwt>0</asrwt>
<pdfrwt beam="1">  1        2 0.39444868E+00 0.79110504E+03</pdfrwt>
<pdfrwt beam="2">  1       -2 0.40729647E-01 0.79110504E+03</pdfrwt>
<totfact> 0.18988181E+01</totfact>
</mgrwt>
</event>
<event>
12    1  0.3166324E-008  0.4706510E+03  0.7818608E-02  0.1021737E+00
          1   -1    0    0  501    0  0.00000000000E+00  0.00000000000E+00  0.61085665855E+03  0.61085665855E+03  0.00000000000E+00 0. -1.
         -1   -1    0    0    0  501 -0.00000000000E+00 -0.00000000000E+00 -0.40633625175E+03  0.40633625175E+03  0.00000000000E+00 0.  1.
         23    2    1    2    0    0 -0.29712274837E+03  0.72124192017E+02  0.22136830156E+02  0.31960907352E+03  0.90421756004E+02 0.  0.
    5000000    2    1    2    0    0  0.29712274837E+03 -0.72124192017E+02  0.18238357664E+03  0.69758383678E+03  0.59989633574E+03 0.  0.
         23    2    4    4    0    0  0.28108547260E+03  0.19745315789E+03  0.20419330410E+03  0.41018728873E+03  0.92530610763E+02 0.  0.
         23    2    4    4    0    0  0.16037275771E+02 -0.26957734991E+03 -0.21809727461E+02  0.28739654805E+03  0.95874761121E+02 0.  0.
          4    1    3    3  502    0 -0.27850342739E+03  0.89026869419E+02  0.12421225747E+02  0.29265035349E+03  0.00000000000E+00 0.  1.
         -4    1    3    3    0  502 -0.18619320973E+02 -0.16902677403E+02  0.97156044096E+01  0.26958720035E+02  0.00000000000E+00 0. -1.
         13    1    5    5    0    0  0.23754132462E+03  0.19613703216E+03  0.15626584011E+03  0.34541949724E+03  0.00000000000E+00 0. -1.
        -13    1    5    5    0    0  0.43544147977E+02  0.13161257335E+01  0.47927463992E+02  0.64767791492E+02  0.00000000000E+00 0.  1.
          5    1    6    6  503    0  0.25662670039E+02 -0.21068423858E+03 -0.54520664398E+02  0.21918260393E+03  0.47000000000E+01 0. -1.
         -5    1    6    6    0  503 -0.96253942676E+01 -0.58893111335E+02  0.32710936937E+02  0.68213944123E+02  0.47000000000E+01 0.  1.
<mgrwt>
<rscale>  0 0.47065095E+03</rscale>
<asrwt>0</asrwt>
<pdfrwt beam="1">  1        1 0.93977948E-01 0.47065095E+03</pdfrwt>
<pdfrwt beam="2">  1       -1 0.62513269E-01 0.47065095E+03</pdfrwt>
<totfact> 0.90510428E+01</totfact>
</mgrwt>
</event>
<event>
12    1  0.3166324E-008  0.8754346E+03  0.7818608E-02  0.9456821E-01
          2   -1    0    0  501    0  0.00000000000E+00  0.00000000000E+00  0.22503263964E+04  0.22503263964E+04  0.00000000000E+00 0. -1.
         -2   -1    0    0    0  501 -0.00000000000E+00 -0.00000000000E+00 -0.35111715062E+03  0.35111715062E+03  0.00000000000E+00 0.  1.
         23    2    1    2    0    0  0.96848116568E+02  0.77862558912E+03  0.84353997542E+03  0.11557206780E+04  0.92158719806E+02 0.  0.
    5000000    2    1    2    0    0 -0.96848116568E+02 -0.77862558912E+03  0.10556692704E+04  0.14457228691E+04  0.60003303247E+03 0.  0.
         23    2    4    4    0    0  0.11312119654E+03  0.29171493871E+02  0.15943517983E+03  0.21757863324E+03  0.90958803374E+02 0.  0.
         23    2    4    4    0    0 -0.20996931311E+03 -0.80779708299E+03  0.89623409058E+03  0.12281442359E+04  0.92084087967E+02 0.  0.
          2    1    3    3  502    0  0.34719283499E+02  0.49984826062E+03  0.58744435739E+03  0.77210399903E+03  0.00000000000E+00 0. -1.
         -2    1    3    3    0  502  0.62128833070E+02  0.27877732850E+03  0.25609561803E+03  0.38361667893E+03  0.00000000000E+00 0.  1.
         13    1    5    5    0    0  0.46378055844E+02 -0.15598906860E+02  0.13145081180E+02  0.50665995681E+02  0.00000000000E+00 0.  1.
        -13    1    5    5    0    0  0.66743140693E+02  0.44770400731E+02  0.14629009865E+03  0.16691263755E+03  0.00000000000E+00 0. -1.
          5    1    6    6  503    0 -0.12295639939E+03 -0.43614822953E+03  0.55137475081E+03  0.71370845596E+03  0.47000000000E+01 0. -1.
         -5    1    6    6    0  503 -0.87012913717E+02 -0.37164885346E+03  0.34485933976E+03  0.51443577991E+03  0.47000000000E+01 0.  1.
<mgrwt>
<rscale>  0 0.87543455E+03</rscale>
<asrwt>0</asrwt>
<pdfrwt beam="1">  1        2 0.34620405E+00 0.87543455E+03</pdfrwt>
<pdfrwt beam="2">  1       -2 0.54018024E-01 0.87543455E+03</pdfrwt>
<totfact> 0.15964660E+01</totfact>
</mgrwt>
</event>
<event>
12    1  0.3166324E-008  0.3002781E+03  0.7818608E-02  0.1085102E+00
          2   -1    0    0  501    0  0.00000000000E+00  0.00000000000E+00  0.21271090351E+04  0.21271090351E+04  0.00000000000E+00 0. -1.
         -2   -1    0    0    0  501 -0.00000000000E+00 -0.00000000000E+00 -0.76640146224E+02  0.76640146224E+02  0.00000000000E+00 0.  1.
         23    2    1    2    0    0 -0.10507403071E+03 -0.82496448724E+02  0.72968747227E+03  0.74692668687E+03  0.87232175185E+02 0.  0.
    5000000    2    1    2    0    0  0.10507403071E+03  0.82496448724E+02  0.13207814166E+04  0.14568224944E+04  0.60001834464E+03 0.  0.
         23    2    4    4    0    0  0.19837719261E+03 -0.97696199540E+02  0.11554373585E+04  0.11797262449E+04  0.88433396806E+02 0.  0.
         23    2    4    4    0    0 -0.93303161900E+02  0.18019264826E+03  0.16534405808E+03  0.27709624947E+03  0.90932961130E+02 0.  0.
          4    1    3    3  502    0 -0.51512484087E+02 -0.68432708973E+02  0.59750215319E+03  0.60361030039E+03  0.00000000000E+00 0. -1.
         -4    1    3    3    0  502 -0.53561546619E+02 -0.14063739750E+02  0.13218531908E+03  0.14331638647E+03  0.00000000000E+00 0.  1.
         11    1    5    5    0    0  0.52055396585E+02  0.13818260855E+02  0.28839252133E+03  0.29337851831E+03  0.00000000000E+00 0. -1.
        -11    1    5    5    0    0  0.14632179602E+03 -0.11151446040E+03  0.86704483716E+03  0.88634772664E+03  0.00000000000E+00 0.  1.
          5    1    6    6  503    0  0.22613748918E+00  0.94935205458E+02  0.81550250692E+02  0.12524087895E+03  0.47000000000E+01 0. -1.
         -5    1    6    6    0  503 -0.93529299389E+02  0.85257442806E+02  0.83793807384E+02  0.15185537051E+03  0.47000000000E+01 0.  1.
<mgrwt>
<rscale>  0 0.30027814E+03</rscale>
<asrwt>0</asrwt>
<pdfrwt beam="1">  1        2 0.32724750E+00 0.30027814E+03</pdfrwt>
<pdfrwt beam="2">  1       -2 0.11790793E-01 0.30027814E+03</pdfrwt>
<totfact> 0.32279375E+02</totfact>
</mgrwt>
</event>
<event>
12    1  0.5873671E-008  0.8568784E+03  0.7818608E-02  0.9481151E-01
          2   -1    0    0  501    0  0.00000000000E+00  0.00000000000E+00  0.13994937226E+04  0.13994937226E+04  0.00000000000E+00 0. -1.
         -2   -1    0    0    0  501 -0.00000000000E+00 -0.00000000000E+00 -0.77816854676E+03  0.77816854676E+03  0.00000000000E+00 0.  1.
         23    2    1    2    0    0  0.78408056372E+03  0.26314002435E+03 -0.21269521031E+03  0.85874208888E+03  0.90408627378E+02 0.  0.
    5000000    2    1    2    0    0 -0.78408056372E+03 -0.26314002435E+03  0.83402038615E+03  0.13189201805E+04  0.59994619358E+03 0.  0.
         23    2    4    4    0    0 -0.26074660025E+03  0.36724585163E+02 -0.84263288486E+01  0.27903109574E+03  0.91923145498E+02 0.  0.
         23    2    4    4    0    0 -0.52333396347E+03 -0.29986460952E+03  0.84244671500E+03  0.10398890848E+04  0.88631933347E+02 0.  0.
          4    1    3    3  502    0  0.36118443769E+03  0.16405664558E+03 -0.12191259027E+03  0.41500778385E+03  0.00000000000E+00 0.  1.
         -4    1    3    3    0  502  0.42289612603E+03  0.99083378777E+02 -0.90782620033E+02  0.44373430503E+03  0.00000000000E+00 0. -1.
         11    1    5    5    0    0 -0.11485220747E+03 -0.20161217364E+02 -0.31401122823E+02  0.12076230687E+03  0.00000000000E+00 0.  1.
        -11    1    5    5    0    0 -0.14589439278E+03  0.56885802527E+02  0.22974793975E+02  0.15826878887E+03  0.00000000000E+00 0. -1.
          5    1    6    6  503    0 -0.18320542315E+03 -0.15405990043E+03  0.34116225535E+03  0.41678826096E+03  0.47000000000E+01 0. -1.
         -5    1    6    6    0  503 -0.34012854032E+03 -0.14580470909E+03  0.50128445965E+03  0.62310082380E+03  0.47000000000E+01 0.  1.
<mgrwt>
<rscale>  0 0.85687837E+03</rscale>
<asrwt>0</asrwt>
<pdfrwt beam="1">  1        2 0.21530673E+00 0.85687837E+03</pdfrwt>
<pdfrwt beam="2">  1       -2 0.11971824E+00 0.85687837E+03</pdfrwt>
<totfact> 0.78055339E+00</totfact>
</mgrwt>
</event>
<event>
12    1  0.3166324E-008  0.8692364E+03  0.7818608E-02  0.9464876E-01
         -2   -1    0    0    0  501 -0.00000000000E+00  0.00000000000E+00  0.22357896535E+03  0.22357896535E+03  0.00000000000E+00 0.  1.
          2   -1    0    0  501    0  0.00000000000E+00 -0.00000000000E+00 -0.34504861606E+04  0.34504861606E+04  0.00000000000E+00 0. -1.
         23    2    1    2    0    0 -0.45579779086E+03 -0.61355722612E+03 -0.16518689638E+04  0.18233602953E+04  0.10847855580E+03 0.  0.
    5000000    2    1    2    0    0  0.45579779086E+03  0.61355722612E+03 -0.15750382315E+04  0.18507048307E+04  0.60013235520E+03 0.  0.
         23    2    4    4    0    0  0.29505816750E+03 -0.19058683149E+02 -0.44618019867E+03  0.54358578511E+03  0.94795466520E+02 0.  0.
         23    2    4    4    0    0  0.16073962336E+03  0.63261590927E+03 -0.11288580328E+04  0.13071190456E+04  0.90551785464E+02 0.  0.
          3    1    3    3  502    0 -0.29210416592E+03 -0.30817016432E+03 -0.95294823282E+03  0.10432660391E+04  0.00000000000E+00 0. -1.
         -3    1    3    3    0  502 -0.16369362493E+03 -0.30538706181E+03 -0.69892073096E+03  0.78009425619E+03  0.00000000000E+00 0.  1.
         11    1    5    5    0    0  0.12986291318E+03  0.38682653970E+02 -0.19474238565E+03  0.23724527541E+03  0.00000000000E+00 0. -1.
        -11    1    5    5    0    0  0.16519525432E+03 -0.57741337119E+02 -0.25143781302E+03  0.30634050970E+03  0.00000000000E+00 0.  1.
          5    1    6    6  503    0  0.15310737875E+03  0.47684533321E+03 -0.81445381172E+03  0.95612783803E+03  0.47000000000E+01 0. -1.
         -5    1    6    6    0  503  0.76322446036E+01  0.15577057606E+03 -0.31440422111E+03  0.35099120755E+03  0.47000000000E+01 0.  1.
<mgrwt>
<rscale>  0 0.86923640E+03</rscale>
<asrwt>0</asrwt>
<pdfrwt beam="1">  1        2 0.53084402E+00 0.86923640E+03</pdfrwt>
<pdfrwt beam="2">  1       -2 0.34396764E-01 0.86923640E+03</pdfrwt>
<totfact> 0.73635376E+00</totfact>
</mgrwt>
</event>
<event>
12    1  0.3166324E-008  0.2985176E+03  0.7818608E-02  0.1085984E+00
          2   -1    0    0  501    0  0.00000000000E+00  0.00000000000E+00  0.11630068300E+04  0.11630068300E+04  0.00000000000E+00 0. -1.
         -2   -1    0    0    0  501 -0.00000000000E+00 -0.00000000000E+00 -0.18155926257E+03  0.18155926257E+03  0.00000000000E+00 0.  1.
         23    2    1    2    0    0  0.13732710014E+03 -0.21241505166E+03  0.28945533176E+03  0.39443752705E+03  0.88417685196E+02 0.  0.
    5000000    2    1    2    0    0 -0.13732710014E+03  0.21241505166E+03  0.69199223566E+03  0.95012856550E+03  0.59992678735E+03 0.  0.
         23    2    4    4    0    0 -0.10928753459E+03  0.32473106478E+02 -0.69669819195E+02  0.16185732430E+03  0.91354484632E+02 0.  0.
         23    2    4    4    0    0 -0.28039565547E+02  0.17994194518E+03  0.76166205485E+03  0.78827124120E+03  0.89872927137E+02 0.  0.
          2    1    3    3  502    0  0.10301657853E+03 -0.83057489986E+02  0.16667597426E+03  0.21281880202E+03  0.00000000000E+00 0. -1.
         -2    1    3    3    0  502  0.34310521611E+02 -0.12935756167E+03  0.12277935750E+03  0.18161872504E+03  0.00000000000E+00 0.  1.
         13    1    5    5    0    0 -0.29001152358E+02 -0.23888059814E+02 -0.48764129826E+02  0.61560105567E+02  0.00000000000E+00 0.  1.
        -13    1    5    5    0    0 -0.80286382235E+02  0.56361166292E+02 -0.20905689369E+02  0.10029721874E+03  0.00000000000E+00 0. -1.
          5    1    6    6  503    0 -0.51516373441E+02  0.12182734185E+03  0.40399143741E+03  0.42511999419E+03  0.47000000000E+01 0. -1.
         -5    1    6    6    0  503  0.23476807894E+02  0.58114603337E+02  0.35767061744E+03  0.36315124701E+03  0.47000000000E+01 0.  1.
<mgrwt>
<rscale>  0 0.29851758E+03</rscale>
<asrwt>0</asrwt>
<pdfrwt beam="1">  1        2 0.17892412E+00 0.29851758E+03</pdfrwt>
<pdfrwt beam="2">  1       -2 0.27932195E-01 0.29851758E+03</pdfrwt>
<totfact> 0.24557183E+02</totfact>
</mgrwt>
</event>
<event>
12    1  0.3166324E-008  0.8556456E+03  0.7818608E-02  0.9482791E-01
          2   -1    0    0  501    0  0.00000000000E+00  0.00000000000E+00  0.58127361663E+03  0.58127361663E+03  0.00000000000E+00 0.  1.
         -2   -1    0    0    0  501 -0.00000000000E+00 -0.00000000000E+00 -0.21874606473E+04  0.21874606473E+04  0.00000000000E+00 0. -1.
         23    2    1    2    0    0 -0.52250851962E+03 -0.57964136758E+03 -0.16020167635E+04  0.17843289782E+04  0.91503682883E+02 0.  0.
    5000000    2    1    2    0    0  0.52250851962E+03  0.57964136758E+03 -0.41702672209E+01  0.98440528572E+03  0.60003092199E+03 0.  0.
         23    2    4    4    0    0  0.23613268753E+03  0.57946054841E+03 -0.14964257244E+03  0.65070861675E+03  0.97445529063E+02 0.  0.
         23    2    4    4    0    0  0.28637583209E+03  0.18081917332E+00  0.14547230522E+03  0.33369666898E+03  0.90444045684E+02 0.  0.
          4    1    3    3  502    0 -0.44613899734E+03 -0.44357186629E+03 -0.13101006127E+04  0.14533270867E+04  0.00000000000E+00 0. -1.
         -4    1    3    3    0  502 -0.76369522281E+02 -0.13606950129E+03 -0.29191615082E+03  0.33100189157E+03  0.00000000000E+00 0.  1.
         13    1    5    5    0    0  0.11009421121E+03  0.35395857072E+03 -0.12503401277E+03  0.39120443438E+03  0.00000000000E+00 0. -1.
        -13    1    5    5    0    0  0.12603847633E+03  0.22550197768E+03 -0.24608559672E+02  0.25950418236E+03  0.00000000000E+00 0.  1.
          5    1    6    6  503    0  0.56692436575E+02 -0.31789925784E+02  0.52995740967E+02  0.83995656476E+02  0.47000000000E+01 0. -1.
         -5    1    6    6    0  503  0.22968339551E+03  0.31970744957E+02  0.92476564256E+02  0.24970101250E+03  0.47000000000E+01 0.  1.
<mgrwt>
<rscale>  0 0.85564562E+03</rscale>
<asrwt>0</asrwt>
<pdfrwt beam="1">  1        2 0.89426709E-01 0.85564562E+03</pdfrwt>
<pdfrwt beam="2">  1       -2 0.33653241E+00 0.85564562E+03</pdfrwt>
<totfact> 0.10061464E+00</totfact>
</mgrwt>
</event>
<event>
12    1  0.3166324E-008  0.4283820E+03  0.7818608E-02  0.1034372E+00
         -2   -1    0    0    0  501 -0.00000000000E+00  0.00000000000E+00  0.36052419969E+03  0.36052419969E+03  0.00000000000E+00 0.  1.
          2   -1    0    0  501    0  0.00000000000E+00 -0.00000000000E+00 -0.98565859174E+03  0.98565859174E+03  0.00000000000E+00 0. -1.
         23    2    1    2    0    0  0.19713245730E+03 -0.30857289809E+03 -0.50907415020E+03  0.63371492491E+03  0.91431266459E+02 0.  0.
    5000000    2    1    2    0    0 -0.19713245730E+03  0.30857289809E+03 -0.11606024185E+03  0.71246786653E+03  0.60005169939E+03 0.  0.
         23    2    4    4    0    0 -0.34723735682E+02  0.30374138637E+03  0.17661214894E+03  0.36505513049E+03  0.92783778371E+02 0.  0.
         23    2    4    4    0    0 -0.16240872162E+03  0.48315117200E+01 -0.29267239079E+03  0.34741273603E+03  0.92943770439E+02 0.  0.
          2    1    3    3  502    0  0.77399750657E+02 -0.50518594604E+02 -0.11109529402E+03  0.14451648403E+03  0.00000000000E+00 0. -1.
         -2    1    3    3    0  502  0.11973270664E+03 -0.25805430349E+03 -0.39797885618E+03  0.48919844088E+03  0.00000000000E+00 0.  1.
         13    1    5    5    0    0  0.85820780981E+01  0.14707210457E+03  0.12863481980E+03  0.19557804803E+03  0.00000000000E+00 0. -1.
        -13    1    5    5    0    0 -0.43305813780E+02  0.15666928180E+03  0.47977329146E+02  0.16947708246E+03  0.00000000000E+00 0.  1.
          5    1    6    6  503    0 -0.53505691503E+02 -0.21494751518E+02 -0.38197405988E+02  0.69325429607E+02  0.47000000000E+01 0. -1.
         -5    1    6    6    0  503 -0.10890303012E+03  0.26326263238E+02 -0.25447498480E+03  0.27808730643E+03  0.47000000000E+01 0.  1.
<mgrwt>
<rscale>  0 0.42838200E+03</rscale>
<asrwt>0</asrwt>
<pdfrwt beam="1">  1        2 0.15163978E+00 0.42838200E+03</pdfrwt>
<pdfrwt beam="2">  1       -2 0.55465262E-01 0.42838200E+03</pdfrwt>
<totfact> 0.82341234E+01</totfact>
</mgrwt>
</event>
<event>
12    1  0.3166324E-008  0.9367938E+03  0.7818608E-02  0.9380721E-01
          2   -1    0    0  501    0  0.00000000000E+00  0.00000000000E+00  0.12408475705E+04  0.12408475705E+04  0.00000000000E+00 0. -1.
         -2   -1    0    0    0  501 -0.00000000000E+00 -0.00000000000E+00 -0.21592819728E+04  0.21592819728E+04  0.00000000000E+00 0.  1.
         23    2    1    2    0    0 -0.58315984797E+03 -0.63350363524E+03 -0.18203535653E+04  0.20162893882E+04  0.10165397269E+03 0.  0.
    5000000    2    1    2    0    0  0.58315984797E+03  0.63350363524E+03  0.90191916298E+03  0.13838401550E+04  0.60012759810E+03 0.  0.
         23    2    4    4    0    0  0.11761540276E+03  0.51277589733E+03  0.31339554594E+03  0.61844049288E+03  0.86483357757E+02 0.  0.
         23    2    4    4    0    0  0.46554444521E+03  0.12072773792E+03  0.58852361704E+03  0.76539966216E+03  0.90386823488E+02 0.  0.
          4    1    3    3  502    0 -0.46346082811E+03 -0.52929687317E+03 -0.13965824176E+04  0.15637754213E+04  0.00000000000E+00 0. -1.
         -4    1    3    3    0  502 -0.11969901985E+03 -0.10420676207E+03 -0.42377114774E+03  0.45251396694E+03  0.00000000000E+00 0.  1.
         11    1    5    5    0    0  0.35223936612E+02  0.15433099829E+03  0.49817547221E+02  0.16595351986E+03  0.00000000000E+00 0. -1.
        -11    1    5    5    0    0  0.82391466147E+02  0.35844489904E+03  0.26357799872E+03  0.45248697302E+03  0.00000000000E+00 0.  1.
          5    1    6    6  503    0  0.43304341162E+03  0.12808088799E+03  0.51777206973E+03  0.68705263002E+03  0.47000000000E+01 0. -1.
         -5    1    6    6    0  503  0.32501033586E+02 -0.73531500674E+01  0.70751547307E+02  0.78347032148E+02  0.47000000000E+01 0.  1.
<mgrwt>
<rscale>  0 0.93679380E+03</rscale>
<asrwt>0</asrwt>
<pdfrwt beam="1">  1        2 0.19089963E+00 0.93679380E+03</pdfrwt>
<pdfrwt beam="2">  1       -2 0.33219723E+00 0.93679380E+03</pdfrwt>
<totfact> 0.36743007E-01</totfact>
</mgrwt>
</event>
<event>
12    1  0.3166324E-008  0.1030509E+04  0.7818608E-02  0.9275702E-01
          2   -1    0    0  501    0  0.00000000000E+00  0.00000000000E+00  0.29518429624E+04  0.29518429624E+04  0.00000000000E+00 0. -1.
         -2   -1    0    0    0  501 -0.00000000000E+00 -0.00000000000E+00 -0.68918143052E+03  0.68918143052E+03  0.00000000000E+00 0.  1.
         23    2    1    2    0    0  0.95789844116E+03  0.30508470404E+03 -0.89648880187E+02  0.10134468104E+04  0.91604669496E+02 0.  0.
    5000000    2    1    2    0    0 -0.95789844116E+03 -0.30508470404E+03  0.23523104121E+04  0.26275775826E+04  0.60012796753E+03 0.  0.
         23    2    4    4    0    0 -0.53388039896E+03 -0.11325630545E+02  0.17379017678E+04  0.18203490666E+04  0.90617985653E+02 0.  0.
         23    2    4    4    0    0 -0.42401804220E+03 -0.29375907350E+03  0.61440864423E+03  0.80722851596E+03  0.89633707345E+02 0.  0.
          1    1    3    3  502    0  0.37523293701E+03  0.98950591328E+02 -0.74866557249E+02  0.39521636851E+03  0.00000000000E+00 0. -1.
         -1    1    3    3    0  502  0.58266550415E+03  0.20613411272E+03 -0.14782322938E+02  0.61823044185E+03  0.00000000000E+00 0.  1.
         13    1    5    5    0    0 -0.51048764932E+03 -0.19105748112E+01  0.15793200666E+04  0.16597750339E+04  0.00000000000E+00 0. -1.
        -13    1    5    5    0    0 -0.23392749642E+02 -0.94150557341E+01  0.15858170119E+03  0.16057403265E+03  0.00000000000E+00 0.  1.
          5    1    6    6  503    0 -0.20467946877E+03 -0.17718390637E+03  0.26820636698E+03  0.38110965207E+03  0.47000000000E+01 0. -1.
         -5    1    6    6    0  503 -0.21933857343E+03 -0.11657516713E+03  0.34620227725E+03  0.42611886389E+03  0.47000000000E+01 0.  1.
<mgrwt>
<rscale>  0 0.10305087E+04</rscale>
<asrwt>0</asrwt>
<pdfrwt beam="1">  1        2 0.45412968E+00 0.10305087E+04</pdfrwt>
<pdfrwt beam="2">  1       -2 0.10602791E+00 0.10305087E+04</pdfrwt>
<totfact> 0.13573163E+00</totfact>
</mgrwt>
</event>
<event>
12    1  0.3166324E-008  0.7941106E+03  0.7818608E-02  0.9568581E-01
         -2   -1    0    0    0  501 -0.00000000000E+00  0.00000000000E+00  0.40662003461E+03  0.40662003461E+03  0.00000000000E+00 0.  1.
          2   -1    0    0  501    0  0.00000000000E+00 -0.00000000000E+00 -0.25548554930E+04  0.25548554930E+04  0.00000000000E+00 0. -1.
         23    2    1    2    0    0 -0.70135746639E+03 -0.33950990743E+03 -0.25131211631E+03  0.82475181665E+03  0.99440969246E+02 0.  0.
    5000000    2    1    2    0    0  0.70135746639E+03  0.33950990743E+03 -0.18969233421E+04  0.21367237110E+04  0.60008397607E+03 0.  0.
         23    2    4    4    0    0  0.16252586392E+03  0.42667084189E+02 -0.65002638152E+02  0.20202429861E+03  0.91396595925E+02 0.  0.
         23    2    4    4    0    0  0.53883160246E+03  0.29684282324E+03 -0.18319207040E+04  0.19346994124E+04  0.93129979630E+02 0.  0.
          1    1    3    3  502    0 -0.20039047348E+03 -0.14628732238E+03 -0.92974342418E+02  0.26495386561E+03  0.00000000000E+00 0. -1.
         -1    1    3    3    0  502 -0.50096699290E+03 -0.19322258505E+03 -0.15833777389E+03  0.55979795104E+03  0.00000000000E+00 0.  1.
         11    1    5    5    0    0  0.16296513037E+03  0.22493306472E+02 -0.38927058527E+02  0.16905294567E+03  0.00000000000E+00 0.  1.
        -11    1    5    5    0    0 -0.43926644874E+00  0.20173777717E+02 -0.26075579624E+02  0.32971352947E+02  0.00000000000E+00 0. -1.
          5    1    6    6  503    0  0.44804641124E+03  0.27231449632E+03 -0.14692753180E+04  0.15600297502E+04  0.47000000000E+01 0. -1.
         -5    1    6    6    0  503  0.90785191226E+02  0.24528326925E+02 -0.36264538600E+03  0.37466966217E+03  0.47000000000E+01 0.  1.
<mgrwt>
<rscale>  0 0.79411061E+03</rscale>
<asrwt>0</asrwt>
<pdfrwt beam="1">  1        2 0.39305470E+00 0.79411061E+03</pdfrwt>
<pdfrwt beam="2">  1       -2 0.62556927E-01 0.79411061E+03</pdfrwt>
<totfact> 0.79950579E+00</totfact>
</mgrwt>
</event>
<event>
12    1  0.3166324E-008  0.1300374E+04  0.7818608E-02  0.9029269E-01
         -1   -1    0    0    0  501 -0.00000000000E+00  0.00000000000E+00  0.23199996936E+04  0.23199996936E+04  0.00000000000E+00 0.  1.
          1   -1    0    0  501    0  0.00000000000E+00 -0.00000000000E+00 -0.93205585987E+03  0.93205585987E+03  0.00000000000E+00 0. -1.
         23    2    1    2    0    0  0.21086103355E+02 -0.12320261323E+04 -0.85709254834E+02  0.12396498840E+04  0.10513203269E+03 0.  0.
    5000000    2    1    2    0    0 -0.21086103355E+02  0.12320261323E+04  0.14736530885E+04  0.20124056694E+04  0.59982509004E+03 0.  0.
         23    2    4    4    0    0 -0.28004220498E+03  0.41730392324E+03  0.59258310204E+03  0.78138929614E+03  0.82754446226E+02 0.  0.
         23    2    4    4    0    0  0.25895610162E+03  0.81472220902E+03  0.88106998649E+03  0.12310163733E+04  0.91029938808E+02 0.  0.
          1    1    3    3  502    0  0.37850730341E+02 -0.56673526640E+03  0.48224399679E+01  0.56801830595E+03  0.00000000000E+00 0. -1.
         -1    1    3    3    0  502 -0.16764626986E+02 -0.66529086585E+03 -0.90531694802E+02  0.67163157808E+03  0.00000000000E+00 0.  1.
         11    1    5    5    0    0 -0.61179844286E+02  0.44028036274E+02  0.69475458317E+02  0.10250990505E+03  0.00000000000E+00 0.  1.
        -11    1    5    5    0    0 -0.21886236069E+03  0.37327588696E+03  0.52310764373E+03  0.67887939108E+03  0.00000000000E+00 0. -1.
          5    1    6    6  503    0  0.13513469428E+02  0.14790685798E+03  0.16947477060E+03  0.22539485434E+03  0.47000000000E+01 0. -1.
         -5    1    6    6    0  503  0.24544263219E+03  0.66681535104E+03  0.71159521589E+03  0.10056215189E+04  0.47000000000E+01 0.  1.
<mgrwt>
<rscale>  0 0.13003739E+04</rscale>
<asrwt>0</asrwt>
<pdfrwt beam="1">  1        1 0.14339321E+00 0.13003739E+04</pdfrwt>
<pdfrwt beam="2">  1       -1 0.35692303E+00 0.13003739E+04</pdfrwt>
<totfact> 0.23391005E-01</totfact>
</mgrwt>
</event>
<event>
12    1  0.3166324E-008  0.7707391E+03  0.7818608E-02  0.9603364E-01
          1   -1    0    0  501    0  0.00000000000E+00  0.00000000000E+00  0.25188437999E+04  0.25188437999E+04  0.00000000000E+00 0. -1.
         -1   -1    0    0    0  501 -0.00000000000E+00 -0.00000000000E+00 -0.42998958312E+03  0.42998958312E+03  0.00000000000E+00 0.  1.
         23    2    1    2    0    0 -0.67199227949E+03 -0.28319862580E+03  0.18259074132E+04  0.19682870171E+04  0.91873908343E+02 0.  0.
    5000000    2    1    2    0    0  0.67199227949E+03  0.28319862580E+03  0.26294680367E+03  0.98054636594E+03  0.60046237920E+03 0.  0.
         23    2    4    4    0    0  0.52835022977E+03  0.34453011726E+03 -0.27753719565E+02  0.63812230258E+03  0.92600416348E+02 0.  0.
         23    2    4    4    0    0  0.14364204972E+03 -0.61331491464E+02  0.29070052324E+03  0.34242406335E+03  0.91393953079E+02 0.  0.
          3    1    3    3  502    0 -0.25566264153E+03 -0.13218975618E+03  0.82549403652E+03  0.87422990239E+03  0.00000000000E+00 0. -1.
         -3    1    3    3    0  502 -0.41632963796E+03 -0.15100886962E+03  0.10004133766E+04  0.10940571147E+04  0.00000000000E+00 0.  1.
         13    1    5    5    0    0  0.64345034048E+02  0.59713138104E+02 -0.32637244443E+02  0.93654321810E+02  0.00000000000E+00 0.  1.
        -13    1    5    5    0    0  0.46400519572E+03  0.28481697916E+03  0.48835248776E+01  0.54446798077E+03  0.00000000000E+00 0. -1.
          5    1    6    6  503    0  0.72361168581E+01 -0.39389952275E+02  0.91115595825E+02  0.99639708600E+02  0.47000000000E+01 0. -1.
         -5    1    6    6    0  503  0.13640593287E+03 -0.21941539188E+02  0.19958492741E+03  0.24278435475E+03  0.47000000000E+01 0.  1.
<mgrwt>
<rscale>  0 0.77073905E+03</rscale>
<asrwt>0</asrwt>
<pdfrwt beam="1">  1        1 0.38751442E+00 0.77073905E+03</pdfrwt>
<pdfrwt beam="2">  1       -1 0.66152245E-01 0.77073905E+03</pdfrwt>
<totfact> 0.32197402E+00</totfact>
</mgrwt>
</event>
<event>
12    1  0.3166324E-008  0.4475861E+03  0.7818608E-02  0.1028444E+00
          2   -1    0    0  501    0  0.00000000000E+00  0.00000000000E+00  0.18320095776E+04  0.18320095776E+04  0.00000000000E+00 0. -1.
         -2   -1    0    0    0  501 -0.00000000000E+00 -0.00000000000E+00 -0.20008303036E+03  0.20008303036E+03  0.00000000000E+00 0.  1.
         23    2    1    2    0    0 -0.26055300059E+03 -0.33877832574E+03  0.86287886994E+03  0.96717681774E+03  0.90622472327E+02 0.  0.
    5000000    2    1    2    0    0  0.26055300059E+03  0.33877832574E+03  0.76904767726E+03  0.10649157902E+04  0.59996057384E+03 0.  0.
         23    2    4    4    0    0  0.14764990160E+03  0.14669204637E+03 -0.31847626121E+02  0.22846588570E+03  0.88675474214E+02 0.  0.
         23    2    4    4    0    0  0.11290309898E+03  0.19208627936E+03  0.80089530338E+03  0.83644990447E+03  0.92579194381E+02 0.  0.
          1    1    3    3  502    0 -0.41421749727E+02 -0.12061495836E+03  0.26336338299E+03  0.29261579081E+03  0.00000000000E+00 0.  1.
         -1    1    3    3    0  502 -0.21913125086E+03 -0.21816336738E+03  0.59951548695E+03  0.67456102693E+03  0.00000000000E+00 0. -1.
         13    1    5    5    0    0  0.84515524819E+02  0.13854596722E+03 -0.28043708800E+02  0.16469459181E+03  0.00000000000E+00 0. -1.
        -13    1    5    5    0    0  0.63134376786E+02  0.81460791535E+01 -0.38039173213E+01  0.63771293892E+02  0.00000000000E+00 0.  1.
          5    1    6    6  503    0  0.54158137955E+02  0.15141117140E+03  0.64716488790E+03  0.66686050180E+03  0.47000000000E+01 0. -1.
         -5    1    6    6    0  503  0.58744961028E+02  0.40675107969E+02  0.15373041548E+03  0.16958940267E+03  0.47000000000E+01 0.  1.
<mgrwt>
<rscale>  0 0.44758614E+03</rscale>
<asrwt>0</asrwt>
<pdfrwt beam="1">  1        2 0.28184762E+00 0.44758614E+03</pdfrwt>
<pdfrwt beam="2">  1       -2 0.30782006E-01 0.44758614E+03</pdfrwt>
<totfact> 0.86302846E+01</totfact>
</mgrwt>
</event>
<event>
12    1  0.3166324E-008  0.5815245E+03  0.7818608E-02  0.9944496E-01
          2   -1    0    0  501    0  0.00000000000E+00  0.00000000000E+00  0.10214854285E+04  0.10214854285E+04  0.00000000000E+00 0. -1.
         -2   -1    0    0    0  501 -0.00000000000E+00 -0.00000000000E+00 -0.39293388011E+03  0.39293388011E+03  0.00000000000E+00 0.  1.
         23    2    1    2    0    0  0.69561532958E+01 -0.43490068904E+03  0.48877535809E+03  0.66025842735E+03  0.88616267222E+02 0.  0.
    5000000    2    1    2    0    0 -0.69561532958E+01  0.43490068904E+03  0.13977619033E+03  0.75416088128E+03  0.60002854439E+03 0.  0.
         23    2    4    4    0    0  0.27070693922E+03  0.31426385295E+03  0.99036783462E+02  0.43562417931E+03  0.88972607631E+02 0.  0.
         23    2    4    4    0    0 -0.27766309251E+03  0.12063683609E+03  0.40739406870E+02  0.31853670197E+03  0.90309977666E+02 0.  0.
          4    1    3    3  502    0 -0.87348279680E+01 -0.37095718925E+03  0.45215667991E+03  0.58491982071E+03  0.00000000000E+00 0. -1.
         -4    1    3    3    0  502  0.15690981264E+02 -0.63943499790E+02  0.36618678177E+02  0.75338606636E+02  0.00000000000E+00 0.  1.
         13    1    5    5    0    0  0.21368906352E+03  0.19179958776E+03  0.86850397647E+02  0.29998848196E+03  0.00000000000E+00 0. -1.
        -13    1    5    5    0    0  0.57017875693E+02  0.12246426519E+03  0.12186385815E+02  0.13563569735E+03  0.00000000000E+00 0.  1.
          5    1    6    6  503    0 -0.21157957972E+03  0.80287550134E+02 -0.87589538034E+01  0.22651891429E+03  0.47000000000E+01 0. -1.
         -5    1    6    6    0  503 -0.66083512796E+02  0.40349285953E+02  0.49498360673E+02  0.92017787681E+02  0.47000000000E+01 0.  1.
<mgrwt>
<rscale>  0 0.58152449E+03</rscale>
<asrwt>0</asrwt>
<pdfrwt beam="1">  1        2 0.15715160E+00 0.58152449E+03</pdfrwt>
<pdfrwt beam="2">  1       -2 0.60451367E-01 0.58152449E+03</pdfrwt>
<totfact> 0.64160112E+01</totfact>
</mgrwt>
</event>
<event>
12    1  0.3166324E-008  0.7694537E+03  0.7818608E-02  0.9605315E-01
         -1   -1    0    0    0  501 -0.00000000000E+00  0.00000000000E+00  0.98431509234E+03  0.98431509234E+03  0.00000000000E+00 0.  1.
          1   -1    0    0  501    0  0.00000000000E+00 -0.00000000000E+00 -0.76534346572E+03  0.76534346572E+03  0.00000000000E+00 0. -1.
         23    2    1    2    0    0 -0.63911243521E+03 -0.26499099097E+03 -0.22335748675E+03  0.73271738300E+03  0.91111285425E+02 0.  0.
    5000000    2    1    2    0    0  0.63911243521E+03  0.26499099097E+03  0.44232911337E+03  0.10169411750E+04  0.59985779884E+03 0.  0.
         23    2    4    4    0    0  0.15789930525E+03 -0.13981734866E+03 -0.21716511953E+02  0.23058751698E+03  0.90652713752E+02 0.  0.
         23    2    4    4    0    0  0.48121312996E+03  0.40480833963E+03  0.46404562533E+03  0.78635365807E+03  0.87050932711E+02 0.  0.
          3    1    3    3  502    0 -0.39037716476E+03 -0.20646480290E+03 -0.12558387998E+03  0.45912237640E+03  0.00000000000E+00 0. -1.
         -3    1    3    3    0  502 -0.24873527045E+03 -0.58526188070E+02 -0.97773606774E+02  0.27359500660E+03  0.00000000000E+00 0.  1.
         13    1    5    5    0    0  0.35927807425E+02 -0.41911974141E+02  0.33674652812E+02  0.64663770109E+02  0.00000000000E+00 0.  1.
        -13    1    5    5    0    0  0.12197149782E+03 -0.97905374523E+02 -0.55391164765E+02  0.16592374687E+03  0.00000000000E+00 0. -1.
          5    1    6    6  503    0  0.41537790022E+03  0.33107213982E+03  0.35394954682E+03  0.63831805039E+03  0.47000000000E+01 0. -1.
         -5    1    6    6    0  503  0.65835229740E+02  0.73736199810E+02  0.11009607851E+03  0.14803560768E+03  0.47000000000E+01 0.  1.
<mgrwt>
<rscale>  0 0.76945370E+03</rscale>
<asrwt>0</asrwt>
<pdfrwt beam="1">  1        1 0.11774515E+00 0.76945370E+03</pdfrwt>
<pdfrwt beam="2">  1       -1 0.15143309E+00 0.76945370E+03</pdfrwt>
<totfact> 0.83052078E+00</totfact>
</mgrwt>
</event>
<event>
12    1  0.3166324E-008  0.8521653E+03  0.7818608E-02  0.9487435E-01
          2   -1    0    0  501    0  0.00000000000E+00  0.00000000000E+00  0.10038882675E+04  0.10038882675E+04  0.00000000000E+00 0. -1.
         -2   -1    0    0    0  501 -0.00000000000E+00 -0.00000000000E+00 -0.11089588930E+04  0.11089588930E+04  0.00000000000E+00 0.  1.
         23    2    1    2    0    0  0.29838082207E+03  0.69532316072E+03 -0.65355323954E+03  0.10023043346E+04  0.70545938562E+02 0.  0.
    5000000    2    1    2    0    0 -0.29838082207E+03 -0.69532316072E+03  0.54848261404E+03  0.11105428258E+04  0.59997231372E+03 0.  0.
         23    2    4    4    0    0  0.29104704583E+02 -0.60654747042E+03  0.35122545137E+03  0.70707048636E+03  0.88557536594E+02 0.  0.
         23    2    4    4    0    0 -0.32748552665E+03 -0.88775690299E+02  0.19725716267E+03  0.40347233945E+03  0.93550238475E+02 0.  0.
          3    1    3    3  502    0  0.13706073037E+03  0.33084533652E+03 -0.35552177345E+03  0.50461867970E+03  0.00000000000E+00 0. -1.
         -3    1    3    3    0  502  0.16132009170E+03  0.36447782420E+03 -0.29803146609E+03  0.49768565491E+03  0.00000000000E+00 0.  1.
         11    1    5    5    0    0 -0.74403770407E+01 -0.14126267055E+03  0.43346644866E+02  0.14795077871E+03  0.00000000000E+00 0.  1.
        -11    1    5    5    0    0  0.36545081623E+02 -0.46528479987E+03  0.30787880650E+03  0.55911970765E+03  0.00000000000E+00 0. -1.
          5    1    6    6  503    0 -0.21155860349E+03 -0.58763346167E+02  0.17670653085E+03  0.28188199944E+03  0.47000000000E+01 0. -1.
         -5    1    6    6    0  503 -0.11592692317E+03 -0.30012344132E+02  0.20550631818E+02  0.12159034001E+03  0.47000000000E+01 0.  1.
<mgrwt>
<rscale>  0 0.85216535E+03</rscale>
<asrwt>0</asrwt>
<pdfrwt beam="1">  1        2 0.15444435E+00 0.85216535E+03</pdfrwt>
<pdfrwt beam="2">  1       -2 0.17060906E+00 0.85216535E+03</pdfrwt>
<totfact> 0.53229520E+00</totfact>
</mgrwt>
</event>
<event>
12    1  0.3166324E-008  0.7138369E+03  0.7818608E-02  0.9693857E-01
         -2   -1    0    0    0  501 -0.00000000000E+00  0.00000000000E+00  0.41295262344E+03  0.41295262344E+03  0.00000000000E+00 0.  1.
          2   -1    0    0  501    0  0.00000000000E+00 -0.00000000000E+00 -0.14337841478E+04  0.14337841478E+04  0.00000000000E+00 0. -1.
         23    2    1    2    0    0  0.34800632595E+03 -0.53847120039E+03 -0.55290913865E+03  0.85169222966E+03  0.92798178414E+02 0.  0.
    5000000    2    1    2    0    0 -0.34800632595E+03  0.53847120039E+03 -0.46792238573E+03  0.99504454160E+03  0.60008553070E+03 0.  0.
         23    2    4    4    0    0  0.70160157466E+02  0.28262655700E+02  0.71198371437E+02  0.13832634859E+03  0.91344103341E+02 0.  0.
         23    2    4    4    0    0 -0.41816648342E+03  0.51020854469E+03 -0.53912075717E+03  0.85671819302E+03  0.90215877238E+02 0.  0.
          4    1    3    3  502    0  0.27691555074E+03 -0.35563475898E+03 -0.40577741812E+03  0.60647639451E+03  0.00000000000E+00 0. -1.
         -4    1    3    3    0  502  0.71090775216E+02 -0.18283644140E+03 -0.14713172053E+03  0.24521583516E+03  0.00000000000E+00 0.  1.
         13    1    5    5    0    0  0.90067341555E+02  0.91437530290E+01  0.49232485474E+02  0.10305130693E+03  0.00000000000E+00 0. -1.
        -13    1    5    5    0    0 -0.19907184089E+02  0.19118902671E+02  0.21965885963E+02  0.35275041656E+02  0.00000000000E+00 0.  1.
          5    1    6    6  503    0 -0.27152198012E+03  0.37588544894E+03 -0.41461131131E+03  0.62204395816E+03  0.47000000000E+01 0. -1.
         -5    1    6    6    0  503 -0.14664450329E+03  0.13432309574E+03 -0.12450944586E+03  0.23467423486E+03  0.47000000000E+01 0.  1.
<mgrwt>
<rscale>  0 0.71383693E+03</rscale>
<asrwt>0</asrwt>
<pdfrwt beam="1">  1        2 0.22058217E+00 0.71383693E+03</pdfrwt>
<pdfrwt beam="2">  1       -2 0.63531174E-01 0.71383693E+03</pdfrwt>
<totfact> 0.32569569E+01</totfact>
</mgrwt>
</event>
<event>
12    1  0.3166324E-008  0.5013928E+03  0.7818608E-02  0.1013416E+00
          2   -1    0    0  501    0  0.00000000000E+00  0.00000000000E+00  0.39553683651E+04  0.39553683651E+04  0.00000000000E+00 0. -1.
         -2   -1    0    0    0  501 -0.00000000000E+00 -0.00000000000E+00 -0.79393579189E+02  0.79393579189E+02  0.00000000000E+00 0.  1.
         23    2    1    2    0    0  0.37632794664E+03  0.10549836835E+03  0.15565181544E+04  0.16072810486E+04  0.88605729250E+02 0.  0.
    5000000    2    1    2    0    0 -0.37632794664E+03 -0.10549836835E+03  0.23194566315E+04  0.24274808956E+04  0.60002650278E+03 0.  0.
         23    2    4    4    0    0 -0.44060834857E+03  0.38401111765E+02  0.10154097888E+04  0.11108197507E+04  0.85165235040E+02 0.  0.
         23    2    4    4    0    0  0.64280401928E+02 -0.14389948011E+03  0.13040468427E+04  0.13166611449E+04  0.90660752185E+02 0.  0.
          2    1    3    3  502    0  0.31508941945E+03  0.11736080082E+03  0.12466896481E+04  0.12912358338E+04  0.00000000000E+00 0. -1.
         -2    1    3    3    0  502  0.61238527189E+02 -0.11862432477E+02  0.30982850631E+03  0.31604521487E+03  0.00000000000E+00 0.  1.
         13    1    5    5    0    0 -0.12712518682E+03 -0.25581827422E+01  0.20883031699E+03  0.24449429178E+03  0.00000000000E+00 0. -1.
        -13    1    5    5    0    0 -0.31348316175E+03  0.40959294508E+02  0.80657947179E+03  0.86632545895E+03  0.00000000000E+00 0.  1.
          5    1    6    6  503    0  0.56293925327E+02 -0.90553157341E+02  0.52521227715E+03  0.53594673840E+03  0.47000000000E+01 0. -1.
         -5    1    6    6    0  503  0.79864766018E+01 -0.53346322772E+02  0.77883456559E+03  0.78071440650E+03  0.47000000000E+01 0.  1.
<mgrwt>
<rscale>  0 0.50139278E+03</rscale>
<asrwt>0</asrwt>
<pdfrwt beam="1">  1        2 0.60851806E+00 0.50139278E+03</pdfrwt>
<pdfrwt beam="2">  1       -2 0.12214400E-01 0.50139278E+03</pdfrwt>
<totfact> 0.21345570E+01</totfact>
</mgrwt>
</event>
<event>
12    1  0.3166324E-008  0.7152456E+03  0.7818608E-02  0.9691510E-01
         -1   -1    0    0    0  501 -0.00000000000E+00  0.00000000000E+00  0.75501003089E+03  0.75501003089E+03  0.00000000000E+00 0.  1.
          1   -1    0    0  501    0  0.00000000000E+00 -0.00000000000E+00 -0.93895773573E+03  0.93895773573E+03  0.00000000000E+00 0. -1.
         23    2    1    2    0    0 -0.36087988539E+03 -0.56560687982E+03  0.21325103301E+03  0.71008207961E+03  0.92709883647E+02 0.  0.
    5000000    2    1    2    0    0  0.36087988539E+03  0.56560687982E+03 -0.39719873785E+03  0.98388568701E+03  0.60009896981E+03 0.  0.
         23    2    4    4    0    0  0.31263067694E+03  0.56928898234E+03 -0.51008169826E+03  0.83086903990E+03  0.91280540072E+02 0.  0.
         23    2    4    4    0    0  0.48249208453E+02 -0.36821025163E+01  0.11288296041E+03  0.15301664710E+03  0.91268765435E+02 0.  0.
          3    1    3    3  502    0 -0.24885224343E+03 -0.30828159389E+03  0.11188017559E+03  0.41168210294E+03  0.00000000000E+00 0. -1.
         -3    1    3    3    0  502 -0.11202764196E+03 -0.25732528593E+03  0.10137085742E+03  0.29839997667E+03  0.00000000000E+00 0.  1.
         11    1    5    5    0    0  0.20394163031E+03  0.40344872419E+03 -0.40247958575E+03  0.60527091337E+03  0.00000000000E+00 0.  1.
        -11    1    5    5    0    0  0.10868904663E+03  0.16584025815E+03 -0.10760211251E+03  0.22559812653E+03  0.00000000000E+00 0. -1.
          5    1    6    6  503    0  0.38162761318E+02  0.41613419700E+02  0.61391046714E+02  0.83540551035E+02  0.47000000000E+01 0. -1.
         -5    1    6    6    0  503  0.10086447136E+02 -0.45295522216E+02  0.51491913697E+02  0.69476096068E+02  0.47000000000E+01 0.  1.
<mgrwt>
<rscale>  0 0.71524557E+03</rscale>
<asrwt>0</asrwt>
<pdfrwt beam="1">  1        1 0.14445504E+00 0.71524557E+03</pdfrwt>
<pdfrwt beam="2">  1       -1 0.11615539E+00 0.71524557E+03</pdfrwt>
<totfact> 0.11745072E+01</totfact>
</mgrwt>
</event>
<event>
12    1  0.3166324E-008  0.5304682E+03  0.7818608E-02  0.1006119E+00
          2   -1    0    0  501    0  0.00000000000E+00  0.00000000000E+00  0.25012243701E+04  0.25012243701E+04  0.00000000000E+00 0. -1.
         -2   -1    0    0    0  501 -0.00000000000E+00 -0.00000000000E+00 -0.26482946203E+03  0.26482946203E+03  0.00000000000E+00 0.  1.
         23    2    1    2    0    0 -0.49243549681E+03 -0.90351215963E+02  0.13849176788E+03  0.52733008978E+03  0.90779915602E+02 0.  0.
    5000000    2    1    2    0    0  0.49243549681E+03  0.90351215963E+02  0.20979031402E+04  0.22387237424E+04  0.60002528961E+03 0.  0.
         23    2    4    4    0    0  0.88319261781E+02  0.74965229734E+02  0.15215580481E+04  0.15286533828E+04  0.90676311572E+02 0.  0.
         23    2    4    4    0    0  0.40411623503E+03  0.15385986229E+02  0.57634509215E+03  0.71007035955E+03  0.92084690849E+02 0.  0.
          4    1    3    3  502    0 -0.31000717995E+03 -0.96358016962E+02  0.68120586871E+02  0.33170730081E+03  0.00000000000E+00 0. -1.
         -4    1    3    3    0  502 -0.18242831686E+03  0.60068009984E+01  0.70371181004E+02  0.19562278898E+03  0.00000000000E+00 0.  1.
         11    1    5    5    0    0  0.84418220630E+02  0.13513632110E+02  0.90304406101E+03  0.90708193144E+03  0.00000000000E+00 0. -1.
        -11    1    5    5    0    0  0.39010411513E+01  0.61451597625E+02  0.61851398705E+03  0.62157145136E+03  0.00000000000E+00 0.  1.
          5    1    6    6  503    0  0.24655789488E+03 -0.11162207809E+02  0.41553911360E+03  0.48333242736E+03  0.47000000000E+01 0. -1.
         -5    1    6    6    0  503  0.15755834015E+03  0.26548194039E+02  0.16080597855E+03  0.22673793219E+03  0.47000000000E+01 0.  1.
<mgrwt>
<rscale>  0 0.53046816E+03</rscale>
<asrwt>0</asrwt>
<pdfrwt beam="1">  1        2 0.38480373E+00 0.53046816E+03</pdfrwt>
<pdfrwt beam="2">  1       -2 0.40742996E-01 0.53046816E+03</pdfrwt>
<totfact> 0.21570214E+01</totfact>
</mgrwt>
</event>
<event>
12    1  0.3166324E-008  0.8330723E+03  0.7818608E-02  0.9513343E-01
          2   -1    0    0  501    0  0.00000000000E+00  0.00000000000E+00  0.29207803672E+04  0.29207803672E+04  0.00000000000E+00 0. -1.
         -2   -1    0    0    0  501 -0.00000000000E+00 -0.00000000000E+00 -0.56222868763E+03  0.56222868763E+03  0.00000000000E+00 0.  1.
         23    2    1    2    0    0  0.12671412439E+03  0.71964484222E+03 -0.19364405579E+03  0.76138358762E+03  0.90894328278E+02 0.  0.
    5000000    2    1    2    0    0 -0.12671412439E+03 -0.71964484222E+03  0.25521957354E+04  0.27216254672E+04  0.59966402583E+03 0.  0.
         23    2    4    4    0    0  0.10134592593E+01  0.80324753599E+02  0.22091086654E+03  0.25198683246E+03  0.90789094253E+02 0.  0.
         23    2    4    4    0    0 -0.12772758365E+03 -0.79996959582E+03  0.23312848689E+04  0.24696386348E+04  0.89219710683E+02 0.  0.
          1    1    3    3  502    0  0.10591808043E+03  0.44583363171E+03 -0.15678004919E+03  0.48432040092E+03  0.00000000000E+00 0. -1.
         -1    1    3    3    0  502  0.20796043958E+02  0.27381121051E+03 -0.36864006605E+02  0.27706318671E+03  0.00000000000E+00 0.  1.
         13    1    5    5    0    0  0.45241231866E+02  0.48546674658E+02  0.11100320238E+03  0.12932617530E+03  0.00000000000E+00 0.  1.
        -13    1    5    5    0    0 -0.44227772606E+02  0.31778078941E+02  0.10990766417E+03  0.12266065715E+03  0.00000000000E+00 0. -1.
          5    1    6    6  503    0 -0.65121359047E+02 -0.58201787573E+03  0.15902210938E+04  0.16946417958E+04  0.47000000000E+01 0. -1.
         -5    1    6    6    0  503 -0.62606224598E+02 -0.21795172008E+03  0.74106377510E+03  0.77499683896E+03  0.47000000000E+01 0.  1.
<mgrwt>
<rscale>  0 0.83307233E+03</rscale>
<asrwt>0</asrwt>
<pdfrwt beam="1">  1        2 0.44935082E+00 0.83307233E+03</pdfrwt>
<pdfrwt beam="2">  1       -2 0.86496723E-01 0.83307233E+03</pdfrwt>
<totfact> 0.23656180E+00</totfact>
</mgrwt>
</event>
<event>
12    1  0.3842512E-008  0.1071828E+04  0.7818608E-02  0.9233094E-01
         -2   -1    0    0    0  501 -0.00000000000E+00  0.00000000000E+00  0.12903479798E+04  0.12903479798E+04  0.00000000000E+00 0.  1.
          2   -1    0    0  501    0  0.00000000000E+00 -0.00000000000E+00 -0.10569650082E+04  0.10569650082E+04  0.00000000000E+00 0. -1.
         23    2    1    2    0    0 -0.41613341207E+03  0.94445928880E+03  0.45759323361E+03  0.11326702100E+04  0.91541642313E+02 0.  0.
    5000000    2    1    2    0    0  0.41613341207E+03 -0.94445928880E+03 -0.22421026196E+03  0.12146427780E+04  0.59993038905E+03 0.  0.
         23    2    4    4    0    0  0.12830902953E+03 -0.39930288195E+02 -0.20508319673E+03  0.26071730844E+03  0.88638379746E+02 0.  0.
         23    2    4    4    0    0  0.28782438254E+03 -0.90452900061E+03 -0.19127065227E+02  0.95392546955E+03  0.92695030624E+02 0.  0.
          1    1    3    3  502    0 -0.89076829235E+02  0.15754906375E+03  0.11362925213E+03  0.21370071581E+03  0.00000000000E+00 0. -1.
         -1    1    3    3    0  502 -0.32705658283E+03  0.78691022505E+03  0.34396398148E+03  0.91896949417E+03  0.00000000000E+00 0.  1.
         13    1    5    5    0    0  0.64648831555E+02 -0.63995194126E+02 -0.96901925278E+02  0.13290913970E+03  0.00000000000E+00 0. -1.
        -13    1    5    5    0    0  0.63660197974E+02  0.24064905931E+02 -0.10818127146E+03  0.12780816874E+03  0.00000000000E+00 0.  1.
          5    1    6    6  503    0  0.14229034874E+03 -0.55186501670E+03  0.20713284838E+02  0.57030927590E+03  0.47000000000E+01 0. -1.
         -5    1    6    6    0  503  0.14553403380E+03 -0.35266398390E+03 -0.39840350065E+02  0.38361619365E+03  0.47000000000E+01 0.  1.
<mgrwt>
<rscale>  0 0.10718276E+04</rscale>
<asrwt>0</asrwt>
<pdfrwt beam="1">  1        2 0.16261000E+00 0.10718276E+04</pdfrwt>
<pdfrwt beam="2">  1       -2 0.19851507E+00 0.10718276E+04</pdfrwt>
<totfact> 0.31030058E+00</totfact>
</mgrwt>
</event>
<event>
12    1  0.3166324E-008  0.9725375E+03  0.7818608E-02  0.9339189E-01
         -1   -1    0    0    0  501 -0.00000000000E+00  0.00000000000E+00  0.95038200904E+03  0.95038200904E+03  0.00000000000E+00 0.  1.
          1   -1    0    0  501    0  0.00000000000E+00 -0.00000000000E+00 -0.23216247829E+04  0.23216247829E+04  0.00000000000E+00 0. -1.
         23    2    1    2    0    0 -0.12714440424E+03  0.92284079941E+03 -0.18434923326E+04  0.20675360696E+04  0.91872619752E+02 0.  0.
    5000000    2    1    2    0    0  0.12714440424E+03 -0.92284079941E+03  0.47224955870E+03  0.12044707223E+04  0.59994102602E+03 0.  0.
         23    2    4    4    0    0 -0.68902243307E+02 -0.47208705788E+02 -0.76101416127E+02  0.14958676684E+03  0.98023437202E+02 0.  0.
         23    2    4    4    0    0  0.19604664755E+03 -0.87563209362E+03  0.54835097483E+03  0.10548839555E+04  0.83219688755E+02 0.  0.
          1    1    3    3  502    0 -0.11344472033E+03  0.83025273181E+03 -0.15897014358E+04  0.17970364376E+04  0.00000000000E+00 0. -1.
         -1    1    3    3    0  502 -0.13699683905E+02  0.92588067600E+02 -0.25379089680E+03  0.27049963198E+03  0.00000000000E+00 0.  1.
         11    1    5    5    0    0 -0.49700462307E+01 -0.48612704843E+02 -0.69971797147E+02  0.85346053381E+02  0.00000000000E+00 0.  1.
        -11    1    5    5    0    0 -0.63932197076E+02  0.14039990550E+01 -0.61296189801E+01  0.64240713455E+02  0.00000000000E+00 0. -1.
          5    1    6    6  503    0  0.12133001691E+03 -0.36646694317E+03  0.25181165065E+03  0.46092319408E+03  0.47000000000E+01 0. -1.
         -5    1    6    6    0  503  0.74716630634E+02 -0.50916515045E+03  0.29653932418E+03  0.59396076143E+03  0.47000000000E+01 0.  1.
<mgrwt>
<rscale>  0 0.97253754E+03</rscale>
<asrwt>0</asrwt>
<pdfrwt beam="1">  1        1 0.35717304E+00 0.97253754E+03</pdfrwt>
<pdfrwt beam="2">  1       -1 0.14621262E+00 0.97253754E+03</pdfrwt>
<totfact> 0.68585302E-01</totfact>
</mgrwt>
</event>
<event>
12    1  0.3166324E-008  0.4224218E+03  0.7818608E-02  0.1036281E+00
         -1   -1    0    0    0  501 -0.00000000000E+00  0.00000000000E+00  0.16378776858E+03  0.16378776858E+03  0.00000000000E+00 0.  1.
          1   -1    0    0  501    0  0.00000000000E+00 -0.00000000000E+00 -0.14343622584E+04  0.14343622584E+04  0.00000000000E+00 0. -1.
         23    2    1    2    0    0  0.70687283837E+02 -0.20898789261E+03 -0.70593642974E+03  0.74524802881E+03  0.91519125064E+02 0.  0.
    5000000    2    1    2    0    0 -0.70687283837E+02  0.20898789261E+03 -0.56463806004E+03  0.85290199813E+03  0.59996087224E+03 0.  0.
         23    2    4    4    0    0  0.23135695872E+03  0.26858090680E+02 -0.35013145669E+03  0.43026399570E+03  0.91036639049E+02 0.  0.
         23    2    4    4    0    0 -0.30204424255E+03  0.18212980193E+03 -0.21450660335E+03  0.42263800243E+03  0.90596959174E+02 0.  0.
          1    1    3    3  502    0  0.34972261341E+02 -0.18378483136E+03 -0.48096028337E+03  0.51606464467E+03  0.00000000000E+00 0. -1.
         -1    1    3    3    0  502  0.35715022496E+02 -0.25203061255E+02 -0.22497614637E+03  0.22918338414E+03  0.00000000000E+00 0.  1.
         11    1    5    5    0    0  0.45247317084E+02  0.44058191866E+02 -0.90361594741E+02  0.11024364734E+03  0.00000000000E+00 0.  1.
        -11    1    5    5    0    0  0.18610964163E+03 -0.17200101186E+02 -0.25976986195E+03  0.32002034836E+03  0.00000000000E+00 0. -1.
          5    1    6    6  503    0 -0.23226806399E+03  0.91898020700E+02 -0.15308653670E+03  0.29300388645E+03  0.47000000000E+01 0. -1.
         -5    1    6    6    0  503 -0.69776178562E+02  0.90231781233E+02 -0.61420066646E+02  0.12963411598E+03  0.47000000000E+01 0.  1.
<mgrwt>
<rscale>  0 0.42242180E+03</rscale>
<asrwt>0</asrwt>
<pdfrwt beam="1">  1        1 0.22067112E+00 0.42242180E+03</pdfrwt>
<pdfrwt beam="2">  1       -1 0.25198118E-01 0.42242180E+03</pdfrwt>
<totfact> 0.10663190E+02</totfact>
</mgrwt>
</event>
<event>
12    1  0.3166324E-008  0.3636851E+03  0.7818608E-02  0.1057134E+00
          2   -1    0    0  501    0  0.00000000000E+00  0.00000000000E+00  0.14948074319E+04  0.14948074319E+04  0.00000000000E+00 0. -1.
         -2   -1    0    0    0  501 -0.00000000000E+00 -0.00000000000E+00 -0.21679331427E+03  0.21679331427E+03  0.00000000000E+00 0.  1.
         23    2    1    2    0    0  0.29689066309E+03  0.94210355054E+02  0.77130920425E+02  0.33347873277E+03  0.90770201581E+02 0.  0.
    5000000    2    1    2    0    0 -0.29689066309E+03 -0.94210355054E+02  0.12008831972E+04  0.13781220134E+04  0.60006680766E+03 0.  0.
         23    2    4    4    0    0 -0.70214998711E+02 -0.12981535595E+03  0.10960815828E+04  0.11093309308E+04  0.86244449717E+02 0.  0.
         23    2    4    4    0    0 -0.22667566438E+03  0.35605000900E+02  0.10480161434E+03  0.26879108257E+03  0.92820767039E+02 0.  0.
          4    1    3    3  502    0  0.79956648115E+02  0.54331391230E+02 -0.81159117233E+01  0.97009451466E+02  0.00000000000E+00 0. -1.
         -4    1    3    3    0  502  0.21693401497E+03  0.39878963824E+02  0.85246832149E+02  0.23646928130E+03  0.00000000000E+00 0.  1.
         13    1    5    5    0    0 -0.79624862700E+02 -0.66728822941E+02  0.56926068257E+03  0.57866275091E+03  0.00000000000E+00 0.  1.
        -13    1    5    5    0    0  0.94098639889E+01 -0.63086533013E+02  0.52682090027E+03  0.53066817989E+03  0.00000000000E+00 0. -1.
          5    1    6    6  503    0 -0.30639429277E+02  0.34476914894E+02  0.42876412588E+02  0.63149893456E+02  0.47000000000E+01 0. -1.
         -5    1    6    6    0  503 -0.19603623510E+03  0.11280860057E+01  0.61925201747E+02  0.20564118912E+03  0.47000000000E+01 0.  1.
<mgrwt>
<rscale>  0 0.36368513E+03</rscale>
<asrwt>0</asrwt>
<pdfrwt beam="1">  1        2 0.22997037E+00 0.36368513E+03</pdfrwt>
<pdfrwt beam="2">  1       -2 0.33352819E-01 0.36368513E+03</pdfrwt>
<totfact> 0.11457623E+02</totfact>
</mgrwt>
</event>
<event>
12    1  0.3166324E-008  0.1023769E+04  0.7818608E-02  0.9282853E-01
          1   -1    0    0  501    0  0.00000000000E+00  0.00000000000E+00  0.16801841435E+04  0.16801841435E+04  0.00000000000E+00 0. -1.
         -1   -1    0    0    0  501 -0.00000000000E+00 -0.00000000000E+00 -0.81477032459E+03  0.81477032459E+03  0.00000000000E+00 0.  1.
         23    2    1    2    0    0 -0.90095668184E+03  0.37539992366E+03  0.92538172000E+03  0.13477210906E+04  0.85864807373E+02 0.  0.
    5000000    2    1    2    0    0  0.90095668184E+03 -0.37539992366E+03 -0.59967901110E+02  0.11472333774E+04  0.59991685084E+03 0.  0.
         23    2    4    4    0    0  0.83134318311E+03 -0.19492440559E+03 -0.21250733652E+03  0.88474751158E+03  0.92150850102E+02 0.  0.
         23    2    4    4    0    0  0.69613498733E+02 -0.18047551808E+03  0.15253943541E+03  0.26248586587E+03  0.90626147396E+02 0.  0.
          4    1    3    3  502    0 -0.64193839505E+03  0.22464757846E+03  0.64310705280E+03  0.93602249915E+03  0.00000000000E+00 0. -1.
         -4    1    3    3    0  502 -0.25901828679E+03  0.15075234520E+03  0.28227466720E+03  0.41169859147E+03  0.00000000000E+00 0.  1.
         11    1    5    5    0    0  0.47303044449E+03 -0.15403240738E+03 -0.14118791418E+03  0.51712456048E+03  0.00000000000E+00 0. -1.
        -11    1    5    5    0    0  0.35831273862E+03 -0.40891998207E+02 -0.71319422343E+02  0.36762295110E+03  0.00000000000E+00 0.  1.
          5    1    6    6  503    0  0.55295312553E+02 -0.18558464974E+03  0.15256850735E+03  0.24657346419E+03  0.47000000000E+01 0. -1.
         -5    1    6    6    0  503  0.14318186180E+02  0.51091316622E+01 -0.29071935004E-01  0.15912401673E+02  0.47000000000E+01 0.  1.
<mgrwt>
<rscale>  0 0.10237692E+04</rscale>
<asrwt>0</asrwt>
<pdfrwt beam="1">  1        1 0.25848987E+00 0.10237692E+04</pdfrwt>
<pdfrwt beam="2">  1       -1 0.12534928E+00 0.10237692E+04</pdfrwt>
<totfact> 0.27433445E+00</totfact>
</mgrwt>
</event>
<event>
12    1  0.3166324E-008  0.6721320E+03  0.7818608E-02  0.9766114E-01
          2   -1    0    0  501    0  0.00000000000E+00  0.00000000000E+00  0.23643189728E+04  0.23643189728E+04  0.00000000000E+00 0. -1.
         -2   -1    0    0    0  501 -0.00000000000E+00 -0.00000000000E+00 -0.20392064570E+03  0.20392064570E+03  0.00000000000E+00 0.  1.
         23    2    1    2    0    0 -0.49369756181E+03 -0.24219667340E+03  0.68230023616E+03  0.88090163156E+03  0.89763918557E+02 0.  0.
    5000000    2    1    2    0    0  0.49369756181E+03  0.24219667340E+03  0.14780980909E+04  0.16873379869E+04  0.59994916832E+03 0.  0.
         23    2    4    4    0    0  0.31992339149E+03 -0.14633463704E+03  0.83482511901E+03  0.91066720569E+03  0.92827677807E+02 0.  0.
         23    2    4    4    0    0  0.17377417032E+03  0.38853131044E+03  0.64327297191E+03  0.77667078123E+03  0.90902940335E+02 0.  0.
          1    1    3    3  502    0 -0.14082432641E+03 -0.57643388171E+02  0.25387872626E+03  0.29598759899E+03  0.00000000000E+00 0. -1.
         -1    1    3    3    0  502 -0.35287323540E+03 -0.18455328523E+03  0.42842150991E+03  0.58491403258E+03  0.00000000000E+00 0.  1.
         11    1    5    5    0    0  0.14391131775E+03 -0.24399827561E+02  0.40412653085E+03  0.42967903358E+03  0.00000000000E+00 0.  1.
        -11    1    5    5    0    0  0.17601207374E+03 -0.12193480948E+03  0.43069858815E+03  0.48098817210E+03  0.00000000000E+00 0. -1.
          5    1    6    6  503    0  0.30801930141E+02  0.16843306263E+03  0.28520802644E+03  0.33269229602E+03  0.47000000000E+01 0. -1.
         -5    1    6    6    0  503  0.14297224018E+03  0.22009824781E+03  0.35806494547E+03  0.44397848521E+03  0.47000000000E+01 0.  1.
<mgrwt>
<rscale>  0 0.67213202E+03</rscale>
<asrwt>0</asrwt>
<pdfrwt beam="1">  1        2 0.36374136E+00 0.67213202E+03</pdfrwt>
<pdfrwt beam="2">  1       -2 0.31372409E-01 0.67213202E+03</pdfrwt>
<totfact> 0.41252634E+01</totfact>
</mgrwt>
</event>
<event>
12    1  0.3166324E-008  0.6521309E+03  0.7818608E-02  0.9802789E-01
          1   -1    0    0  501    0  0.00000000000E+00  0.00000000000E+00  0.15717999319E+04  0.15717999319E+04  0.00000000000E+00 0. -1.
         -1   -1    0    0    0  501 -0.00000000000E+00 -0.00000000000E+00 -0.44845554702E+03  0.44845554702E+03  0.00000000000E+00 0.  1.
         23    2    1    2    0    0 -0.51574926567E+03 -0.21348277976E+03  0.10558956475E+04  0.11979801843E+04  0.93105859464E+02 0.  0.
    5000000    2    1    2    0    0  0.51574926567E+03  0.21348277976E+03  0.67448737307E+02  0.82227529465E+03  0.60001260464E+03 0.  0.
         23    2    4    4    0    0  0.28132700794E+02  0.23508858843E+03  0.18211721561E+03  0.31246219436E+03  0.91694325983E+02 0.  0.
         23    2    4    4    0    0  0.48761656488E+03 -0.21605808671E+02 -0.11466847831E+03  0.50981310028E+03  0.92324492928E+02 0.  0.
          1    1    3    3  502    0 -0.36265355135E+03 -0.19480612113E+03  0.76614273994E+03  0.86973658144E+03  0.00000000000E+00 0. -1.
         -1    1    3    3    0  502 -0.15309571432E+03 -0.18676658631E+02  0.28975290761E+03  0.32824360282E+03  0.00000000000E+00 0.  1.
         11    1    5    5    0    0  0.41306802749E+02  0.64639714197E+02  0.26140435817E+02  0.81042377738E+02  0.00000000000E+00 0.  1.
        -11    1    5    5    0    0 -0.13174101954E+02  0.17044887424E+03  0.15597677980E+03  0.23141981662E+03  0.00000000000E+00 0. -1.
          5    1    6    6  503    0  0.48198477401E+03 -0.24916937413E+02 -0.12315647191E+03  0.49811623415E+03  0.47000000000E+01 0. -1.
         -5    1    6    6    0  503  0.56317908629E+01  0.33111287414E+01  0.84879936071E+01  0.11696866133E+02  0.47000000000E+01 0.  1.
<mgrwt>
<rscale>  0 0.65213089E+03</rscale>
<asrwt>0</asrwt>
<pdfrwt beam="1">  1        1 0.24181537E+00 0.65213089E+03</pdfrwt>
<pdfrwt beam="2">  1       -1 0.68993162E-01 0.65213089E+03</pdfrwt>
<totfact> 0.13072481E+01</totfact>
</mgrwt>
</event>
<event>
12    1  0.3166324E-008  0.4266668E+03  0.7818608E-02  0.1034918E+00
         -4   -1    0    0    0  501 -0.00000000000E+00  0.00000000000E+00  0.39359006248E+03  0.39359006248E+03  0.00000000000E+00 0. -1.
          4   -1    0    0  501    0  0.00000000000E+00 -0.00000000000E+00 -0.81941383259E+03  0.81941383259E+03  0.00000000000E+00 0.  1.
         23    2    1    2    0    0  0.38011903246E+03  0.64667785650E+02 -0.27983121269E+03  0.48501626692E+03  0.90900331366E+02 0.  0.
    5000000    2    1    2    0    0 -0.38011903246E+03 -0.64667785650E+02 -0.14599255742E+03  0.72798762815E+03  0.59998313191E+03 0.  0.
         23    2    4    4    0    0 -0.24513951288E+03 -0.14583265963E+03  0.18374931835E+03  0.35179292701E+03  0.92918814631E+02 0.  0.
         23    2    4    4    0    0 -0.13497951958E+03  0.81164873976E+02 -0.32974187577E+03  0.37619470113E+03  0.89361854590E+02 0.  0.
          3    1    3    3  502    0  0.62871407173E+02 -0.59799396550E+01 -0.85623741212E+02  0.10639548194E+03  0.00000000000E+00 0. -1.
         -3    1    3    3    0  502  0.31724762529E+03  0.70647725305E+02 -0.19420747148E+03  0.37862078498E+03  0.00000000000E+00 0.  1.
         13    1    5    5    0    0 -0.77547517035E+02 -0.76356914819E+02  0.27231437600E+02  0.11218532450E+03  0.00000000000E+00 0.  1.
        -13    1    5    5    0    0 -0.16759199585E+03 -0.69475744807E+02  0.15651788075E+03  0.23960760251E+03  0.00000000000E+00 0. -1.
          5    1    6    6  503    0 -0.35826496192E+02 -0.12691039419E+02 -0.37501493607E+02  0.53600861315E+02  0.47000000000E+01 0. -1.
         -5    1    6    6    0  503 -0.99153023384E+02  0.93855913395E+02 -0.29224038216E+03  0.32259383982E+03  0.47000000000E+01 0.  1.
<mgrwt>
<rscale>  0 0.42666680E+03</rscale>
<asrwt>0</asrwt>
<pdfrwt beam="1">  1        4 0.12606367E+00 0.42666680E+03</pdfrwt>
<pdfrwt beam="2">  1       -4 0.60552318E-01 0.42666680E+03</pdfrwt>
<totfact> 0.23377957E+00</totfact>
</mgrwt>
</event>
<event>
12    1  0.3166324E-008  0.7697681E+03  0.7818608E-02  0.9604838E-01
          4   -1    0    0  501    0  0.00000000000E+00  0.00000000000E+00  0.16165087152E+04  0.16165087152E+04  0.00000000000E+00 0. -1.
         -4   -1    0    0    0  501 -0.00000000000E+00 -0.00000000000E+00 -0.55759451758E+03  0.55759451758E+03  0.00000000000E+00 0.  1.
         23    2    1    2    0    0  0.45179289454E+03 -0.54903023357E+03  0.10154517574E+04  0.12428042109E+04  0.88707485441E+02 0.  0.
    5000000    2    1    2    0    0 -0.45179289454E+03  0.54903023357E+03  0.43462440255E+02  0.93129902197E+03  0.59989821442E+03 0.  0.
         23    2    4    4    0    0 -0.47818217699E+03  0.57138199817E+03  0.17339958359E+03  0.77040562505E+03  0.91224060901E+02 0.  0.
         23    2    4    4    0    0  0.26389282450E+02 -0.22351764599E+02 -0.12993714334E+03  0.16089339692E+03  0.88357389868E+02 0.  0.
          4    1    3    3  502    0  0.11107272158E+03 -0.99314466129E+02  0.16615470884E+03  0.22317683556E+03  0.00000000000E+00 0. -1.
         -4    1    3    3    0  502  0.34072017296E+03 -0.44971576745E+03  0.84929704856E+03  0.10196273753E+04  0.00000000000E+00 0.  1.
         13    1    5    5    0    0 -0.18890644136E+03  0.29574990236E+03  0.88475786015E+02  0.36191381991E+03  0.00000000000E+00 0. -1.
        -13    1    5    5    0    0 -0.28927573563E+03  0.27563209581E+03  0.84923797578E+02  0.40849180514E+03  0.00000000000E+00 0.  1.
          5    1    6    6  503    0  0.44849005732E+02  0.17236537753E+01 -0.25067229956E+02  0.51622285063E+02  0.47000000000E+01 0. -1.
         -5    1    6    6    0  503 -0.18459723281E+02 -0.24075418374E+02 -0.10486991338E+03  0.10927111186E+03  0.47000000000E+01 0.  1.
<mgrwt>
<rscale>  0 0.76976814E+03</rscale>
<asrwt>0</asrwt>
<pdfrwt beam="1">  1        4 0.24869365E+00 0.76976814E+03</pdfrwt>
<pdfrwt beam="2">  1       -4 0.85783773E-01 0.76976814E+03</pdfrwt>
<totfact> 0.15034551E-01</totfact>
</mgrwt>
</event>
<event>
12    1  0.3166324E-008  0.6558776E+03  0.7818608E-02  0.9795812E-01
          2   -1    0    0  501    0  0.00000000000E+00  0.00000000000E+00  0.18851713246E+04  0.18851713246E+04  0.00000000000E+00 0. -1.
         -2   -1    0    0    0  501 -0.00000000000E+00 -0.00000000000E+00 -0.35508820397E+03  0.35508820397E+03  0.00000000000E+00 0.  1.
         23    2    1    2    0    0  0.64129353093E+03 -0.32160630881E+02  0.10626169982E+04  0.12449055069E+04  0.91340774784E+02 0.  0.
    5000000    2    1    2    0    0 -0.64129353093E+03  0.32160630881E+02  0.46746612234E+03  0.99535402163E+03  0.59992779053E+03 0.  0.
         23    2    4    4    0    0 -0.31413555065E+03 -0.17147124501E+02  0.55182179970E+03  0.64168173363E+03  0.90955926622E+02 0.  0.
         23    2    4    4    0    0 -0.32715798028E+03  0.49307755382E+02 -0.84355677356E+02  0.35367228800E+03  0.92220432646E+02 0.  0.
          3    1    3    3  502    0  0.56298583895E+03 -0.43928949584E+02  0.87668501778E+03  0.10428132277E+04  0.00000000000E+00 0. -1.
         -3    1    3    3    0  502  0.78307691976E+02  0.11768318702E+02  0.18593198046E+03  0.20209227919E+03  0.00000000000E+00 0.  1.
         11    1    5    5    0    0 -0.55150484063E+02  0.32165290901E+02  0.10622724530E+03  0.12393711904E+03  0.00000000000E+00 0. -1.
        -11    1    5    5    0    0 -0.25898506658E+03 -0.49312415402E+02  0.44559455440E+03  0.51774461459E+03  0.00000000000E+00 0.  1.
          5    1    6    6  503    0 -0.23003485426E+03  0.70946249063E+02 -0.37826212289E+02  0.24372590500E+03  0.47000000000E+01 0. -1.
         -5    1    6    6    0  503 -0.97123126022E+02 -0.21638493681E+02 -0.46529465066E+02  0.10994638301E+03  0.47000000000E+01 0.  1.
<mgrwt>
<rscale>  0 0.65587757E+03</rscale>
<asrwt>0</asrwt>
<pdfrwt beam="1">  1        2 0.29002635E+00 0.65587757E+03</pdfrwt>
<pdfrwt beam="2">  1       -2 0.54628956E-01 0.65587757E+03</pdfrwt>
<totfact> 0.25487681E+01</totfact>
</mgrwt>
</event>
<event>
12    1  0.3166324E-008  0.9575587E+03  0.7818608E-02  0.9356359E-01
          1   -1    0    0  501    0  0.00000000000E+00  0.00000000000E+00  0.11218955819E+04  0.11218955819E+04  0.00000000000E+00 0. -1.
         -1   -1    0    0    0  501 -0.00000000000E+00 -0.00000000000E+00 -0.99227254418E+03  0.99227254418E+03  0.00000000000E+00 0.  1.
         23    2    1    2    0    0  0.40192265515E+03 -0.85781083709E+03  0.25692167884E+03  0.98552485561E+03  0.88708731301E+02 0.  0.
    5000000    2    1    2    0    0 -0.40192265515E+03  0.85781083709E+03 -0.12729864117E+03  0.11286432704E+04  0.60020782642E+03 0.  0.
         23    2    4    4    0    0 -0.28976463528E+03  0.43348406524E+03  0.20777378606E+03  0.56887276359E+03  0.92597496228E+02 0.  0.
         23    2    4    4    0    0 -0.11215801987E+03  0.42432677185E+03 -0.33507242723E+03  0.55977050684E+03  0.91852371250E+02 0.  0.
          1    1    3    3  502    0  0.15997706315E+03 -0.36965782733E+03  0.65659733700E+02  0.40810632275E+03  0.00000000000E+00 0. -1.
         -1    1    3    3    0  502  0.24194559200E+03 -0.48815300976E+03  0.19126194514E+03  0.57741853286E+03  0.00000000000E+00 0.  1.
         13    1    5    5    0    0 -0.18526568062E+03  0.34449104700E+03  0.13703686012E+03  0.41445935254E+03  0.00000000000E+00 0. -1.
        -13    1    5    5    0    0 -0.10449895466E+03  0.88993018241E+02  0.70736925944E+02  0.15441341105E+03  0.00000000000E+00 0.  1.
          5    1    6    6  503    0 -0.74631312923E+02  0.26539789724E+03 -0.15372245442E+03  0.31568743992E+03  0.47000000000E+01 0. -1.
         -5    1    6    6    0  503 -0.37526706949E+02  0.15892887461E+03 -0.18134997281E+03  0.24408306692E+03  0.47000000000E+01 0.  1.
<mgrwt>
<rscale>  0 0.95755865E+03</rscale>
<asrwt>0</asrwt>
<pdfrwt beam="1">  1        1 0.17259932E+00 0.95755865E+03</pdfrwt>
<pdfrwt beam="2">  1       -1 0.15265731E+00 0.95755865E+03</pdfrwt>
<totfact> 0.40949956E+00</totfact>
</mgrwt>
</event>
<event>
12    1  0.3166324E-008  0.1329208E+04  0.7818608E-02  0.9006719E-01
         -2   -1    0    0    0  501 -0.00000000000E+00  0.00000000000E+00  0.47484599924E+04  0.47484599924E+04  0.00000000000E+00 0.  1.
          2   -1    0    0  501    0  0.00000000000E+00 -0.00000000000E+00 -0.52313340367E+03  0.52313340367E+03  0.00000000000E+00 0. -1.
         23    2    1    2    0    0 -0.71314426946E+03  0.10586208426E+04  0.34105331143E+04  0.36427083800E+04  0.91298307320E+02 0.  0.
    5000000    2    1    2    0    0  0.71314426946E+03 -0.10586208426E+04  0.81479347444E+03  0.16288850160E+04  0.60010428436E+03 0.  0.
         23    2    4    4    0    0  0.11576642701E+03 -0.62805144694E+03  0.52745237555E+03  0.83320217466E+03  0.90384565891E+02 0.  0.
         23    2    4    4    0    0  0.59737784245E+03 -0.43056939561E+03  0.28734109889E+03  0.79568284137E+03  0.91082302642E+02 0.  0.
          1    1    3    3  502    0 -0.26976754726E+03  0.43119374536E+03  0.12425476082E+04  0.13426195046E+04  0.00000000000E+00 0. -1.
         -1    1    3    3    0  502 -0.44337672220E+03  0.62742709719E+03  0.21679855061E+04  0.23000888754E+04  0.00000000000E+00 0.  1.
         13    1    5    5    0    0  0.59887852601E+02 -0.19820195660E+03  0.12590747158E+03  0.24232883008E+03  0.00000000000E+00 0.  1.
        -13    1    5    5    0    0  0.55878574406E+02 -0.42984949034E+03  0.40154490397E+03  0.59087334457E+03  0.00000000000E+00 0. -1.
          5    1    6    6  503    0  0.50940825734E+03 -0.32848542452E+03  0.21890206981E+03  0.64446850422E+03  0.47000000000E+01 0. -1.
         -5    1    6    6    0  503  0.87969585116E+02 -0.10208397110E+03  0.68439029074E+02  0.15121433715E+03  0.47000000000E+01 0.  1.
<mgrwt>
<rscale>  0 0.13292078E+04</rscale>
<asrwt>0</asrwt>
<pdfrwt beam="1">  1        2 0.80482065E-01 0.13292078E+04</pdfrwt>
<pdfrwt beam="2">  1       -2 0.73053228E+00 0.13292078E+04</pdfrwt>
<totfact> 0.99419397E-03</totfact>
</mgrwt>
</event>
<event>
12    1  0.3166324E-008  0.1698172E+04  0.7818608E-02  0.8762408E-01
         -1   -1    0    0    0  501 -0.00000000000E+00  0.00000000000E+00  0.14100426686E+04  0.14100426686E+04  0.00000000000E+00 0.  1.
          1   -1    0    0  501    0  0.00000000000E+00 -0.00000000000E+00 -0.29839288894E+04  0.29839288894E+04  0.00000000000E+00 0. -1.
         23    2    1    2    0    0 -0.10961723410E+04  0.12492972455E+04  0.43310733615E+03  0.17199823064E+04  0.91759254534E+02 0.  0.
    5000000    2    1    2    0    0  0.10961723410E+04 -0.12492972455E+04 -0.20069935570E+04  0.26739892516E+04  0.59988163068E+03 0.  0.
         23    2    4    4    0    0  0.70013484486E+03 -0.44741315865E+03 -0.12219406543E+04  0.14804270016E+04  0.90320589814E+02 0.  0.
         23    2    4    4    0    0  0.39603749615E+03 -0.80188408689E+03 -0.78505290263E+03  0.11935622499E+04  0.91755094333E+02 0.  0.
          1    1    3    3  502    0 -0.92160208893E+03  0.99641803997E+03  0.35310711958E+03  0.14024564017E+04  0.00000000000E+00 0. -1.
         -1    1    3    3    0  502 -0.17457025208E+03  0.25287920557E+03  0.80000216566E+02  0.31752590473E+03  0.00000000000E+00 0.  1.
         13    1    5    5    0    0  0.57172093027E+03 -0.40463469967E+03 -0.10228284532E+04  0.12396661272E+04  0.00000000000E+00 0. -1.
        -13    1    5    5    0    0  0.12841391459E+03 -0.42778458981E+02 -0.19911220118E+03  0.24076087446E+03  0.00000000000E+00 0.  1.
          5    1    6    6  503    0  0.35997279303E+02 -0.11313344332E+03 -0.13942579531E+03  0.18318466778E+03  0.47000000000E+01 0. -1.
         -5    1    6    6    0  503  0.36004021684E+03 -0.68875064357E+03 -0.64562710732E+03  0.10103775821E+04  0.47000000000E+01 0.  1.
<mgrwt>
<rscale>  0 0.16981716E+04</rscale>
<asrwt>0</asrwt>
<pdfrwt beam="1">  1        1 0.45906597E+00 0.16981716E+04</pdfrwt>
<pdfrwt beam="2">  1       -1 0.21692965E+00 0.16981716E+04</pdfrwt>
<totfact> 0.65407688E-02</totfact>
</mgrwt>
</event>
<event>
12    1  0.3166324E-008  0.3615155E+03  0.7818608E-02  0.1057985E+00
         -1   -1    0    0    0  501 -0.00000000000E+00  0.00000000000E+00  0.19692661127E+04  0.19692661127E+04  0.00000000000E+00 0.  1.
          1   -1    0    0  501    0  0.00000000000E+00 -0.00000000000E+00 -0.26797205742E+03  0.26797205742E+03  0.00000000000E+00 0. -1.
         23    2    1    2    0    0  0.41018735201E+02  0.28674202128E+03  0.15154254341E+04  0.15456773153E+04  0.93276970050E+02 0.  0.
    5000000    2    1    2    0    0 -0.41018735201E+02 -0.28674202128E+03  0.18586862111E+03  0.69156085481E+03  0.59983810164E+03 0.  0.
         23    2    4    4    0    0 -0.13651637355E+02  0.53324881620E+02  0.30207281440E+03  0.32008028753E+03  0.90407383887E+02 0.  0.
         23    2    4    4    0    0 -0.27367097845E+02 -0.34006690290E+03 -0.11620419329E+03  0.37148056728E+03  0.89999671309E+02 0.  0.
          2    1    3    3  502    0  0.39815874806E+02  0.17157277530E+03  0.11219655697E+04  0.11357065028E+04  0.00000000000E+00 0. -1.
         -2    1    3    3    0  502  0.12028603949E+01  0.11516924598E+03  0.39345986450E+03  0.40997081245E+03  0.00000000000E+00 0.  1.
         13    1    5    5    0    0 -0.20302621546E+02  0.63728487578E+02  0.30023687413E+03  0.30759664686E+03  0.00000000000E+00 0. -1.
        -13    1    5    5    0    0  0.66509841911E+01 -0.10403605958E+02  0.18359402677E+01  0.12483640667E+02  0.00000000000E+00 0.  1.
          5    1    6    6  503    0 -0.59680617617E+02 -0.23193526062E+03 -0.71244339605E+02  0.24990715709E+03  0.47000000000E+01 0. -1.
         -5    1    6    6    0  503  0.32313519772E+02 -0.10813164228E+03 -0.44959853690E+02  0.12157341019E+03  0.47000000000E+01 0.  1.
<mgrwt>
<rscale>  0 0.36151552E+03</rscale>
<asrwt>0</asrwt>
<pdfrwt beam="1">  1        1 0.41226472E-01 0.36151552E+03</pdfrwt>
<pdfrwt beam="2">  1       -1 0.30296401E+00 0.36151552E+03</pdfrwt>
<totfact> 0.36569065E+00</totfact>
</mgrwt>
</event>
<event>
12    1  0.3166324E-008  0.8280900E+03  0.7818608E-02  0.9520225E-01
          2   -1    0    0  501    0  0.00000000000E+00  0.00000000000E+00  0.24902659165E+04  0.24902659165E+04  0.00000000000E+00 0. -1.
         -2   -1    0    0    0  501 -0.00000000000E+00 -0.00000000000E+00 -0.28546866478E+03  0.28546866478E+03  0.00000000000E+00 0.  1.
         23    2    1    2    0    0  0.70520361513E+03 -0.19927134638E+03  0.10117135760E+04  0.12524674325E+04  0.89939432205E+02 0.  0.
    5000000    2    1    2    0    0 -0.70520361513E+03  0.19927134638E+03  0.11930836757E+04  0.15232671487E+04  0.59989410801E+03 0.  0.
         23    2    4    4    0    0 -0.31159204947E+03  0.36160728043E+03  0.80073707492E+03  0.93659753840E+03  0.90474611043E+02 0.  0.
         23    2    4    4    0    0 -0.39361156565E+03 -0.16233593404E+03  0.39234660081E+03  0.58666961032E+03  0.94669722790E+02 0.  0.
          4    1    3    3  502    0  0.41763652986E+03 -0.72456946019E+02  0.59352853486E+03  0.72934655809E+03  0.00000000000E+00 0. -1.
         -4    1    3    3    0  502  0.28756708527E+03 -0.12681440036E+03  0.41818504111E+03  0.52312087444E+03  0.00000000000E+00 0.  1.
         13    1    5    5    0    0 -0.23777080884E+03  0.22621538705E+03  0.49082288165E+03  0.59043666894E+03  0.00000000000E+00 0.  1.
        -13    1    5    5    0    0 -0.73821240631E+02  0.13539189337E+03  0.30991419326E+03  0.34616086946E+03  0.00000000000E+00 0. -1.
          5    1    6    6  503    0 -0.29481941117E+03 -0.16259061399E+03  0.31537517691E+03  0.46134345684E+03  0.47000000000E+01 0. -1.
         -5    1    6    6    0  503 -0.98792154486E+02  0.25467994525E+00  0.76971423895E+02  0.12532615348E+03  0.47000000000E+01 0.  1.
<mgrwt>
<rscale>  0 0.82809002E+03</rscale>
<asrwt>0</asrwt>
<pdfrwt beam="1">  1        2 0.38311782E+00 0.82809002E+03</pdfrwt>
<pdfrwt beam="2">  1       -2 0.43918258E-01 0.82809002E+03</pdfrwt>
<totfact> 0.17930373E+01</totfact>
</mgrwt>
</event>
<event>
12    1  0.3166324E-008  0.7179218E+03  0.7818608E-02  0.9687065E-01
         -1   -1    0    0    0  501 -0.00000000000E+00  0.00000000000E+00  0.62845490282E+03  0.62845490282E+03  0.00000000000E+00 0.  1.
          1   -1    0    0  501    0  0.00000000000E+00 -0.00000000000E+00 -0.11776696705E+04  0.11776696705E+04  0.00000000000E+00 0. -1.
         23    2    1    2    0    0  0.36823237006E+03  0.50286627394E+03  0.19983455815E+03  0.66167002538E+03  0.96973212954E+02 0.  0.
    5000000    2    1    2    0    0 -0.36823237006E+03 -0.50286627394E+03 -0.74904932579E+03  0.11444545479E+04  0.60019309556E+03 0.  0.
         23    2    4    4    0    0  0.79346370442E+02 -0.30329711492E+03 -0.13925036169E+03  0.35676652782E+03  0.98013803745E+02 0.  0.
         23    2    4    4    0    0 -0.44757874050E+03 -0.19956915902E+03 -0.60979896411E+03  0.78768802010E+03  0.91886137134E+02 0.  0.
          1    1    3    3  502    0  0.98597120808E+02  0.11860466635E+03  0.76416626542E+01  0.15442426661E+03  0.00000000000E+00 0. -1.
         -1    1    3    3    0  502  0.26963524925E+03  0.38426160759E+03  0.19219289549E+03  0.50724575876E+03  0.00000000000E+00 0.  1.
         13    1    5    5    0    0 -0.14621589350E+01 -0.98090899388E+02 -0.42696254870E+01  0.98194664586E+02  0.00000000000E+00 0. -1.
        -13    1    5    5    0    0  0.80808529377E+02 -0.20520621553E+03 -0.13498073620E+03  0.25857186324E+03  0.00000000000E+00 0.  1.
          5    1    6    6  503    0 -0.41912580341E+03 -0.17023876571E+03 -0.52221253421E+03  0.69092379994E+03  0.47000000000E+01 0. -1.
         -5    1    6    6    0  503 -0.28452937090E+02 -0.29330393314E+02 -0.87586429895E+02  0.96764220157E+02  0.47000000000E+01 0.  1.
<mgrwt>
<rscale>  0 0.71792182E+03</rscale>
<asrwt>0</asrwt>
<pdfrwt beam="1">  1        1 0.18117995E+00 0.71792182E+03</pdfrwt>
<pdfrwt beam="2">  1       -1 0.96685370E-01 0.71792182E+03</pdfrwt>
<totfact> 0.11856520E+01</totfact>
</mgrwt>
</event>
<event>
12    1  0.3166324E-008  0.1513466E+04  0.7818608E-02  0.8875547E-01
          2   -1    0    0  501    0  0.00000000000E+00  0.00000000000E+00  0.35319351131E+04  0.35319351131E+04  0.00000000000E+00 0.  1.
         -2   -1    0    0    0  501 -0.00000000000E+00 -0.00000000000E+00 -0.71830841012E+03  0.71830841012E+03  0.00000000000E+00 0. -1.
         23    2    1    2    0    0 -0.52673428839E+03 -0.13824288964E+04  0.19037984020E+04  0.24127798471E+04  0.92193116795E+02 0.  0.
    5000000    2    1    2    0    0  0.52673428839E+03  0.13824288964E+04  0.90982830098E+03  0.18374636762E+04  0.59993879679E+03 0.  0.
         23    2    4    4    0    0  0.47753309234E+03  0.13586372821E+04  0.94437395488E+03  0.17246779025E+04  0.93480383775E+02 0.  0.
         23    2    4    4    0    0  0.49201196048E+02  0.23791614256E+02 -0.34545653892E+02  0.11278577366E+03  0.92414446570E+02 0.  0.
          4    1    3    3  502    0 -0.17460569781E+03 -0.42677180839E+03  0.66169853148E+03  0.80651489304E+03  0.00000000000E+00 0. -1.
         -4    1    3    3    0  502 -0.35212859058E+03 -0.95565708799E+03  0.12420998706E+04  0.16062649540E+04  0.00000000000E+00 0.  1.
         11    1    5    5    0    0  0.90606457920E+02  0.23967767400E+03  0.21143656959E+03  0.33220526875E+03  0.00000000000E+00 0.  1.
        -11    1    5    5    0    0  0.38692663442E+03  0.11189596081E+04  0.73293738529E+03  0.13924726338E+04  0.00000000000E+00 0. -1.
          5    1    6    6  503    0  0.73551052799E+02  0.32932665199E+02 -0.22946991384E+02  0.83922417854E+02  0.47000000000E+01 0. -1.
         -5    1    6    6    0  503 -0.24349856751E+02 -0.91410509429E+01 -0.11598662508E+02  0.28863355801E+02  0.47000000000E+01 0.  1.
<mgrwt>
<rscale>  0 0.15134658E+04</rscale>
<asrwt>0</asrwt>
<pdfrwt beam="1">  1        2 0.54337462E+00 0.15134658E+04</pdfrwt>
<pdfrwt beam="2">  1       -2 0.11050899E+00 0.15134658E+04</pdfrwt>
<totfact> 0.48085541E-01</totfact>
</mgrwt>
</event>
<event>
12    1  0.3166324E-008  0.7409516E+03  0.7818608E-02  0.9649654E-01
          2   -1    0    0  501    0  0.00000000000E+00  0.00000000000E+00  0.16902790693E+04  0.16902790693E+04  0.00000000000E+00 0. -1.
         -2   -1    0    0    0  501 -0.00000000000E+00 -0.00000000000E+00 -0.40796608835E+03  0.40796608835E+03  0.00000000000E+00 0.  1.
         23    2    1    2    0    0 -0.66511377165E+03 -0.19761613259E+03  0.32158562397E+03  0.76991473684E+03  0.89010804715E+02 0.  0.
    5000000    2    1    2    0    0  0.66511377165E+03  0.19761613259E+03  0.96072735696E+03  0.13283304208E+04  0.60003015531E+03 0.  0.
         23    2    4    4    0    0  0.52930506774E+03  0.28055901287E+03  0.37085125597E+03  0.71026277759E+03  0.89807264367E+02 0.  0.
         23    2    4    4    0    0  0.13580870391E+03 -0.82942880276E+02  0.58987610099E+03  0.61806764320E+03  0.93435922467E+02 0.  0.
          1    1    3    3  502    0 -0.63657735769E+03 -0.20710947254E+03  0.30943407612E+03  0.73747848335E+03  0.00000000000E+00 0. -1.
         -1    1    3    3    0  502 -0.28536413960E+02  0.94933399502E+01  0.12151547841E+02  0.32436253483E+02  0.00000000000E+00 0.  1.
         13    1    5    5    0    0  0.20575610604E+03  0.14296348579E+03  0.19289793500E+03  0.31620206636E+03  0.00000000000E+00 0. -1.
        -13    1    5    5    0    0  0.32354896170E+03  0.13759552707E+03  0.17795332097E+03  0.39406071122E+03  0.00000000000E+00 0.  1.
          5    1    6    6  503    0  0.30229059797E+02  0.16840568998E+02  0.17547279747E+03  0.17891392755E+03  0.47000000000E+01 0. -1.
         -5    1    6    6    0  503  0.10557964411E+03 -0.99783449273E+02  0.41440330352E+03  0.43915371565E+03  0.47000000000E+01 0.  1.
<mgrwt>
<rscale>  0 0.74095160E+03</rscale>
<asrwt>0</asrwt>
<pdfrwt beam="1">  1        2 0.26004293E+00 0.74095160E+03</pdfrwt>
<pdfrwt beam="2">  1       -2 0.62764015E-01 0.74095160E+03</pdfrwt>
<totfact> 0.24030937E+01</totfact>
</mgrwt>
</event>
<event>
12    1  0.3166324E-008  0.2153083E+04  0.7818608E-02  0.8538214E-01
          2   -1    0    0  501    0  0.00000000000E+00  0.00000000000E+00  0.34720786670E+04  0.34720786670E+04  0.00000000000E+00 0. -1.
         -2   -1    0    0    0  501 -0.00000000000E+00 -0.00000000000E+00 -0.13678216815E+04  0.13678216815E+04  0.00000000000E+00 0.  1.
         23    2    1    2    0    0 -0.67601433083E+03 -0.20258572005E+04  0.11134131135E+04  0.24103030272E+04  0.93697114416E+02 0.  0.
    5000000    2    1    2    0    0  0.67601433083E+03  0.20258572005E+04  0.99084387199E+03  0.24295973212E+04  0.60006565654E+03 0.  0.
         23    2    4    4    0    0  0.11885927821E+03  0.82577657509E+02  0.28284879438E+01  0.17762348419E+03  0.10293446584E+03 0.  0.
         23    2    4    4    0    0  0.55715505263E+03  0.19432795430E+04  0.98801538405E+03  0.22519738370E+04  0.91949053999E+02 0.  0.
          1    1    3    3  502    0 -0.53190924893E+03 -0.17030585551E+04  0.93411102884E+03  0.20139263406E+04  0.00000000000E+00 0. -1.
         -1    1    3    3    0  502 -0.14410508190E+03 -0.32279864547E+03  0.17930208468E+03  0.39637668665E+03  0.00000000000E+00 0.  1.
         11    1    5    5    0    0  0.42362539426E+02  0.26671902227E+02 -0.48640104818E+02  0.69798530871E+02  0.00000000000E+00 0. -1.
        -11    1    5    5    0    0  0.76496738779E+02  0.55905755282E+02  0.51468592762E+02  0.10782495332E+03  0.00000000000E+00 0.  1.
          5    1    6    6  503    0  0.16295308039E+03  0.72840713592E+03  0.36481075579E+03  0.83080661986E+03  0.47000000000E+01 0. -1.
         -5    1    6    6    0  503  0.39420197223E+03  0.12148724071E+04  0.62320462826E+03  0.14211672172E+04  0.47000000000E+01 0.  1.
<mgrwt>
<rscale>  0 0.21530827E+04</rscale>
<asrwt>0</asrwt>
<pdfrwt beam="1">  1        2 0.53416595E+00 0.21530827E+04</pdfrwt>
<pdfrwt beam="2">  1       -2 0.21043411E+00 0.21530827E+04</pdfrwt>
<totfact> 0.85063316E-02</totfact>
</mgrwt>
</event>
<event>
12    1  0.3166324E-008  0.4453175E+03  0.7818608E-02  0.1029128E+00
         -2   -1    0    0    0  501 -0.00000000000E+00  0.00000000000E+00  0.55463537064E+03  0.55463537064E+03  0.00000000000E+00 0. -1.
          2   -1    0    0  501    0  0.00000000000E+00 -0.00000000000E+00 -0.58230041813E+03  0.58230041813E+03  0.00000000000E+00 0.  1.
         23    2    1    2    0    0  0.91558114435E+02 -0.24036511034E+03  0.30050238227E+03  0.40632196038E+03  0.92938577287E+02 0.  0.
    5000000    2    1    2    0    0 -0.91558114435E+02  0.24036511034E+03 -0.32816742976E+03  0.73061382839E+03  0.59995368962E+03 0.  0.
         23    2    4    4    0    0 -0.31218136363E+03  0.36374533584E+02 -0.23667762289E+03  0.40350536953E+03  0.89554316312E+02 0.  0.
         23    2    4    4    0    0  0.22062324920E+03  0.20399057676E+03 -0.91489806872E+02  0.32710845886E+03  0.91338850461E+02 0.  0.
          2    1    3    3  502    0  0.17928382963E+02 -0.74208409531E+02  0.33579233478E+02  0.83401917734E+02  0.00000000000E+00 0. -1.
         -2    1    3    3    0  502  0.73629731472E+02 -0.16615670081E+03  0.26692314880E+03  0.32292004265E+03  0.00000000000E+00 0.  1.
         13    1    5    5    0    0 -0.23837416700E+03  0.52627689761E+02 -0.14217285312E+03  0.28249785377E+03  0.00000000000E+00 0.  1.
        -13    1    5    5    0    0 -0.73807196630E+02 -0.16253156177E+02 -0.94504769765E+02  0.12100751575E+03  0.00000000000E+00 0. -1.
          5    1    6    6  503    0 -0.53875524170E+01 -0.15655254206E+01  0.19920185931E+01  0.75851650585E+01  0.47000000000E+01 0. -1.
         -5    1    6    6    0  503  0.22601080161E+03  0.20555610218E+03 -0.93481825465E+02  0.31952329380E+03  0.47000000000E+01 0.  1.
<mgrwt>
<rscale>  0 0.44531747E+03</rscale>
<asrwt>0</asrwt>
<pdfrwt beam="1">  1        2 0.89584679E-01 0.44531747E+03</pdfrwt>
<pdfrwt beam="2">  1       -2 0.85328519E-01 0.44531747E+03</pdfrwt>
<totfact> 0.63757004E+01</totfact>
</mgrwt>
</event>
<event>
12    1  0.3166324E-008  0.6556949E+03  0.7818608E-02  0.9796151E-01
          1   -1    0    0  501    0  0.00000000000E+00  0.00000000000E+00  0.27558189027E+03  0.27558189027E+03  0.00000000000E+00 0. -1.
         -1   -1    0    0    0  501 -0.00000000000E+00 -0.00000000000E+00 -0.18522903511E+04  0.18522903511E+04  0.00000000000E+00 0.  1.
         23    2    1    2    0    0 -0.14402326124E+03  0.51825555920E+03 -0.31301384511E+03  0.62914076518E+03  0.92243757246E+02 0.  0.
    5000000    2    1    2    0    0  0.14402326124E+03 -0.51825555920E+03 -0.12636946157E+04  0.14987314762E+04  0.59995035751E+03 0.  0.
         23    2    4    4    0    0 -0.16243999333E+03 -0.39844885293E+03 -0.88926519644E+03  0.99206929782E+03  0.90888185363E+02 0.  0.
         23    2    4    4    0    0  0.30646325457E+03 -0.11980670627E+03 -0.37442941926E+03  0.50666217835E+03  0.90751306829E+02 0.  0.
          3    1    3    3  502    0 -0.10295463864E+03  0.45772645934E+03 -0.24509830322E+03  0.52932631470E+03  0.00000000000E+00 0. -1.
         -3    1    3    3    0  502 -0.41068622601E+02  0.60529099867E+02 -0.67915541893E+02  0.99814450475E+02  0.00000000000E+00 0.  1.
         13    1    5    5    0    0 -0.10181764126E+03 -0.34227576910E+03 -0.72713345735E+03  0.81008801928E+03  0.00000000000E+00 0.  1.
        -13    1    5    5    0    0 -0.60622352071E+02 -0.56173083831E+02 -0.16213173909E+03  0.18198127854E+03  0.00000000000E+00 0. -1.
          5    1    6    6  503    0  0.13769887205E+03 -0.48521393785E+02 -0.23371598858E+03  0.27560943078E+03  0.47000000000E+01 0. -1.
         -5    1    6    6    0  503  0.16876438252E+03 -0.71285312486E+02 -0.14071343069E+03  0.23105274757E+03  0.47000000000E+01 0.  1.
<mgrwt>
<rscale>  0 0.65569491E+03</rscale>
<asrwt>0</asrwt>
<pdfrwt beam="1">  1        1 0.42397215E-01 0.65569491E+03</pdfrwt>
<pdfrwt beam="2">  1       -1 0.28496774E+00 0.65569491E+03</pdfrwt>
<totfact> 0.42896098E+00</totfact>
</mgrwt>
</event>
<event>
12    1  0.3166324E-008  0.6145399E+03  0.7818608E-02  0.9875691E-01
         -1   -1    0    0    0  501 -0.00000000000E+00  0.00000000000E+00  0.26689846687E+03  0.26689846687E+03  0.00000000000E+00 0.  1.
          1   -1    0    0  501    0  0.00000000000E+00 -0.00000000000E+00 -0.16931785620E+04  0.16931785620E+04  0.00000000000E+00 0. -1.
         23    2    1    2    0    0 -0.40996906574E+01 -0.52531772912E+03 -0.70335237119E+03  0.88373483800E+03  0.10152429187E+03 0.  0.
    5000000    2    1    2    0    0  0.40996906574E+01  0.52531772912E+03 -0.72292772396E+03  0.10763421909E+04  0.59992707377E+03 0.  0.
         23    2    4    4    0    0  0.19798242723E+03  0.41172830154E+03 -0.21670678578E+03  0.51360601412E+03  0.90067035923E+02 0.  0.
         23    2    4    4    0    0 -0.19388273657E+03  0.11358942758E+03 -0.50622093818E+03  0.56273617677E+03  0.99595646507E+02 0.  0.
          3    1    3    3  502    0 -0.46482823865E+02 -0.24106658455E+03 -0.36373687832E+03  0.43883740469E+03  0.00000000000E+00 0. -1.
         -3    1    3    3    0  502  0.42383133208E+02 -0.28425114458E+03 -0.33961549287E+03  0.44489743331E+03  0.00000000000E+00 0.  1.
         13    1    5    5    0    0  0.26795828614E+02  0.14470607269E+03 -0.51055476827E+02  0.15577074699E+03  0.00000000000E+00 0.  1.
        -13    1    5    5    0    0  0.17118659861E+03  0.26702222885E+03 -0.16565130895E+03  0.35783526713E+03  0.00000000000E+00 0. -1.
          5    1    6    6  503    0 -0.16063058801E+03  0.66324529929E+02 -0.44808989687E+03  0.48063268174E+03  0.47000000000E+01 0. -1.
         -5    1    6    6    0  503 -0.33252148555E+02  0.47264897655E+02 -0.58131041304E+02  0.82103495035E+02  0.47000000000E+01 0.  1.
<mgrwt>
<rscale>  0 0.61453991E+03</rscale>
<asrwt>0</asrwt>
<pdfrwt beam="1">  1        1 0.26048901E+00 0.61453991E+03</pdfrwt>
<pdfrwt beam="2">  1       -1 0.41061303E-01 0.61453991E+03</pdfrwt>
<totfact> 0.29474174E+01</totfact>
</mgrwt>
</event>
<event>
12    1  0.3166324E-008  0.7884695E+03  0.7818608E-02  0.9576859E-01
         -1   -1    0    0    0  501 -0.00000000000E+00  0.00000000000E+00  0.10106374667E+04  0.10106374667E+04  0.00000000000E+00 0.  1.
          1   -1    0    0  501    0  0.00000000000E+00 -0.00000000000E+00 -0.89372316244E+03  0.89372316244E+03  0.00000000000E+00 0. -1.
         23    2    1    2    0    0 -0.67355514341E+03 -0.89539718938E+02 -0.46445942904E+03  0.82746597439E+03  0.85343336337E+02 0.  0.
    5000000    2    1    2    0    0  0.67355514341E+03  0.89539718938E+02  0.58137373327E+03  0.10768946547E+04  0.60001065585E+03 0.  0.
         23    2    4    4    0    0  0.75349260692E+03  0.12505046411E+03  0.43668955935E+03  0.88450267752E+03  0.90876223705E+02 0.  0.
         23    2    4    4    0    0 -0.79937463512E+02 -0.35510745168E+02  0.14468417392E+03  0.19239197720E+03  0.91815857077E+02 0.  0.
          3    1    3    3  502    0 -0.42595464686E+01  0.55099827982E+01 -0.12433211608E+02  0.14250908653E+02  0.00000000000E+00 0. -1.
         -3    1    3    3    0  502 -0.66929559694E+03 -0.95049701736E+02 -0.45202621743E+03  0.81321506573E+03  0.00000000000E+00 0.  1.
         13    1    5    5    0    0  0.58663577841E+03  0.63289441660E+02  0.35621847557E+03  0.68923050736E+03  0.00000000000E+00 0. -1.
        -13    1    5    5    0    0  0.16685682851E+03  0.61761022446E+02  0.80471083780E+02  0.19527217016E+03  0.00000000000E+00 0.  1.
          5    1    6    6  503    0 -0.61429690020E+02 -0.65835983918E+02  0.93340795797E+02  0.12977895729E+03  0.47000000000E+01 0. -1.
         -5    1    6    6    0  503 -0.18507773492E+02  0.30325238750E+02  0.51343378124E+02  0.62613019909E+02  0.47000000000E+01 0.  1.
<mgrwt>
<rscale>  0 0.78846954E+03</rscale>
<asrwt>0</asrwt>
<pdfrwt beam="1">  1        1 0.13749587E+00 0.78846954E+03</pdfrwt>
<pdfrwt beam="2">  1       -1 0.15548269E+00 0.78846954E+03</pdfrwt>
<totfact> 0.59957389E+00</totfact>
</mgrwt>
</event>
<event>
12    1  0.3166324E-008  0.5497900E+03  0.7818608E-02  0.1001543E+00
         -2   -1    0    0    0  501 -0.00000000000E+00  0.00000000000E+00  0.20135075384E+03  0.20135075384E+03  0.00000000000E+00 0.  1.
          2   -1    0    0  501    0  0.00000000000E+00 -0.00000000000E+00 -0.16528862076E+04  0.16528862076E+04  0.00000000000E+00 0. -1.
         23    2    1    2    0    0  0.25276029545E+03  0.30828900556E+03 -0.37371214638E+03  0.55781718704E+03  0.11211319235E+03 0.  0.
    5000000    2    1    2    0    0 -0.25276029545E+03 -0.30828900556E+03 -0.10778233074E+04  0.12964197744E+04  0.60005939008E+03 0.  0.
         23    2    4    4    0    0  0.13968603085E+03  0.46206631686E+02 -0.36564841521E+03  0.40471976629E+03  0.91935225319E+02 0.  0.
         23    2    4    4    0    0 -0.39244632630E+03 -0.35449563724E+03 -0.71217489219E+03  0.89170000812E+03  0.90854562796E+02 0.  0.
          3    1    3    3  502    0  0.41663637202E+02  0.13414870319E+03 -0.12626156596E+03  0.18887486935E+03  0.00000000000E+00 0. -1.
         -3    1    3    3    0  502  0.21109665824E+03  0.17414030237E+03 -0.24745058042E+03  0.36894231769E+03  0.00000000000E+00 0.  1.
         13    1    5    5    0    0  0.97012495140E+02  0.52183959039E+02 -0.15776352961E+03  0.19241601043E+03  0.00000000000E+00 0.  1.
        -13    1    5    5    0    0  0.42673535710E+02 -0.59773273523E+01 -0.20788488560E+03  0.21230375586E+03  0.00000000000E+00 0. -1.
          5    1    6    6  503    0 -0.11069949130E+03 -0.13730657168E+03 -0.18442361694E+03  0.25522858869E+03  0.47000000000E+01 0. -1.
         -5    1    6    6    0  503 -0.28174683499E+03 -0.21718906557E+03 -0.52775127525E+03  0.63647141943E+03  0.47000000000E+01 0.  1.
<mgrwt>
<rscale>  0 0.54978997E+03</rscale>
<asrwt>0</asrwt>
<pdfrwt beam="1">  1        2 0.25429017E+00 0.54978997E+03</pdfrwt>
<pdfrwt beam="2">  1       -2 0.30977041E-01 0.54978997E+03</pdfrwt>
<totfact> 0.10489870E+02</totfact>
</mgrwt>
</event>
<event>
12    1  0.3166324E-008  0.6365892E+03  0.7818608E-02  0.9832274E-01
          2   -1    0    0  501    0  0.00000000000E+00  0.00000000000E+00  0.24350233802E+04  0.24350233802E+04  0.00000000000E+00 0. -1.
         -2   -1    0    0    0  501 -0.00000000000E+00 -0.00000000000E+00 -0.19436910347E+03  0.19436910347E+03  0.00000000000E+00 0.  1.
         23    2    1    2    0    0 -0.46488048061E+03 -0.29134896140E+03  0.10381681399E+04  0.11778387400E+04  0.92265552115E+02 0.  0.
    5000000    2    1    2    0    0  0.46488048061E+03  0.29134896140E+03  0.12024861368E+04  0.14515537437E+04  0.60003106836E+03 0.  0.
         23    2    4    4    0    0 -0.27631697123E+02 -0.73619785527E+02  0.28181528842E+02  0.12379933156E+03  0.91371179377E+02 0.  0.
         23    2    4    4    0    0  0.49251217773E+03  0.36496874693E+03  0.11743046080E+04  0.13277544121E+04  0.90388246711E+02 0.  0.
          4    1    3    3  502    0 -0.34801152459E+03 -0.25432444419E+03  0.85376077710E+03  0.95639971177E+03  0.00000000000E+00 0. -1.
         -4    1    3    3    0  502 -0.11686895602E+03 -0.37024517218E+02  0.18440736282E+03  0.22143902822E+03  0.00000000000E+00 0.  1.
         11    1    5    5    0    0 -0.46179223075E+02 -0.35026337181E+02  0.49267517296E+02  0.76070054559E+02  0.00000000000E+00 0.  1.
        -11    1    5    5    0    0  0.18547525952E+02 -0.38593448347E+02 -0.21085988455E+02  0.47729277004E+02  0.00000000000E+00 0. -1.
          5    1    6    6  503    0  0.32892862771E+03  0.19310099002E+03  0.68952334776E+03  0.78800163171E+03  0.47000000000E+01 0. -1.
         -5    1    6    6    0  503  0.16358355002E+03  0.17186775691E+03  0.48478126020E+03  0.53975278039E+03  0.47000000000E+01 0.  1.
<mgrwt>
<rscale>  0 0.63658918E+03</rscale>
<asrwt>0</asrwt>
<pdfrwt beam="1">  1        2 0.37461896E+00 0.63658918E+03</pdfrwt>
<pdfrwt beam="2">  1       -2 0.29902941E-01 0.63658918E+03</pdfrwt>
<totfact> 0.41408378E+01</totfact>
</mgrwt>
</event>
<event>
12    1  0.3166324E-008  0.7986553E+03  0.7818608E-02  0.9561966E-01
         -2   -1    0    0    0  501 -0.00000000000E+00  0.00000000000E+00  0.48168358139E+03  0.48168358139E+03  0.00000000000E+00 0.  1.
          2   -1    0    0  501    0  0.00000000000E+00 -0.00000000000E+00 -0.15491398908E+04  0.15491398908E+04  0.00000000000E+00 0. -1.
         23    2    1    2    0    0 -0.33435046302E+03  0.67352929772E+03 -0.57266650020E+03  0.94907673463E+03  0.85835777813E+02 0.  0.
    5000000    2    1    2    0    0  0.33435046302E+03 -0.67352929772E+03 -0.49478980922E+03  0.10817467376E+04  0.59993924852E+03 0.  0.
         23    2    4    4    0    0  0.34611060710E+03 -0.26795899884E+03 -0.15870467918E+02  0.44759799450E+03  0.92181969591E+02 0.  0.
         23    2    4    4    0    0 -0.11760144080E+02 -0.40557029888E+03 -0.47891934130E+03  0.63414874307E+03  0.90306835515E+02 0.  0.
          1    1    3    3  502    0 -0.31675075869E+02  0.97325624811E+02 -0.11175611910E+03  0.15154213220E+03  0.00000000000E+00 0. -1.
         -1    1    3    3    0  502 -0.30267538715E+03  0.57620367291E+03 -0.46091038110E+03  0.79753460242E+03  0.00000000000E+00 0.  1.
         11    1    5    5    0    0  0.19249835398E+03 -0.15771578862E+03 -0.54159986616E+02  0.25468252868E+03  0.00000000000E+00 0. -1.
        -11    1    5    5    0    0  0.15361225312E+03 -0.11024321022E+03  0.38289518697E+02  0.19291546582E+03  0.00000000000E+00 0.  1.
          5    1    6    6  503    0 -0.15319750336E+02 -0.29927965280E+03 -0.28854882155E+03  0.41603547655E+03  0.47000000000E+01 0. -1.
         -5    1    6    6    0  503  0.35596062563E+01 -0.10629064608E+03 -0.19037051975E+03  0.21811326652E+03  0.47000000000E+01 0.  1.
<mgrwt>
<rscale>  0 0.79865533E+03</rscale>
<asrwt>0</asrwt>
<pdfrwt beam="1">  1        2 0.23832921E+00 0.79865533E+03</pdfrwt>
<pdfrwt beam="2">  1       -2 0.74105167E-01 0.79865533E+03</pdfrwt>
<totfact> 0.19898979E+01</totfact>
</mgrwt>
</event>
<event>
12    1  0.3166324E-008  0.7560606E+03  0.7818608E-02  0.9625890E-01
         -2   -1    0    0    0  501 -0.00000000000E+00  0.00000000000E+00  0.86723987479E+03  0.86723987479E+03  0.00000000000E+00 0.  1.
          2   -1    0    0  501    0  0.00000000000E+00 -0.00000000000E+00 -0.10178631149E+04  0.10178631149E+04  0.00000000000E+00 0. -1.
         23    2    1    2    0    0 -0.62770729322E+03 -0.21107331728E+03  0.45275432088E+03  0.80746275964E+03  0.91876231379E+02 0.  0.
    5000000    2    1    2    0    0  0.62770729322E+03  0.21107331728E+03 -0.60337756100E+03  0.10776402301E+04  0.59889531064E+03 0.  0.
         23    2    4    4    0    0  0.66692280024E+03  0.61347270339E+02 -0.33382714784E+03  0.75385672656E+03  0.91158600763E+02 0.  0.
         23    2    4    4    0    0 -0.39215507019E+02  0.14972604694E+03 -0.26955041316E+03  0.32378350350E+03  0.90678480253E+02 0.  0.
          4    1    3    3  502    0 -0.32018159993E+03 -0.10324993255E+03  0.28515398836E+03  0.44100975339E+03  0.00000000000E+00 0.  1.
         -4    1    3    3    0  502 -0.30752569329E+03 -0.10782338473E+03  0.16760033253E+03  0.36645300625E+03  0.00000000000E+00 0. -1.
         13    1    5    5    0    0  0.41012408261E+03  0.20046369435E+02 -0.24929567596E+03  0.48036647897E+03  0.00000000000E+00 0. -1.
        -13    1    5    5    0    0  0.25679871763E+03  0.41300900904E+02 -0.84531471880E+02  0.27349024759E+03  0.00000000000E+00 0.  1.
          5    1    6    6  503    0  0.29066174708E+02  0.37760577478E+02 -0.64356201851E+02  0.80215425202E+02  0.47000000000E+01 0. -1.
         -5    1    6    6    0  503 -0.68281681727E+02  0.11196546947E+03 -0.20519421131E+03  0.24356807830E+03  0.47000000000E+01 0.  1.
<mgrwt>
<rscale>  0 0.75606062E+03</rscale>
<asrwt>0</asrwt>
<pdfrwt beam="1">  1        2 0.15659433E+00 0.75606062E+03</pdfrwt>
<pdfrwt beam="2">  1       -2 0.13342152E+00 0.75606062E+03</pdfrwt>
<totfact> 0.10142934E+01</totfact>
</mgrwt>
</event>
<event>
12    1  0.3166324E-008  0.5475831E+03  0.7818608E-02  0.1002055E+00
          2   -1    0    0  501    0  0.00000000000E+00  0.00000000000E+00  0.69119862278E+03  0.69119862278E+03  0.00000000000E+00 0.  1.
         -2   -1    0    0    0  501 -0.00000000000E+00 -0.00000000000E+00 -0.61342930677E+03  0.61342930677E+03  0.00000000000E+00 0. -1.
         23    2    1    2    0    0  0.35128946764E+03 -0.27516769801E+03 -0.21242972737E+03  0.50253763094E+03  0.91083090324E+02 0.  0.
    5000000    2    1    2    0    0 -0.35128946764E+03  0.27516769801E+03  0.29019904338E+03  0.80209029860E+03  0.60000984178E+03 0.  0.
         23    2    4    4    0    0  0.85761113205E+02  0.16238981697E+03  0.27204761448E+03  0.34054981206E+03  0.90768104262E+02 0.  0.
         23    2    4    4    0    0 -0.43705058085E+03  0.11277788104E+03  0.18151428894E+02  0.46154048654E+03  0.94647164141E+02 0.  0.
          3    1    3    3  502    0  0.11134764117E+03 -0.13922723720E+03 -0.10263595972E+03  0.20571013830E+03  0.00000000000E+00 0. -1.
         -3    1    3    3    0  502  0.23994182647E+03 -0.13594046081E+03 -0.10979376765E+03  0.29682749264E+03  0.00000000000E+00 0.  1.
         11    1    5    5    0    0  0.17323393766E+02  0.23534247576E+02  0.20165589871E+01  0.29292102872E+02  0.00000000000E+00 0. -1.
        -11    1    5    5    0    0  0.68437719440E+02  0.13885556940E+03  0.27003105549E+03  0.31125770918E+03  0.00000000000E+00 0.  1.
          5    1    6    6  503    0 -0.53753843097E+02 -0.93783608976E+01 -0.17876383839E+02  0.57611495381E+02  0.47000000000E+01 0. -1.
         -5    1    6    6    0  503 -0.38329673775E+03  0.12215624193E+03  0.36027812733E+02  0.40392899116E+03  0.47000000000E+01 0.  1.
<mgrwt>
<rscale>  0 0.54758307E+03</rscale>
<asrwt>0</asrwt>
<pdfrwt beam="1">  1        2 0.10633825E+00 0.54758307E+03</pdfrwt>
<pdfrwt beam="2">  1       -2 0.94373740E-01 0.54758307E+03</pdfrwt>
<totfact> 0.40674080E+01</totfact>
</mgrwt>
</event>
<event>
12    1  0.3166324E-008  0.4450735E+03  0.7818608E-02  0.1029201E+00
         -1   -1    0    0    0  501 -0.00000000000E+00  0.00000000000E+00  0.49666110156E+03  0.49666110156E+03  0.00000000000E+00 0.  1.
          1   -1    0    0  501    0  0.00000000000E+00 -0.00000000000E+00 -0.13041944863E+04  0.13041944863E+04  0.00000000000E+00 0. -1.
         23    2    1    2    0    0  0.42474199632E+03  0.48706084219E+02 -0.95385037077E+03  0.10496964640E+04  0.96198184190E+02 0.  0.
    5000000    2    1    2    0    0 -0.42474199632E+03 -0.48706084219E+02  0.14631698604E+03  0.75115912384E+03  0.60004443406E+03 0.  0.
         23    2    4    4    0    0 -0.20881630370E+03  0.30468375331E+02 -0.21316617964E+03  0.31461195797E+03  0.94912029612E+02 0.  0.
         23    2    4    4    0    0 -0.21592569262E+03 -0.79174459550E+02  0.35948316569E+03  0.43654716587E+03  0.91939011521E+02 0.  0.
          3    1    3    3  502    0  0.20751065761E+03  0.13580017578E+02 -0.35148766043E+03  0.40839768037E+03  0.00000000000E+00 0. -1.
         -3    1    3    3    0  502  0.21723133871E+03  0.35126066640E+02 -0.60236271034E+03  0.64129878363E+03  0.00000000000E+00 0.  1.
         13    1    5    5    0    0 -0.61188323819E+02 -0.26796157134E+02 -0.98890907958E+02  0.11933757449E+03  0.00000000000E+00 0.  1.
        -13    1    5    5    0    0 -0.14762797988E+03  0.57264532465E+02 -0.11427527169E+03  0.19527438348E+03  0.00000000000E+00 0. -1.
          5    1    6    6  503    0 -0.15205336324E+03 -0.82133830611E+02  0.31224513240E+03  0.35691077892E+03  0.47000000000E+01 0. -1.
         -5    1    6    6    0  503 -0.63872329379E+02  0.29593710608E+01  0.47238033287E+02  0.79636386949E+02  0.47000000000E+01 0.  1.
<mgrwt>
<rscale>  0 0.44507349E+03</rscale>
<asrwt>0</asrwt>
<pdfrwt beam="1">  1        1 0.20064531E+00 0.44507349E+03</pdfrwt>
<pdfrwt beam="2">  1       -1 0.76409400E-01 0.44507349E+03</pdfrwt>
<totfact> 0.16830616E+01</totfact>
</mgrwt>
</event>
<event>
12    1  0.3166324E-008  0.1995645E+04  0.7818608E-02  0.8608659E-01
         -1   -1    0    0    0  501 -0.00000000000E+00  0.00000000000E+00  0.22244397557E+04  0.22244397557E+04  0.00000000000E+00 0.  1.
          1   -1    0    0  501    0  0.00000000000E+00 -0.00000000000E+00 -0.19629317720E+04  0.19629317720E+04  0.00000000000E+00 0. -1.
         23    2    1    2    0    0  0.18208329708E+02 -0.19528695457E+04  0.73764262068E+03  0.20895977671E+04  0.90946063544E+02 0.  0.
    5000000    2    1    2    0    0 -0.18208329708E+02  0.19528695457E+04 -0.47613463695E+03  0.20977737606E+04  0.59993295629E+03 0.  0.
         23    2    4    4    0    0  0.25071593640E+03  0.12921618940E+04 -0.37627216453E+03  0.13718182867E+04  0.88112592152E+02 0.  0.
         23    2    4    4    0    0 -0.26892426610E+03  0.66070765173E+03 -0.99862472420E+02  0.72595547384E+03  0.90465322876E+02 0.  0.
          1    1    3    3  502    0 -0.34321530271E+02 -0.11330082310E+04  0.42842272302E+03  0.12117886155E+04  0.00000000000E+00 0. -1.
         -1    1    3    3    0  502  0.52529859979E+02 -0.81986131474E+03  0.30921989766E+03  0.87780915164E+03  0.00000000000E+00 0.  1.
         13    1    5    5    0    0  0.11139674976E+03  0.79623101151E+03 -0.22142692603E+03  0.83392022587E+03  0.00000000000E+00 0.  1.
        -13    1    5    5    0    0  0.13931918663E+03  0.49593088250E+03 -0.15484523851E+03  0.53789806085E+03  0.00000000000E+00 0. -1.
          5    1    6    6  503    0 -0.16145655515E+03  0.30025641931E+03 -0.74159773270E+02  0.34891818311E+03  0.47000000000E+01 0. -1.
         -5    1    6    6    0  503 -0.10746771096E+03  0.36045123243E+03 -0.25702699150E+02  0.37703729073E+03  0.47000000000E+01 0.  1.
<mgrwt>
<rscale>  0 0.19956454E+04</rscale>
<asrwt>0</asrwt>
<pdfrwt beam="1">  1        1 0.30198950E+00 0.19956454E+04</pdfrwt>
<pdfrwt beam="2">  1       -1 0.34222150E+00 0.19956454E+04</pdfrwt>
<totfact> 0.49213681E-02</totfact>
</mgrwt>
</event>
<event>
12    1  0.3166324E-008  0.1043465E+04  0.7818608E-02  0.9262117E-01
         -2   -1    0    0    0  501 -0.00000000000E+00  0.00000000000E+00  0.39992074418E+03  0.39992074418E+03  0.00000000000E+00 0.  1.
          2   -1    0    0  501    0  0.00000000000E+00 -0.00000000000E+00 -0.32601446659E+04  0.32601446659E+04  0.00000000000E+00 0. -1.
         23    2    1    2    0    0  0.59246439691E+03 -0.82408666171E+03 -0.18288591730E+04  0.20935881827E+04  0.90844463805E+02 0.  0.
    5000000    2    1    2    0    0 -0.59246439691E+03  0.82408666171E+03 -0.10313647487E+04  0.15664772274E+04  0.60000397607E+03 0.  0.
         23    2    4    4    0    0 -0.34578395671E+03  0.67669151794E+03 -0.10010732208E+04  0.12608320123E+04  0.10035843106E+03 0.  0.
         23    2    4    4    0    0 -0.24668044020E+03  0.14739514377E+03 -0.30291527937E+02  0.30564521506E+03  0.99623555639E+02 0.  0.
          1    1    3    3  502    0  0.69553726825E+02 -0.15400126299E+03 -0.31194729993E+03  0.35477489743E+03  0.00000000000E+00 0. -1.
         -1    1    3    3    0  502  0.52291067009E+03 -0.67008539872E+03 -0.15169118731E+04  0.17388132853E+04  0.00000000000E+00 0.  1.
         11    1    5    5    0    0 -0.13586522287E+03  0.18733569332E+03 -0.25671660735E+03  0.34562615246E+03  0.00000000000E+00 0. -1.
        -11    1    5    5    0    0 -0.20991873384E+03  0.48935582462E+03 -0.74435661344E+03  0.91520585983E+03  0.00000000000E+00 0.  1.
          5    1    6    6  503    0 -0.17306023777E+03  0.15170323786E+03 -0.20361938004E+02  0.23108530199E+03  0.47000000000E+01 0. -1.
         -5    1    6    6    0  503 -0.73620202431E+02 -0.43080940951E+01 -0.99295899329E+01  0.74559913069E+02  0.47000000000E+01 0.  1.
<mgrwt>
<rscale>  0 0.10434649E+04</rscale>
<asrwt>0</asrwt>
<pdfrwt beam="1">  1        2 0.50156073E+00 0.10434649E+04</pdfrwt>
<pdfrwt beam="2">  1       -2 0.61526267E-01 0.10434649E+04</pdfrwt>
<totfact> 0.29731118E+00</totfact>
</mgrwt>
</event>
<event>
12    1  0.3307378E-008  0.1522615E+04  0.7818608E-02  0.8869552E-01
          2   -1    0    0  501    0  0.00000000000E+00  0.00000000000E+00  0.26140151548E+04  0.26140151548E+04  0.00000000000E+00 0.  1.
         -2   -1    0    0    0  501 -0.00000000000E+00 -0.00000000000E+00 -0.90825767051E+03  0.90825767051E+03  0.00000000000E+00 0. -1.
         23    2    1    2    0    0 -0.98614732945E+03 -0.10843803482E+04  0.57869763087E+03  0.15784107812E+04  0.90124088570E+02 0.  0.
    5000000    2    1    2    0    0  0.98614732945E+03  0.10843803482E+04  0.11270598534E+04  0.19438620440E+04  0.59997369784E+03 0.  0.
         23    2    4    4    0    0  0.46372161916E+03  0.13181320832E+03  0.29380972261E+03  0.57176594720E+03  0.90441601661E+02 0.  0.
         23    2    4    4    0    0  0.52242571028E+03  0.95256713992E+03  0.83325013076E+03  0.13720960968E+04  0.89605466842E+02 0.  0.
          2    1    3    3  502    0 -0.51244439301E+03 -0.58577722081E+03  0.35273548432E+03  0.85449197202E+03  0.00000000000E+00 0. -1.
         -2    1    3    3    0  502 -0.47370293643E+03 -0.49860312743E+03  0.22596214655E+03  0.72391880922E+03  0.00000000000E+00 0.  1.
         11    1    5    5    0    0  0.75061167775E+02 -0.11501403391E+02  0.38136312534E+02  0.84975523072E+02  0.00000000000E+00 0. -1.
        -11    1    5    5    0    0  0.38866045139E+03  0.14331461171E+03  0.25567341008E+03  0.48679042413E+03  0.00000000000E+00 0.  1.
          5    1    6    6  503    0  0.22597834262E+03  0.48946160400E+03  0.38171699188E+03  0.66058218642E+03  0.47000000000E+01 0. -1.
         -5    1    6    6    0  503  0.29644736766E+03  0.46310553593E+03  0.45153313889E+03  0.71151391041E+03  0.47000000000E+01 0.  1.
<mgrwt>
<rscale>  0 0.15226146E+04</rscale>
<asrwt>0</asrwt>
<pdfrwt beam="1">  1        2 0.40215617E+00 0.15226146E+04</pdfrwt>
<pdfrwt beam="2">  1       -2 0.13973195E+00 0.15226146E+04</pdfrwt>
<totfact> 0.10181422E+00</totfact>
</mgrwt>
</event>
<event>
12    1  0.3166324E-008  0.9863580E+03  0.7818608E-02  0.9323635E-01
         -1   -1    0    0    0  501 -0.00000000000E+00  0.00000000000E+00  0.67436950449E+03  0.67436950449E+03  0.00000000000E+00 0.  1.
          1   -1    0    0  501    0  0.00000000000E+00 -0.00000000000E+00 -0.22934789240E+04  0.22934789240E+04  0.00000000000E+00 0. -1.
         23    2    1    2    0    0 -0.90711189631E+03  0.11658580680E+03 -0.16329595893E+04  0.18738545553E+04  0.91266814678E+02 0.  0.
    5000000    2    1    2    0    0  0.90711189631E+03 -0.11658580680E+03  0.13850169809E+02  0.10939938731E+04  0.60015541693E+03 0.  0.
         23    2    4    4    0    0  0.57155763376E+02 -0.17756647307E+03  0.10269907828E+03  0.23250079539E+03  0.93342838676E+02 0.  0.
         23    2    4    4    0    0  0.84995613294E+03  0.60980666270E+02 -0.88848908467E+02  0.86149307775E+03  0.90178295058E+02 0.  0.
          1    1    3    3  502    0 -0.42002121158E+03  0.12308373306E+02 -0.70869804204E+03  0.82390668708E+03  0.00000000000E+00 0.  1.
         -1    1    3    3    0  502 -0.48709068474E+03  0.10427743349E+03 -0.92426154726E+03  0.10499478683E+04  0.00000000000E+00 0. -1.
         13    1    5    5    0    0 -0.15396197185E+02 -0.35528706826E+02 -0.64216079562E+01  0.39250082105E+02  0.00000000000E+00 0. -1.
        -13    1    5    5    0    0  0.72551960561E+02 -0.14203776624E+03  0.10912068623E+03  0.19325071328E+03  0.00000000000E+00 0.  1.
          5    1    6    6  503    0  0.50214239221E+03 -0.46617268328E+01 -0.34615490071E+02  0.50337762754E+03  0.47000000000E+01 0. -1.
         -5    1    6    6    0  503  0.34781374073E+03  0.65642393102E+02 -0.54233418396E+02  0.35811545021E+03  0.47000000000E+01 0.  1.
<mgrwt>
<rscale>  0 0.98635798E+03</rscale>
<asrwt>0</asrwt>
<pdfrwt beam="1">  1        1 0.35284291E+00 0.98635798E+03</pdfrwt>
<pdfrwt beam="2">  1       -1 0.10374915E+00 0.98635798E+03</pdfrwt>
<totfact> 0.16748448E+00</totfact>
</mgrwt>
</event>
<event>
12    1  0.3166324E-008  0.9093915E+03  0.7818608E-02  0.9413917E-01
          1   -1    0    0  501    0  0.00000000000E+00  0.00000000000E+00  0.97525824357E+03  0.97525824357E+03  0.00000000000E+00 0. -1.
         -1   -1    0    0    0  501 -0.00000000000E+00 -0.00000000000E+00 -0.87894387575E+03  0.87894387575E+03  0.00000000000E+00 0.  1.
         23    2    1    2    0    0 -0.25709350828E+03 -0.78396510762E+03  0.82953814789E+02  0.83397205751E+03  0.89048836904E+02 0.  0.
    5000000    2    1    2    0    0  0.25709350828E+03  0.78396510762E+03  0.13360553026E+02  0.10202300618E+04  0.59999376052E+03 0.  0.
         23    2    4    4    0    0 -0.14987357164E+03  0.37583356913E+03  0.11086272677E+03  0.42938677359E+03  0.91484960434E+02 0.  0.
         23    2    4    4    0    0  0.40696707992E+03  0.40813153850E+03 -0.97502173747E+02  0.59084328822E+03  0.85997444702E+02 0.  0.
          3    1    3    3  502    0 -0.24932868333E+03 -0.65930651263E+03  0.74055078419E+02  0.70875526422E+03  0.00000000000E+00 0. -1.
         -3    1    3    3    0  502 -0.77648249483E+01 -0.12465859499E+03  0.88987363697E+01  0.12521679329E+03  0.00000000000E+00 0.  1.
         13    1    5    5    0    0 -0.14243182976E+03  0.26579995936E+03  0.57986884920E+02  0.30708129762E+03  0.00000000000E+00 0. -1.
        -13    1    5    5    0    0 -0.74417418825E+01  0.11003360976E+03  0.52875841853E+02  0.12230547597E+03  0.00000000000E+00 0.  1.
          5    1    6    6  503    0  0.20916727827E+03  0.18927435020E+03 -0.69167951354E+01  0.28221563032E+03  0.47000000000E+01 0. -1.
         -5    1    6    6    0  503  0.19779980164E+03  0.21885718829E+03 -0.90585378612E+02  0.30862765789E+03  0.47000000000E+01 0.  1.
<mgrwt>
<rscale>  0 0.90939147E+03</rscale>
<asrwt>0</asrwt>
<pdfrwt beam="1">  1        1 0.15003973E+00 0.90939147E+03</pdfrwt>
<pdfrwt beam="2">  1       -1 0.13522214E+00 0.90939147E+03</pdfrwt>
<totfact> 0.73508282E+00</totfact>
</mgrwt>
</event>
<event>
12    1  0.3166324E-008  0.8590176E+03  0.7818608E-02  0.9478313E-01
         -2   -1    0    0    0  501 -0.00000000000E+00  0.00000000000E+00  0.14955713419E+04  0.14955713419E+04  0.00000000000E+00 0.  1.
          2   -1    0    0  501    0  0.00000000000E+00 -0.00000000000E+00 -0.59808916330E+03  0.59808916330E+03  0.00000000000E+00 0. -1.
         23    2    1    2    0    0 -0.20428795647E+03  0.76611359970E+03  0.70176458485E+02  0.80024170001E+03  0.82452570037E+02 0.  0.
    5000000    2    1    2    0    0  0.20428795647E+03 -0.76611359970E+03  0.82730572014E+03  0.12934188052E+04  0.59986151259E+03 0.  0.
         23    2    4    4    0    0  0.34081060992E+03 -0.49152768989E+03  0.75151898910E+03  0.96451155808E+03  0.88036429587E+02 0.  0.
         23    2    4    4    0    0 -0.13652265345E+03 -0.27458590981E+03  0.75786731042E+02  0.32890724713E+03  0.91654197062E+02 0.  0.
          3    1    3    3  502    0 -0.86780734223E+02  0.40083316090E+03 -0.23252113549E+00  0.41011970543E+03  0.00000000000E+00 0. -1.
         -3    1    3    3    0  502 -0.11750722225E+03  0.36528043880E+03  0.70408979621E+02  0.39012199458E+03  0.00000000000E+00 0.  1.
         11    1    5    5    0    0  0.42981166460E+02 -0.21374322993E+02  0.61591346254E+02  0.78088003477E+02  0.00000000000E+00 0. -1.
        -11    1    5    5    0    0  0.29782944346E+03 -0.47015336690E+03  0.68992764285E+03  0.88642355461E+03  0.00000000000E+00 0.  1.
          5    1    6    6  503    0 -0.34199583128E+02 -0.16919712089E+03  0.49211649251E+02  0.17955821793E+03  0.47000000000E+01 0. -1.
         -5    1    6    6    0  503 -0.10232307033E+03 -0.10538878892E+03  0.26575081790E+02  0.14934902920E+03  0.47000000000E+01 0.  1.
<mgrwt>
<rscale>  0 0.85901758E+03</rscale>
<asrwt>0</asrwt>
<pdfrwt beam="1">  1        2 0.92013718E-01 0.85901758E+03</pdfrwt>
<pdfrwt beam="2">  1       -2 0.23008790E+00 0.85901758E+03</pdfrwt>
<totfact> 0.43018402E+00</totfact>
</mgrwt>
</event>
<event>
12    1  0.3166324E-008  0.7769958E+03  0.7818608E-02  0.9593925E-01
         -1   -1    0    0    0  501 -0.00000000000E+00  0.00000000000E+00  0.51749408564E+03  0.51749408564E+03  0.00000000000E+00 0.  1.
          1   -1    0    0  501    0  0.00000000000E+00 -0.00000000000E+00 -0.26993073013E+04  0.26993073013E+04  0.00000000000E+00 0. -1.
         23    2    1    2    0    0  0.52148836795E+02  0.66295733842E+03 -0.22211132118E+04  0.23202657716E+04  0.89763119863E+02 0.  0.
    5000000    2    1    2    0    0 -0.52148836795E+02 -0.66295733842E+03  0.39299996153E+02  0.89653561529E+03  0.59999973837E+03 0.  0.
         23    2    4    4    0    0 -0.29857521884E+03 -0.22201515032E+03  0.31989490115E+02  0.38448559968E+03  0.91476557676E+02 0.  0.
         23    2    4    4    0    0  0.24642638205E+03 -0.44094218810E+03  0.73105060381E+01  0.51205001561E+03  0.83581098185E+02 0.  0.
          1    1    3    3  502    0  0.16774884405E+02  0.81125690871E+02 -0.38640872146E+03  0.39518916292E+03  0.00000000000E+00 0. -1.
         -1    1    3    3    0  502  0.35373952390E+02  0.58183164755E+03 -0.18347044903E+04  0.19250766087E+04  0.00000000000E+00 0.  1.
         13    1    5    5    0    0 -0.27462244595E+03 -0.16565771680E+03  0.15615226771E+02  0.32109780794E+03  0.00000000000E+00 0.  1.
        -13    1    5    5    0    0 -0.23952772897E+02 -0.56357433518E+02  0.16374263344E+02  0.63387791744E+02  0.00000000000E+00 0. -1.
          5    1    6    6  503    0  0.16129849051E+03 -0.31909506839E+03 -0.29678129951E+02  0.35880600206E+03  0.47000000000E+01 0. -1.
         -5    1    6    6    0  503  0.85127891534E+02 -0.12184711970E+03  0.36988635989E+02  0.15324401355E+03  0.47000000000E+01 0.  1.
<mgrwt>
<rscale>  0 0.77699584E+03</rscale>
<asrwt>0</asrwt>
<pdfrwt beam="1">  1        1 0.41527805E+00 0.77699584E+03</pdfrwt>
<pdfrwt beam="2">  1       -1 0.79614473E-01 0.77699584E+03</pdfrwt>
<totfact> 0.16465133E+00</totfact>
</mgrwt>
</event>
<event>
12    1  0.3166324E-008  0.4970523E+03  0.7818608E-02  0.1014551E+00
          2   -1    0    0  501    0  0.00000000000E+00  0.00000000000E+00  0.10807497939E+04  0.10807497939E+04  0.00000000000E+00 0. -1.
         -2   -1    0    0    0  501 -0.00000000000E+00 -0.00000000000E+00 -0.27832360805E+03  0.27832360805E+03  0.00000000000E+00 0.  1.
         23    2    1    2    0    0  0.11707061729E+03 -0.32324892496E+03  0.90655920305E+02  0.36661537721E+03  0.89403254995E+02 0.  0.
    5000000    2    1    2    0    0 -0.11707061729E+03  0.32324892496E+03  0.71177026555E+03  0.99245802474E+03  0.60013383760E+03 0.  0.
         23    2    4    4    0    0  0.15982693293E+03  0.32281848623E+03  0.53588753600E+03  0.65200183058E+03  0.90413009543E+02 0.  0.
         23    2    4    4    0    0 -0.27689755021E+03  0.43043872607E+00  0.17588272955E+03  0.34045619416E+03  0.91122154266E+02 0.  0.
          1    1    3    3  502    0  0.12330783019E+03 -0.27521444421E+03  0.55195659708E+02  0.30658501617E+03  0.00000000000E+00 0. -1.
         -1    1    3    3    0  502 -0.62372129033E+01 -0.48034480751E+02  0.35460260597E+02  0.60030361047E+02  0.00000000000E+00 0.  1.
         13    1    5    5    0    0  0.10083525040E+03  0.26535130205E+03  0.36576671118E+03  0.46299497647E+03  0.00000000000E+00 0. -1.
        -13    1    5    5    0    0  0.58991682522E+02  0.57467184182E+02  0.17012082481E+03  0.18900685411E+03  0.00000000000E+00 0.  1.
          5    1    6    6  503    0 -0.10632050311E+03 -0.10112206981E+02  0.19323433340E+02  0.10863604920E+03  0.47000000000E+01 0. -1.
         -5    1    6    6    0  503 -0.17057704711E+03  0.10542645707E+02  0.15655929621E+03  0.23182014496E+03  0.47000000000E+01 0.  1.
<mgrwt>
<rscale>  0 0.49705227E+03</rscale>
<asrwt>0</asrwt>
<pdfrwt beam="1">  1        2 0.16626920E+00 0.49705227E+03</pdfrwt>
<pdfrwt beam="2">  1       -2 0.42819017E-01 0.49705227E+03</pdfrwt>
<totfact> 0.12000179E+02</totfact>
</mgrwt>
</event>
<event>
12    1  0.3166324E-008  0.2385275E+03  0.7818608E-02  0.1120778E+00
          2   -1    0    0  501    0  0.00000000000E+00  0.00000000000E+00  0.10250858352E+04  0.10250858352E+04  0.00000000000E+00 0. -1.
         -2   -1    0    0    0  501 -0.00000000000E+00 -0.00000000000E+00 -0.16198804794E+03  0.16198804794E+03  0.00000000000E+00 0.  1.
         23    2    1    2    0    0  0.68345234274E+02  0.95444946632E+02  0.27151046500E+02  0.15140512011E+03  0.91681634926E+02 0.  0.
    5000000    2    1    2    0    0 -0.68345234274E+02 -0.95444946632E+02  0.83594674079E+03  0.10356687631E+04  0.60001835344E+03 0.  0.
         23    2    4    4    0    0 -0.17084180703E+03 -0.99477008068E+02  0.86734957663E+03  0.89457346280E+03  0.94253881088E+02 0.  0.
         23    2    4    4    0    0  0.10249657275E+03  0.40320614358E+01 -0.31402835840E+02  0.14109530027E+03  0.91651190465E+02 0.  0.
          3    1    3    3  502    0  0.68645460106E+02  0.53618219680E+02  0.53260729531E+02  0.10209710077E+03  0.00000000000E+00 0. -1.
         -3    1    3    3    0  502 -0.30022583199E+00  0.41826726952E+02 -0.26109683032E+02  0.49308019339E+02  0.00000000000E+00 0.  1.
         11    1    5    5    0    0 -0.14253139928E+03 -0.11209422918E+03  0.80203729696E+03  0.82227984392E+03  0.00000000000E+00 0. -1.
        -11    1    5    5    0    0 -0.28310407742E+02  0.12617221114E+02  0.65312279669E+02  0.72293618880E+02  0.00000000000E+00 0.  1.
          5    1    6    6  503    0  0.10419690348E+03 -0.24245013692E+02 -0.33770477918E+02  0.11228245884E+03  0.47000000000E+01 0. -1.
         -5    1    6    6    0  503 -0.17003307267E+01  0.28277075128E+02  0.23676420781E+01  0.28812841432E+02  0.47000000000E+01 0.  1.
<mgrwt>
<rscale>  0 0.23852745E+03</rscale>
<asrwt>0</asrwt>
<pdfrwt beam="1">  1        2 0.15770551E+00 0.23852745E+03</pdfrwt>
<pdfrwt beam="2">  1       -2 0.24921239E-01 0.23852745E+03</pdfrwt>
<totfact> 0.36615498E+02</totfact>
</mgrwt>
</event>
<event>
12    1  0.3166324E-008  0.4030412E+03  0.7818608E-02  0.1042732E+00
          2   -1    0    0  501    0  0.00000000000E+00  0.00000000000E+00  0.36636260663E+03  0.36636260663E+03  0.00000000000E+00 0.  1.
         -2   -1    0    0    0  501 -0.00000000000E+00 -0.00000000000E+00 -0.11371272332E+04  0.11371272332E+04  0.00000000000E+00 0. -1.
         23    2    1    2    0    0 -0.10156638033E+03 -0.15524110962E+03 -0.84605716456E+03  0.87105086886E+03  0.92202812863E+02 0.  0.
    5000000    2    1    2    0    0  0.10156638033E+03  0.15524110962E+03  0.75292538001E+02  0.63243897096E+03  0.59991212188E+03 0.  0.
         23    2    4    4    0    0  0.34191422748E+02  0.35794311586E+03 -0.40991231873E+02  0.37271399562E+03  0.89124148543E+02 0.  0.
         23    2    4    4    0    0  0.67374957583E+02 -0.20270200624E+03  0.11628376987E+03  0.25972497534E+03  0.91146362715E+02 0.  0.
          1    1    3    3  502    0 -0.75302985837E+02 -0.33804330633E+02 -0.36375486873E+03  0.37300251604E+03  0.00000000000E+00 0. -1.
         -1    1    3    3    0  502 -0.26263394493E+02 -0.12143677899E+03 -0.48230229583E+03  0.49804835282E+03  0.00000000000E+00 0.  1.
         11    1    5    5    0    0  0.39345561953E+02  0.75966242283E+02  0.99457745989E+01  0.86127008797E+02  0.00000000000E+00 0. -1.
        -11    1    5    5    0    0 -0.51541392050E+01  0.28197687358E+03 -0.50937006472E+02  0.28658698682E+03  0.00000000000E+00 0.  1.
          5    1    6    6  503    0  0.73474919603E+02 -0.79792575756E+02  0.63157253531E+02  0.12560393159E+03  0.47000000000E+01 0. -1.
         -5    1    6    6    0  503 -0.60999620203E+01 -0.12290943049E+03  0.53126516343E+02  0.13412104376E+03  0.47000000000E+01 0.  1.
<mgrwt>
<rscale>  0 0.40304121E+03</rscale>
<asrwt>0</asrwt>
<pdfrwt beam="1">  1        2 0.56363478E-01 0.40304121E+03</pdfrwt>
<pdfrwt beam="2">  1       -2 0.17494265E+00 0.40304121E+03</pdfrwt>
<totfact> 0.18237789E+01</totfact>
</mgrwt>
</event>
<event>
12    1  0.3166324E-008  0.8113241E+03  0.7818608E-02  0.9543769E-01
         -2   -1    0    0    0  501 -0.00000000000E+00  0.00000000000E+00  0.23663435758E+03  0.23663435758E+03  0.00000000000E+00 0.  1.
          2   -1    0    0  501    0  0.00000000000E+00 -0.00000000000E+00 -0.32769840220E+04  0.32769840220E+04  0.00000000000E+00 0. -1.
         23    2    1    2    0    0  0.66617622205E+03 -0.33493981525E+03 -0.92689825716E+03  0.11933697643E+04  0.94950389996E+02 0.  0.
    5000000    2    1    2    0    0 -0.66617622205E+03  0.33493981525E+03 -0.21134514072E+04  0.23202486153E+04  0.60075065311E+03 0.  0.
         23    2    4    4    0    0 -0.64270250519E+03  0.40129696707E+03 -0.20534325625E+04  0.21906484754E+04  0.90827794668E+02 0.  0.
         23    2    4    4    0    0 -0.23473716855E+02 -0.66357151817E+02 -0.60018844784E+02  0.12960013986E+03  0.90772504327E+02 0.  0.
          4    1    3    3  502    0  0.52725432066E+03 -0.25938441344E+03 -0.78748195326E+03  0.98255036476E+03  0.00000000000E+00 0. -1.
         -4    1    3    3    0  502  0.13892190138E+03 -0.75555401814E+02 -0.13941630390E+03  0.21081939954E+03  0.00000000000E+00 0.  1.
         13    1    5    5    0    0 -0.17373363089E+03  0.64141838438E+02 -0.47096926073E+03  0.50607271660E+03  0.00000000000E+00 0.  1.
        -13    1    5    5    0    0 -0.46896887430E+03  0.33715512863E+03 -0.15824633017E+04  0.16845757588E+04  0.00000000000E+00 0. -1.
          5    1    6    6  503    0  0.16153029170E+02  0.15616501122E+02 -0.18212223173E+02  0.29301374226E+02  0.47000000000E+01 0. -1.
         -5    1    6    6    0  503 -0.39626746025E+02 -0.81973652939E+02 -0.41806621611E+02  0.10029876563E+03  0.47000000000E+01 0.  1.
<mgrwt>
<rscale>  0 0.81132411E+03</rscale>
<asrwt>0</asrwt>
<pdfrwt beam="1">  1        2 0.50415134E+00 0.81132411E+03</pdfrwt>
<pdfrwt beam="2">  1       -2 0.36405289E-01 0.81132411E+03</pdfrwt>
<totfact> 0.86944418E+00</totfact>
</mgrwt>
</event>
<event>
12    1  0.3166324E-008  0.6365679E+03  0.7818608E-02  0.9832315E-01
         -2   -1    0    0    0  501 -0.00000000000E+00  0.00000000000E+00  0.12562677230E+04  0.12562677230E+04  0.00000000000E+00 0.  1.
          2   -1    0    0  501    0  0.00000000000E+00 -0.00000000000E+00 -0.46324061476E+03  0.46324061476E+03  0.00000000000E+00 0. -1.
         23    2    1    2    0    0 -0.38232616013E+03 -0.46744464605E+03  0.58148666219E+03  0.84230411369E+03  0.81680424779E+02 0.  0.
    5000000    2    1    2    0    0  0.38232616013E+03  0.46744464605E+03  0.21154044606E+03  0.87720422409E+03  0.60005008174E+03 0.  0.
         23    2    4    4    0    0  0.40330195731E+03  0.40559321012E+03  0.36701204924E+03  0.68568878101E+03  0.91175321499E+02 0.  0.
         23    2    4    4    0    0 -0.20975797175E+02  0.61851435927E+02 -0.15547160317E+03  0.19151544308E+03  0.90780842424E+02 0.  0.
          3    1    3    3  502    0 -0.95858543764E+02 -0.17574170092E+03  0.17775249538E+03  0.26771244922E+03  0.00000000000E+00 0. -1.
         -3    1    3    3    0  502 -0.28646761637E+03 -0.29170294513E+03  0.40373416682E+03  0.57459166447E+03  0.00000000000E+00 0.  1.
         13    1    5    5    0    0  0.22087808451E+03  0.22173016426E+03  0.25412420344E+03  0.40315072211E+03  0.00000000000E+00 0.  1.
        -13    1    5    5    0    0  0.18242387280E+03  0.18386304586E+03  0.11288784579E+03  0.28253805890E+03  0.00000000000E+00 0. -1.
          5    1    6    6  503    0  0.12212823534E+02 -0.75127814694E+01 -0.87456328757E+02  0.88748489473E+02  0.47000000000E+01 0. -1.
         -5    1    6    6    0  503 -0.33188620709E+02  0.69364217397E+02 -0.68015274417E+02  0.10276695361E+03  0.47000000000E+01 0.  1.
<mgrwt>
<rscale>  0 0.63656792E+03</rscale>
<asrwt>0</asrwt>
<pdfrwt beam="1">  1        2 0.71267787E-01 0.63656792E+03</pdfrwt>
<pdfrwt beam="2">  1       -2 0.19327196E+00 0.63656792E+03</pdfrwt>
<totfact> 0.10223667E+01</totfact>
</mgrwt>
</event>
<event>
12    1  0.3166324E-008  0.1585248E+04  0.7818608E-02  0.8829662E-01
          2   -1    0    0  501    0  0.00000000000E+00  0.00000000000E+00  0.37950599309E+04  0.37950599309E+04  0.00000000000E+00 0. -1.
         -2   -1    0    0    0  501 -0.00000000000E+00 -0.00000000000E+00 -0.10906107189E+04  0.10906107189E+04  0.00000000000E+00 0.  1.
         23    2    1    2    0    0  0.15566370811E+04  0.24643663472E+03  0.27806929531E+04  0.31976058012E+04  0.92625825717E+02 0.  0.
    5000000    2    1    2    0    0 -0.15566370811E+04 -0.24643663472E+03 -0.76243741113E+02  0.16880648485E+04  0.59991650053E+03 0.  0.
         23    2    4    4    0    0 -0.13789472842E+04 -0.22668609569E+03 -0.25000245294E+03  0.14225934855E+04  0.91590392398E+02 0.  0.
         23    2    4    4    0    0 -0.17768979691E+03 -0.19750539030E+02  0.17375871183E+03  0.26547136302E+03  0.91209686620E+02 0.  0.
          4    1    3    3  502    0  0.71137010592E+03  0.11872978848E+03  0.13655082515E+04  0.15442658369E+04  0.00000000000E+00 0.  1.
         -4    1    3    3    0  502  0.84526697514E+03  0.12770684624E+03  0.14151847016E+04  0.16533399643E+04  0.00000000000E+00 0. -1.
         11    1    5    5    0    0 -0.23503125814E+03 -0.23341621537E+02 -0.11172416769E+02  0.23645157326E+03  0.00000000000E+00 0. -1.
        -11    1    5    5    0    0 -0.11439160260E+04 -0.20334447415E+03 -0.23883003617E+03  0.11861419122E+04  0.00000000000E+00 0.  1.
          5    1    6    6  503    0 -0.39199151314E+02 -0.40169956432E+02  0.76291507024E+02  0.94829757500E+02  0.47000000000E+01 0. -1.
         -5    1    6    6    0  503 -0.13849064559E+03  0.20419417402E+02  0.97467204802E+02  0.17064160552E+03  0.47000000000E+01 0.  1.
<mgrwt>
<rscale>  0 0.15852481E+04</rscale>
<asrwt>0</asrwt>
<pdfrwt beam="1">  1        2 0.58385537E+00 0.15852481E+04</pdfrwt>
<pdfrwt beam="2">  1       -2 0.16778627E+00 0.15852481E+04</pdfrwt>
<totfact> 0.10341165E-01</totfact>
</mgrwt>
</event>
<event>
12    1  0.3166324E-008  0.1273387E+04  0.7818608E-02  0.9050940E-01
         -2   -1    0    0    0  501 -0.00000000000E+00  0.00000000000E+00  0.39442379394E+04  0.39442379394E+04  0.00000000000E+00 0.  1.
          2   -1    0    0  501    0  0.00000000000E+00 -0.00000000000E+00 -0.52881527280E+03  0.52881527280E+03  0.00000000000E+00 0. -1.
         23    2    1    2    0    0  0.11343347887E+04 -0.42789449853E+03  0.61362302646E+03  0.13618040329E+04  0.90376383735E+02 0.  0.
    5000000    2    1    2    0    0 -0.11343347887E+04  0.42789449853E+03  0.28017996402E+04  0.31112491793E+04  0.59998426413E+03 0.  0.
         23    2    4    4    0    0 -0.81652446890E+03  0.54422937591E+03  0.22654562643E+04  0.24705076710E+04  0.90654536062E+02 0.  0.
         23    2    4    4    0    0 -0.31781031982E+03 -0.11633487737E+03  0.53634337588E+03  0.64074150834E+03  0.91368816241E+02 0.  0.
          2    1    3    3  502    0  0.53443203453E+03 -0.18261971188E+03  0.23941309631E+03  0.61342170599E+03  0.00000000000E+00 0.  1.
         -2    1    3    3    0  502  0.59990275419E+03 -0.24527478666E+03  0.37420993016E+03  0.74838232694E+03  0.00000000000E+00 0. -1.
         13    1    5    5    0    0 -0.39489082670E+03  0.21058750000E+03  0.10566559316E+04  0.11475223823E+04  0.00000000000E+00 0. -1.
        -13    1    5    5    0    0 -0.42163364221E+03  0.33364187591E+03  0.12088003327E+04  0.13229852887E+04  0.00000000000E+00 0.  1.
          5    1    6    6  503    0 -0.26870335737E+03 -0.62983371972E+02  0.44976923649E+03  0.52771474823E+03  0.47000000000E+01 0. -1.
         -5    1    6    6    0  503 -0.49106962447E+02 -0.53351505400E+02  0.86574139386E+02  0.11302676010E+03  0.47000000000E+01 0.  1.
<mgrwt>
<rscale>  0 0.12733874E+04</rscale>
<asrwt>0</asrwt>
<pdfrwt beam="1">  1        2 0.81356198E-01 0.12733874E+04</pdfrwt>
<pdfrwt beam="2">  1       -2 0.60680582E+00 0.12733874E+04</pdfrwt>
<totfact> 0.26165906E-02</totfact>
</mgrwt>
</event>
<event>
12    1  0.3166324E-008  0.3735757E+03  0.7818608E-02  0.1053334E+00
          2   -1    0    0  501    0  0.00000000000E+00  0.00000000000E+00  0.33139058915E+04  0.33139058915E+04  0.00000000000E+00 0. -1.
         -2   -1    0    0    0  501 -0.00000000000E+00 -0.00000000000E+00 -0.15964699335E+03  0.15964699335E+03  0.00000000000E+00 0.  1.
         23    2    1    2    0    0  0.28303480451E+03 -0.68391368518E+02  0.63001109930E+02  0.31117916731E+03  0.89873547082E+02 0.  0.
    5000000    2    1    2    0    0 -0.28303480451E+03  0.68391368518E+02  0.30912577883E+04  0.31623737176E+04  0.59995561198E+03 0.  0.
         23    2    4    4    0    0 -0.33257848019E+03  0.88653054549E+02  0.88981569390E+03  0.95832945763E+03  0.90308198384E+02 0.  0.
         23    2    4    4    0    0  0.49543675679E+02 -0.20261686031E+02  0.22014420944E+04  0.22040442600E+04  0.92729139299E+02 0.  0.
          4    1    3    3  502    0  0.25849593764E+03 -0.32255473032E+02  0.60462457472E+02  0.26742526822E+03  0.00000000000E+00 0. -1.
         -4    1    3    3    0  502  0.24538866870E+02 -0.36135895486E+02  0.25386524573E+01  0.43753899097E+02  0.00000000000E+00 0.  1.
         11    1    5    5    0    0 -0.21946575642E+03  0.75177634035E+02  0.69452291329E+03  0.73224242706E+03  0.00000000000E+00 0. -1.
        -11    1    5    5    0    0 -0.11311272377E+03  0.13475420515E+02  0.19529278060E+03  0.22608703057E+03  0.00000000000E+00 0.  1.
          5    1    6    6  503    0 -0.11670825882E+02  0.20018852646E+02  0.10483183670E+04  0.10485849757E+04  0.47000000000E+01 0. -1.
         -5    1    6    6    0  503  0.61214501561E+02 -0.40280538677E+02  0.11531237274E+04  0.11554592843E+04  0.47000000000E+01 0.  1.
<mgrwt>
<rscale>  0 0.37357571E+03</rscale>
<asrwt>0</asrwt>
<pdfrwt beam="1">  1        2 0.50983162E+00 0.37357571E+03</pdfrwt>
<pdfrwt beam="2">  1       -2 0.24561079E-01 0.37357571E+03</pdfrwt>
<totfact> 0.18964311E+01</totfact>
</mgrwt>
</event>
<event>
12    1  0.3166324E-008  0.1072697E+04  0.7818608E-02  0.9232219E-01
          1   -1    0    0  501    0  0.00000000000E+00  0.00000000000E+00  0.18660467668E+04  0.18660467668E+04  0.00000000000E+00 0. -1.
         -1   -1    0    0    0  501 -0.00000000000E+00 -0.00000000000E+00 -0.70029403104E+03  0.70029403104E+03  0.00000000000E+00 0.  1.
         23    2    1    2    0    0 -0.51153856298E+03  0.92960857294E+03  0.48342734090E+03  0.11693783637E+04  0.88881737998E+02 0.  0.
    5000000    2    1    2    0    0  0.51153856298E+03 -0.92960857294E+03  0.68232539488E+03  0.13969624341E+04  0.60007690969E+03 0.  0.
         23    2    4    4    0    0  0.18065722214E+03 -0.50956513218E+03  0.30818218312E+02  0.54935757545E+03  0.92467979725E+02 0.  0.
         23    2    4    4    0    0  0.33088134084E+03 -0.42004344075E+03  0.65150717657E+03  0.84760485867E+03  0.89740968795E+02 0.  0.
          1    1    3    3  502    0 -0.14604579747E+03  0.18927615857E+03  0.10313670469E+03  0.26036900549E+03  0.00000000000E+00 0. -1.
         -1    1    3    3    0  502 -0.36549276551E+03  0.74033241437E+03  0.38029063621E+03  0.90900935825E+03  0.00000000000E+00 0.  1.
         11    1    5    5    0    0  0.17550693737E+03 -0.43921828156E+03  0.51683649367E+02  0.47580099152E+03  0.00000000000E+00 0. -1.
        -11    1    5    5    0    0  0.51502847701E+01 -0.70346850625E+02 -0.20865431055E+02  0.73556583928E+02  0.00000000000E+00 0.  1.
          5    1    6    6  503    0  0.17853237751E+03 -0.26654962979E+03  0.33148340140E+03  0.46133052182E+03  0.47000000000E+01 0. -1.
         -5    1    6    6    0  503  0.15234896334E+03 -0.15349381096E+03  0.32002377517E+03  0.38627433685E+03  0.47000000000E+01 0.  1.
<mgrwt>
<rscale>  0 0.10726974E+04</rscale>
<asrwt>0</asrwt>
<pdfrwt beam="1">  1        1 0.28708411E+00 0.10726974E+04</pdfrwt>
<pdfrwt beam="2">  1       -1 0.10773754E+00 0.10726974E+04</pdfrwt>
<totfact> 0.29443346E+00</totfact>
</mgrwt>
</event>
<event>
12    1  0.3166324E-008  0.7702447E+03  0.7818608E-02  0.9604114E-01
         -1   -1    0    0    0  501 -0.00000000000E+00  0.00000000000E+00  0.60931594430E+03  0.60931594430E+03  0.00000000000E+00 0.  1.
          1   -1    0    0  501    0  0.00000000000E+00 -0.00000000000E+00 -0.16497994732E+04  0.16497994732E+04  0.00000000000E+00 0. -1.
         23    2    1    2    0    0 -0.58691559558E+03  0.41067294878E+03 -0.11073506498E+04  0.13214803528E+04  0.83442639470E+02 0.  0.
    5000000    2    1    2    0    0  0.58691559558E+03 -0.41067294878E+03  0.66867120897E+02  0.93763506468E+03  0.60130367990E+03 0.  0.
         23    2    4    4    0    0  0.13598395617E+03  0.57726957809E+02  0.20239860755E+03  0.26748449543E+03  0.93588038579E+02 0.  0.
         23    2    4    4    0    0  0.45093163941E+03 -0.46839990659E+03 -0.13553148665E+03  0.67015056924E+03  0.89415802121E+02 0.  0.
          3    1    3    3  502    0 -0.16697786672E+03  0.10134482315E+03 -0.36876674338E+03  0.41730239896E+03  0.00000000000E+00 0. -1.
         -3    1    3    3    0  502 -0.41993772886E+03  0.30932812563E+03 -0.73858390641E+03  0.90417795386E+03  0.00000000000E+00 0.  1.
         11    1    5    5    0    0  0.10683881043E+03  0.82411462879E+02  0.14087100716E+03  0.19506619719E+03  0.00000000000E+00 0.  1.
        -11    1    5    5    0    0  0.29145145745E+02 -0.24684505069E+02  0.61527600386E+02  0.72418298242E+02  0.00000000000E+00 0. -1.
          5    1    6    6  503    0  0.33904492729E+03 -0.36196989014E+03 -0.64656986048E+02  0.50017624886E+03  0.47000000000E+01 0. -1.
         -5    1    6    6    0  503  0.11188671212E+03 -0.10643001645E+03 -0.70874500605E+02  0.16997432038E+03  0.47000000000E+01 0.  1.
<mgrwt>
<rscale>  0 0.77024471E+03</rscale>
<asrwt>0</asrwt>
<pdfrwt beam="1">  1        1 0.25381531E+00 0.77024471E+03</pdfrwt>
<pdfrwt beam="2">  1       -1 0.93740914E-01 0.77024471E+03</pdfrwt>
<totfact> 0.59176728E+00</totfact>
</mgrwt>
</event>
<event>
12    1  0.3166324E-008  0.5317863E+03  0.7818608E-02  0.1005800E+00
         -1   -1    0    0    0  501 -0.00000000000E+00  0.00000000000E+00  0.37371756748E+03  0.37371756748E+03  0.00000000000E+00 0.  1.
          1   -1    0    0  501    0  0.00000000000E+00 -0.00000000000E+00 -0.12085568347E+04  0.12085568347E+04  0.00000000000E+00 0. -1.
         23    2    1    2    0    0 -0.27832077261E+03 -0.22744387820E+03 -0.79963528828E+03  0.88200044242E+03  0.96514330418E+02 0.  0.
    5000000    2    1    2    0    0  0.27832077261E+03  0.22744387820E+03 -0.35203978948E+02  0.70027395977E+03  0.59995927228E+03 0.  0.
         23    2    4    4    0    0  0.15211125580E+03  0.41669015359E+03 -0.41172437620E+02  0.45502883610E+03  0.92669055393E+02 0.  0.
         23    2    4    4    0    0  0.12620951681E+03 -0.18924627539E+03  0.59684586716E+01  0.24524512367E+03  0.91468865205E+02 0.  0.
          1    1    3    3  502    0 -0.16690642816E+03 -0.90127002976E+02 -0.48992808324E+03  0.52536669020E+03  0.00000000000E+00 0. -1.
         -1    1    3    3    0  502 -0.11141434445E+03 -0.13731687522E+03 -0.30970720504E+03  0.35663375222E+03  0.00000000000E+00 0.  1.
         13    1    5    5    0    0  0.60250247760E+02  0.29187536173E+03 -0.32791520527E+02  0.29982762208E+03  0.00000000000E+00 0.  1.
        -13    1    5    5    0    0  0.91861008036E+02  0.12481479185E+03 -0.83809170924E+01  0.15520121402E+03  0.00000000000E+00 0. -1.
          5    1    6    6  503    0  0.83225472386E+02 -0.47682828822E+02 -0.90872141572E+01  0.96461385432E+02  0.47000000000E+01 0. -1.
         -5    1    6    6    0  503  0.42984044424E+02 -0.14156344657E+03  0.15055672829E+02  0.14878373824E+03  0.47000000000E+01 0.  1.
<mgrwt>
<rscale>  0 0.53178626E+03</rscale>
<asrwt>0</asrwt>
<pdfrwt beam="1">  1        1 0.18593182E+00 0.53178626E+03</pdfrwt>
<pdfrwt beam="2">  1       -1 0.57495009E-01 0.53178626E+03</pdfrwt>
<totfact> 0.34172497E+01</totfact>
</mgrwt>
</event>
<event>
12    1  0.3166324E-008  0.9357552E+03  0.7818608E-02  0.9381957E-01
         -1   -1    0    0    0  501 -0.00000000000E+00  0.00000000000E+00  0.38879484507E+03  0.38879484507E+03  0.00000000000E+00 0.  1.
          1   -1    0    0  501    0  0.00000000000E+00 -0.00000000000E+00 -0.23850980211E+04  0.23850980211E+04  0.00000000000E+00 0. -1.
         23    2    1    2    0    0  0.75874652849E+03 -0.40069565693E+03 -0.72594691120E+03  0.11276480038E+04  0.91311547522E+02 0.  0.
    5000000    2    1    2    0    0 -0.75874652849E+03  0.40069565693E+03 -0.12703562649E+04  0.16462448623E+04  0.60005316695E+03 0.  0.
         23    2    4    4    0    0 -0.14316248486E+03  0.34988301888E+03 -0.29257222740E+03  0.48621932885E+03  0.88865648775E+02 0.  0.
         23    2    4    4    0    0 -0.61558404364E+03  0.50812638059E+02 -0.97778403746E+03  0.11600255335E+04  0.89844173447E+02 0.  0.
          2    1    3    3  502    0  0.28634445950E+03 -0.18250238630E+03 -0.24140226523E+03  0.41662372010E+03  0.00000000000E+00 0. -1.
         -2    1    3    3    0  502  0.47240206899E+03 -0.21819327063E+03 -0.48454464596E+03  0.71102428374E+03  0.00000000000E+00 0.  1.
         11    1    5    5    0    0 -0.12177783745E+03  0.18181181404E+03 -0.17008494447E+03  0.27715386657E+03  0.00000000000E+00 0.  1.
        -11    1    5    5    0    0 -0.21384647413E+02  0.16807120483E+03 -0.12248728292E+03  0.20906546228E+03  0.00000000000E+00 0. -1.
          5    1    6    6  503    0 -0.45160995365E+03  0.84242116701E-01 -0.73469387536E+03  0.86240868376E+03  0.47000000000E+01 0. -1.
         -5    1    6    6    0  503 -0.16397408999E+03  0.50728395942E+02 -0.24309016210E+03  0.29761684975E+03  0.47000000000E+01 0. -1.
<mgrwt>
<rscale>  0 0.93575522E+03</rscale>
<asrwt>0</asrwt>
<pdfrwt beam="1">  1        1 0.36693815E+00 0.93575522E+03</pdfrwt>
<pdfrwt beam="2">  1       -1 0.59814592E-01 0.93575522E+03</pdfrwt>
<totfact> 0.47294380E+00</totfact>
</mgrwt>
</event>
<event>
12    1  0.3166324E-008  0.5968069E+03  0.7818608E-02  0.9912053E-01
          1   -1    0    0  501    0  0.00000000000E+00  0.00000000000E+00  0.57739228851E+03  0.57739228851E+03  0.00000000000E+00 0. -1.
         -1   -1    0    0    0  501 -0.00000000000E+00 -0.00000000000E+00 -0.11854830368E+04  0.11854830368E+04  0.00000000000E+00 0.  1.
         23    2    1    2    0    0  0.17098125440E+03  0.53599725929E+03  0.20549243795E+03  0.60597374516E+03  0.91920544169E+02 0.  0.
    5000000    2    1    2    0    0 -0.17098125440E+03 -0.53599725929E+03 -0.81358318629E+03  0.11569015802E+04  0.59998001128E+03 0.  0.
         23    2    4    4    0    0 -0.13972054924E+03 -0.49654607067E+03 -0.88754200341E+03  0.10307637851E+04  0.93077068759E+02 0.  0.
         23    2    4    4    0    0 -0.31260705162E+02 -0.39451188620E+02  0.73958817122E+02  0.12613779508E+03  0.88922487289E+02 0.  0.
          1    1    3    3  502    0  0.16769499876E+03  0.41522098472E+03  0.17916560371E+03  0.48231772963E+03  0.00000000000E+00 0. -1.
         -1    1    3    3    0  502  0.32862556424E+01  0.12077627457E+03  0.26326834241E+02  0.12365601553E+03  0.00000000000E+00 0.  1.
         13    1    5    5    0    0 -0.75879540249E+01 -0.18310930778E+03 -0.33732201843E+03  0.38389157291E+03  0.00000000000E+00 0.  1.
        -13    1    5    5    0    0 -0.13213259522E+03 -0.31343676290E+03 -0.55021998498E+03  0.64687221221E+03  0.00000000000E+00 0. -1.
          5    1    6    6  503    0 -0.38004306550E+02  0.18858024069E+02  0.24361257694E+02  0.49147871414E+02  0.47000000000E+01 0. -1.
         -5    1    6    6    0  503  0.67436013884E+01 -0.58309212689E+02  0.49597559429E+02  0.76989923661E+02  0.47000000000E+01 0.  1.
<mgrwt>
<rscale>  0 0.59680692E+03</rscale>
<asrwt>0</asrwt>
<pdfrwt beam="1">  1        1 0.88829584E-01 0.59680692E+03</pdfrwt>
<pdfrwt beam="2">  1       -1 0.18238200E+00 0.59680692E+03</pdfrwt>
<totfact> 0.76549847E+00</totfact>
</mgrwt>
</event>
<event>
12    1  0.3166324E-008  0.4017304E+03  0.7818608E-02  0.1043182E+00
          2   -1    0    0  501    0  0.00000000000E+00  0.00000000000E+00  0.23739112843E+04  0.23739112843E+04  0.00000000000E+00 0. -1.
         -2   -1    0    0    0  501 -0.00000000000E+00 -0.00000000000E+00 -0.18378710559E+03  0.18378710559E+03  0.00000000000E+00 0.  1.
         23    2    1    2    0    0  0.57746356333E+02  0.17740919961E+03  0.18130736798E+04  0.18248546676E+04  0.89720251879E+02 0.  0.
    5000000    2    1    2    0    0 -0.57746356333E+02 -0.17740919961E+03  0.37705049889E+03  0.73284372231E+03  0.60007014326E+03 0.  0.
         23    2    4    4    0    0  0.15106765918E+02 -0.38217242602E+03  0.22287466511E+03  0.45160005254E+03  0.89361700512E+02 0.  0.
         23    2    4    4    0    0 -0.72853122251E+02  0.20476322641E+03  0.15417583378E+03  0.28124366976E+03  0.89956977218E+02 0.  0.
          3    1    3    3  502    0  0.46304263078E+02  0.13608399529E+03  0.16495840603E+04  0.16558352909E+04  0.00000000000E+00 0. -1.
         -3    1    3    3    0  502  0.11442093255E+02  0.41325204320E+02  0.16348961949E+03  0.16901937667E+03  0.00000000000E+00 0.  1.
         11    1    5    5    0    0  0.14512427494E+02 -0.25562738523E+03  0.19545810199E+03  0.32211774286E+03  0.00000000000E+00 0. -1.
        -11    1    5    5    0    0  0.59433842385E+00 -0.12654504079E+03  0.27416563124E+02  0.12948230968E+03  0.00000000000E+00 0.  1.
          5    1    6    6  503    0  0.19863714684E+02  0.46196755033E+02  0.44111604764E+02  0.67056923666E+02  0.47000000000E+01 0. -1.
         -5    1    6    6    0  503 -0.92716836935E+02  0.15856647138E+03  0.11006422901E+03  0.21418674610E+03  0.47000000000E+01 0.  1.
<mgrwt>
<rscale>  0 0.40173043E+03</rscale>
<asrwt>0</asrwt>
<pdfrwt beam="1">  1        2 0.36521710E+00 0.40173043E+03</pdfrwt>
<pdfrwt beam="2">  1       -2 0.28274941E-01 0.40173043E+03</pdfrwt>
<totfact> 0.51973306E+01</totfact>
</mgrwt>
</event>
<event>
12    1  0.4015245E-008  0.1118437E+04  0.7818608E-02  0.9187406E-01
          3   -1    0    0  501    0  0.00000000000E+00  0.00000000000E+00  0.94369405892E+03  0.94369405892E+03  0.00000000000E+00 0. -1.
         -3   -1    0    0    0  501 -0.00000000000E+00 -0.00000000000E+00 -0.14883150202E+04  0.14883150202E+04  0.00000000000E+00 0.  1.
         23    2    1    2    0    0 -0.94514423951E+03  0.57387991657E+03 -0.18962243882E+03  0.11249409377E+04  0.83064143267E+02 0.  0.
    5000000    2    1    2    0    0  0.94514423951E+03 -0.57387991657E+03 -0.35499852243E+03  0.13070681414E+04  0.59980612131E+03 0.  0.
         23    2    4    4    0    0  0.19084690807E+03 -0.16756490840E+03 -0.35429590780E+03  0.44545611518E+03  0.91678892961E+02 0.  0.
         23    2    4    4    0    0  0.75429733144E+03 -0.40631500816E+03 -0.70261462572E+00  0.86161202621E+03  0.91205482039E+02 0.  0.
          2    1    3    3  502    0 -0.26926653818E+03  0.20587375552E+03 -0.45523593130E+02  0.34199542296E+03  0.00000000000E+00 0. -1.
         -2    1    3    3    0  502 -0.67587770133E+03  0.36800616105E+03 -0.14409884569E+03  0.78294551474E+03  0.00000000000E+00 0.  1.
         13    1    5    5    0    0  0.80814763362E+02 -0.12537013926E+03 -0.16454999863E+03  0.22209322332E+03  0.00000000000E+00 0. -1.
        -13    1    5    5    0    0  0.11003214471E+03 -0.42194769149E+02 -0.18974590917E+03  0.22336289186E+03  0.00000000000E+00 0.  1.
          5    1    6    6  503    0  0.26697916585E+03 -0.19243728247E+03  0.10132298403E+02  0.32929430021E+03  0.47000000000E+01 0. -1.
         -5    1    6    6    0  503  0.48731816560E+03 -0.21387772570E+03 -0.10834913029E+02  0.53231772600E+03  0.47000000000E+01 0.  1.
<mgrwt>
<rscale>  0 0.11184369E+04</rscale>
<asrwt>0</asrwt>
<pdfrwt beam="1">  1        3 0.14518370E+00 0.11184369E+04</pdfrwt>
<pdfrwt beam="2">  1       -3 0.22897154E+00 0.11184369E+04</pdfrwt>
<totfact> 0.85916761E-02</totfact>
</mgrwt>
</event>
<event>
12    1  0.3541078E-008  0.1889560E+04  0.7818608E-02  0.8660071E-01
          2   -1    0    0  501    0  0.00000000000E+00  0.00000000000E+00  0.31301578463E+04  0.31301578463E+04  0.00000000000E+00 0. -1.
         -2   -1    0    0    0  501 -0.00000000000E+00 -0.00000000000E+00 -0.12009884256E+04  0.12009884256E+04  0.00000000000E+00 0.  1.
         23    2    1    2    0    0 -0.32637350732E+03 -0.18352158432E+04  0.12992129277E+04  0.22740859681E+04  0.94741233882E+02 0.  0.
    5000000    2    1    2    0    0  0.32637350732E+03  0.18352158432E+04  0.62995649301E+03  0.20570603037E+04  0.60009586936E+03 0.  0.
         23    2    4    4    0    0  0.99621317807E+02  0.14895621307E+04  0.65601631488E+03  0.16330409091E+04  0.88008279090E+02 0.  0.
         23    2    4    4    0    0  0.22675218951E+03  0.34565371255E+03 -0.26059821868E+02  0.42401939462E+03  0.90665805319E+02 0.  0.
          2    1    3    3  502    0 -0.16602488765E+03 -0.11862800613E+04  0.84633984258E+03  0.14666682571E+04  0.00000000000E+00 0. -1.
         -2    1    3    3    0  502 -0.16034861967E+03 -0.64893578191E+03  0.45287308511E+03  0.80741771103E+03  0.00000000000E+00 0.  1.
         13    1    5    5    0    0 -0.16565832024E+02  0.21209285363E+03  0.92765222472E+02  0.23208444983E+03  0.00000000000E+00 0. -1.
        -13    1    5    5    0    0  0.11618714983E+03  0.12774692771E+04  0.56325109241E+03  0.14009564593E+04  0.00000000000E+00 0.  1.
          5    1    6    6  503    0  0.43788117312E+02  0.11333745845E+03 -0.39822753840E+02  0.12794811616E+03  0.47000000000E+01 0. -1.
         -5    1    6    6    0  503  0.18296407220E+03  0.23231625410E+03  0.13762931972E+02  0.29607127847E+03  0.47000000000E+01 0.  1.
<mgrwt>
<rscale>  0 0.18895599E+04</rscale>
<asrwt>0</asrwt>
<pdfrwt beam="1">  1        2 0.48156274E+00 0.18895599E+04</pdfrwt>
<pdfrwt beam="2">  1       -2 0.18476745E+00 0.18895599E+04</pdfrwt>
<totfact> 0.21914404E-01</totfact>
</mgrwt>
</event>
<event>
12    1  0.3166324E-008  0.1158216E+04  0.7818608E-02  0.9150237E-01
          2   -1    0    0  501    0  0.00000000000E+00  0.00000000000E+00  0.21437366896E+04  0.21437366896E+04  0.00000000000E+00 0. -1.
         -2   -1    0    0    0  501 -0.00000000000E+00 -0.00000000000E+00 -0.65721857390E+03  0.65721857390E+03  0.00000000000E+00 0.  1.
         23    2    1    2    0    0 -0.29339586818E+03 -0.10567082387E+04  0.50035221893E+03  0.12088043813E+04  0.90234429049E+02 0.  0.
    5000000    2    1    2    0    0  0.29339586818E+03  0.10567082387E+04  0.98616589680E+03  0.15921508822E+04  0.59975646596E+03 0.  0.
         23    2    4    4    0    0 -0.12571389883E+03  0.46840236877E+03  0.56722258322E+03  0.75195270333E+03  0.92122992282E+02 0.  0.
         23    2    4    4    0    0  0.41910976700E+03  0.58830586991E+03  0.41894331359E+03  0.84019817886E+03  0.93073553616E+02 0.  0.
          1    1    3    3  502    0 -0.48883047165E+02 -0.31427864995E+03  0.12565851909E+03  0.34198053386E+03  0.00000000000E+00 0. -1.
         -1    1    3    3    0  502 -0.24451282101E+03 -0.74242958873E+03  0.37469369984E+03  0.86682384748E+03  0.00000000000E+00 0.  1.
         13    1    5    5    0    0  0.14546606617E+02  0.47810831233E+02  0.65845207257E+02  0.82662389671E+02  0.00000000000E+00 0. -1.
        -13    1    5    5    0    0 -0.14026050544E+03  0.42059153754E+03  0.50137737596E+03  0.66929031366E+03  0.00000000000E+00 0.  1.
          5    1    6    6  503    0  0.17197739010E+02  0.37396638447E+02  0.49691446663E+02  0.64696218325E+02  0.47000000000E+01 0. -1.
         -5    1    6    6    0  503  0.40191202799E+03  0.55090923146E+03  0.36925186692E+03  0.77550196053E+03  0.47000000000E+01 0.  1.
<mgrwt>
<rscale>  0 0.11582158E+04</rscale>
<asrwt>0</asrwt>
<pdfrwt beam="1">  1        2 0.32980564E+00 0.11582158E+04</pdfrwt>
<pdfrwt beam="2">  1       -2 0.10111055E+00 0.11582158E+04</pdfrwt>
<totfact> 0.43974214E+00</totfact>
</mgrwt>
</event>
<event>
12    1  0.3166324E-008  0.8080467E+03  0.7818608E-02  0.9548442E-01
          2   -1    0    0  501    0  0.00000000000E+00  0.00000000000E+00  0.15215059953E+04  0.15215059953E+04  0.00000000000E+00 0.  1.
         -2   -1    0    0    0  501 -0.00000000000E+00 -0.00000000000E+00 -0.43985503221E+03  0.43985503221E+03  0.00000000000E+00 0. -1.
         23    2    1    2    0    0  0.67755649646E+03 -0.19168272290E+03  0.50294035078E+03  0.87011316638E+03  0.91229675635E+02 0.  0.
    5000000    2    1    2    0    0 -0.67755649646E+03  0.19168272290E+03  0.57871061234E+03  0.10912478612E+04  0.60007570312E+03 0.  0.
         23    2    4    4    0    0 -0.29787859145E+03  0.37475880472E+03  0.37278909705E+03  0.61342425879E+03  0.90231887042E+02 0.  0.
         23    2    4    4    0    0 -0.37967790501E+03 -0.18307608182E+03  0.20592151529E+03  0.47782360236E+03  0.90772028846E+02 0.  0.
          1    1    3    3  502    0  0.77687448289E+02 -0.30777578191E+02  0.97531629919E+02  0.12843293104E+03  0.00000000000E+00 0. -1.
         -1    1    3    3    0  502  0.59986904817E+03 -0.16090514471E+03  0.40540872086E+03  0.74168023534E+03  0.00000000000E+00 0.  1.
         11    1    5    5    0    0 -0.19844146458E+03  0.30527786646E+03  0.25651450810E+03  0.44539115784E+03  0.00000000000E+00 0.  1.
        -11    1    5    5    0    0 -0.99437126870E+02  0.69480938262E+02  0.11627458895E+03  0.16803310096E+03  0.00000000000E+00 0. -1.
          5    1    6    6  503    0 -0.22686235820E+03 -0.75654619340E+02  0.15178585324E+03  0.28328640321E+03  0.47000000000E+01 0. -1.
         -5    1    6    6    0  503 -0.15281554681E+03 -0.10742146248E+03  0.54135662048E+02  0.19453719915E+03  0.47000000000E+01 0.  1.
<mgrwt>
<rscale>  0 0.80804675E+03</rscale>
<asrwt>0</asrwt>
<pdfrwt beam="1">  1        2 0.23407784E+00 0.80804675E+03</pdfrwt>
<pdfrwt beam="2">  1       -2 0.67670006E-01 0.80804675E+03</pdfrwt>
<totfact> 0.25128360E+01</totfact>
</mgrwt>
</event>
<event>
12    1  0.3166324E-008  0.1394077E+04  0.7818608E-02  0.8958117E-01
         -2   -1    0    0    0  501 -0.00000000000E+00  0.00000000000E+00  0.84593117246E+03  0.84593117246E+03  0.00000000000E+00 0.  1.
          2   -1    0    0  501    0  0.00000000000E+00 -0.00000000000E+00 -0.30763043133E+04  0.30763043133E+04  0.00000000000E+00 0. -1.
         23    2    1    2    0    0  0.12536031550E+04 -0.53612150742E+03 -0.19907191923E+04  0.24135043665E+04  0.55617293553E+02 0.  0.
    5000000    2    1    2    0    0 -0.12536031550E+04  0.53612150742E+03 -0.23965394849E+03  0.15087311193E+04  0.59990702151E+03 0.  0.
         23    2    4    4    0    0 -0.74358734406E+03  0.10320937600E+03 -0.33445309428E+03  0.82680485764E+03  0.90405125969E+02 0.  0.
         23    2    4    4    0    0 -0.51001581089E+03  0.43291213142E+03  0.94799145795E+02  0.68192626164E+03  0.92236150133E+02 0.  0.
          3    1    3    3  502    0  0.65958744296E+03 -0.30918839973E+03 -0.10413120037E+04  0.12708201094E+04  0.00000000000E+00 0. -1.
         -3    1    3    3    0  502  0.59401571199E+03 -0.22693310769E+03 -0.94940718867E+03  0.11426842571E+04  0.00000000000E+00 0.  1.
         11    1    5    5    0    0 -0.26685743655E+03  0.40342372401E+02 -0.16823113115E+03  0.31802847662E+03  0.00000000000E+00 0.  1.
        -11    1    5    5    0    0 -0.47672990752E+03  0.62867003599E+02 -0.16622196313E+03  0.50877638103E+03  0.00000000000E+00 0. -1.
          5    1    6    6  503    0 -0.20803812039E+03  0.22454146098E+03  0.15479078935E+02  0.30652963824E+03  0.47000000000E+01 0. -1.
         -5    1    6    6    0  503 -0.30197769049E+03  0.20837067044E+03  0.79320066860E+02  0.37539662340E+03  0.47000000000E+01 0.  1.
<mgrwt>
<rscale>  0 0.13940767E+04</rscale>
<asrwt>0</asrwt>
<pdfrwt beam="1">  1        2 0.47327758E+00 0.13940767E+04</pdfrwt>
<pdfrwt beam="2">  1       -2 0.13014326E+00 0.13940767E+04</pdfrwt>
<totfact> 0.65010915E-01</totfact>
</mgrwt>
</event>
<event>
12    1  0.3166324E-008  0.2723766E+04  0.7818608E-02  0.8327335E-01
         -1   -1    0    0    0  501 -0.00000000000E+00  0.00000000000E+00  0.26721482249E+04  0.26721482249E+04  0.00000000000E+00 0.  1.
          1   -1    0    0  501    0  0.00000000000E+00 -0.00000000000E+00 -0.28363682422E+04  0.28363682422E+04  0.00000000000E+00 0. -1.
         23    2    1    2    0    0  0.24956200768E+04  0.10738579466E+04  0.43005344400E+02  0.27186414355E+04  0.88720561788E+02 0.  0.
    5000000    2    1    2    0    0 -0.24956200768E+04 -0.10738579466E+04 -0.20722536166E+03  0.27898750317E+04  0.59930783806E+03 0.  0.
         23    2    4    4    0    0 -0.50039385414E+03 -0.11436416045E+03 -0.24220798368E+03  0.57409813333E+03  0.86317952222E+02 0.  0.
         23    2    4    4    0    0 -0.19952262226E+04 -0.95949378614E+03  0.34982622017E+02  0.22157768983E+04  0.82990808190E+02 0.  0.
          2    1    3    3  502    0  0.11868082566E+04  0.52626555940E+03  0.62495796469E+02  0.12997595938E+04  0.00000000000E+00 0. -1.
         -2    1    3    3    0  502  0.13088118201E+04  0.54759238719E+03 -0.19490452070E+02  0.14188818417E+04  0.00000000000E+00 0.  1.
         13    1    5    5    0    0 -0.19119289668E+02  0.42899868272E+01  0.49509384025E+01  0.20210467967E+02  0.00000000000E+00 0.  1.
        -13    1    5    5    0    0 -0.48127456447E+03 -0.11865414727E+03 -0.24715892208E+03  0.55388766536E+03  0.00000000000E+00 0. -1.
          5    1    6    6  503    0 -0.10183655323E+04 -0.53149692902E+03  0.34886137616E+02  0.11492590986E+04  0.47000000000E+01 0. -1.
         -5    1    6    6    0  503 -0.97686069027E+03 -0.42799685712E+03  0.96484400815E-01  0.10665177998E+04  0.47000000000E+01 0.  1.
<mgrwt>
<rscale>  0 0.27237658E+04</rscale>
<asrwt>0</asrwt>
<pdfrwt beam="1">  1        1 0.43636434E+00 0.27237658E+04</pdfrwt>
<pdfrwt beam="2">  1       -1 0.41109973E+00 0.27237658E+04</pdfrwt>
<totfact> 0.38519981E-03</totfact>
</mgrwt>
</event>
<event>
12    1  0.3166324E-008  0.4393353E+03  0.7818608E-02  0.1030951E+00
          2   -1    0    0  501    0  0.00000000000E+00  0.00000000000E+00  0.98364348399E+03  0.98364348399E+03  0.00000000000E+00 0. -1.
         -2   -1    0    0    0  501 -0.00000000000E+00 -0.00000000000E+00 -0.68639468161E+03  0.68639468161E+03  0.00000000000E+00 0.  1.
         23    2    1    2    0    0 -0.15916932823E+03 -0.24395318504E+03 -0.52760090554E+03  0.60982597225E+03  0.93150251528E+02 0.  0.
    5000000    2    1    2    0    0  0.15916932823E+03  0.24395318504E+03  0.82484970792E+03  0.10602121934E+04  0.59901988510E+03 0.  0.
         23    2    4    4    0    0 -0.25293886960E+02  0.35709309449E+03  0.70612106038E+03  0.79682480436E+03  0.90374543326E+02 0.  0.
         23    2    4    4    0    0  0.18446321519E+03 -0.11313990945E+03  0.11872864754E+03  0.26338738899E+03  0.91919029943E+02 0.  0.
          4    1    3    3  502    0 -0.79954294770E+02 -0.90508813742E+02 -0.30541297481E+03  0.32842292825E+03  0.00000000000E+00 0.  1.
         -4    1    3    3    0  502 -0.79215033459E+02 -0.15344437130E+03 -0.22218793073E+03  0.28140304400E+03  0.00000000000E+00 0. -1.
         13    1    5    5    0    0 -0.47123690914E+02  0.10989463758E+03  0.19711368510E+03  0.23054561038E+03  0.00000000000E+00 0. -1.
        -13    1    5    5    0    0  0.21829803954E+02  0.24719845692E+03  0.50900737528E+03  0.56627919398E+03  0.00000000000E+00 0.  1.
          5    1    6    6  503    0  0.16124712661E+02 -0.15322459779E+02 -0.14915153633E+02  0.27190732612E+02  0.47000000000E+01 0. -1.
         -5    1    6    6    0  503  0.16833850253E+03 -0.97817449673E+02  0.13364380117E+03  0.23619665638E+03  0.47000000000E+01 0.  1.
<mgrwt>
<rscale>  0 0.43933535E+03</rscale>
<asrwt>0</asrwt>
<pdfrwt beam="1">  1        2 0.15132977E+00 0.43933535E+03</pdfrwt>
<pdfrwt beam="2">  1       -2 0.10559918E+00 0.43933535E+03</pdfrwt>
<totfact> 0.19843073E+01</totfact>
</mgrwt>
</event>
<event>
12    1  0.3166324E-008  0.1260439E+04  0.7818608E-02  0.9061539E-01
         -2   -1    0    0    0  501 -0.00000000000E+00  0.00000000000E+00  0.89319066505E+03  0.89319066505E+03  0.00000000000E+00 0. -1.
          2   -1    0    0  501    0  0.00000000000E+00 -0.00000000000E+00 -0.25864465869E+04  0.25864465869E+04  0.00000000000E+00 0.  1.
         23    2    1    2    0    0  0.61899026348E+03 -0.10246547488E+04 -0.17697039599E+04  0.21384875587E+04  0.90612539992E+02 0.  0.
    5000000    2    1    2    0    0 -0.61899026348E+03  0.10246547488E+04  0.76448038098E+02  0.13411496932E+04  0.59980988370E+03 0.  0.
         23    2    4    4    0    0 -0.68539828698E+03  0.67213168894E+03  0.46346300877E+01  0.96407879407E+03  0.88851687145E+02 0.  0.
         23    2    4    4    0    0  0.66408023507E+02  0.35252305987E+03  0.71813408011E+02  0.37707089915E+03  0.91338732713E+02 0.  0.
          4    1    3    3  502    0  0.31241349087E+03 -0.45462827573E+03 -0.75831045154E+03  0.93772266651E+03  0.00000000000E+00 0. -1.
         -4    1    3    3    0  502  0.30657677260E+03 -0.57002647307E+03 -0.10113935084E+04  0.12007648922E+04  0.00000000000E+00 0.  1.
         11    1    5    5    0    0 -0.28290491777E+03  0.29793236257E+03 -0.39469562818E+02  0.41274293640E+03  0.00000000000E+00 0. -1.
        -11    1    5    5    0    0 -0.40249336922E+03  0.37419932637E+03  0.44104192905E+02  0.55133585767E+03  0.00000000000E+00 0.  1.
          5    1    6    6  503    0  0.26710112518E+02  0.54217814421E+02 -0.17551386628E+02  0.63112143712E+02  0.47000000000E+01 0. -1.
         -5    1    6    6    0  503  0.39697910989E+02  0.29830524545E+03  0.89364794638E+02  0.31395875544E+03  0.47000000000E+01 0.  1.
<mgrwt>
<rscale>  0 0.12604393E+04</rscale>
<asrwt>0</asrwt>
<pdfrwt beam="1">  1        2 0.39791486E+00 0.12604393E+04</pdfrwt>
<pdfrwt beam="2">  1       -2 0.13741395E+00 0.12604393E+04</pdfrwt>
<totfact> 0.11362262E+00</totfact>
</mgrwt>
</event>
<event>
12    1  0.3166324E-008  0.8597256E+03  0.7818608E-02  0.9477376E-01
          2   -1    0    0  501    0  0.00000000000E+00  0.00000000000E+00  0.14030056304E+04  0.14030056304E+04  0.00000000000E+00 0. -1.
         -2   -1    0    0    0  501 -0.00000000000E+00 -0.00000000000E+00 -0.61566256720E+03  0.61566256720E+03  0.00000000000E+00 0.  1.
         23    2    1    2    0    0  0.32669679817E+03 -0.74854065977E+03  0.51308997814E+03  0.96886486230E+03  0.91618112049E+02 0.  0.
    5000000    2    1    2    0    0 -0.32669679817E+03  0.74854065977E+03  0.27425308506E+03  0.10498033353E+04  0.59985695870E+03 0.  0.
         23    2    4    4    0    0 -0.30365162894E+02 -0.78868897214E+00 -0.11533461680E+03  0.14999896459E+03  0.90966754360E+02 0.  0.
         23    2    4    4    0    0 -0.29633163528E+03  0.74932934874E+03  0.38958770186E+03  0.89980437072E+03  0.92533330070E+02 0.  0.
          3    1    3    3  502    0  0.17490081917E+03 -0.38588883347E+03  0.31952839388E+03  0.53065891384E+03  0.00000000000E+00 0. -1.
         -3    1    3    3    0  502  0.15179597900E+03 -0.36265182629E+03  0.19356158427E+03  0.43820594845E+03  0.00000000000E+00 0.  1.
         13    1    5    5    0    0 -0.50278606186E+02  0.30507144965E+02 -0.70710191975E+02  0.91970404931E+02  0.00000000000E+00 0. -1.
        -13    1    5    5    0    0  0.19913443292E+02 -0.31295833937E+02 -0.44624424825E+02  0.58028559663E+02  0.00000000000E+00 0.  1.
          5    1    6    6  503    0 -0.21279806649E+03  0.48976529657E+03  0.30130696984E+03  0.61315662183E+03  0.47000000000E+01 0. -1.
         -5    1    6    6    0  503 -0.83533568791E+02  0.25956405217E+03  0.88280732016E+02  0.28664774889E+03  0.47000000000E+01 0.  1.
<mgrwt>
<rscale>  0 0.85972559E+03</rscale>
<asrwt>0</asrwt>
<pdfrwt beam="1">  1        2 0.21584702E+00 0.85972559E+03</pdfrwt>
<pdfrwt beam="2">  1       -2 0.94717319E-01 0.85972559E+03</pdfrwt>
<totfact> 0.13656291E+01</totfact>
</mgrwt>
</event>
<event>
12    1  0.3166324E-008  0.6036211E+03  0.7818608E-02  0.9897922E-01
          2   -1    0    0  501    0  0.00000000000E+00  0.00000000000E+00  0.79044940367E+03  0.79044940367E+03  0.00000000000E+00 0. -1.
         -2   -1    0    0    0  501 -0.00000000000E+00 -0.00000000000E+00 -0.58594387861E+03  0.58594387861E+03  0.00000000000E+00 0.  1.
         23    2    1    2    0    0 -0.44872731458E+03 -0.27127478026E+02 -0.22620930160E+03  0.51142414537E+03  0.91059900194E+02 0.  0.
    5000000    2    1    2    0    0  0.44872731458E+03  0.27127478026E+02  0.43071482666E+03  0.86496913691E+03  0.60047001840E+03 0.  0.
         23    2    4    4    0    0 -0.74347475736E+02  0.16579678744E+03  0.11931740058E+03  0.23412295501E+03  0.86952826902E+02 0.  0.
         23    2    4    4    0    0  0.52307479032E+03 -0.13866930942E+03  0.31139742608E+03  0.63084618190E+03  0.90344532845E+02 0.  0.
          1    1    3    3  502    0 -0.16179945811E+02 -0.19852142004E+02 -0.18107598761E+02  0.31365320363E+02  0.00000000000E+00 0. -1.
         -1    1    3    3    0  502 -0.43254736877E+03 -0.72753360220E+01 -0.20810170284E+03  0.48005882501E+03  0.00000000000E+00 0.  1.
         13    1    5    5    0    0 -0.92499791651E+02  0.11785648635E+03  0.82745957933E+02  0.17115272824E+03  0.00000000000E+00 0.  1.
        -13    1    5    5    0    0  0.18152315914E+02  0.47940301090E+02  0.36571442648E+02  0.62970226767E+02  0.00000000000E+00 0. -1.
          5    1    6    6  503    0  0.26269897012E+03 -0.11383268523E+03  0.17854613141E+03  0.33744546251E+03  0.47000000000E+01 0. -1.
         -5    1    6    6    0  503  0.26037582020E+03 -0.24836624186E+02  0.13285129467E+03  0.29340071939E+03  0.47000000000E+01 0.  1.
<mgrwt>
<rscale>  0 0.60362108E+03</rscale>
<asrwt>0</asrwt>
<pdfrwt beam="1">  1        2 0.12160760E+00 0.60362108E+03</pdfrwt>
<pdfrwt beam="2">  1       -2 0.90145212E-01 0.60362108E+03</pdfrwt>
<totfact> 0.37879736E+01</totfact>
</mgrwt>
</event>
<event>
12    1  0.3166324E-008  0.8256536E+03  0.7818608E-02  0.9523609E-01
          2   -1    0    0  501    0  0.00000000000E+00  0.00000000000E+00  0.18092997297E+04  0.18092997297E+04  0.00000000000E+00 0.  1.
         -2   -1    0    0    0  501 -0.00000000000E+00 -0.00000000000E+00 -0.57271127143E+03  0.57271127143E+03  0.00000000000E+00 0. -1.
         23    2    1    2    0    0  0.74664281262E+03 -0.18433650034E+01 -0.76743255457E+02  0.75649858678E+03  0.94454734747E+02 0.  0.
    5000000    2    1    2    0    0 -0.74664281262E+03  0.18433650034E+01  0.13133317137E+04  0.16255124143E+04  0.59997627563E+03 0.  0.
         23    2    4    4    0    0 -0.73949358100E+03  0.12739998749E+03  0.12370356792E+04  0.14497995171E+04  0.92627505678E+02 0.  0.
         23    2    4    4    0    0 -0.71492316185E+01 -0.12555662249E+03  0.76296034466E+02  0.17571289728E+03  0.96116390020E+02 0.  0.
          4    1    3    3  502    0  0.60906160195E+03 -0.25182425005E+02 -0.90549300013E+02  0.61627052926E+03  0.00000000000E+00 0. -1.
         -4    1    3    3    0  502  0.13758121066E+03  0.23339060002E+02  0.13806044556E+02  0.14022805752E+03  0.00000000000E+00 0.  1.
         11    1    5    5    0    0 -0.55861202229E+03  0.93651293176E+02  0.85254527525E+03  0.10235484368E+04  0.00000000000E+00 0. -1.
        -11    1    5    5    0    0 -0.18088155871E+03  0.33748694317E+02  0.38449040398E+03  0.42625108024E+03  0.00000000000E+00 0.  1.
          5    1    6    6  503    0 -0.36170045668E+02 -0.11481217178E+03  0.79367794169E+02  0.14426171961E+03  0.47000000000E+01 0. -1.
         -5    1    6    6    0  503  0.29020814049E+02 -0.10744450707E+02 -0.30717597035E+01  0.31451177669E+02  0.47000000000E+01 0.  1.
<mgrwt>
<rscale>  0 0.82565355E+03</rscale>
<asrwt>0</asrwt>
<pdfrwt beam="1">  1        2 0.27835380E+00 0.82565355E+03</pdfrwt>
<pdfrwt beam="2">  1       -2 0.88109427E-01 0.82565355E+03</pdfrwt>
<totfact> 0.96542317E+00</totfact>
</mgrwt>
</event>
<event>
12    1  0.3166324E-008  0.4422636E+03  0.7818608E-02  0.1030055E+00
         -4   -1    0    0    0  501 -0.00000000000E+00  0.00000000000E+00  0.14403603695E+04  0.14403603695E+04  0.00000000000E+00 0.  1.
          4   -1    0    0  501    0  0.00000000000E+00 -0.00000000000E+00 -0.16055929966E+03  0.16055929966E+03  0.00000000000E+00 0. -1.
         23    2    1    2    0    0  0.89895174524E+02 -0.25859347932E+03  0.26948644600E+03  0.39468295352E+03  0.90553626514E+02 0.  0.
    5000000    2    1    2    0    0 -0.89895174524E+02  0.25859347932E+03  0.10103146239E+04  0.12062367157E+04  0.59943276944E+03 0.  0.
         23    2    4    4    0    0  0.18833210706E+03 -0.18546340780E+02  0.15638508317E+03  0.26176012674E+03  0.90824668473E+02 0.  0.
         23    2    4    4    0    0 -0.27822728159E+03  0.27713982010E+03  0.85392954069E+03  0.94447658892E+03  0.92862621464E+02 0.  0.
          2    1    3    3  502    0  0.56783676654E+02 -0.73485802550E+02  0.49358563129E+02  0.10517041820E+03  0.00000000000E+00 0. -1.
         -2    1    3    3    0  502  0.33111497870E+02 -0.18510767677E+03  0.22012788288E+03  0.28951253532E+03  0.00000000000E+00 0.  1.
         11    1    5    5    0    0  0.32003329833E+02 -0.40181342657E+02  0.29327162572E+02  0.59150958426E+02  0.00000000000E+00 0.  1.
        -11    1    5    5    0    0  0.15632877723E+03  0.21635001877E+02  0.12705792060E+03  0.20260916831E+03  0.00000000000E+00 0. -1.
          5    1    6    6  503    0 -0.14503333169E+03  0.16934452189E+03  0.57928209954E+03  0.62072705375E+03  0.47000000000E+01 0. -1.
         -5    1    6    6    0  503 -0.13319394989E+03  0.10779529820E+03  0.27464744114E+03  0.32374953518E+03  0.47000000000E+01 0.  1.
<mgrwt>
<rscale>  0 0.44226356E+03</rscale>
<asrwt>0</asrwt>
<pdfrwt beam="1">  1        4 0.24701432E-01 0.44226356E+03</pdfrwt>
<pdfrwt beam="2">  1       -4 0.22159389E+00 0.44226356E+03</pdfrwt>
<totfact> 0.29656902E+00</totfact>
</mgrwt>
</event>
<event>
12    1  0.3166324E-008  0.5481355E+03  0.7818608E-02  0.1001926E+00
         -2   -1    0    0    0  501 -0.00000000000E+00  0.00000000000E+00  0.17846280659E+04  0.17846280659E+04  0.00000000000E+00 0.  1.
          2   -1    0    0  501    0  0.00000000000E+00 -0.00000000000E+00 -0.32916803818E+03  0.32916803818E+03  0.00000000000E+00 0. -1.
         23    2    1    2    0    0  0.47599601395E+03  0.24822074885E+03  0.12460563235E+03  0.55859050657E+03  0.91164932734E+02 0.  0.
    5000000    2    1    2    0    0 -0.47599601395E+03 -0.24822074885E+03  0.13308543954E+04  0.15552055975E+04  0.59942078994E+03 0.  0.
         23    2    4    4    0    0 -0.23947113878E+03 -0.12504398973E+03  0.12193688371E+04  0.12521772212E+04  0.90027810628E+02 0.  0.
         23    2    4    4    0    0 -0.23652487517E+03 -0.12317675912E+03  0.11148555825E+03  0.30302837632E+03  0.90998003234E+02 0.  0.
          4    1    3    3  502    0  0.82701308094E+02  0.31940619264E+02 -0.11902809760E+02  0.89450468974E+02  0.00000000000E+00 0. -1.
         -4    1    3    3    0  502  0.39329470585E+03  0.21628012958E+03  0.13650844211E+03  0.46914003759E+03  0.00000000000E+00 0.  1.
         13    1    5    5    0    0 -0.53727762375E+02 -0.11484220779E+01  0.14004889399E+03  0.15000561333E+03  0.00000000000E+00 0.  1.
        -13    1    5    5    0    0 -0.18574337640E+03 -0.12389556765E+03  0.10793199431E+04  0.11021716079E+04  0.00000000000E+00 0. -1.
          5    1    6    6  503    0 -0.15274266523E+03 -0.12560950415E+03  0.79566962492E+02  0.21321599573E+03  0.47000000000E+01 0. -1.
         -5    1    6    6    0  503 -0.83782209944E+02  0.24327450350E+01  0.31918595761E+02  0.89812380588E+02  0.47000000000E+01 0.  1.
<mgrwt>
<rscale>  0 0.54813547E+03</rscale>
<asrwt>0</asrwt>
<pdfrwt beam="1">  1        2 0.50641238E-01 0.54813547E+03</pdfrwt>
<pdfrwt beam="2">  1       -2 0.27455816E+00 0.54813547E+03</pdfrwt>
<totfact> 0.47933774E+00</totfact>
</mgrwt>
</event>
<event>
12    1  0.3166324E-008  0.4740458E+03  0.7818608E-02  0.1020785E+00
         -2   -1    0    0    0  501 -0.00000000000E+00  0.00000000000E+00  0.31401372746E+03  0.31401372746E+03  0.00000000000E+00 0. -1.
          2   -1    0    0  501    0  0.00000000000E+00 -0.00000000000E+00 -0.11844549190E+04  0.11844549190E+04  0.00000000000E+00 0.  1.
         23    2    1    2    0    0  0.10601738330E+03 -0.41862240763E+03 -0.51375505434E+03  0.67768363141E+03  0.93949149470E+02 0.  0.
    5000000    2    1    2    0    0 -0.10601738330E+03  0.41862240763E+03 -0.35668613720E+03  0.82078501504E+03  0.59998219533E+03 0.  0.
         23    2    4    4    0    0 -0.68769713292E+02  0.41752619670E+03  0.18122720384E+02  0.43312347757E+03  0.90609687285E+02 0.  0.
         23    2    4    4    0    0 -0.37247670010E+02  0.10962109285E+01 -0.37480885759E+03  0.38766153747E+03  0.91712579887E+02 0.  0.
          4    1    3    3  502    0  0.20853499314E+02 -0.67811113102E+02 -0.14615594543E+03  0.16246469117E+03  0.00000000000E+00 0.  1.
         -4    1    3    3    0  502  0.85163883988E+02 -0.35081129453E+03 -0.36759910891E+03  0.51521894024E+03  0.00000000000E+00 0. -1.
         11    1    5    5    0    0 -0.54143389452E+02  0.28273152858E+03 -0.29593678453E+02  0.28938626381E+03  0.00000000000E+00 0.  1.
        -11    1    5    5    0    0 -0.14626323840E+02  0.13479466812E+03  0.47716398837E+02  0.14373721377E+03  0.00000000000E+00 0. -1.
          5    1    6    6  503    0  0.26994311346E+02 -0.54773619196E+01 -0.18534444831E+03  0.18743892034E+03  0.47000000000E+01 0. -1.
         -5    1    6    6    0  503 -0.64241981356E+02  0.65735728481E+01 -0.18946440927E+03  0.20022261713E+03  0.47000000000E+01 0.  1.
<mgrwt>
<rscale>  0 0.47404577E+03</rscale>
<asrwt>0</asrwt>
<pdfrwt beam="1">  1        2 0.18222383E+00 0.47404577E+03</pdfrwt>
<pdfrwt beam="2">  1       -2 0.48309805E-01 0.47404577E+03</pdfrwt>
<totfact> 0.82150972E+01</totfact>
</mgrwt>
</event>
<event>
12    1  0.3166324E-008  0.8682629E+03  0.7818608E-02  0.9466148E-01
         -1   -1    0    0    0  501 -0.00000000000E+00  0.00000000000E+00  0.57286740209E+03  0.57286740209E+03  0.00000000000E+00 0.  1.
          1   -1    0    0  501    0  0.00000000000E+00 -0.00000000000E+00 -0.16641862496E+04  0.16641862496E+04  0.00000000000E+00 0. -1.
         23    2    1    2    0    0  0.74784688262E+03  0.43241003249E+03 -0.69713026581E+03  0.11137601185E+04  0.90650967965E+02 0.  0.
    5000000    2    1    2    0    0 -0.74784688262E+03 -0.43241003249E+03 -0.39418858165E+03  0.11232935332E+04  0.60012525999E+03 0.  0.
         23    2    4    4    0    0 -0.53235569124E+03 -0.24485567491E+03  0.41373669460E+02  0.59438325109E+03  0.90679573849E+02 0.  0.
         23    2    4    4    0    0 -0.21549119137E+03 -0.18755435758E+03 -0.43556225111E+03  0.52891028207E+03  0.91752500088E+02 0.  0.
          4    1    3    3  502    0  0.80232007062E+02  0.52045981713E+02 -0.11624756005E+03  0.15053057626E+03  0.00000000000E+00 0. -1.
         -4    1    3    3    0  502  0.66761487556E+03  0.38036405077E+03 -0.58088270576E+03  0.96322954224E+03  0.00000000000E+00 0.  1.
         13    1    5    5    0    0 -0.16757080581E+03 -0.89277052904E+02 -0.27564368659E+02  0.19185974448E+03  0.00000000000E+00 0.  1.
        -13    1    5    5    0    0 -0.36478488544E+03 -0.15557862201E+03  0.68938038119E+02  0.40252350660E+03  0.00000000000E+00 0. -1.
          5    1    6    6  503    0 -0.59750128231E+02 -0.45756052807E+02 -0.19536919334E+03  0.20941562955E+03  0.47000000000E+01 0. -1.
         -5    1    6    6    0  503 -0.15574106314E+03 -0.14179830477E+03 -0.24019305777E+03  0.31949465252E+03  0.47000000000E+01 0.  1.
<mgrwt>
<rscale>  0 0.86826286E+03</rscale>
<asrwt>0</asrwt>
<pdfrwt beam="1">  1        1 0.25602865E+00 0.86826286E+03</pdfrwt>
<pdfrwt beam="2">  1       -1 0.88133449E-01 0.86826286E+03</pdfrwt>
<totfact> 0.65351005E+00</totfact>
</mgrwt>
</event>
<event>
12    1  0.3166324E-008  0.3992235E+03  0.7818608E-02  0.1044049E+00
         -1   -1    0    0    0  501 -0.00000000000E+00  0.00000000000E+00  0.62808697680E+03  0.62808697680E+03  0.00000000000E+00 0.  1.
          1   -1    0    0  501    0  0.00000000000E+00 -0.00000000000E+00 -0.37216899356E+03  0.37216899356E+03  0.00000000000E+00 0. -1.
         23    2    1    2    0    0  0.10147401945E+03  0.22794349482E+03 -0.69087843190E+02  0.27388845143E+03  0.89367445400E+02 0.  0.
    5000000    2    1    2    0    0 -0.10147401945E+03 -0.22794349482E+03  0.32500582643E+03  0.72636751893E+03  0.59977143304E+03 0.  0.
         23    2    4    4    0    0 -0.21283164522E+03 -0.31087712352E+03  0.31419876820E+02  0.38899787584E+03  0.91598272989E+02 0.  0.
         23    2    4    4    0    0  0.11135762576E+03  0.82933628697E+02  0.29358594961E+03  0.33736964309E+03  0.91362238855E+02 0.  0.
          1    1    3    3  502    0  0.23238115454E+02  0.11801584897E+03  0.41770181364E+01  0.12035446855E+03  0.00000000000E+00 0. -1.
         -1    1    3    3    0  502  0.78235903998E+02  0.10992764585E+03 -0.73264861326E+02  0.15353398289E+03  0.00000000000E+00 0.  1.
         13    1    5    5    0    0 -0.62106770797E+02 -0.13330749109E+03  0.50028755323E+02  0.15534160588E+03  0.00000000000E+00 0. -1.
        -13    1    5    5    0    0 -0.15072487442E+03 -0.17756963243E+03 -0.18608878503E+02  0.23365626995E+03  0.00000000000E+00 0.  1.
          5    1    6    6  503    0  0.18918496289E+02 -0.17843953880E+02  0.74663573281E+02  0.79202622223E+02  0.47000000000E+01 0. -1.
         -5    1    6    6    0  503  0.92439129475E+02  0.10077758258E+03  0.21892237633E+03  0.25816702087E+03  0.47000000000E+01 0.  1.
<mgrwt>
<rscale>  0 0.39922347E+03</rscale>
<asrwt>0</asrwt>
<pdfrwt beam="1">  1        1 0.57256768E-01 0.39922347E+03</pdfrwt>
<pdfrwt beam="2">  1       -1 0.96628766E-01 0.39922347E+03</pdfrwt>
<totfact> 0.71724558E+01</totfact>
</mgrwt>
</event>
<event>
12    1  0.3166324E-008  0.4397472E+03  0.7818608E-02  0.1030824E+00
         -1   -1    0    0    0  501 -0.00000000000E+00  0.00000000000E+00  0.33233690329E+03  0.33233690329E+03  0.00000000000E+00 0.  1.
          1   -1    0    0  501    0  0.00000000000E+00 -0.00000000000E+00 -0.64474598848E+03  0.64474598848E+03  0.00000000000E+00 0. -1.
         23    2    1    2    0    0 -0.72860017582E+02 -0.23490326558E+03 -0.13378405089E+02  0.26301985841E+03  0.92262331725E+02 0.  0.
    5000000    2    1    2    0    0  0.72860017582E+02  0.23490326558E+03 -0.29903068010E+03  0.71406303336E+03  0.59998211776E+03 0.  0.
         23    2    4    4    0    0 -0.13580203552E+03  0.35507268021E+03 -0.18775729662E+03  0.43367401130E+03  0.91112812253E+02 0.  0.
         23    2    4    4    0    0  0.20866205310E+03 -0.12016941464E+03 -0.11127338347E+03  0.28038902206E+03  0.90860867277E+02 0.  0.
          1    1    3    3  502    0 -0.38304213144E+02 -0.83281920084E+02 -0.48333814670E+02  0.10363034593E+03  0.00000000000E+00 0. -1.
         -1    1    3    3    0  502 -0.34555804438E+02 -0.15162134549E+03  0.34955409581E+02  0.15938951248E+03  0.00000000000E+00 0.  1.
         13    1    5    5    0    0 -0.68291278260E+02  0.74581975734E+02 -0.33540619678E+02  0.10654174280E+03  0.00000000000E+00 0. -1.
        -13    1    5    5    0    0 -0.67510757259E+02  0.28049070448E+03 -0.15421667695E+03  0.32713226850E+03  0.00000000000E+00 0.  1.
          5    1    6    6  503    0  0.82451851502E+02 -0.63927323386E+02 -0.94998366939E+02  0.14117999225E+03  0.47000000000E+01 0. -1.
         -5    1    6    6    0  503  0.12621020160E+03 -0.56242091250E+02 -0.16275016534E+02  0.13920902980E+03  0.47000000000E+01 0.  1.
<mgrwt>
<rscale>  0 0.43974724E+03</rscale>
<asrwt>0</asrwt>
<pdfrwt beam="1">  1        1 0.99191690E-01 0.43974724E+03</pdfrwt>
<pdfrwt beam="2">  1       -1 0.51128755E-01 0.43974724E+03</pdfrwt>
<totfact> 0.12378476E+02</totfact>
</mgrwt>
</event>
<event>
12    1  0.3166324E-008  0.1144159E+04  0.7818608E-02  0.9163189E-01
         -1   -1    0    0    0  501 -0.00000000000E+00  0.00000000000E+00  0.89653373102E+03  0.89653373102E+03  0.00000000000E+00 0.  1.
          1   -1    0    0  501    0  0.00000000000E+00 -0.00000000000E+00 -0.23379870648E+04  0.23379870648E+04  0.00000000000E+00 0. -1.
         23    2    1    2    0    0  0.51052829338E+03  0.10113927628E+04  0.19760716469E+03  0.11536850263E+04  0.91575594555E+02 0.  0.
    5000000    2    1    2    0    0 -0.51052829338E+03 -0.10113927628E+04 -0.16390604984E+04  0.20808357694E+04  0.59983641346E+03 0.  0.
         23    2    4    4    0    0 -0.37435702480E+03 -0.80854218334E+03 -0.79818011297E+03  0.11998115011E+04  0.92587802158E+02 0.  0.
         23    2    4    4    0    0 -0.13617126859E+03 -0.20285057944E+03 -0.84088038545E+03  0.88102426836E+03  0.97123461820E+02 0.  0.
          3    1    3    3  502    0  0.36465881089E+03  0.67305668250E+03  0.17046772263E+03  0.78424523631E+03  0.00000000000E+00 0. -1.
         -3    1    3    3    0  502  0.14586948250E+03  0.33833608028E+03  0.27139442058E+02  0.36943979003E+03  0.00000000000E+00 0.  1.
         13    1    5    5    0    0 -0.21844710472E+03 -0.55535105126E+03 -0.49757162155E+03  0.77698870408E+03  0.00000000000E+00 0.  1.
        -13    1    5    5    0    0 -0.15590992007E+03 -0.25319113208E+03 -0.30060849142E+03  0.42282279699E+03  0.00000000000E+00 0. -1.
          5    1    6    6  503    0 -0.85473889929E+02 -0.49942915797E+02 -0.38278036516E+03  0.39540229975E+03  0.47000000000E+01 0. -1.
         -5    1    6    6    0  503 -0.50697378657E+02 -0.15290766364E+03 -0.45810002030E+03  0.48562196861E+03  0.47000000000E+01 0.  1.
<mgrwt>
<rscale>  0 0.11441591E+04</rscale>
<asrwt>0</asrwt>
<pdfrwt beam="1">  1        1 0.35969032E+00 0.11441591E+04</pdfrwt>
<pdfrwt beam="2">  1       -1 0.13792827E+00 0.11441591E+04</pdfrwt>
<totfact> 0.75900078E-01</totfact>
</mgrwt>
</event>
<event>
12    1  0.3166324E-008  0.7584760E+03  0.7818608E-02  0.9622146E-01
         -1   -1    0    0    0  501 -0.00000000000E+00  0.00000000000E+00  0.34218611920E+03  0.34218611920E+03  0.00000000000E+00 0.  1.
          1   -1    0    0  501    0  0.00000000000E+00 -0.00000000000E+00 -0.17099510684E+04  0.17099510684E+04  0.00000000000E+00 0. -1.
         23    2    1    2    0    0  0.60464497776E+03 -0.21973860785E+03 -0.58401729414E+03  0.87395546086E+03  0.94028414878E+02 0.  0.
    5000000    2    1    2    0    0 -0.60464497776E+03  0.21973860785E+03 -0.78374765504E+03  0.11781817267E+04  0.59997599076E+03 0.  0.
         23    2    4    4    0    0  0.30430702721E+02  0.21408367695E+03 -0.17609269702E+03  0.29454455435E+03  0.94815653490E+02 0.  0.
         23    2    4    4    0    0 -0.63507568048E+03  0.56549309065E+01 -0.60765495802E+03  0.88363717238E+03  0.90647703885E+02 0.  0.
          1    1    3    3  502    0  0.27886075103E+03 -0.82126374617E+02 -0.20596322148E+03  0.35627083585E+03  0.00000000000E+00 0. -1.
         -1    1    3    3    0  502  0.32578422673E+03 -0.13761223324E+03 -0.37805407266E+03  0.51768462501E+03  0.00000000000E+00 0.  1.
         13    1    5    5    0    0  0.57410578212E+02  0.17468652305E+03 -0.16117870071E+03  0.24451979345E+03  0.00000000000E+00 0.  1.
        -13    1    5    5    0    0 -0.26979875491E+02  0.39397153895E+02 -0.14913996312E+02  0.50024760894E+02  0.00000000000E+00 0. -1.
          5    1    6    6  503    0 -0.40296786074E+03  0.44996642912E+02 -0.36628941925E+03  0.54644105201E+03  0.47000000000E+01 0. -1.
         -5    1    6    6    0  503 -0.23210781974E+03 -0.39341712005E+02 -0.24136553876E+03  0.33719612037E+03  0.47000000000E+01 0.  1.
<mgrwt>
<rscale>  0 0.75847597E+03</rscale>
<asrwt>0</asrwt>
<pdfrwt beam="1">  1        1 0.26306940E+00 0.75847597E+03</pdfrwt>
<pdfrwt beam="2">  1       -1 0.52644017E-01 0.75847597E+03</pdfrwt>
<totfact> 0.17690167E+01</totfact>
</mgrwt>
</event>
<event>
12    1  0.3166324E-008  0.3569415E+03  0.7818608E-02  0.1059801E+00
         -1   -1    0    0    0  501 -0.00000000000E+00  0.00000000000E+00  0.43768078856E+03  0.43768078856E+03  0.00000000000E+00 0.  1.
          1   -1    0    0  501    0  0.00000000000E+00 -0.00000000000E+00 -0.52988748272E+03  0.52988748272E+03  0.00000000000E+00 0. -1.
         23    2    1    2    0    0 -0.21237504248E+03 -0.95129229104E+02  0.13725311134E+03  0.28471386319E+03  0.89837845151E+02 0.  0.
    5000000    2    1    2    0    0  0.21237504248E+03  0.95129229104E+02 -0.22945980550E+03  0.68285440810E+03  0.59957118962E+03 0.  0.
         23    2    4    4    0    0  0.19013885553E+03  0.24056783923E+03  0.79613557233E+02  0.32890745571E+03  0.88408858555E+02 0.  0.
         23    2    4    4    0    0  0.22236186945E+02 -0.14543861013E+03 -0.30907336273E+03  0.35394695238E+03  0.90029240936E+02 0.  0.
          3    1    3    3  502    0 -0.12084305573E+03 -0.99625662219E+02  0.99819843003E+02  0.18572107513E+03  0.00000000000E+00 0. -1.
         -3    1    3    3    0  502 -0.91531986749E+02  0.44964331152E+01  0.37433268338E+02  0.98992788058E+02  0.00000000000E+00 0.  1.
         11    1    5    5    0    0  0.15109142588E+02  0.38159271433E+01  0.24999293691E+02  0.29458651951E+02  0.00000000000E+00 0. -1.
        -11    1    5    5    0    0  0.17502971295E+03  0.23675191209E+03  0.54614263542E+02  0.29944880376E+03  0.00000000000E+00 0.  1.
          5    1    6    6  503    0  0.32849571268E+02 -0.53561054592E+02 -0.55405195764E+02  0.83902959537E+02  0.47000000000E+01 0. -1.
         -5    1    6    6    0  503 -0.10613384323E+02 -0.91877555539E+02 -0.25366816697E+03  0.27004399285E+03  0.47000000000E+01 0.  1.
<mgrwt>
<rscale>  0 0.35694152E+03</rscale>
<asrwt>0</asrwt>
<pdfrwt beam="1">  1        1 0.81521151E-01 0.35694152E+03</pdfrwt>
<pdfrwt beam="2">  1       -1 0.67335506E-01 0.35694152E+03</pdfrwt>
<totfact> 0.96616051E+01</totfact>
</mgrwt>
</event>
<event>
12    1  0.3166324E-008  0.8571916E+03  0.7818608E-02  0.9480735E-01
         -2   -1    0    0    0  501 -0.00000000000E+00  0.00000000000E+00  0.35874987263E+03  0.35874987263E+03  0.00000000000E+00 0.  1.
          2   -1    0    0  501    0  0.00000000000E+00 -0.00000000000E+00 -0.24589570878E+04  0.24589570878E+04  0.00000000000E+00 0. -1.
         23    2    1    2    0    0  0.56435954853E+03 -0.62248306538E+03 -0.91421444773E+03  0.12452402100E+04  0.94065176525E+02 0.  0.
    5000000    2    1    2    0    0 -0.56435954853E+03  0.62248306538E+03 -0.11859927674E+04  0.15724667504E+04  0.60007163748E+03 0.  0.
         23    2    4    4    0    0 -0.13777596028E+03  0.28629313237E+03 -0.84644513213E+02  0.34130594224E+03  0.91537313277E+02 0.  0.
         23    2    4    4    0    0 -0.42658358825E+03  0.33618993302E+03 -0.11013482542E+04  0.12311608082E+04  0.88270775055E+02 0.  0.
          1    1    3    3  502    0  0.32778431656E+03 -0.30343380225E+03 -0.52224379936E+03  0.68720682222E+03  0.00000000000E+00 0. -1.
         -1    1    3    3    0  502  0.23657523197E+03 -0.31904926314E+03 -0.39197064837E+03  0.55803338778E+03  0.00000000000E+00 0.  1.
         13    1    5    5    0    0 -0.71675846163E+02  0.22580539762E+03 -0.36851900532E+02  0.23975730873E+03  0.00000000000E+00 0.  1.
        -13    1    5    5    0    0 -0.66100114117E+02  0.60487734746E+02 -0.47792612681E+02  0.10154863351E+03  0.00000000000E+00 0. -1.
          5    1    6    6  503    0 -0.15969148122E+03  0.10801135534E+03 -0.30544498190E+03  0.36122921951E+03  0.47000000000E+01 0. -1.
         -5    1    6    6    0  503 -0.26689210703E+03  0.22817857767E+03 -0.79590327230E+03  0.86993158866E+03  0.47000000000E+01 0.  1.
<mgrwt>
<rscale>  0 0.85719160E+03</rscale>
<asrwt>0</asrwt>
<pdfrwt beam="1">  1        2 0.37830109E+00 0.85719160E+03</pdfrwt>
<pdfrwt beam="2">  1       -2 0.55192287E-01 0.85719160E+03</pdfrwt>
<totfact> 0.11689558E+01</totfact>
</mgrwt>
</event>
<event>
12    1  0.3166324E-008  0.6101516E+03  0.7818608E-02  0.9884566E-01
         -1   -1    0    0    0  501 -0.00000000000E+00  0.00000000000E+00  0.28515858319E+03  0.28515858319E+03  0.00000000000E+00 0.  1.
          1   -1    0    0  501    0  0.00000000000E+00 -0.00000000000E+00 -0.15730486684E+04  0.15730486684E+04  0.00000000000E+00 0. -1.
         23    2    1    2    0    0  0.47565506797E+03 -0.22918182312E+03 -0.58853923878E+03  0.79619757019E+03  0.93702099516E+02 0.  0.
    5000000    2    1    2    0    0 -0.47565506797E+03  0.22918182312E+03 -0.69935084645E+03  0.10620096814E+04  0.60000075441E+03 0.  0.
         23    2    4    4    0    0 -0.58734081867E+02  0.24394844158E+03 -0.54845654608E+03  0.60999852957E+03  0.91285752560E+02 0.  0.
         23    2    4    4    0    0 -0.41692098610E+03 -0.14766618459E+02 -0.15089430037E+03  0.45201115186E+03  0.86624649190E+02 0.  0.
          4    1    3    3  502    0  0.28886199915E+03 -0.93267514436E+02 -0.30269940510E+03  0.42868054965E+03  0.00000000000E+00 0. -1.
         -4    1    3    3    0  502  0.18679306882E+03 -0.13591430869E+03 -0.28583983368E+03  0.36751702053E+03  0.00000000000E+00 0.  1.
         13    1    5    5    0    0 -0.20696537942E+02  0.21431719511E+03 -0.48187798021E+03  0.52779408353E+03  0.00000000000E+00 0.  1.
        -13    1    5    5    0    0 -0.38037543924E+02  0.29631246475E+02 -0.66578565871E+02  0.82204446041E+02  0.00000000000E+00 0. -1.
          5    1    6    6  503    0 -0.11009729376E+03 -0.32374193081E+02 -0.68752421672E+02  0.13385995651E+03  0.47000000000E+01 0. -1.
         -5    1    6    6    0  503 -0.30682369234E+03  0.17607574622E+02 -0.82141878697E+02  0.31815119534E+03  0.47000000000E+01 0.  1.
<mgrwt>
<rscale>  0 0.61015163E+03</rscale>
<asrwt>0</asrwt>
<pdfrwt beam="1">  1        1 0.24200750E+00 0.61015163E+03</pdfrwt>
<pdfrwt beam="2">  1       -1 0.43870550E-01 0.61015163E+03</pdfrwt>
<totfact> 0.31469002E+01</totfact>
</mgrwt>
</event>
<event>
12    1  0.3166324E-008  0.7273316E+03  0.7818608E-02  0.9671600E-01
          1   -1    0    0  501    0  0.00000000000E+00  0.00000000000E+00  0.17712056833E+04  0.17712056833E+04  0.00000000000E+00 0. -1.
         -1   -1    0    0    0  501 -0.00000000000E+00 -0.00000000000E+00 -0.54820241214E+03  0.54820241214E+03  0.00000000000E+00 0.  1.
         23    2    1    2    0    0 -0.50624557247E+03 -0.35274036666E+03  0.13135097041E+04  0.14540095453E+04  0.90142492331E+02 0.  0.
    5000000    2    1    2    0    0  0.50624557247E+03  0.35274036666E+03 -0.90506432971E+02  0.86539855018E+03  0.60001074184E+03 0.  0.
         23    2    4    4    0    0  0.61398895938E+03  0.27351697592E+03  0.29636296360E+01  0.67780710448E+03  0.87290947001E+02 0.  0.
         23    2    4    4    0    0 -0.10774338691E+03  0.79223390744E+02 -0.93470062607E+02  0.18759144570E+03  0.92568433250E+02 0.  0.
          3    1    3    3  502    0 -0.19302729259E+03 -0.91470700028E+02  0.39641530118E+03  0.45030158301E+03  0.00000000000E+00 0. -1.
         -3    1    3    3    0  502 -0.31321827988E+03 -0.26126966663E+03  0.91709440295E+03  0.10037079622E+04  0.00000000000E+00 0.  1.
         13    1    5    5    0    0  0.47135861778E+03  0.22399834157E+03  0.36482684798E+02  0.52314929979E+03  0.00000000000E+00 0. -1.
        -13    1    5    5    0    0  0.14263034160E+03  0.49518634348E+02 -0.33519055162E+02  0.15465780469E+03  0.00000000000E+00 0.  1.
          5    1    6    6  503    0 -0.15260870198E+02  0.64632931867E+02 -0.54624149654E+02  0.86117348811E+02  0.47000000000E+01 0. -1.
         -5    1    6    6    0  503 -0.92482516708E+02  0.14590458877E+02 -0.38845912953E+02  0.10147409689E+03  0.47000000000E+01 0.  1.
<mgrwt>
<rscale>  0 0.72733160E+03</rscale>
<asrwt>0</asrwt>
<pdfrwt beam="1">  1        1 0.27249318E+00 0.72733160E+03</pdfrwt>
<pdfrwt beam="2">  1       -1 0.84338834E-01 0.72733160E+03</pdfrwt>
<totfact> 0.62250772E+00</totfact>
</mgrwt>
</event>
<event>
12    1  0.3166324E-008  0.5004719E+03  0.7818608E-02  0.1013656E+00
          2   -1    0    0  501    0  0.00000000000E+00  0.00000000000E+00  0.15244165108E+04  0.15244165108E+04  0.00000000000E+00 0.  1.
         -2   -1    0    0    0  501 -0.00000000000E+00 -0.00000000000E+00 -0.32929892432E+03  0.32929892432E+03  0.00000000000E+00 0. -1.
         23    2    1    2    0    0  0.48417235596E+03  0.33014714426E+02  0.90150706384E+03  0.10278686582E+04  0.91028296718E+02 0.  0.
    5000000    2    1    2    0    0 -0.48417235596E+03 -0.33014714426E+02  0.29361052261E+03  0.82584677686E+03  0.60025237876E+03 0.  0.
         23    2    4    4    0    0 -0.27949142963E+03  0.57598912200E+01  0.45803177001E+03  0.54435959184E+03  0.91573070866E+02 0.  0.
         23    2    4    4    0    0 -0.20468092633E+03 -0.38774605646E+02 -0.16442124739E+03  0.28148718502E+03  0.93823968620E+02 0.  0.
          2    1    3    3  502    0  0.27472825434E+03 -0.39362688386E+01  0.58804481902E+03  0.64906688186E+03  0.00000000000E+00 0. -1.
         -2    1    3    3    0  502  0.20944410162E+03  0.36950983264E+02  0.31346224482E+03  0.37880177639E+03  0.00000000000E+00 0.  1.
         13    1    5    5    0    0 -0.82496837528E+02 -0.39204178217E+02  0.16124706070E+03  0.18531948191E+03  0.00000000000E+00 0.  1.
        -13    1    5    5    0    0 -0.19699459210E+03  0.44964069437E+02  0.29678470931E+03  0.35904010993E+03  0.00000000000E+00 0. -1.
          5    1    6    6  503    0 -0.50373845813E+02  0.20709376347E+02 -0.10806614831E+02  0.55724999190E+02  0.47000000000E+01 0. -1.
         -5    1    6    6    0  503 -0.15430708052E+03 -0.59483981993E+02 -0.15361463256E+03  0.22576218583E+03  0.47000000000E+01 0.  1.
<mgrwt>
<rscale>  0 0.50047185E+03</rscale>
<asrwt>0</asrwt>
<pdfrwt beam="1">  1        2 0.23452561E+00 0.50047185E+03</pdfrwt>
<pdfrwt beam="2">  1       -2 0.50661374E-01 0.50047185E+03</pdfrwt>
<totfact> 0.47846207E+01</totfact>
</mgrwt>
</event>
<event>
12    1  0.3166324E-008  0.8026176E+03  0.7818608E-02  0.9556236E-01
         -2   -1    0    0    0  501 -0.00000000000E+00  0.00000000000E+00  0.79322569167E+03  0.79322569167E+03  0.00000000000E+00 0. -1.
          2   -1    0    0  501    0  0.00000000000E+00 -0.00000000000E+00 -0.13115255168E+04  0.13115255168E+04  0.00000000000E+00 0.  1.
         23    2    1    2    0    0 -0.48987133051E+02 -0.78635688719E+03 -0.74569100174E+03  0.10887062272E+04  0.92028722735E+02 0.  0.
    5000000    2    1    2    0    0  0.48987133051E+02  0.78635688719E+03  0.22739117665E+03  0.10160449812E+04  0.59990312838E+03 0.  0.
         23    2    4    4    0    0  0.17142345450E+02  0.65696355768E+03  0.40375669438E+03  0.77670747171E+03  0.91433321172E+02 0.  0.
         23    2    4    4    0    0  0.31844787601E+02  0.12939332952E+03 -0.17636551773E+03  0.23933750953E+03  0.91765589440E+02 0.  0.
          2    1    3    3  502    0 -0.56233906788E+01 -0.40474106487E+03 -0.32538028213E+03  0.51934504919E+03  0.00000000000E+00 0. -1.
         -2    1    3    3    0  502 -0.43363742372E+02 -0.38161582232E+03 -0.42031071961E+03  0.56936117800E+03  0.00000000000E+00 0.  1.
         13    1    5    5    0    0 -0.25595985773E+02  0.36115938579E+03  0.18699588437E+03  0.40750302723E+03  0.00000000000E+00 0. -1.
        -13    1    5    5    0    0  0.42738331223E+02  0.29580417189E+03  0.21676081001E+03  0.36920444447E+03  0.00000000000E+00 0.  1.
          5    1    6    6  503    0  0.38159428145E+02  0.13830632204E+03 -0.13782441160E+03  0.19900361581E+03  0.47000000000E+01 0. -1.
         -5    1    6    6    0  503 -0.63146405442E+01 -0.89129925279E+01 -0.38541106130E+02  0.40333893722E+02  0.47000000000E+01 0.  1.
<mgrwt>
<rscale>  0 0.80261756E+03</rscale>
<asrwt>0</asrwt>
<pdfrwt beam="1">  1        2 0.20177315E+00 0.80261756E+03</pdfrwt>
<pdfrwt beam="2">  1       -2 0.12203472E+00 0.80261756E+03</pdfrwt>
<totfact> 0.84113539E+00</totfact>
</mgrwt>
</event>
<event>
12    1  0.3593987E-008  0.1336803E+04  0.7818608E-02  0.9000879E-01
         -1   -1    0    0    0  501 -0.00000000000E+00  0.00000000000E+00  0.12217130688E+04  0.12217130688E+04  0.00000000000E+00 0.  1.
          1   -1    0    0  501    0  0.00000000000E+00 -0.00000000000E+00 -0.15709392607E+04  0.15709392607E+04  0.00000000000E+00 0. -1.
         23    2    1    2    0    0  0.41470082864E+03  0.12394804391E+04 -0.34360675731E+03  0.13544771007E+04  0.90851948253E+02 0.  0.
    5000000    2    1    2    0    0 -0.41470082864E+03 -0.12394804391E+04 -0.56194346119E+01  0.14381752288E+04  0.60002322848E+03 0.  0.
         23    2    4    4    0    0  0.39228267058E+02 -0.62133621636E+02  0.12194207314E+03  0.16666688480E+03  0.86651817137E+02 0.  0.
         23    2    4    4    0    0 -0.45392909570E+03 -0.11773468174E+04 -0.12756150775E+03  0.12715083440E+04  0.90908626039E+02 0.  0.
          4    1    3    3  502    0  0.10104903629E+03  0.40882987010E+03 -0.84245423088E+02  0.42947649730E+03  0.00000000000E+00 0. -1.
         -4    1    3    3    0  502  0.31365179236E+03  0.83065056895E+03 -0.25936133422E+03  0.92500060337E+03  0.00000000000E+00 0.  1.
         11    1    5    5    0    0  0.44244798121E+02 -0.75963710822E+02  0.69103725753E+02  0.11181865871E+03  0.00000000000E+00 0. -1.
        -11    1    5    5    0    0 -0.50165310630E+01  0.13830089186E+02  0.52838347383E+02  0.54848226088E+02  0.00000000000E+00 0.  1.
          5    1    6    6  503    0 -0.34439923653E+03 -0.87523982076E+03 -0.55904272181E+02  0.94223296249E+03  0.47000000000E+01 0. -1.
         -5    1    6    6    0  503 -0.10952985917E+03 -0.30210699666E+03 -0.71657235567E+02  0.32927538155E+03  0.47000000000E+01 0.  1.
<mgrwt>
<rscale>  0 0.13368030E+04</rscale>
<asrwt>0</asrwt>
<pdfrwt beam="1">  1        1 0.24168296E+00 0.13368030E+04</pdfrwt>
<pdfrwt beam="2">  1       -1 0.18795586E+00 0.13368030E+04</pdfrwt>
<totfact> 0.10292918E+00</totfact>
</mgrwt>
</event>
<event>
12    1  0.3166324E-008  0.2428711E+03  0.7818608E-02  0.1117895E+00
          1   -1    0    0  501    0  0.00000000000E+00  0.00000000000E+00  0.93552232054E+03  0.93552232054E+03  0.00000000000E+00 0. -1.
         -1   -1    0    0    0  501 -0.00000000000E+00 -0.00000000000E+00 -0.17612581357E+03  0.17612581357E+03  0.00000000000E+00 0.  1.
         23    2    1    2    0    0  0.11226909193E+03 -0.11113475765E+03  0.10905065391E+03  0.21238415942E+03  0.90882906510E+02 0.  0.
    5000000    2    1    2    0    0 -0.11226909193E+03  0.11113475765E+03  0.65034585307E+03  0.89926397469E+03  0.60064189348E+03 0.  0.
         23    2    4    4    0    0 -0.19002940072E+03  0.10716461707E+03  0.72143858131E+03  0.75901313761E+03  0.89620802140E+02 0.  0.
         23    2    4    4    0    0  0.77760308791E+02  0.39701405841E+01 -0.71092728241E+02  0.14025083708E+03  0.92486180873E+02 0.  0.
          4    1    3    3  502    0  0.43763969694E+02 -0.43420961425E+02  0.97521382049E+02  0.11537367504E+03  0.00000000000E+00 0. -1.
         -4    1    3    3    0  502  0.68505122232E+02 -0.67713796228E+02  0.11529271859E+02  0.97010484388E+02  0.00000000000E+00 0.  1.
         11    1    5    5    0    0 -0.16451477189E+03  0.84657900635E+02  0.68329265342E+03  0.70789894797E+03  0.00000000000E+00 0.  1.
        -11    1    5    5    0    0 -0.25514628822E+02  0.22506716434E+02  0.38145927885E+02  0.51114189642E+02  0.00000000000E+00 0. -1.
          5    1    6    6  503    0 -0.13432248604E+02  0.97199704048E+01  0.82859217348E+01  0.19121967112E+02  0.47000000000E+01 0. -1.
         -5    1    6    6    0  503  0.91192557395E+02 -0.57498298207E+01 -0.79378649976E+02  0.12112886997E+03  0.47000000000E+01 0.  1.
<mgrwt>
<rscale>  0 0.24287114E+03</rscale>
<asrwt>0</asrwt>
<pdfrwt beam="1">  1        1 0.14392651E+00 0.24287114E+03</pdfrwt>
<pdfrwt beam="2">  1       -1 0.27096280E-01 0.24287114E+03</pdfrwt>
<totfact> 0.22078234E+02</totfact>
</mgrwt>
</event>
<event>
12    1  0.3166324E-008  0.3650907E+03  0.7818608E-02  0.1056586E+00
          1   -1    0    0  501    0  0.00000000000E+00  0.00000000000E+00  0.15652337612E+03  0.15652337612E+03  0.00000000000E+00 0. -1.
         -1   -1    0    0    0  501 -0.00000000000E+00 -0.00000000000E+00 -0.14160201743E+04  0.14160201743E+04  0.00000000000E+00 0.  1.
         23    2    1    2    0    0  0.14021261977E+03  0.22829538847E+03 -0.38769694281E+03  0.48082719333E+03  0.95433260678E+02 0.  0.
    5000000    2    1    2    0    0 -0.14021261977E+03 -0.22829538847E+03 -0.87179985535E+03  0.10917163571E+04  0.60002604391E+03 0.  0.
         23    2    4    4    0    0 -0.21720127170E+03 -0.27543148525E+03 -0.21037258542E+03  0.41883668690E+03  0.90159026760E+02 0.  0.
         23    2    4    4    0    0  0.76988651937E+02  0.47136096778E+02 -0.66142726993E+03  0.67287967016E+03  0.84450890843E+02 0.  0.
          1    1    3    3  502    0  0.19032679020E+02  0.75435179759E+02 -0.55407200997E+02  0.95512654336E+02  0.00000000000E+00 0.  1.
         -1    1    3    3    0  502  0.12117994075E+03  0.15286020871E+03 -0.33228974181E+03  0.38531453899E+03  0.00000000000E+00 0. -1.
         11    1    5    5    0    0 -0.15941932317E+03 -0.25408375412E+03 -0.16510171180E+03  0.34239107749E+03  0.00000000000E+00 0.  1.
        -11    1    5    5    0    0 -0.57781948531E+02 -0.21347731132E+02 -0.45270873613E+02  0.76445609411E+02  0.00000000000E+00 0. -1.
          5    1    6    6  503    0  0.19735997890E+02  0.29247927228E+02 -0.71282331475E+02  0.79675665296E+02  0.47000000000E+01 0. -1.
         -5    1    6    6    0  503  0.57252654047E+02  0.17888169550E+02 -0.59014493845E+03  0.59320400487E+03  0.47000000000E+01 0.  1.
<mgrwt>
<rscale>  0 0.36509065E+03</rscale>
<asrwt>0</asrwt>
<pdfrwt beam="1">  1        1 0.24080520E-01 0.36509065E+03</pdfrwt>
<pdfrwt beam="2">  1       -1 0.21784925E+00 0.36509065E+03</pdfrwt>
<totfact> 0.25217295E+01</totfact>
</mgrwt>
</event>
<event>
12    1  0.3166324E-008  0.8932147E+03  0.7818608E-02  0.9434103E-01
          2   -1    0    0  501    0  0.00000000000E+00  0.00000000000E+00  0.22770261519E+04  0.22770261519E+04  0.00000000000E+00 0. -1.
         -2   -1    0    0    0  501 -0.00000000000E+00 -0.00000000000E+00 -0.42998077519E+03  0.42998077519E+03  0.00000000000E+00 0.  1.
         23    2    1    2    0    0  0.21367766602E+03  0.77255730815E+03  0.29297648335E+03  0.85822897142E+03  0.90657643119E+02 0.  0.
    5000000    2    1    2    0    0 -0.21367766602E+03 -0.77255730815E+03  0.15540688934E+04  0.18487779557E+04  0.60028898432E+03 0.  0.
         23    2    4    4    0    0 -0.37638902695E+03 -0.67087056904E+03  0.13329571667E+04  0.15418312854E+04  0.93449902796E+02 0.  0.
         23    2    4    4    0    0  0.16271136093E+03 -0.10168673911E+03  0.22111172669E+03  0.30694667030E+03  0.92253362214E+02 0.  0.
          4    1    3    3  502    0  0.47844522851E+02  0.32345195466E+03  0.13948749394E+03  0.35548140079E+03  0.00000000000E+00 0. -1.
         -4    1    3    3    0  502  0.16583314317E+03  0.44910535349E+03  0.15348898941E+03  0.50274757063E+03  0.00000000000E+00 0.  1.
         11    1    5    5    0    0 -0.21396953119E+03 -0.40454805791E+03  0.87941887848E+03  0.99137261172E+03  0.00000000000E+00 0.  1.
        -11    1    5    5    0    0 -0.16241949576E+03 -0.26632251112E+03  0.45353828820E+03  0.55045867366E+03  0.00000000000E+00 0. -1.
          5    1    6    6  503    0  0.99980786754E+01 -0.47882737356E+02  0.35674113298E+02  0.60724381212E+02  0.47000000000E+01 0. -1.
         -5    1    6    6    0  503  0.15271328226E+03 -0.53804001757E+02  0.18543761339E+03  0.24622228909E+03  0.47000000000E+01 0.  1.
<mgrwt>
<rscale>  0 0.89321465E+03</rscale>
<asrwt>0</asrwt>
<pdfrwt beam="1">  1        2 0.35031171E+00 0.89321465E+03</pdfrwt>
<pdfrwt beam="2">  1       -2 0.66150890E-01 0.89321465E+03</pdfrwt>
<totfact> 0.10025456E+01</totfact>
</mgrwt>
</event>
<event>
12    1  0.3166324E-008  0.6008638E+03  0.7818608E-02  0.9903616E-01
         -1   -1    0    0    0  501 -0.00000000000E+00  0.00000000000E+00  0.93911952848E+03  0.93911952848E+03  0.00000000000E+00 0.  1.
          1   -1    0    0  501    0  0.00000000000E+00 -0.00000000000E+00 -0.58888461226E+03  0.58888461226E+03  0.00000000000E+00 0. -1.
         23    2    1    2    0    0  0.70626595162E+02  0.46652248933E+03 -0.26392585915E+03  0.54826761803E+03  0.91154664468E+02 0.  0.
    5000000    2    1    2    0    0 -0.70626595162E+02 -0.46652248933E+03  0.61416077537E+03  0.97973652272E+03  0.60004903712E+03 0.  0.
         23    2    4    4    0    0 -0.30421756162E+03 -0.28374102652E+03  0.47654569173E+03  0.63884409927E+03  0.89267530162E+02 0.  0.
         23    2    4    4    0    0  0.23359096645E+03 -0.18278146281E+03  0.13761508364E+03  0.34089242344E+03  0.96415405203E+02 0.  0.
          1    1    3    3  502    0 -0.14672534877E+02  0.19850939223E+03 -0.10065078683E+03  0.22305121155E+03  0.00000000000E+00 0. -1.
         -1    1    3    3    0  502  0.85299130039E+02  0.26801309710E+03 -0.16327507232E+03  0.32521640648E+03  0.00000000000E+00 0.  1.
         11    1    5    5    0    0 -0.17493468932E+03 -0.10520239541E+03  0.25000934952E+03  0.32276053720E+03  0.00000000000E+00 0. -1.
        -11    1    5    5    0    0 -0.12928287229E+03 -0.17853863111E+03  0.22653634221E+03  0.31608356207E+03  0.00000000000E+00 0.  1.
          5    1    6    6  503    0  0.14402890188E+03 -0.11721995433E+03  0.13523651139E+03  0.22977346732E+03  0.47000000000E+01 0. -1.
         -5    1    6    6    0  503  0.89562064569E+02 -0.65561508485E+02  0.23785722489E+01  0.11111895613E+03  0.47000000000E+01 0.  1.
<mgrwt>
<rscale>  0 0.60086380E+03</rscale>
<asrwt>0</asrwt>
<pdfrwt beam="1">  1        1 0.90597633E-01 0.60086380E+03</pdfrwt>
<pdfrwt beam="2">  1       -1 0.14447993E+00 0.60086380E+03</pdfrwt>
<totfact> 0.14236978E+01</totfact>
</mgrwt>
</event>
<event>
12    1  0.3166324E-008  0.5122481E+03  0.7818608E-02  0.1010631E+00
          1   -1    0    0  501    0  0.00000000000E+00  0.00000000000E+00  0.10702495057E+04  0.10702495057E+04  0.00000000000E+00 0. -1.
         -1   -1    0    0    0  501 -0.00000000000E+00 -0.00000000000E+00 -0.32915485105E+03  0.32915485105E+03  0.00000000000E+00 0.  1.
         23    2    1    2    0    0  0.30139366886E+03 -0.18478612217E+03 -0.22712423313E+02  0.36578772753E+03  0.91108467571E+02 0.  0.
    5000000    2    1    2    0    0 -0.30139366886E+03  0.18478612217E+03  0.76380707801E+03  0.10336166293E+04  0.59998169081E+03 0.  0.
         23    2    4    4    0    0 -0.41738798264E+03  0.25551973085E+03  0.41546862038E+03  0.64878900219E+03  0.93861248322E+02 0.  0.
         23    2    4    4    0    0  0.11599431378E+03 -0.70733608676E+02  0.34833845763E+03  0.38482762707E+03  0.91075228636E+02 0.  0.
          2    1    3    3  502    0  0.26161201646E+03 -0.11944351598E+03 -0.69075475733E+01  0.28767223515E+03  0.00000000000E+00 0.  1.
         -2    1    3    3    0  502  0.39781652400E+02 -0.65342606196E+02 -0.15804875740E+02  0.78115492377E+02  0.00000000000E+00 0. -1.
         13    1    5    5    0    0 -0.33206933765E+03  0.15501272043E+03  0.30424874188E+03  0.47630482407E+03  0.00000000000E+00 0.  1.
        -13    1    5    5    0    0 -0.85318644994E+02  0.10050701042E+03  0.11121987850E+03  0.17248417812E+03  0.00000000000E+00 0. -1.
          5    1    6    6  503    0  0.78973139919E+02  0.33138809358E+01  0.14457760108E+03  0.16484086680E+03  0.47000000000E+01 0. -1.
         -5    1    6    6    0  503  0.37021173864E+02 -0.74047489612E+02  0.20376085655E+03  0.21998676027E+03  0.47000000000E+01 0.  1.
<mgrwt>
<rscale>  0 0.51224812E+03</rscale>
<asrwt>0</asrwt>
<pdfrwt beam="1">  1        1 0.16465377E+00 0.51224812E+03</pdfrwt>
<pdfrwt beam="2">  1       -1 0.50639208E-01 0.51224812E+03</pdfrwt>
<totfact> 0.55106530E+01</totfact>
</mgrwt>
</event>
<event>
12    1  0.3166324E-008  0.3566002E+03  0.7818608E-02  0.1059938E+00
         -2   -1    0    0    0  501 -0.00000000000E+00  0.00000000000E+00  0.16653894409E+03  0.16653894409E+03  0.00000000000E+00 0.  1.
          2   -1    0    0  501    0  0.00000000000E+00 -0.00000000000E+00 -0.18723391503E+04  0.18723391503E+04  0.00000000000E+00 0. -1.
         23    2    1    2    0    0  0.17322369175E+02 -0.11544342910E+03 -0.12926577536E+04  0.13010804004E+04  0.90658097061E+02 0.  0.
    5000000    2    1    2    0    0 -0.17322369175E+02  0.11544342910E+03 -0.41314245269E+03  0.73779769408E+03  0.60002625057E+03 0.  0.
         23    2    4    4    0    0 -0.11248109196E+03 -0.18836595436E+03 -0.31125823493E+03  0.39132554261E+03  0.90112500128E+02 0.  0.
         23    2    4    4    0    0  0.95158722781E+02  0.30380938346E+03 -0.10188421776E+03  0.34647215147E+03  0.91144028391E+02 0.  0.
          4    1    3    3  502    0 -0.24781017983E+02 -0.98934239782E+02 -0.83998366209E+03  0.84615284390E+03  0.00000000000E+00 0. -1.
         -4    1    3    3    0  502  0.42103387157E+02 -0.16509189322E+02 -0.45267409147E+03  0.45492755646E+03  0.00000000000E+00 0.  1.
         13    1    5    5    0    0 -0.20226732630E+02 -0.11563099849E+03 -0.12830555062E+03  0.17390216458E+03  0.00000000000E+00 0.  1.
        -13    1    5    5    0    0 -0.92254359326E+02 -0.72734955869E+02 -0.18295268431E+03  0.21742337803E+03  0.00000000000E+00 0. -1.
          5    1    6    6  503    0  0.36803040769E+02  0.24621451879E+03 -0.74486347347E+02  0.25989682378E+03  0.47000000000E+01 0. -1.
         -5    1    6    6    0  503  0.58355682012E+02  0.57594864674E+02 -0.27397870415E+02  0.86575327681E+02  0.47000000000E+01 0.  1.
<mgrwt>
<rscale>  0 0.35660025E+03</rscale>
<asrwt>0</asrwt>
<pdfrwt beam="1">  1        2 0.28805218E+00 0.35660025E+03</pdfrwt>
<pdfrwt beam="2">  1       -2 0.25621376E-01 0.35660025E+03</pdfrwt>
<totfact> 0.11665661E+02</totfact>
</mgrwt>
</event>
<event>
12    1  0.3166324E-008  0.8837733E+03  0.7818608E-02  0.9446096E-01
         -1   -1    0    0    0  501 -0.00000000000E+00  0.00000000000E+00  0.10219470528E+04  0.10219470528E+04  0.00000000000E+00 0.  1.
          1   -1    0    0  501    0  0.00000000000E+00 -0.00000000000E+00 -0.10613635478E+04  0.10613635478E+04  0.00000000000E+00 0. -1.
         23    2    1    2    0    0 -0.77725217575E+03 -0.23055719098E+03 -0.51887831174E+03  0.96641294324E+03  0.86265354773E+02 0.  0.
    5000000    2    1    2    0    0  0.77725217575E+03  0.23055719098E+03  0.47946181679E+03  0.11168976573E+04  0.60024926506E+03 0.  0.
         23    2    4    4    0    0  0.53866789516E+03 -0.90112613087E+02  0.43799706608E+03  0.70589003059E+03  0.90310138313E+02 0.  0.
         23    2    4    4    0    0  0.23858428059E+03  0.32066980406E+03  0.41464750710E+02  0.41100762675E+03  0.86350225911E+02 0.  0.
          3    1    3    3  502    0 -0.11036402192E+03 -0.52022549461E+02 -0.49932978011E+02  0.13183271703E+03  0.00000000000E+00 0. -1.
         -3    1    3    3    0  502 -0.66688815383E+03 -0.17853464151E+03 -0.46894533373E+03  0.83458022621E+03  0.00000000000E+00 0.  1.
         11    1    5    5    0    0  0.41099198910E+03 -0.82149938692E+02  0.28689463554E+03  0.50790900704E+03  0.00000000000E+00 0. -1.
        -11    1    5    5    0    0  0.12767590606E+03 -0.79626743958E+01  0.15110243054E+03  0.19798102355E+03  0.00000000000E+00 0.  1.
          5    1    6    6  503    0  0.12451344712E+03  0.10039776000E+03  0.28766861946E+02  0.16258207488E+03  0.47000000000E+01 0. -1.
         -5    1    6    6    0  503  0.11407083347E+03  0.22027204406E+03  0.12697888764E+02  0.24842555187E+03  0.47000000000E+01 0.  1.
<mgrwt>
<rscale>  0 0.88377329E+03</rscale>
<asrwt>0</asrwt>
<pdfrwt beam="1">  1        1 0.16328670E+00 0.88377329E+03</pdfrwt>
<pdfrwt beam="2">  1       -1 0.15722262E+00 0.88377329E+03</pdfrwt>
<totfact> 0.42358249E+00</totfact>
</mgrwt>
</event>
<event>
12    1  0.3166324E-008  0.9387823E+03  0.7818608E-02  0.9378359E-01
         -2   -1    0    0    0  501 -0.00000000000E+00  0.00000000000E+00  0.13377533790E+04  0.13377533790E+04  0.00000000000E+00 0.  1.
          2   -1    0    0  501    0  0.00000000000E+00 -0.00000000000E+00 -0.13881061252E+04  0.13881061252E+04  0.00000000000E+00 0. -1.
         23    2    1    2    0    0 -0.36044929121E+03 -0.76597056365E+03 -0.10038567671E+04  0.13166009079E+04  0.95262510616E+02 0.  0.
    5000000    2    1    2    0    0  0.36044929121E+03  0.76597056365E+03  0.95350402090E+03  0.14092585963E+04  0.60017104014E+03 0.  0.
         23    2    4    4    0    0  0.46973645027E+03  0.75292868904E+03  0.77873211818E+03  0.11842261131E+04  0.91726939810E+02 0.  0.
         23    2    4    4    0    0 -0.10928715906E+03  0.13041874613E+02  0.17477190272E+03  0.22503248322E+03  0.89334354510E+02 0.  0.
          3    1    3    3  502    0 -0.30395301191E+03 -0.66937714788E+03 -0.81935255702E+03  0.11008141588E+04  0.00000000000E+00 0. -1.
         -3    1    3    3    0  502 -0.56496279295E+02 -0.96593415772E+02 -0.18450421009E+03  0.21578674909E+03  0.00000000000E+00 0.  1.
         11    1    5    5    0    0  0.11024271726E+03  0.11139775021E+03  0.14184990247E+03  0.21138663698E+03  0.00000000000E+00 0.  1.
        -11    1    5    5    0    0  0.35949373301E+03  0.64153093883E+03  0.63688221571E+03  0.97283947609E+03  0.00000000000E+00 0. -1.
          5    1    6    6  503    0 -0.47990438554E+02 -0.35650776362E+02  0.10043277938E+03  0.11697389974E+03  0.47000000000E+01 0. -1.
         -5    1    6    6    0  503 -0.61296720510E+02  0.48692650975E+02  0.74339123342E+02  0.10805858348E+03  0.47000000000E+01 0.  1.
<mgrwt>
<rscale>  0 0.93878233E+03</rscale>
<asrwt>0</asrwt>
<pdfrwt beam="1">  1        2 0.21355479E+00 0.93878233E+03</pdfrwt>
<pdfrwt beam="2">  1       -2 0.20580821E+00 0.93878233E+03</pdfrwt>
<totfact> 0.17942347E+00</totfact>
</mgrwt>
</event>
<event>
12    1  0.3166324E-008  0.7629416E+03  0.7818608E-02  0.9615263E-01
         -1   -1    0    0    0  501 -0.00000000000E+00  0.00000000000E+00  0.55984758420E+03  0.55984758420E+03  0.00000000000E+00 0.  1.
          1   -1    0    0  501    0  0.00000000000E+00 -0.00000000000E+00 -0.13104984755E+04  0.13104984755E+04  0.00000000000E+00 0. -1.
         23    2    1    2    0    0  0.69444836847E+03 -0.27869976121E+03 -0.33942441933E+03  0.82681340758E+03  0.92083555231E+02 0.  0.
    5000000    2    1    2    0    0 -0.69444836847E+03  0.27869976121E+03 -0.41122647200E+03  0.10435326521E+04  0.59993423928E+03 0.  0.
         23    2    4    4    0    0 -0.11273725155E+03  0.49216019515E+02 -0.38256011232E+03  0.41096288283E+03  0.86060136316E+02 0.  0.
         23    2    4    4    0    0 -0.58171111692E+03  0.22948374170E+03 -0.28666359678E+02  0.63256976932E+03  0.90951314573E+02 0.  0.
          1    1    3    3  502    0  0.65890152242E+03 -0.24428085439E+03 -0.30247135557E+03  0.76505769260E+03  0.00000000000E+00 0. -1.
         -1    1    3    3    0  502  0.35546846048E+02 -0.34418906823E+02 -0.36953063760E+02  0.61755714975E+02  0.00000000000E+00 0.  1.
         13    1    5    5    0    0 -0.63505511737E+01 -0.19417645240E+02 -0.88125327868E+02  0.90462411303E+02  0.00000000000E+00 0. -1.
        -13    1    5    5    0    0 -0.10638670037E+03  0.68633664755E+02 -0.29443478445E+03  0.32050047153E+03  0.00000000000E+00 0.  1.
          5    1    6    6  503    0 -0.50112291340E+03  0.21145101484E+03 -0.52590628509E+02  0.54646461022E+03  0.47000000000E+01 0. -1.
         -5    1    6    6    0  503 -0.80588203521E+02  0.18032726859E+02  0.23924268831E+02  0.86105159101E+02  0.47000000000E+01 0.  1.
<mgrwt>
<rscale>  0 0.76294160E+03</rscale>
<asrwt>0</asrwt>
<pdfrwt beam="1">  1        1 0.20161515E+00 0.76294160E+03</pdfrwt>
<pdfrwt beam="2">  1       -1 0.86130398E-01 0.76294160E+03</pdfrwt>
<totfact> 0.12218477E+01</totfact>
</mgrwt>
</event>
<event>
12    1  0.3166324E-008  0.1095189E+04  0.7818608E-02  0.9209893E-01
          3   -1    0    0  501    0  0.00000000000E+00  0.00000000000E+00  0.79519078444E+03  0.79519078444E+03  0.00000000000E+00 0. -1.
         -3   -1    0    0    0  501 -0.00000000000E+00 -0.00000000000E+00 -0.17422696270E+04  0.17422696270E+04  0.00000000000E+00 0.  1.
         23    2    1    2    0    0 -0.71181913715E+03 -0.81935027992E+03 -0.26493680491E+03  0.11216423582E+04  0.99341350651E+02 0.  0.
    5000000    2    1    2    0    0  0.71181913715E+03  0.81935027992E+03 -0.68214203764E+03  0.14158180532E+04  0.60100052833E+03 0.  0.
         23    2    4    4    0    0  0.14290639671E+03  0.29556229138E+03 -0.51770363771E+03  0.61991930303E+03  0.92214854909E+02 0.  0.
         23    2    4    4    0    0  0.56891274044E+03  0.52378798853E+03 -0.16443839993E+03  0.79589875017E+03  0.91647531286E+02 0.  0.
          4    1    3    3  502    0 -0.38307618032E+03 -0.43614479047E+03 -0.90727454240E+02  0.58753817675E+03  0.00000000000E+00 0. -1.
         -4    1    3    3    0  502 -0.32874295683E+03 -0.38320548944E+03 -0.17420935067E+03  0.53410418147E+03  0.00000000000E+00 0.  1.
         11    1    5    5    0    0  0.11791357328E+03  0.19423471862E+03 -0.28206598465E+03  0.36220430199E+03  0.00000000000E+00 0.  1.
        -11    1    5    5    0    0  0.24992823430E+02  0.10132757277E+03 -0.23563765305E+03  0.25771500104E+03  0.00000000000E+00 0. -1.
          5    1    6    6  503    0  0.13457300952E+03  0.12155979178E+03  0.29862168609E+00  0.18140798506E+03  0.47000000000E+01 0. -1.
         -5    1    6    6    0  503  0.43433973092E+03  0.40222819676E+03 -0.16473702162E+03  0.61449076511E+03  0.47000000000E+01 0.  1.
<mgrwt>
<rscale>  0 0.10951892E+04</rscale>
<asrwt>0</asrwt>
<pdfrwt beam="1">  1        3 0.12233704E+00 0.10951892E+04</pdfrwt>
<pdfrwt beam="2">  1       -3 0.26804148E+00 0.10951892E+04</pdfrwt>
<totfact> 0.78638089E-02</totfact>
</mgrwt>
</event>
<event>
12    1  0.3166324E-008  0.5393810E+03  0.7818608E-02  0.1003982E+00
         -2   -1    0    0    0  501 -0.00000000000E+00  0.00000000000E+00  0.52929980384E+03  0.52929980384E+03  0.00000000000E+00 0.  1.
          2   -1    0    0  501    0  0.00000000000E+00 -0.00000000000E+00 -0.73654887878E+03  0.73654887878E+03  0.00000000000E+00 0. -1.
         23    2    1    2    0    0  0.11006744836E+03  0.38063424492E+03 -0.34778944218E+03  0.53242018097E+03  0.74273019472E+02 0.  0.
    5000000    2    1    2    0    0 -0.11006744836E+03 -0.38063424492E+03  0.14054036724E+03  0.73342850164E+03  0.60097296162E+03 0.  0.
         23    2    4    4    0    0  0.14108842688E+03  0.54286136729E+02 -0.57710984655E+02  0.18569714122E+03  0.91104015642E+02 0.  0.
         23    2    4    4    0    0 -0.25115587524E+03 -0.43492038165E+03  0.19825135190E+03  0.54773136042E+03  0.92038212831E+02 0.  0.
          1    1    3    3  502    0  0.11691772652E+02  0.15399512340E+03 -0.11087537151E+03  0.19011718383E+03  0.00000000000E+00 0. -1.
         -1    1    3    3    0  502  0.98375675704E+02  0.22663912152E+03 -0.23691407067E+03  0.34230299714E+03  0.00000000000E+00 0.  1.
         13    1    5    5    0    0  0.10378732033E+03  0.77855600362E+02 -0.28667048063E+02  0.13287250285E+03  0.00000000000E+00 0. -1.
        -13    1    5    5    0    0  0.37301106549E+02 -0.23569463634E+02 -0.29043936593E+02  0.52824638366E+02  0.00000000000E+00 0.  1.
          5    1    6    6  503    0 -0.15348921278E+03 -0.23320858324E+03  0.15524530179E+03  0.31948141646E+03  0.47000000000E+01 0. -1.
         -5    1    6    6    0  503 -0.97666662462E+02 -0.20171179840E+03  0.43006050111E+02  0.22824994396E+03  0.47000000000E+01 0.  1.
<mgrwt>
<rscale>  0 0.53938105E+03</rscale>
<asrwt>0</asrwt>
<pdfrwt beam="1">  1        2 0.11331521E+00 0.53938105E+03</pdfrwt>
<pdfrwt beam="2">  1       -2 0.81430740E-01 0.53938105E+03</pdfrwt>
<totfact> 0.52631513E+01</totfact>
</mgrwt>
</event>
<event>
12    1  0.3166324E-008  0.4633032E+03  0.7818608E-02  0.1023828E+00
         -2   -1    0    0    0  501 -0.00000000000E+00  0.00000000000E+00  0.38966529370E+03  0.38966529370E+03  0.00000000000E+00 0.  1.
          2   -1    0    0  501    0  0.00000000000E+00 -0.00000000000E+00 -0.71932458647E+03  0.71932458647E+03  0.00000000000E+00 0. -1.
         23    2    1    2    0    0 -0.26305292664E+03  0.14425090770E+03  0.80011428112E+02  0.32388513541E+03  0.92166076865E+02 0.  0.
    5000000    2    1    2    0    0  0.26305292664E+03 -0.14425090770E+03 -0.40967072088E+03  0.78510474476E+03  0.59879394963E+03 0.  0.
         23    2    4    4    0    0  0.42117128910E+03 -0.11005810142E+03 -0.40200200453E+03  0.59951779912E+03  0.91202737718E+02 0.  0.
         23    2    4    4    0    0 -0.15811836247E+03 -0.34192806286E+02 -0.76687163578E+01  0.18558694564E+03  0.90626379338E+02 0.  0.
          2    1    3    3  502    0 -0.86942107258E+01 -0.10736968356E+02  0.12140613098E+02  0.18392016638E+02  0.00000000000E+00 0.  1.
         -2    1    3    3    0  502 -0.25435871591E+03  0.15498787606E+03  0.67870815014E+02  0.30549311877E+03  0.00000000000E+00 0. -1.
         13    1    5    5    0    0  0.27243979269E+03 -0.34721217404E+02 -0.28527925446E+03  0.39599653609E+03  0.00000000000E+00 0. -1.
        -13    1    5    5    0    0  0.14873149642E+03 -0.75336884015E+02 -0.11672275007E+03  0.20352126303E+03  0.00000000000E+00 0.  1.
          5    1    6    6  503    0 -0.10345926101E+03  0.86950851198E+01 -0.36591881424E+02  0.11018384174E+03  0.47000000000E+01 0. -1.
         -5    1    6    6    0  503 -0.54659101458E+02 -0.42887891405E+02  0.28923165066E+02  0.75403103907E+02  0.47000000000E+01 0.  1.
<mgrwt>
<rscale>  0 0.46330325E+03</rscale>
<asrwt>0</asrwt>
<pdfrwt beam="1">  1        2 0.11066532E+00 0.46330325E+03</pdfrwt>
<pdfrwt beam="2">  1       -2 0.59948508E-01 0.46330325E+03</pdfrwt>
<totfact> 0.10621760E+02</totfact>
</mgrwt>
</event>
<event>
12    1  0.3166324E-008  0.1073251E+04  0.7818608E-02  0.9231662E-01
         -2   -1    0    0    0  501 -0.00000000000E+00  0.00000000000E+00  0.48290232588E+03  0.48290232588E+03  0.00000000000E+00 0.  1.
          2   -1    0    0  501    0  0.00000000000E+00 -0.00000000000E+00 -0.34157920245E+04  0.34157920245E+04  0.00000000000E+00 0. -1.
         23    2    1    2    0    0  0.48733410593E+03 -0.87274729632E+03 -0.34693994814E+03  0.10620854784E+04  0.92064444165E+02 0.  0.
    5000000    2    1    2    0    0 -0.48733410593E+03  0.87274729632E+03 -0.25859497505E+04  0.28366088719E+04  0.60002617130E+03 0.  0.
         23    2    4    4    0    0 -0.41337681319E+03  0.93939347767E+03 -0.23164734277E+04  0.25352887447E+04  0.91100945742E+02 0.  0.
         23    2    4    4    0    0 -0.73957292740E+02 -0.66646181355E+02 -0.26947632282E+03  0.30132012723E+03  0.90911692751E+02 0.  0.
          4    1    3    3  502    0  0.26475745985E+03 -0.40258826725E+03 -0.13513557671E+03  0.50043526011E+03  0.00000000000E+00 0. -1.
         -4    1    3    3    0  502  0.22257664608E+03 -0.47015902907E+03 -0.21180437143E+03  0.56165021833E+03  0.00000000000E+00 0.  1.
         13    1    5    5    0    0 -0.61436388561E+02  0.18710322568E+03 -0.37324196691E+03  0.42200901976E+03  0.00000000000E+00 0. -1.
        -13    1    5    5    0    0 -0.35194042463E+03  0.75229025199E+03 -0.19432314608E+04  0.21132797249E+04  0.00000000000E+00 0.  1.
          5    1    6    6  503    0 -0.72033027461E+02 -0.27061853911E+02 -0.95034447313E+02  0.12237130856E+03  0.47000000000E+01 0. -1.
         -5    1    6    6    0  503 -0.19242652793E+01 -0.39584327443E+02 -0.17444187550E+03  0.17894881867E+03  0.47000000000E+01 0.  1.
<mgrwt>
<rscale>  0 0.10732514E+04</rscale>
<asrwt>0</asrwt>
<pdfrwt beam="1">  1        2 0.52550646E+00 0.10732514E+04</pdfrwt>
<pdfrwt beam="2">  1       -2 0.74292666E-01 0.10732514E+04</pdfrwt>
<totfact> 0.15483759E+00</totfact>
</mgrwt>
</event>
<event>
12    1  0.3166324E-008  0.3361537E+03  0.7818608E-02  0.1068446E+00
          2   -1    0    0  501    0  0.00000000000E+00  0.00000000000E+00  0.30189178667E+04  0.30189178667E+04  0.00000000000E+00 0. -1.
         -2   -1    0    0    0  501 -0.00000000000E+00 -0.00000000000E+00 -0.15241957474E+03  0.15241957474E+03  0.00000000000E+00 0.  1.
         23    2    1    2    0    0 -0.21284518318E+03  0.25295930060E+02 -0.12366105706E+01  0.23367609381E+03  0.93059290406E+02 0.  0.
    5000000    2    1    2    0    0  0.21284518318E+03 -0.25295930060E+02  0.28677349025E+04  0.29376613476E+04  0.60000647170E+03 0.  0.
         23    2    4    4    0    0  0.22270847084E+03 -0.16448462741E+03  0.62887163650E+03  0.69260887443E+03  0.87024491436E+02 0.  0.
         23    2    4    4    0    0 -0.98632876526E+01  0.13918869735E+03  0.22388632660E+04  0.22450524732E+04  0.91000579787E+02 0.  0.
          2    1    3    3  502    0  0.45715987180E+01  0.44430274859E+01 -0.13487575249E+02  0.14918267131E+02  0.00000000000E+00 0.  1.
         -2    1    3    3    0  502 -0.21741678190E+03  0.20852902574E+02  0.12250964679E+02  0.21875782668E+03  0.00000000000E+00 0. -1.
         11    1    5    5    0    0  0.14067565752E+03 -0.74505536401E+02  0.43979948958E+03  0.46772246750E+03  0.00000000000E+00 0.  1.
        -11    1    5    5    0    0  0.82032813318E+02 -0.89979091010E+02  0.18907214692E+03  0.22488640693E+03  0.00000000000E+00 0. -1.
          5    1    6    6  503    0 -0.48528312635E+02  0.10033962502E+03  0.14833314239E+04  0.14875205009E+04  0.47000000000E+01 0. -1.
         -5    1    6    6    0  503  0.38665024982E+02  0.38849072332E+02  0.75553184216E+03  0.75753197233E+03  0.47000000000E+01 0.  1.
<mgrwt>
<rscale>  0 0.33615371E+03</rscale>
<asrwt>0</asrwt>
<pdfrwt beam="1">  1        2 0.46444886E+00 0.33615371E+03</pdfrwt>
<pdfrwt beam="2">  1       -2 0.23449168E-01 0.33615371E+03</pdfrwt>
<totfact> 0.31762270E+01</totfact>
</mgrwt>
</event>
<event>
12    1  0.3166324E-008  0.9728192E+03  0.7818608E-02  0.9338869E-01
          1   -1    0    0  501    0  0.00000000000E+00  0.00000000000E+00  0.22315299929E+04  0.22315299929E+04  0.00000000000E+00 0. -1.
         -1   -1    0    0    0  501 -0.00000000000E+00 -0.00000000000E+00 -0.48215326306E+03  0.48215326306E+03  0.00000000000E+00 0.  1.
         23    2    1    2    0    0 -0.94054974508E+03 -0.96542190716E+02  0.89471172237E+03  0.13048861381E+04  0.90909568757E+02 0.  0.
    5000000    2    1    2    0    0  0.94054974508E+03  0.96542190716E+02  0.85466500743E+03  0.14087971178E+04  0.60025230251E+03 0.  0.
         23    2    4    4    0    0  0.21004915936E+03  0.14536029902E+03 -0.10921219264E+02  0.27141744952E+03  0.91092771353E+02 0.  0.
         23    2    4    4    0    0  0.73050058572E+03 -0.48818108308E+02  0.86558622669E+03  0.11373796683E+04  0.91535132984E+02 0.  0.
          4    1    3    3  502    0 -0.50751401485E+03 -0.47877179525E+02  0.42006423921E+03  0.66054270464E+03  0.00000000000E+00 0. -1.
         -4    1    3    3    0  502 -0.43303573023E+03 -0.48665011191E+02  0.47464748316E+03  0.64434343346E+03  0.00000000000E+00 0.  1.
         11    1    5    5    0    0  0.10726928411E+03  0.11753475388E+03 -0.33392991429E+02  0.16259215713E+03  0.00000000000E+00 0. -1.
        -11    1    5    5    0    0  0.10277987526E+03  0.27825545141E+02  0.22471772165E+02  0.10882529239E+03  0.00000000000E+00 0.  1.
          5    1    6    6  503    0  0.36666086706E+03  0.46848173745E+01  0.37823285097E+03  0.52682475122E+03  0.47000000000E+01 0. -1.
         -5    1    6    6    0  503  0.36383971866E+03 -0.53502925683E+02  0.48735337572E+03  0.61055491707E+03  0.47000000000E+01 0.  1.
<mgrwt>
<rscale>  0 0.97281920E+03</rscale>
<asrwt>0</asrwt>
<pdfrwt beam="1">  1        1 0.34331230E+00 0.97281920E+03</pdfrwt>
<pdfrwt beam="2">  1       -1 0.74177426E-01 0.97281920E+03</pdfrwt>
<totfact> 0.38631034E+00</totfact>
</mgrwt>
</event>
<event>
12    1  0.3166324E-008  0.5157553E+03  0.7818608E-02  0.1009746E+00
         -1   -1    0    0    0  501 -0.00000000000E+00  0.00000000000E+00  0.11302848175E+04  0.11302848175E+04  0.00000000000E+00 0.  1.
          1   -1    0    0  501    0  0.00000000000E+00 -0.00000000000E+00 -0.30399124838E+03  0.30399124838E+03  0.00000000000E+00 0. -1.
         23    2    1    2    0    0  0.32439236267E+03 -0.21614941871E+03  0.52015175765E+03  0.65596698780E+03  0.88226197581E+02 0.  0.
    5000000    2    1    2    0    0 -0.32439236267E+03  0.21614941871E+03  0.30614181144E+03  0.77830907804E+03  0.60007602525E+03 0.  0.
         23    2    4    4    0    0  0.95123034222E+02 -0.71537086809E+02 -0.39917712916E+02  0.15680915420E+03  0.93966699470E+02 0.  0.
         23    2    4    4    0    0 -0.41951539689E+03  0.28768650552E+03  0.34605952436E+03  0.62149992384E+03  0.88024242378E+02 0.  0.
          3    1    3    3  502    0  0.15056796327E+03 -0.15055238708E+03  0.25509196644E+03  0.33227796220E+03  0.00000000000E+00 0. -1.
         -3    1    3    3    0  502  0.17382439939E+03 -0.65597031629E+02  0.26505979121E+03  0.32368902561E+03  0.00000000000E+00 0.  1.
         13    1    5    5    0    0  0.39696101922E+02 -0.29841147540E+02 -0.66096310742E+02  0.82674039989E+02  0.00000000000E+00 0. -1.
        -13    1    5    5    0    0  0.55426932300E+02 -0.41695939269E+02  0.26178597826E+02  0.74135114216E+02  0.00000000000E+00 0.  1.
          5    1    6    6  503    0 -0.37200621695E+03  0.22429595748E+03  0.26944803427E+03  0.51119627851E+03  0.47000000000E+01 0. -1.
         -5    1    6    6    0  503 -0.47509179945E+02  0.63390548032E+02  0.76611490093E+02  0.11030364533E+03  0.47000000000E+01 0.  1.
<mgrwt>
<rscale>  0 0.51575532E+03</rscale>
<asrwt>0</asrwt>
<pdfrwt beam="1">  1        1 0.46767885E-01 0.51575532E+03</pdfrwt>
<pdfrwt beam="2">  1       -1 0.17388997E+00 0.51575532E+03</pdfrwt>
<totfact> 0.20956569E+01</totfact>
</mgrwt>
</event>
<event>
12    1  0.3166324E-008  0.3936539E+03  0.7818608E-02  0.1046000E+00
         -2   -1    0    0    0  501 -0.00000000000E+00  0.00000000000E+00  0.11675271051E+04  0.11675271051E+04  0.00000000000E+00 0.  1.
          2   -1    0    0  501    0  0.00000000000E+00 -0.00000000000E+00 -0.18115121470E+03  0.18115121470E+03  0.00000000000E+00 0. -1.
         23    2    1    2    0    0  0.57736564516E+02 -0.24509828774E+03  0.25187273839E+03  0.36743365222E+03  0.90337870811E+02 0.  0.
    5000000    2    1    2    0    0 -0.57736564516E+02  0.24509828774E+03  0.73450315200E+03  0.98124466757E+03  0.59994961105E+03 0.  0.
         23    2    4    4    0    0  0.18653841522E+03  0.14471283148E+03  0.63784269224E+03  0.68582421778E+03  0.88165603830E+02 0.  0.
         23    2    4    4    0    0 -0.24427497973E+03  0.10038545626E+03  0.96660459758E+02  0.29542044979E+03  0.90457128637E+02 0.  0.
          1    1    3    3  502    0  0.81252526976E+02 -0.20828338548E+03  0.21659473074E+03  0.31128318167E+03  0.00000000000E+00 0. -1.
         -1    1    3    3    0  502 -0.23515962460E+02 -0.36814902261E+02  0.35278007652E+02  0.56150470549E+02  0.00000000000E+00 0.  1.
         11    1    5    5    0    0  0.13409542196E+03  0.59631998968E+02  0.44573511519E+03  0.46927321510E+03  0.00000000000E+00 0. -1.
        -11    1    5    5    0    0  0.52442993252E+02  0.85080832511E+02  0.19210757705E+03  0.21655100268E+03  0.00000000000E+00 0.  1.
          5    1    6    6  503    0 -0.67682372314E+02  0.63415748280E+02  0.61938927026E+02  0.11162876571E+03  0.47000000000E+01 0. -1.
         -5    1    6    6    0  503 -0.17659260742E+03  0.36969707984E+02  0.34721532733E+02  0.18379168409E+03  0.47000000000E+01 0.  1.
<mgrwt>
<rscale>  0 0.39365393E+03</rscale>
<asrwt>0</asrwt>
<pdfrwt beam="1">  1        2 0.27869418E-01 0.39365393E+03</pdfrwt>
<pdfrwt beam="2">  1       -2 0.17961955E+00 0.39365393E+03</pdfrwt>
<totfact> 0.36873429E+01</totfact>
</mgrwt>
</event>
<event>
12    1  0.3166324E-008  0.1234101E+04  0.7818608E-02  0.9083521E-01
         -1   -1    0    0    0  501 -0.00000000000E+00  0.00000000000E+00  0.26698892359E+04  0.26698892359E+04  0.00000000000E+00 0.  1.
          1   -1    0    0  501    0  0.00000000000E+00 -0.00000000000E+00 -0.76803860680E+03  0.76803860680E+03  0.00000000000E+00 0. -1.
         23    2    1    2    0    0  0.10819890178E+04  0.46346064172E+03  0.17467006475E+04  0.21084145891E+04  0.94619906402E+02 0.  0.
    5000000    2    1    2    0    0 -0.10819890178E+04 -0.46346064172E+03  0.15514998157E+03  0.13295132535E+04  0.59836274414E+03 0.  0.
         23    2    4    4    0    0 -0.96222843373E+03 -0.17718529958E+03  0.19961941988E+03  0.10028492917E+04  0.92631528541E+02 0.  0.
         23    2    4    4    0    0 -0.11976058404E+03 -0.28627534214E+03 -0.44469438302E+02  0.32666396181E+03  0.91845761969E+02 0.  0.
          2    1    3    3  502    0  0.58126652853E+03  0.28772110168E+03  0.10154008149E+04  0.12048622429E+04  0.00000000000E+00 0. -1.
         -2    1    3    3    0  502  0.50072248925E+03  0.17573954004E+03  0.73129983262E+03  0.90355234622E+03  0.00000000000E+00 0.  1.
         13    1    5    5    0    0 -0.32145771405E+03 -0.58680438118E+02  0.22361824244E+02  0.32753397827E+03  0.00000000000E+00 0. -1.
        -13    1    5    5    0    0 -0.64077071969E+03 -0.11850486146E+03  0.17725759563E+03  0.67531531347E+03  0.00000000000E+00 0.  1.
          5    1    6    6  503    0 -0.32298469718E+02 -0.84424869827E+02 -0.55809833594E+02  0.10633709286E+03  0.47000000000E+01 0. -1.
         -5    1    6    6    0  503 -0.87462114322E+02 -0.20185047232E+03  0.11340395292E+02  0.22032686895E+03  0.47000000000E+01 0.  1.
<mgrwt>
<rscale>  0 0.12341006E+04</rscale>
<asrwt>0</asrwt>
<pdfrwt beam="1">  1        1 0.11815979E+00 0.12341006E+04</pdfrwt>
<pdfrwt beam="2">  1       -1 0.41075219E+00 0.12341006E+04</pdfrwt>
<totfact> 0.14094042E-01</totfact>
</mgrwt>
</event>
<event>
12    1  0.3166324E-008  0.1381689E+04  0.7818608E-02  0.8967180E-01
          2   -1    0    0  501    0  0.00000000000E+00  0.00000000000E+00  0.11429483207E+04  0.11429483207E+04  0.00000000000E+00 0. -1.
         -2   -1    0    0    0  501 -0.00000000000E+00 -0.00000000000E+00 -0.21383347864E+04  0.21383347864E+04  0.00000000000E+00 0.  1.
         23    2    1    2    0    0 -0.98917303773E+03  0.87862721860E+03  0.27102901793E+03  0.13539526300E+04  0.96342658347E+02 0.  0.
    5000000    2    1    2    0    0  0.98917303773E+03 -0.87862721860E+03 -0.12664154836E+04  0.19273304772E+04  0.60028785022E+03 0.  0.
         23    2    4    4    0    0 -0.65816507574E+01 -0.26480050973E+03 -0.22583050512E+03  0.35891874146E+03  0.87524955583E+02 0.  0.
         23    2    4    4    0    0  0.99575468849E+03 -0.61382670887E+03 -0.10405849785E+04  0.15684117357E+04  0.93742450141E+02 0.  0.
          3    1    3    3  502    0 -0.54781630785E+03  0.53854437819E+03  0.12904470676E+03  0.77896424229E+03  0.00000000000E+00 0. -1.
         -3    1    3    3    0  502 -0.44135672988E+03  0.34008284041E+03  0.14198431117E+03  0.57498838769E+03  0.00000000000E+00 0.  1.
         13    1    5    5    0    0  0.16986329636E+02 -0.10505171860E+03 -0.42436414574E+02  0.11456547585E+03  0.00000000000E+00 0. -1.
        -13    1    5    5    0    0 -0.23567980393E+02 -0.15974879113E+03 -0.18339409055E+03  0.24435326561E+03  0.00000000000E+00 0.  1.
          5    1    6    6  503    0  0.17645012235E+03 -0.97282144696E+02 -0.13608089027E+03  0.24318421012E+03  0.47000000000E+01 0. -1.
         -5    1    6    6    0  503  0.81930456614E+03 -0.51654456417E+03 -0.90450408825E+03  0.13252275256E+04  0.47000000000E+01 0.  1.
<mgrwt>
<rscale>  0 0.13816893E+04</rscale>
<asrwt>0</asrwt>
<pdfrwt beam="1">  1        2 0.17583820E+00 0.13816893E+04</pdfrwt>
<pdfrwt beam="2">  1       -2 0.32897458E+00 0.13816893E+04</pdfrwt>
<totfact> 0.41394739E-01</totfact>
</mgrwt>
</event>
<event>
12    1  0.3166324E-008  0.6568561E+03  0.7818608E-02  0.9793998E-01
          1   -1    0    0  501    0  0.00000000000E+00  0.00000000000E+00  0.58887143263E+03  0.58887143263E+03  0.00000000000E+00 0. -1.
         -1   -1    0    0    0  501 -0.00000000000E+00 -0.00000000000E+00 -0.75586156046E+03  0.75586156046E+03  0.00000000000E+00 0.  1.
         23    2    1    2    0    0 -0.40365889354E+03 -0.33816987188E+03 -0.11894680582E+02  0.53151413909E+03  0.71178873603E+02 0.  0.
    5000000    2    1    2    0    0  0.40365889354E+03  0.33816987188E+03 -0.15509544725E+03  0.81321885401E+03  0.59997578466E+03 0.  0.
         23    2    4    4    0    0  0.13896602912E+02  0.38297033460E+03 -0.97279598684E+02  0.40638355784E+03  0.93940848411E+02 0.  0.
         23    2    4    4    0    0  0.38976229062E+03 -0.44800462723E+02 -0.57815848562E+02  0.40683529617E+03  0.90832599942E+02 0.  0.
          2    1    3    3  502    0 -0.39452936967E+03 -0.31633496481E+03 -0.21078643287E+02  0.50612799043E+03  0.00000000000E+00 0. -1.
         -2    1    3    3    0  502 -0.91295238678E+01 -0.21834907074E+02  0.91839627052E+01  0.25386148663E+02  0.00000000000E+00 0.  1.
         13    1    5    5    0    0  0.41437196771E+02  0.14229159431E+03 -0.87356459332E+01  0.14845959248E+03  0.00000000000E+00 0.  1.
        -13    1    5    5    0    0 -0.27540593858E+02  0.24067874029E+03 -0.88543952751E+02  0.25792396536E+03  0.00000000000E+00 0. -1.
          5    1    6    6  503    0  0.26174699402E+03 -0.14058511529E+02  0.19496818458E+01  0.26217364834E+03  0.47000000000E+01 0. -1.
         -5    1    6    6    0  503  0.12801529661E+03 -0.30741951194E+02 -0.59765530408E+02  0.14466164783E+03  0.47000000000E+01 0.  1.
<mgrwt>
<rscale>  0 0.65685615E+03</rscale>
<asrwt>0</asrwt>
<pdfrwt beam="1">  1        1 0.90595605E-01 0.65685615E+03</pdfrwt>
<pdfrwt beam="2">  1       -1 0.11628639E+00 0.65685615E+03</pdfrwt>
<totfact> 0.24364432E+01</totfact>
</mgrwt>
</event>
<event>
12    1  0.3166324E-008  0.3282936E+03  0.7818608E-02  0.1071894E+00
         -1   -1    0    0    0  501 -0.00000000000E+00  0.00000000000E+00  0.33873164113E+03  0.33873164113E+03  0.00000000000E+00 0.  1.
          1   -1    0    0  501    0  0.00000000000E+00 -0.00000000000E+00 -0.19319539564E+04  0.19319539564E+04  0.00000000000E+00 0. -1.
         23    2    1    2    0    0 -0.10145918770E+03  0.24368192679E+03  0.21276112016E+03  0.34945065291E+03  0.84697203933E+02 0.  0.
    5000000    2    1    2    0    0  0.10145918770E+03 -0.24368192679E+03 -0.18059834355E+04  0.19212349446E+04  0.59991057265E+03 0.  0.
         23    2    4    4    0    0 -0.54156646884E+01 -0.26138050592E+03 -0.29784400577E+03  0.40641079496E+03  0.90053229727E+02 0.  0.
         23    2    4    4    0    0  0.10687485239E+03  0.17698579134E+02 -0.15081394297E+04  0.15148241497E+04  0.92044507354E+02 0.  0.
          1    1    3    3  502    0 -0.58674285221E+02  0.21941931090E+03  0.18523769872E+03  0.29308788916E+03  0.00000000000E+00 0. -1.
         -1    1    3    3    0  502 -0.42784902483E+02  0.24262615888E+02  0.27523421438E+02  0.56362763753E+02  0.00000000000E+00 0.  1.
         11    1    5    5    0    0  0.29320832808E+02 -0.81111426564E+02 -0.56216795380E+02  0.10295194432E+03  0.00000000000E+00 0. -1.
        -11    1    5    5    0    0 -0.34736497497E+02 -0.18026907936E+03 -0.24162721039E+03  0.30345885064E+03  0.00000000000E+00 0.  1.
          5    1    6    6  503    0  0.59161467090E+02  0.19476007018E+02 -0.33935969954E+03  0.34506012478E+03  0.47000000000E+01 0. -1.
         -5    1    6    6    0  503  0.47713385302E+02 -0.17774278842E+01 -0.11687797301E+04  0.11697640249E+04  0.47000000000E+01 0.  1.
<mgrwt>
<rscale>  0 0.32829359E+03</rscale>
<asrwt>0</asrwt>
<pdfrwt beam="1">  1        1 0.29722368E+00 0.32829359E+03</pdfrwt>
<pdfrwt beam="2">  1       -1 0.52112560E-01 0.32829359E+03</pdfrwt>
<totfact> 0.14103745E+01</totfact>
</mgrwt>
</event>
<event>
12    1  0.3166324E-008  0.6598783E+03  0.7818608E-02  0.9788418E-01
         -1   -1    0    0    0  501 -0.00000000000E+00  0.00000000000E+00  0.47166731191E+03  0.47166731191E+03  0.00000000000E+00 0.  1.
          1   -1    0    0  501    0  0.00000000000E+00 -0.00000000000E+00 -0.10139545816E+04  0.10139545816E+04  0.00000000000E+00 0. -1.
         23    2    1    2    0    0  0.50391417573E+03  0.13837136550E+03 -0.42789811471E+03  0.68173879797E+03  0.92708472069E+02 0.  0.
    5000000    2    1    2    0    0 -0.50391417573E+03 -0.13837136550E+03 -0.11438915500E+03  0.80388309556E+03  0.60005584845E+03 0.  0.
         23    2    4    4    0    0 -0.57317319524E+03 -0.25370200575E+03 -0.99260726107E+02  0.64088797204E+03  0.89400679481E+02 0.  0.
         23    2    4    4    0    0  0.69259019512E+02  0.11533064025E+03 -0.15128428892E+02  0.16299512353E+03  0.90777599481E+02 0.  0.
          2    1    3    3  502    0  0.43129332204E+03  0.14435925935E+03 -0.34170710483E+03  0.56887368624E+03  0.00000000000E+00 0. -1.
         -2    1    3    3    0  502  0.72620853685E+02 -0.59878938515E+01 -0.86191009874E+02  0.11286511173E+03  0.00000000000E+00 0.  1.
         13    1    5    5    0    0 -0.36702163670E+03 -0.11474981154E+03 -0.61435568669E+02  0.38941845122E+03  0.00000000000E+00 0. -1.
        -13    1    5    5    0    0 -0.20615155854E+03 -0.13895219421E+03 -0.37825157438E+02  0.25146952081E+03  0.00000000000E+00 0.  1.
          5    1    6    6  503    0 -0.99153225109E+00  0.80015568722E+02  0.88790054842E+01  0.80649867405E+02  0.47000000000E+01 0. -1.
         -5    1    6    6    0  503  0.70250551764E+02  0.35315071531E+02 -0.24007434376E+02  0.82345256121E+02  0.47000000000E+01 0.  1.
<mgrwt>
<rscale>  0 0.65987832E+03</rscale>
<asrwt>0</asrwt>
<pdfrwt beam="1">  1        1 0.15599301E+00 0.65987832E+03</pdfrwt>
<pdfrwt beam="2">  1       -1 0.72564203E-01 0.65987832E+03</pdfrwt>
<totfact> 0.29350712E+01</totfact>
</mgrwt>
</event>
<event>
12    1  0.3166324E-008  0.4039046E+03  0.7818608E-02  0.1042436E+00
         -2   -1    0    0    0  501 -0.00000000000E+00  0.00000000000E+00  0.11602494680E+03  0.11602494680E+03  0.00000000000E+00 0.  1.
          2   -1    0    0  501    0  0.00000000000E+00 -0.00000000000E+00 -0.22619163163E+04  0.22619163163E+04  0.00000000000E+00 0. -1.
         23    2    1    2    0    0 -0.22486542076E+03 -0.52541608951E+02 -0.12542968525E+04  0.12787477782E+04  0.92791206709E+02 0.  0.
    5000000    2    1    2    0    0  0.22486542076E+03  0.52541608951E+02 -0.89159451703E+03  0.10991934849E+04  0.59996704600E+03 0.  0.
         23    2    4    4    0    0  0.36791429136E+03  0.15356815290E+03 -0.76688855538E+03  0.86924397673E+03  0.92319723440E+02 0.  0.
         23    2    4    4    0    0 -0.14304887060E+03 -0.10102654395E+03 -0.12470596165E+03  0.22994950815E+03  0.81583438665E+02 0.  0.
          2    1    3    3  502    0 -0.16554235951E+03 -0.47109175889E+02 -0.10993925990E+04  0.11127837319E+04  0.00000000000E+00 0. -1.
         -2    1    3    3    0  502 -0.59323061247E+02 -0.54324330612E+01 -0.15490425344E+03  0.16596404628E+03  0.00000000000E+00 0.  1.
         13    1    5    5    0    0  0.19422383846E+03  0.67963761776E+02 -0.29996036021E+03  0.36375567355E+03  0.00000000000E+00 0.  1.
        -13    1    5    5    0    0  0.17369045289E+03  0.85604391127E+02 -0.46692819517E+03  0.50548830318E+03  0.00000000000E+00 0. -1.
          5    1    6    6  503    0 -0.94028275216E+02 -0.53563066894E+02 -0.28667224204E+02  0.11204560865E+03  0.47000000000E+01 0. -1.
         -5    1    6    6    0  503 -0.49020595386E+02 -0.47463477059E+02 -0.96038737443E+02  0.11790389950E+03  0.47000000000E+01 0.  1.
<mgrwt>
<rscale>  0 0.40390465E+03</rscale>
<asrwt>0</asrwt>
<pdfrwt beam="1">  1        2 0.34798714E+00 0.40390465E+03</pdfrwt>
<pdfrwt beam="2">  1       -2 0.17849991E-01 0.40390465E+03</pdfrwt>
<totfact> 0.13430679E+02</totfact>
</mgrwt>
</event>
<event>
12    1  0.3166324E-008  0.6204765E+03  0.7818608E-02  0.9863812E-01
         -2   -1    0    0    0  501 -0.00000000000E+00  0.00000000000E+00  0.25780384644E+03  0.25780384644E+03  0.00000000000E+00 0. -1.
          2   -1    0    0  501    0  0.00000000000E+00 -0.00000000000E+00 -0.15799482106E+04  0.15799482106E+04  0.00000000000E+00 0.  1.
         23    2    1    2    0    0 -0.45050575829E+03 -0.19462438453E+03 -0.56921935255E+03  0.75712330823E+03  0.91602091942E+02 0.  0.
    5000000    2    1    2    0    0  0.45050575829E+03  0.19462438453E+03 -0.75292501163E+03  0.10806287488E+04  0.60002360814E+03 0.  0.
         23    2    4    4    0    0  0.42541770219E+03  0.35903345899E+03 -0.66350860771E+03  0.87089675713E+03  0.91281121020E+02 0.  0.
         23    2    4    4    0    0  0.25088056102E+02 -0.16440907446E+03 -0.89416403915E+02  0.20973199169E+03  0.91282313314E+02 0.  0.
          1    1    3    3  502    0 -0.23083787632E+03 -0.55253306209E+02 -0.30298376767E+03  0.38488727761E+03  0.00000000000E+00 0. -1.
         -1    1    3    3    0  502 -0.21966788198E+03 -0.13937107832E+03 -0.26623558487E+03  0.37223603063E+03  0.00000000000E+00 0.  1.
         11    1    5    5    0    0  0.35735922915E+03  0.27354940595E+03 -0.48527989917E+03  0.66183946444E+03  0.00000000000E+00 0. -1.
        -11    1    5    5    0    0  0.68058473045E+02  0.85484053043E+02 -0.17822870854E+03  0.20905729269E+03  0.00000000000E+00 0.  1.
          5    1    6    6  503    0 -0.25734003551E+02 -0.91308719748E+02 -0.20809154667E+02  0.97234932811E+02  0.47000000000E+01 0. -1.
         -5    1    6    6    0  503  0.50822059653E+02 -0.73100354713E+02 -0.68607249248E+02  0.11249705888E+03  0.47000000000E+01 0.  1.
<mgrwt>
<rscale>  0 0.62047647E+03</rscale>
<asrwt>0</asrwt>
<pdfrwt beam="1">  1        2 0.24306895E+00 0.62047647E+03</pdfrwt>
<pdfrwt beam="2">  1       -2 0.39662131E-01 0.62047647E+03</pdfrwt>
<totfact> 0.71289865E+01</totfact>
</mgrwt>
</event>
<event>
12    1  0.3166324E-008  0.5545373E+03  0.7818608E-02  0.1000449E+00
         -1   -1    0    0    0  501 -0.00000000000E+00  0.00000000000E+00  0.42025549819E+03  0.42025549819E+03  0.00000000000E+00 0.  1.
          1   -1    0    0  501    0  0.00000000000E+00 -0.00000000000E+00 -0.10286599894E+04  0.10286599894E+04  0.00000000000E+00 0. -1.
         23    2    1    2    0    0  0.38447149030E+03  0.28698207712E+03 -0.45073524936E+03  0.66449518217E+03  0.90634114240E+02 0.  0.
    5000000    2    1    2    0    0 -0.38447149030E+03 -0.28698207712E+03 -0.15766924185E+03  0.78442030543E+03  0.60023211036E+03 0.  0.
         23    2    4    4    0    0  0.19553287801E+02 -0.19010731815E+03 -0.27056794848E+03  0.34394607528E+03  0.92567621122E+02 0.  0.
         23    2    4    4    0    0 -0.40402477810E+03 -0.96874758969E+02  0.11289870663E+03  0.44047423015E+03  0.93009081405E+02 0.  0.
          2    1    3    3  502    0  0.27356054207E+03  0.17604935392E+03 -0.35118468858E+03  0.47870599608E+03  0.00000000000E+00 0. -1.
         -2    1    3    3    0  502  0.11091094824E+03  0.11093272319E+03 -0.99550560781E+02  0.18578918608E+03  0.00000000000E+00 0.  1.
         11    1    5    5    0    0  0.40930837043E+02 -0.37804329623E+02 -0.98472939364E+02  0.11314336280E+03  0.00000000000E+00 0. -1.
        -11    1    5    5    0    0 -0.21377549243E+02 -0.15230298852E+03 -0.17209500911E+03  0.23080271248E+03  0.00000000000E+00 0.  1.
          5    1    6    6  503    0 -0.99508283667E+02 -0.41088204063E+02  0.68495275624E+02  0.12768645901E+03  0.47000000000E+01 0. -1.
         -5    1    6    6    0  503 -0.30451649443E+03 -0.55786554906E+02  0.44403431001E+02  0.31278777114E+03  0.47000000000E+01 0.  1.
<mgrwt>
<rscale>  0 0.55453725E+03</rscale>
<asrwt>0</asrwt>
<pdfrwt beam="1">  1        1 0.15825538E+00 0.55453725E+03</pdfrwt>
<pdfrwt beam="2">  1       -1 0.64654693E-01 0.55453725E+03</pdfrwt>
<totfact> 0.36663307E+01</totfact>
</mgrwt>
</event>
<event>
12    1  0.3166324E-008  0.3741265E+03  0.7818608E-02  0.1053126E+00
         -3   -1    0    0    0  501 -0.00000000000E+00  0.00000000000E+00  0.80644975143E+03  0.80644975143E+03  0.00000000000E+00 0.  1.
          3   -1    0    0  501    0  0.00000000000E+00 -0.00000000000E+00 -0.47800653459E+03  0.47800653459E+03  0.00000000000E+00 0. -1.
         23    2    1    2    0    0  0.12113402484E+03  0.20651338001E+03 -0.29192993855E+03  0.38867235139E+03  0.92314027180E+02 0.  0.
    5000000    2    1    2    0    0 -0.12113402484E+03 -0.20651338001E+03  0.62037315539E+03  0.89578393463E+03  0.60020394661E+03 0.  0.
         23    2    4    4    0    0 -0.12740645154E+03  0.11732415103E+03  0.67003355720E+01  0.19579566656E+03  0.91069688919E+02 0.  0.
         23    2    4    4    0    0  0.62724267048E+01 -0.32383753104E+03  0.61367281981E+03  0.69998826807E+03  0.92082331689E+02 0.  0.
          3    1    3    3  502    0  0.15767494736E+02  0.42493378628E+02 -0.12168480486E+03  0.12985181112E+03  0.00000000000E+00 0. -1.
         -3    1    3    3    0  502  0.10536653010E+03  0.16402000138E+03 -0.17024513369E+03  0.25882054027E+03  0.00000000000E+00 0.  1.
         11    1    5    5    0    0 -0.12703646523E+03  0.93293026103E+02 -0.21131011700E+02  0.15902318030E+03  0.00000000000E+00 0.  1.
        -11    1    5    5    0    0 -0.36998631171E+00  0.24031124925E+02  0.27831347272E+02  0.36772486264E+02  0.00000000000E+00 0. -1.
          5    1    6    6  503    0  0.19508368751E+02 -0.96580637270E+02  0.27259802548E+03  0.28989682552E+03  0.47000000000E+01 0. -1.
         -5    1    6    6    0  503 -0.13235942046E+02 -0.22725689377E+03  0.34107479433E+03  0.41009144255E+03  0.47000000000E+01 0.  1.
<mgrwt>
<rscale>  0 0.37412648E+03</rscale>
<asrwt>0</asrwt>
<pdfrwt beam="1">  1        3 0.73539467E-01 0.37412648E+03</pdfrwt>
<pdfrwt beam="2">  1       -3 0.12406919E+00 0.37412648E+03</pdfrwt>
<totfact> 0.23956384E+00</totfact>
</mgrwt>
</event>
<event>
12    1  0.3166324E-008  0.5141570E+03  0.7818608E-02  0.1010148E+00
          2   -1    0    0  501    0  0.00000000000E+00  0.00000000000E+00  0.23641615731E+04  0.23641615731E+04  0.00000000000E+00 0. -1.
         -2   -1    0    0    0  501 -0.00000000000E+00 -0.00000000000E+00 -0.17679394458E+03  0.17679394458E+03  0.00000000000E+00 0.  1.
         23    2    1    2    0    0  0.46467097181E+03 -0.17612645069E+03  0.10070985001E+04  0.11267801411E+04  0.91904617925E+02 0.  0.
    5000000    2    1    2    0    0 -0.46467097181E+03  0.17612645069E+03  0.11802691285E+04  0.14141753766E+04  0.59993094733E+03 0.  0.
         23    2    4    4    0    0 -0.20280250750E+03  0.13489165324E+03  0.69841372765E+02  0.26894479364E+03  0.90160243544E+02 0.  0.
         23    2    4    4    0    0 -0.26186846431E+03  0.41234797453E+02  0.11104277557E+04  0.11452305830E+04  0.90707697759E+02 0.  0.
          1    1    3    3  502    0  0.95793690384E+02 -0.35145155975E+02  0.13313247660E+03  0.16773750156E+03  0.00000000000E+00 0. -1.
         -1    1    3    3    0  502  0.36887728142E+03 -0.14098129472E+03  0.87396602346E+03  0.95904263949E+03  0.00000000000E+00 0.  1.
         13    1    5    5    0    0 -0.10606817387E+03  0.11364095712E+03  0.68554559450E+02  0.16989541566E+03  0.00000000000E+00 0. -1.
        -13    1    5    5    0    0 -0.96734333637E+02  0.21250696118E+02  0.12868133151E+01  0.99049377980E+02  0.00000000000E+00 0.  1.
          5    1    6    6  503    0 -0.10506119784E+03 -0.22515057214E+02  0.51967555091E+03  0.53068780965E+03  0.47000000000E+01 0. -1.
         -5    1    6    6    0  503 -0.15680726647E+03  0.63749854667E+02  0.59075220481E+03  0.61454277335E+03  0.47000000000E+01 0.  1.
<mgrwt>
<rscale>  0 0.51415696E+03</rscale>
<asrwt>0</asrwt>
<pdfrwt beam="1">  1        2 0.36371714E+00 0.51415696E+03</pdfrwt>
<pdfrwt beam="2">  1       -2 0.27199070E-01 0.51415696E+03</pdfrwt>
<totfact> 0.55107431E+01</totfact>
</mgrwt>
</event>
<event>
12    1  0.3166324E-008  0.2167451E+03  0.7818608E-02  0.1136333E+00
         -1   -1    0    0    0  501 -0.00000000000E+00  0.00000000000E+00  0.18506130642E+03  0.18506130642E+03  0.00000000000E+00 0.  1.
          1   -1    0    0  501    0  0.00000000000E+00 -0.00000000000E+00 -0.74195777494E+03  0.74195777494E+03  0.00000000000E+00 0. -1.
         23    2    1    2    0    0 -0.73244478388E+02 -0.40720371077E+02 -0.25579894555E+02  0.12122017103E+03  0.83768112217E+02 0.  0.
    5000000    2    1    2    0    0  0.73244478388E+02  0.40720371077E+02 -0.53131657397E+03  0.80579891033E+03  0.59999306652E+03 0.  0.
         23    2    4    4    0    0 -0.78869706910E+02  0.13498326016E+03 -0.57256851384E+03  0.60043496371E+03  0.90810414689E+02 0.  0.
         23    2    4    4    0    0  0.15211418530E+03 -0.94262889082E+02  0.41251939866E+02  0.20536394662E+03  0.91915234865E+02 0.  0.
          1    1    3    3  502    0 -0.16590351596E+02 -0.23683657688E+02  0.28837824819E+02  0.40838407754E+02  0.00000000000E+00 0. -1.
         -1    1    3    3    0  502 -0.56654126792E+02 -0.17036713389E+02 -0.54417719374E+02  0.80381763277E+02  0.00000000000E+00 0.  1.
         11    1    5    5    0    0 -0.68815966287E+02  0.84483368448E+02 -0.49822465026E+03  0.51000086165E+03  0.00000000000E+00 0. -1.
        -11    1    5    5    0    0 -0.10053740623E+02  0.50499891711E+02 -0.74343863585E+02  0.90434102064E+02  0.00000000000E+00 0.  1.
          5    1    6    6  503    0  0.11944278147E+03 -0.93805915124E+02 -0.74024001955E+00  0.15194987895E+03  0.47000000000E+01 0. -1.
         -5    1    6    6    0  503  0.32671403829E+02 -0.45697395870E+00  0.41992179885E+02  0.53414067669E+02  0.47000000000E+01 0.  1.
<mgrwt>
<rscale>  0 0.21674510E+03</rscale>
<asrwt>0</asrwt>
<pdfrwt beam="1">  1        1 0.11414735E+00 0.21674510E+03</pdfrwt>
<pdfrwt beam="2">  1       -1 0.28470969E-01 0.21674510E+03</pdfrwt>
<totfact> 0.29328235E+02</totfact>
</mgrwt>
</event>
<event>
12    1  0.3166324E-008  0.5698734E+03  0.7818608E-02  0.9969959E-01
         -2   -1    0    0    0  501 -0.00000000000E+00  0.00000000000E+00  0.72306279969E+03  0.72306279969E+03  0.00000000000E+00 0.  1.
          2   -1    0    0  501    0  0.00000000000E+00 -0.00000000000E+00 -0.75575376521E+03  0.75575376521E+03  0.00000000000E+00 0. -1.
         23    2    1    2    0    0 -0.41222019336E+03  0.10602618519E+03  0.42839925836E+03  0.61064608364E+03  0.90529968169E+02 0.  0.
    5000000    2    1    2    0    0  0.41222019336E+03 -0.10602618519E+03 -0.46109022388E+03  0.86817048126E+03  0.59995729032E+03 0.  0.
         23    2    4    4    0    0 -0.88453701588E+02 -0.17573800473E+03 -0.17709740145E+03  0.28051188446E+03  0.92819847508E+02 0.  0.
         23    2    4    4    0    0  0.50067389495E+03  0.69711819536E+02 -0.28399282243E+03  0.58765859680E+03  0.95690210232E+02 0.  0.
          3    1    3    3  502    0 -0.10722728070E+03  0.48795311373E+02  0.17000787353E+03  0.20683652773E+03  0.00000000000E+00 0. -1.
         -3    1    3    3    0  502 -0.30499291267E+03  0.57230873817E+02  0.25839138482E+03  0.40380955591E+03  0.00000000000E+00 0.  1.
         13    1    5    5    0    0 -0.53391481329E+02 -0.13278423513E+03 -0.68688837747E+02  0.15874652692E+03  0.00000000000E+00 0. -1.
        -13    1    5    5    0    0 -0.35062220259E+02 -0.42953769592E+02 -0.10840856370E+03  0.12176535753E+03  0.00000000000E+00 0.  1.
          5    1    6    6  503    0  0.15622821393E+03 -0.18709292486E+02 -0.10757845988E+03  0.19066333544E+03  0.47000000000E+01 0. -1.
         -5    1    6    6    0  503  0.34444568102E+03  0.88421112022E+02 -0.17641436255E+03  0.39699526136E+03  0.47000000000E+01 0.  1.
<mgrwt>
<rscale>  0 0.56987341E+03</rscale>
<asrwt>0</asrwt>
<pdfrwt beam="1">  1        2 0.11626981E+00 0.56987341E+03</pdfrwt>
<pdfrwt beam="2">  1       -2 0.11124043E+00 0.56987341E+03</pdfrwt>
<totfact> 0.24532806E+01</totfact>
</mgrwt>
</event>
<event>
12    1  0.3166324E-008  0.5010133E+03  0.7818608E-02  0.1013515E+00
          2   -1    0    0  501    0  0.00000000000E+00  0.00000000000E+00  0.23355893220E+04  0.23355893220E+04  0.00000000000E+00 0.  1.
         -2   -1    0    0    0  501 -0.00000000000E+00 -0.00000000000E+00 -0.19368873403E+03  0.19368873403E+03  0.00000000000E+00 0. -1.
         23    2    1    2    0    0  0.21250517588E+03  0.28256701518E+03  0.10955745923E+03  0.38090286917E+03  0.89897669765E+02 0.  0.
    5000000    2    1    2    0    0 -0.21250517588E+03 -0.28256701518E+03  0.20323431287E+04  0.21483751869E+04  0.60007898043E+03 0.  0.
         23    2    4    4    0    0 -0.11307370241E+03  0.14560401009E+03  0.34058509281E+03  0.39803133255E+03  0.91894212626E+02 0.  0.
         23    2    4    4    0    0 -0.99431473461E+02 -0.42817102527E+03  0.16917580359E+04  0.17503438543E+04  0.91876609712E+02 0.  0.
          2    1    3    3  502    0  0.35439468209E+02  0.77527064691E+02  0.63050884426E+02  0.10602742897E+03  0.00000000000E+00 0. -1.
         -2    1    3    3    0  502  0.17706570767E+03  0.20503995049E+03  0.46506574805E+02  0.27487544020E+03  0.00000000000E+00 0.  1.
         11    1    5    5    0    0 -0.10932399084E+03  0.70864814409E+02  0.23355114979E+03  0.26743166691E+03  0.00000000000E+00 0.  1.
        -11    1    5    5    0    0 -0.37497115720E+01  0.74739195683E+02  0.10703394302E+03  0.13059966564E+03  0.00000000000E+00 0. -1.
          5    1    6    6  503    0 -0.47227057954E+02 -0.26959570773E+03  0.88042350093E+03  0.92199776118E+03  0.47000000000E+01 0. -1.
         -5    1    6    6    0  503 -0.52204415507E+02 -0.15857531754E+03  0.81133453500E+03  0.82834609314E+03  0.47000000000E+01 0.  1.
<mgrwt>
<rscale>  0 0.50101325E+03</rscale>
<asrwt>0</asrwt>
<pdfrwt beam="1">  1        2 0.35932141E+00 0.50101325E+03</pdfrwt>
<pdfrwt beam="2">  1       -2 0.29798268E-01 0.50101325E+03</pdfrwt>
<totfact> 0.48479267E+01</totfact>
</mgrwt>
</event>
<event>
12    1  0.3166324E-008  0.7630951E+03  0.7818608E-02  0.9615027E-01
          1   -1    0    0  501    0  0.00000000000E+00  0.00000000000E+00  0.62039831536E+03  0.62039831536E+03  0.00000000000E+00 0. -1.
         -1   -1    0    0    0  501 -0.00000000000E+00 -0.00000000000E+00 -0.18955844553E+04  0.18955844553E+04  0.00000000000E+00 0.  1.
         23    2    1    2    0    0 -0.63992379444E+03  0.12363022102E+03 -0.14683115718E+04  0.16091184297E+04  0.92392395379E+02 0.  0.
    5000000    2    1    2    0    0  0.63992379444E+03 -0.12363022102E+03  0.19312543188E+03  0.90686434093E+03  0.60026544642E+03 0.  0.
         23    2    4    4    0    0  0.28060085732E+03 -0.34370895754E+03  0.14198397532E+03  0.47467148579E+03  0.90999349151E+02 0.  0.
         23    2    4    4    0    0  0.35932293711E+03  0.22007873652E+03  0.51141456561E+02  0.43219285514E+03  0.81410024258E+02 0.  0.
          1    1    3    3  502    0 -0.33536212109E+03  0.55981281846E+02 -0.87592874673E+03  0.93960248272E+03  0.00000000000E+00 0. -1.
         -1    1    3    3    0  502 -0.30456167335E+03  0.67648939171E+02 -0.59238282505E+03  0.66951594698E+03  0.00000000000E+00 0.  1.
         11    1    5    5    0    0 -0.59694597556E+01 -0.21165065634E+01  0.54529877050E+01  0.83575788789E+01  0.00000000000E+00 0.  1.
        -11    1    5    5    0    0  0.28657031708E+03 -0.34159245098E+03  0.13653098762E+03  0.46631390691E+03  0.00000000000E+00 0. -1.
          5    1    6    6  503    0  0.29536950269E+03  0.18935039208E+03  0.12143652559E+02  0.35109296831E+03  0.47000000000E+01 0. -1.
         -5    1    6    6    0  503  0.63953434428E+02  0.30728344444E+02  0.38997804002E+02  0.81099886833E+02  0.47000000000E+01 0.  1.
<mgrwt>
<rscale>  0 0.76309507E+03</rscale>
<asrwt>0</asrwt>
<pdfrwt beam="1">  1        1 0.95445896E-01 0.76309507E+03</pdfrwt>
<pdfrwt beam="2">  1       -1 0.29162837E+00 0.76309507E+03</pdfrwt>
<totfact> 0.12831089E+00</totfact>
</mgrwt>
</event>
<event>
12    1  0.3166324E-008  0.3107035E+03  0.7818608E-02  0.1080009E+00
          2   -1    0    0  501    0  0.00000000000E+00  0.00000000000E+00  0.13011782206E+04  0.13011782206E+04  0.00000000000E+00 0. -1.
         -2   -1    0    0    0  501 -0.00000000000E+00 -0.00000000000E+00 -0.20222138653E+03  0.20222138653E+03  0.00000000000E+00 0.  1.
         23    2    1    2    0    0  0.17785534428E+03 -0.18676769571E+03  0.72289729208E+02  0.28681825317E+03  0.10258757114E+03 0.  0.
    5000000    2    1    2    0    0 -0.17785534428E+03  0.18676769571E+03  0.10266671049E+04  0.12165813540E+04  0.59959165349E+03 0.  0.
         23    2    4    4    0    0 -0.14356105058E+03  0.21916889019E+02 -0.50011322539E+01  0.16728777235E+03  0.82885838263E+02 0.  0.
         23    2    4    4    0    0 -0.34294293702E+02  0.16485080669E+03  0.10316682371E+04  0.10492935816E+04  0.91245722510E+02 0.  0.
          3    1    3    3  502    0  0.70921040223E+02 -0.11884478293E+02  0.27552383596E+02  0.77007588019E+02  0.00000000000E+00 0. -1.
         -3    1    3    3    0  502  0.10693430406E+03 -0.17488321742E+03  0.44737345612E+02  0.20981066515E+03  0.00000000000E+00 0.  1.
         13    1    5    5    0    0 -0.23863726596E+02  0.27281809262E+02 -0.27345902327E+02  0.45404547544E+02  0.00000000000E+00 0.  1.
        -13    1    5    5    0    0 -0.11969732399E+03 -0.53649202425E+01  0.22344770074E+02  0.12188322480E+03  0.00000000000E+00 0. -1.
          5    1    6    6  503    0 -0.50829519482E+02  0.47122504369E+02  0.47495507075E+03  0.48000893711E+03  0.47000000000E+01 0. -1.
         -5    1    6    6    0  503  0.16535225780E+02  0.11772830232E+03  0.55671316639E+03  0.56928464453E+03  0.47000000000E+01 0.  1.
<mgrwt>
<rscale>  0 0.31070350E+03</rscale>
<asrwt>0</asrwt>
<pdfrwt beam="1">  1        2 0.20018126E+00 0.31070350E+03</pdfrwt>
<pdfrwt beam="2">  1       -2 0.31110983E-01 0.31070350E+03</pdfrwt>
<totfact> 0.16810830E+02</totfact>
</mgrwt>
</event>
<event>
12    1  0.3166324E-008  0.7983700E+03  0.7818608E-02  0.9562380E-01
         -2   -1    0    0    0  501 -0.00000000000E+00  0.00000000000E+00  0.18311531970E+04  0.18311531970E+04  0.00000000000E+00 0.  1.
          2   -1    0    0  501    0  0.00000000000E+00 -0.00000000000E+00 -0.89085449323E+03  0.89085449323E+03  0.00000000000E+00 0. -1.
         23    2    1    2    0    0 -0.72271421865E+03  0.20041877238E+03  0.14493131828E+04  0.16344845481E+04  0.92452743938E+02 0.  0.
    5000000    2    1    2    0    0  0.72271421865E+03 -0.20041877238E+03 -0.50901447908E+03  0.10875231421E+04  0.60093869786E+03 0.  0.
         23    2    4    4    0    0  0.15911966098E+03 -0.22166925614E+03  0.45431129111E+02  0.29125989014E+03  0.91170228062E+02 0.  0.
         23    2    4    4    0    0  0.56359455767E+03  0.21250483766E+02 -0.55444560819E+03  0.79626325198E+03  0.92384119408E+02 0.  0.
          3    1    3    3  502    0 -0.37647073405E+03  0.12952362651E+03  0.68231951178E+03  0.78997879692E+03  0.00000000000E+00 0. -1.
         -3    1    3    3    0  502 -0.34624348459E+03  0.70895145862E+02  0.76699367105E+03  0.84450575117E+03  0.00000000000E+00 0.  1.
         11    1    5    5    0    0  0.92839935501E+02 -0.15755056033E+03  0.70024725247E+02  0.19581852525E+03  0.00000000000E+00 0. -1.
        -11    1    5    5    0    0  0.66279725475E+02 -0.64118695806E+02 -0.24593596136E+02  0.95441364889E+02  0.00000000000E+00 0.  1.
          5    1    6    6  503    0  0.34726800373E+03  0.53271537671E+02 -0.36863702641E+03  0.50926247690E+03  0.47000000000E+01 0. -1.
         -5    1    6    6    0  503  0.21632655394E+03 -0.32021053905E+02 -0.18580858178E+03  0.28700077508E+03  0.47000000000E+01 0.  1.
<mgrwt>
<rscale>  0 0.79836996E+03</rscale>
<asrwt>0</asrwt>
<pdfrwt beam="1">  1        2 0.13705454E+00 0.79836996E+03</pdfrwt>
<pdfrwt beam="2">  1       -2 0.28171588E+00 0.79836996E+03</pdfrwt>
<totfact> 0.12616098E+00</totfact>
</mgrwt>
</event>
<event>
12    1  0.3166324E-008  0.1330246E+04  0.7818608E-02  0.9005918E-01
          1   -1    0    0  501    0  0.00000000000E+00  0.00000000000E+00  0.37622025119E+04  0.37622025119E+04  0.00000000000E+00 0. -1.
         -1   -1    0    0    0  501 -0.00000000000E+00 -0.00000000000E+00 -0.47751676357E+03  0.47751676357E+03  0.00000000000E+00 0.  1.
         23    2    1    2    0    0  0.12450638313E+04  0.25670179285E+03  0.15906983422E+04  0.20383224510E+04  0.91419055442E+02 0.  0.
    5000000    2    1    2    0    0 -0.12450638313E+04 -0.25670179285E+03  0.16939874062E+04  0.22013968245E+04  0.60039561310E+03 0.  0.
         23    2    4    4    0    0 -0.78001303657E+03 -0.42649403935E+03  0.11946706084E+04  0.14921549975E+04  0.94716266757E+02 0.  0.
         23    2    4    4    0    0 -0.46505079477E+03  0.16979224650E+03  0.49931679772E+03  0.70924182699E+03  0.92763440906E+02 0.  0.
          4    1    3    3  502    0  0.10089263639E+04  0.24351813352E+03  0.12840604447E+04  0.16510738066E+04  0.00000000000E+00 0. -1.
         -4    1    3    3    0  502  0.23613746744E+03  0.13183659326E+02  0.30663789745E+03  0.38724864436E+03  0.00000000000E+00 0.  1.
         13    1    5    5    0    0 -0.43198707307E+03 -0.24298732246E+03  0.58734501243E+03  0.76852445231E+03  0.00000000000E+00 0.  1.
        -13    1    5    5    0    0 -0.34802596350E+03 -0.18350671689E+03  0.60732559602E+03  0.72363054523E+03  0.00000000000E+00 0. -1.
          5    1    6    6  503    0 -0.39551806933E+03  0.15979256097E+03  0.46458028641E+03  0.63073380933E+03  0.47000000000E+01 0. -1.
         -5    1    6    6    0  503 -0.69532725449E+02  0.99996855325E+01  0.34736511309E+02  0.78508017661E+02  0.47000000000E+01 0.  1.
<mgrwt>
<rscale>  0 0.13302455E+04</rscale>
<asrwt>0</asrwt>
<pdfrwt beam="1">  1        1 0.57880037E+00 0.13302455E+04</pdfrwt>
<pdfrwt beam="2">  1       -1 0.73464120E-01 0.13302455E+04</pdfrwt>
<totfact> 0.28408828E-01</totfact>
</mgrwt>
</event>
<event>
12    1  0.3166324E-008  0.5949525E+03  0.7818608E-02  0.9915934E-01
         -2   -1    0    0    0  501 -0.00000000000E+00  0.00000000000E+00  0.31315561632E+03  0.31315561632E+03  0.00000000000E+00 0.  1.
          2   -1    0    0  501    0  0.00000000000E+00 -0.00000000000E+00 -0.27347603776E+04  0.27347603776E+04  0.00000000000E+00 0. -1.
         23    2    1    2    0    0 -0.39667586540E+03  0.25956264278E+03  0.26055740958E+02  0.48359206425E+03  0.91966707290E+02 0.  0.
    5000000    2    1    2    0    0  0.39667586540E+03 -0.25956264278E+03 -0.24476605023E+04  0.25643239297E+04  0.59999231192E+03 0.  0.
         23    2    4    4    0    0  0.42593917204E+03 -0.15264643256E+01 -0.99939679778E+03  0.10902342378E+04  0.91598174442E+02 0.  0.
         23    2    4    4    0    0 -0.29263306635E+02 -0.25803617845E+03 -0.14482637045E+04  0.14740896919E+04  0.89630638922E+02 0.  0.
          1    1    3    3  502    0 -0.22187461814E+03  0.19846254485E+03  0.18837017479E+02  0.29827933403E+03  0.00000000000E+00 0. -1.
         -1    1    3    3    0  502 -0.17480124727E+03  0.61100097923E+02  0.72187234782E+01  0.18531273022E+03  0.00000000000E+00 0.  1.
         11    1    5    5    0    0  0.40736560884E+03 -0.20470350312E+02 -0.91569640394E+03  0.10024298872E+04  0.00000000000E+00 0. -1.
        -11    1    5    5    0    0  0.18573563202E+02  0.18943885986E+02 -0.83700393843E+02  0.87804350666E+02  0.00000000000E+00 0.  1.
          5    1    6    6  503    0 -0.58229728505E+02 -0.16148825955E+03 -0.82184916237E+03  0.83959948484E+03  0.47000000000E+01 0. -1.
         -5    1    6    6    0  503  0.28966421870E+02 -0.96547918901E+02 -0.62641454213E+03  0.63449020704E+03  0.47000000000E+01 0.  1.
<mgrwt>
<rscale>  0 0.59495251E+03</rscale>
<asrwt>0</asrwt>
<pdfrwt beam="1">  1        2 0.42073238E+00 0.59495251E+03</pdfrwt>
<pdfrwt beam="2">  1       -2 0.48177785E-01 0.59495251E+03</pdfrwt>
<totfact> 0.11229478E+01</totfact>
</mgrwt>
</event>
<event>
12    1  0.3166324E-008  0.1938839E+04  0.7818608E-02  0.8635761E-01
          2   -1    0    0  501    0  0.00000000000E+00  0.00000000000E+00  0.12175488831E+04  0.12175488831E+04  0.00000000000E+00 0. -1.
         -2   -1    0    0    0  501 -0.00000000000E+00 -0.00000000000E+00 -0.31852006249E+04  0.31852006249E+04  0.00000000000E+00 0.  1.
         23    2    1    2    0    0 -0.15236902944E+04 -0.11700349857E+04 -0.10421929639E+04  0.21875088416E+04  0.91732093769E+02 0.  0.
    5000000    2    1    2    0    0  0.15236902944E+04  0.11700349857E+04 -0.92545877785E+03  0.22152406665E+04  0.60016937605E+03 0.  0.
         23    2    4    4    0    0  0.53371911765E+03  0.61158073515E+03 -0.64425376468E+03  0.10407885191E+04  0.96388464739E+02 0.  0.
         23    2    4    4    0    0  0.98997117671E+03  0.55845425057E+03 -0.28120501317E+03  0.11744521473E+04  0.91364688047E+02 0.  0.
          4    1    3    3  502    0 -0.70497456355E+03 -0.59910502057E+03 -0.50297291406E+03  0.10530421232E+04  0.00000000000E+00 0.  1.
         -4    1    3    3    0  502 -0.81871573081E+03 -0.57092996514E+03 -0.53922004989E+03  0.11344667184E+04  0.00000000000E+00 0. -1.
         11    1    5    5    0    0  0.41075755767E+03  0.52641638685E+03 -0.51889507643E+03  0.84562880974E+03  0.00000000000E+00 0. -1.
        -11    1    5    5    0    0  0.12296155998E+03  0.85164348293E+02 -0.12535868826E+03  0.19515970940E+03  0.00000000000E+00 0.  1.
          5    1    6    6  503    0  0.71066462997E+03  0.38442816987E+03 -0.15971807983E+03  0.82362685065E+03  0.47000000000E+01 0. -1.
         -5    1    6    6    0  503  0.27930654674E+03  0.17402608070E+03 -0.12148693334E+03  0.35082529667E+03  0.47000000000E+01 0.  1.
<mgrwt>
<rscale>  0 0.19388394E+04</rscale>
<asrwt>0</asrwt>
<pdfrwt beam="1">  1        2 0.18731521E+00 0.19388394E+04</pdfrwt>
<pdfrwt beam="2">  1       -2 0.49003087E+00 0.19388394E+04</pdfrwt>
<totfact> 0.31580415E-02</totfact>
</mgrwt>
</event>
<event>
12    1  0.3166324E-008  0.6194424E+03  0.7818608E-02  0.9865870E-01
         -2   -1    0    0    0  501 -0.00000000000E+00  0.00000000000E+00  0.10377518968E+04  0.10377518968E+04  0.00000000000E+00 0.  1.
          2   -1    0    0  501    0  0.00000000000E+00 -0.00000000000E+00 -0.87612668963E+03  0.87612668963E+03  0.00000000000E+00 0. -1.
         23    2    1    2    0    0  0.90976508423E+02 -0.47302378302E+03 -0.63789482286E+03  0.80426604748E+03  0.88914822760E+02 0.  0.
    5000000    2    1    2    0    0 -0.90976508423E+02  0.47302378302E+03  0.79952003005E+03  0.11096125390E+04  0.59998290291E+03 0.  0.
         23    2    4    4    0    0  0.22483692640E+03  0.81298621428E+02  0.31095284823E+03  0.40297978441E+03  0.92411706533E+02 0.  0.
         23    2    4    4    0    0 -0.31581343482E+03  0.39172516159E+03  0.48856718182E+03  0.70663275455E+03  0.86285750936E+02 0.  0.
          2    1    3    3  502    0 -0.77498806161E+01 -0.17927783162E+03 -0.21671551528E+03  0.28136491630E+03  0.00000000000E+00 0. -1.
         -2    1    3    3    0  502  0.98726389039E+02 -0.29374595141E+03 -0.42117930758E+03  0.52290113119E+03  0.00000000000E+00 0.  1.
         13    1    5    5    0    0  0.81644997252E+02  0.43124324235E+02  0.19164480081E+03  0.21272833050E+03  0.00000000000E+00 0. -1.
        -13    1    5    5    0    0  0.14319192915E+03  0.38174297193E+02  0.11930804742E+03  0.19025145392E+03  0.00000000000E+00 0.  1.
          5    1    6    6  503    0 -0.20318570123E+03  0.19152064265E+03  0.29485434602E+03  0.40611052820E+03  0.47000000000E+01 0. -1.
         -5    1    6    6    0  503 -0.11262773359E+03  0.20020451894E+03  0.19371283580E+03  0.30052222635E+03  0.47000000000E+01 0.  1.
<mgrwt>
<rscale>  0 0.61944245E+03</rscale>
<asrwt>0</asrwt>
<pdfrwt beam="1">  1        2 0.13478872E+00 0.61944245E+03</pdfrwt>
<pdfrwt beam="2">  1       -2 0.15965414E+00 0.61944245E+03</pdfrwt>
<totfact> 0.79889785E+00</totfact>
</mgrwt>
</event>
<event>
12    1  0.3166324E-008  0.1278308E+04  0.7818608E-02  0.9046946E-01
         -1   -1    0    0    0  501 -0.00000000000E+00  0.00000000000E+00  0.10812373474E+04  0.10812373474E+04  0.00000000000E+00 0.  1.
          1   -1    0    0  501    0  0.00000000000E+00 -0.00000000000E+00 -0.31151561955E+04  0.31151561955E+04  0.00000000000E+00 0. -1.
         23    2    1    2    0    0  0.12327412579E+04 -0.44796254979E+02 -0.24652722197E+04  0.27581709501E+04  0.91006367155E+02 0.  0.
    5000000    2    1    2    0    0 -0.12327412579E+04  0.44796254979E+02  0.43135337158E+03  0.14382225929E+04  0.60063365035E+03 0.  0.
         23    2    4    4    0    0 -0.89961904494E+03  0.23711401221E+03  0.13590438682E+03  0.94440216575E+03  0.88814230342E+02 0.  0.
         23    2    4    4    0    0 -0.33312221300E+03 -0.19231775723E+03  0.29544898476E+03  0.49382042710E+03  0.92800770968E+02 0.  0.
          4    1    3    3  502    0  0.94971084192E+03  0.12740154785E+01 -0.19241281402E+04  0.21457449537E+04  0.00000000000E+00 0. -1.
         -4    1    3    3    0  502  0.28303041602E+03 -0.46070270458E+02 -0.54114407953E+03  0.61242599636E+03  0.00000000000E+00 0.  1.
         11    1    5    5    0    0 -0.46493937251E+03  0.15012821701E+03  0.35423094687E+02  0.48985905860E+03  0.00000000000E+00 0. -1.
        -11    1    5    5    0    0 -0.43467967244E+03  0.86985795192E+02  0.10048129214E+03  0.45454310716E+03  0.00000000000E+00 0.  1.
          5    1    6    6  503    0 -0.78529377599E+02 -0.71996683322E+02  0.12628399028E+03  0.16528799641E+03  0.47000000000E+01 0. -1.
         -5    1    6    6    0  503 -0.25459283540E+03 -0.12032107391E+03  0.16916499448E+03  0.32853243070E+03  0.47000000000E+01 0.  1.
<mgrwt>
<rscale>  0 0.12783078E+04</rscale>
<asrwt>0</asrwt>
<pdfrwt beam="1">  1        1 0.47925479E+00 0.12783078E+04</pdfrwt>
<pdfrwt beam="2">  1       -1 0.16634421E+00 0.12783078E+04</pdfrwt>
<totfact> 0.12638241E-01</totfact>
</mgrwt>
</event>
<event>
12    1  0.3166324E-008  0.5270113E+03  0.7818608E-02  0.1006960E+00
         -2   -1    0    0    0  501 -0.00000000000E+00  0.00000000000E+00  0.28790466676E+03  0.28790466676E+03  0.00000000000E+00 0. -1.
          2   -1    0    0  501    0  0.00000000000E+00 -0.00000000000E+00 -0.12079414967E+04  0.12079414967E+04  0.00000000000E+00 0.  1.
         23    2    1    2    0    0 -0.12651470771E+03  0.33648922629E+03 -0.64705154142E+03  0.74503465822E+03  0.84675699124E+02 0.  0.
    5000000    2    1    2    0    0  0.12651470771E+03 -0.33648922629E+03 -0.27298528848E+03  0.75081150520E+03  0.59997164762E+03 0.  0.
         23    2    4    4    0    0  0.91975129243E+02  0.15023004540E+03 -0.12699364064E+03  0.23314884741E+03  0.84867598918E+02 0.  0.
         23    2    4    4    0    0  0.34539578466E+02 -0.48671927169E+03 -0.14599164784E+03  0.51766265779E+03  0.92587440403E+02 0.  0.
          3    1    3    3  502    0 -0.79002661899E+02  0.99001350754E+02 -0.20457777970E+03  0.24061329137E+03  0.00000000000E+00 0. -1.
         -3    1    3    3    0  502 -0.47512045810E+02  0.23748787553E+03 -0.44247376172E+03  0.50442136685E+03  0.00000000000E+00 0.  1.
         13    1    5    5    0    0  0.83299878744E+02  0.60375974342E+02 -0.49459217552E+02  0.11415052465E+03  0.00000000000E+00 0. -1.
        -13    1    5    5    0    0  0.86752504990E+01  0.89854071057E+02 -0.77534423089E+02  0.11899832276E+03  0.00000000000E+00 0.  1.
          5    1    6    6  503    0 -0.18261278112E+02 -0.14203998997E+03 -0.10973285103E+02  0.14370572715E+03  0.47000000000E+01 0. -1.
         -5    1    6    6    0  503  0.52800856578E+02 -0.34467928172E+03 -0.13501836274E+03  0.37395693064E+03  0.47000000000E+01 0.  1.
<mgrwt>
<rscale>  0 0.52701131E+03</rscale>
<asrwt>0</asrwt>
<pdfrwt beam="1">  1        2 0.18583715E+00 0.52701131E+03</pdfrwt>
<pdfrwt beam="2">  1       -2 0.44293026E-01 0.52701131E+03</pdfrwt>
<totfact> 0.93999841E+01</totfact>
</mgrwt>
</event>
<event>
12    1  0.3166324E-008  0.8133675E+03  0.7818608E-02  0.9540867E-01
         -2   -1    0    0    0  501 -0.00000000000E+00  0.00000000000E+00  0.26851156948E+03  0.26851156948E+03  0.00000000000E+00 0.  1.
          2   -1    0    0  501    0  0.00000000000E+00 -0.00000000000E+00 -0.27836279966E+04  0.27836279966E+04  0.00000000000E+00 0. -1.
         23    2    1    2    0    0 -0.65441712801E+03  0.29091741550E+03 -0.67460473792E+03  0.98812645173E+03  0.91693032054E+02 0.  0.
    5000000    2    1    2    0    0  0.65441712801E+03 -0.29091741550E+03 -0.18405116892E+04  0.20640131143E+04  0.59981008498E+03 0.  0.
         23    2    4    4    0    0  0.53169732137E+02 -0.28481237439E+03 -0.83843043734E+03  0.89176480212E+03  0.91289402586E+02 0.  0.
         23    2    4    4    0    0  0.60124739587E+03 -0.61050411077E+01 -0.10020812518E+04  0.11722483122E+04  0.91997650058E+02 0.  0.
          4    1    3    3  502    0 -0.43239650834E+03  0.23840042398E+03 -0.46912433971E+03  0.68108674094E+03  0.00000000000E+00 0. -1.
         -4    1    3    3    0  502 -0.22202061967E+03  0.52516991514E+02 -0.20548039821E+03  0.30703971080E+03  0.00000000000E+00 0.  1.
         11    1    5    5    0    0  0.78757309263E+02 -0.22506650237E+03 -0.64123073236E+03  0.68413046737E+03  0.00000000000E+00 0. -1.
        -11    1    5    5    0    0 -0.25587577126E+02 -0.59745872017E+02 -0.19719970498E+03  0.20763433476E+03  0.00000000000E+00 0.  1.
          5    1    6    6  503    0  0.42547893028E+03 -0.23952368754E+01 -0.78458142253E+03  0.89254028248E+03  0.47000000000E+01 0. -1.
         -5    1    6    6    0  503  0.17576846559E+03 -0.37098042323E+01 -0.21749982930E+03  0.27970802972E+03  0.47000000000E+01 0.  1.
<mgrwt>
<rscale>  0 0.81336746E+03</rscale>
<asrwt>0</asrwt>
<pdfrwt beam="1">  1        2 0.42825048E+00 0.81336746E+03</pdfrwt>
<pdfrwt beam="2">  1       -2 0.41309471E-01 0.81336746E+03</pdfrwt>
<totfact> 0.13717414E+01</totfact>
</mgrwt>
</event>
<event>
12    1  0.3166324E-008  0.9120579E+03  0.7818608E-02  0.9410633E-01
         -1   -1    0    0    0  501 -0.00000000000E+00  0.00000000000E+00  0.75867296193E+03  0.75867296193E+03  0.00000000000E+00 0.  1.
          1   -1    0    0  501    0  0.00000000000E+00 -0.00000000000E+00 -0.13010668957E+04  0.13010668957E+04  0.00000000000E+00 0. -1.
         23    2    1    2    0    0 -0.65005506527E+03  0.55494578928E+03 -0.53976796368E+03  0.10152348802E+04  0.93893506155E+02 0.  0.
    5000000    2    1    2    0    0  0.65005506527E+03 -0.55494578928E+03 -0.26259700677E+01  0.10445049774E+04  0.60037266354E+03 0.  0.
         23    2    4    4    0    0 -0.73025025062E+00 -0.22071011668E+03  0.16309599076E+03  0.28899081902E+03  0.90564355070E+02 0.  0.
         23    2    4    4    0    0  0.65078531552E+03 -0.33423567261E+03 -0.16572196083E+03  0.75551415835E+03  0.90015906553E+02 0.  0.
          1    1    3    3  502    0 -0.31079824156E+03  0.32504855094E+03 -0.29617467426E+03  0.53849006035E+03  0.00000000000E+00 0. -1.
         -1    1    3    3    0  502 -0.33925682371E+03  0.22989723834E+03 -0.24359328942E+03  0.47674481988E+03  0.00000000000E+00 0.  1.
         11    1    5    5    0    0  0.30986758842E+02 -0.85551315861E+02  0.27810209397E+02  0.95145229075E+02  0.00000000000E+00 0. -1.
        -11    1    5    5    0    0 -0.31717009093E+02 -0.13515880082E+03  0.13528578136E+03  0.19384558995E+03  0.00000000000E+00 0.  1.
          5    1    6    6  503    0  0.46533018913E+03 -0.27234415189E+03 -0.94653143477E+02  0.54743477196E+03  0.47000000000E+01 0. -1.
         -5    1    6    6    0  503  0.18545512639E+03 -0.61891520717E+02 -0.71068817350E+02  0.20807938639E+03  0.47000000000E+01 0.  1.
<mgrwt>
<rscale>  0 0.91205789E+03</rscale>
<asrwt>0</asrwt>
<pdfrwt beam="1">  1        1 0.20016414E+00 0.91205789E+03</pdfrwt>
<pdfrwt beam="2">  1       -1 0.11671892E+00 0.91205789E+03</pdfrwt>
<totfact> 0.60684928E+00</totfact>
</mgrwt>
</event>
<event>
12    1  0.5463198E-008  0.1223826E+04  0.7818608E-02  0.9092254E-01
         -2   -1    0    0    0  501 -0.00000000000E+00  0.00000000000E+00  0.49915225639E+03  0.49915225639E+03  0.00000000000E+00 0. -1.
          2   -1    0    0  501    0  0.00000000000E+00 -0.00000000000E+00 -0.30678017326E+04  0.30678017326E+04  0.00000000000E+00 0.  1.
         23    2    1    2    0    0  0.80971120535E+03  0.82451510817E+03 -0.13968867287E+04  0.18152388736E+04  0.91335840782E+02 0.  0.
    5000000    2    1    2    0    0 -0.80971120535E+03 -0.82451510817E+03 -0.11717627475E+04  0.17517151154E+04  0.60001709087E+03 0.  0.
         23    2    4    4    0    0 -0.58149542454E+03 -0.19251176550E+03 -0.63564395491E+03  0.88734329397E+03  0.90206293119E+02 0.  0.
         23    2    4    4    0    0 -0.22821578082E+03 -0.63200334267E+03 -0.53611879261E+03  0.86437182143E+03  0.90579347113E+02 0.  0.
          2    1    3    3  502    0  0.41737536796E+03  0.41529054607E+03 -0.78228073588E+03  0.97909733181E+03  0.00000000000E+00 0. -1.
         -2    1    3    3    0  502  0.39233583739E+03  0.40922456210E+03 -0.61460599286E+03  0.83614154183E+03  0.00000000000E+00 0.  1.
         11    1    5    5    0    0 -0.36518279940E+03 -0.16499536653E+03 -0.42595045824E+03  0.58482111866E+03  0.00000000000E+00 0.  1.
        -11    1    5    5    0    0 -0.21631262514E+03 -0.27516398962E+02 -0.20969349667E+03  0.30252217531E+03  0.00000000000E+00 0. -1.
          5    1    6    6  503    0 -0.76601181108E+02 -0.26934414584E+03 -0.17278608855E+03  0.32907618000E+03  0.47000000000E+01 0. -1.
         -5    1    6    6    0  503 -0.15161459971E+03 -0.36265919683E+03 -0.36333270406E+03  0.53529564143E+03  0.47000000000E+01 0.  1.
<mgrwt>
<rscale>  0 0.12238256E+04</rscale>
<asrwt>0</asrwt>
<pdfrwt beam="1">  1        2 0.47196950E+00 0.12238256E+04</pdfrwt>
<pdfrwt beam="2">  1       -2 0.76792654E-01 0.12238256E+04</pdfrwt>
<totfact> 0.23716444E+00</totfact>
</mgrwt>
</event>
<event>
12    1  0.3166324E-008  0.7761618E+03  0.7818608E-02  0.9595178E-01
          2   -1    0    0  501    0  0.00000000000E+00  0.00000000000E+00  0.22419149710E+04  0.22419149710E+04  0.00000000000E+00 0. -1.
         -2   -1    0    0    0  501 -0.00000000000E+00 -0.00000000000E+00 -0.83550421382E+03  0.83550421382E+03  0.00000000000E+00 0.  1.
         23    2    1    2    0    0 -0.76295872456E+03  0.14516105049E+02 -0.51469933777E+03  0.92500788442E+03  0.91692121967E+02 0.  0.
    5000000    2    1    2    0    0  0.76295872456E+03 -0.14516105049E+02  0.19211100950E+04  0.21524113004E+04  0.59991139053E+03 0.  0.
         23    2    4    4    0    0  0.41282390483E+03 -0.71805861128E+02  0.16269303000E+04  0.16825012524E+04  0.91261192563E+02 0.  0.
         23    2    4    4    0    0  0.35013481974E+03  0.57289756079E+02  0.29417979499E+03  0.46991004801E+03  0.91636200811E+02 0.  0.
          3    1    3    3  502    0 -0.40557157214E+03  0.53185335366E+02 -0.26777181151E+03  0.48889541117E+03  0.00000000000E+00 0. -1.
         -3    1    3    3    0  502 -0.35738715243E+03 -0.38669230317E+02 -0.24692752626E+03  0.43611247325E+03  0.00000000000E+00 0.  1.
         13    1    5    5    0    0  0.42467691442E+02 -0.35200904872E+02  0.16655935259E+03  0.17545548283E+03  0.00000000000E+00 0. -1.
        -13    1    5    5    0    0  0.37035621338E+03 -0.36604956256E+02  0.14603709474E+04  0.15070457696E+04  0.00000000000E+00 0.  1.
          5    1    6    6  503    0  0.34248918942E+03  0.58324707989E+02  0.30009839671E+03  0.45910974085E+03  0.47000000000E+01 0. -1.
         -5    1    6    6    0  503  0.76456303155E+01 -0.10349519109E+01 -0.59186017268E+01  0.10800307161E+02  0.47000000000E+01 0.  1.
<mgrwt>
<rscale>  0 0.77616181E+03</rscale>
<asrwt>0</asrwt>
<pdfrwt beam="1">  1        2 0.34490999E+00 0.77616181E+03</pdfrwt>
<pdfrwt beam="2">  1       -2 0.12853911E+00 0.77616181E+03</pdfrwt>
<totfact> 0.22692821E+00</totfact>
</mgrwt>
</event>
<event>
12    1  0.3166324E-008  0.5367647E+03  0.7818608E-02  0.1004605E+00
          2   -1    0    0  501    0  0.00000000000E+00  0.00000000000E+00  0.59714475554E+03  0.59714475554E+03  0.00000000000E+00 0. -1.
         -2   -1    0    0    0  501 -0.00000000000E+00 -0.00000000000E+00 -0.64496132910E+03  0.64496132910E+03  0.00000000000E+00 0.  1.
         23    2    1    2    0    0 -0.34596705066E+03  0.28150446990E+03  0.12942100179E+03  0.47376603894E+03  0.93629574576E+02 0.  0.
    5000000    2    1    2    0    0  0.34596705066E+03 -0.28150446990E+03 -0.17723757534E+03  0.76834004570E+03  0.59999608414E+03 0.  0.
         23    2    4    4    0    0  0.25396859412E+03  0.60242215871E+02 -0.27620588912E+03  0.39002074157E+03  0.87734339327E+02 0.  0.
         23    2    4    4    0    0  0.91998456540E+02 -0.34174668577E+03  0.98968313781E+02  0.37831930412E+03  0.89867989275E+02 0.  0.
          1    1    3    3  502    0 -0.28871722715E+02  0.64014716628E+02  0.87840419612E+01  0.70771602432E+02  0.00000000000E+00 0. -1.
         -1    1    3    3    0  502 -0.31709532794E+03  0.21748975327E+03  0.12063695983E+03  0.40299443651E+03  0.00000000000E+00 0.  1.
         13    1    5    5    0    0  0.19187997594E+03  0.29219075206E+02 -0.14744816924E+03  0.24374708641E+03  0.00000000000E+00 0.  1.
        -13    1    5    5    0    0  0.62088618184E+02  0.31023140665E+02 -0.12875771988E+03  0.14627365516E+03  0.00000000000E+00 0. -1.
          5    1    6    6  503    0  0.89064998626E+02 -0.29417923351E+03  0.52998803525E+02  0.31193742736E+03  0.47000000000E+01 0. -1.
         -5    1    6    6    0  503  0.29334579140E+01 -0.47567452262E+02  0.45969510257E+02  0.66381876768E+02  0.47000000000E+01 0.  1.
<mgrwt>
<rscale>  0 0.53676474E+03</rscale>
<asrwt>0</asrwt>
<pdfrwt beam="1">  1        2 0.91868424E-01 0.53676474E+03</pdfrwt>
<pdfrwt beam="2">  1       -2 0.99224820E-01 0.53676474E+03</pdfrwt>
<totfact> 0.43284943E+01</totfact>
</mgrwt>
</event>
<event>
12    1  0.3166324E-008  0.5732631E+03  0.7818608E-02  0.9962484E-01
          1   -1    0    0  501    0  0.00000000000E+00  0.00000000000E+00  0.95722983740E+03  0.95722983740E+03  0.00000000000E+00 0. -1.
         -1   -1    0    0    0  501 -0.00000000000E+00 -0.00000000000E+00 -0.45098439338E+03  0.45098439338E+03  0.00000000000E+00 0.  1.
         23    2    1    2    0    0 -0.75864595360E+02 -0.46814395298E+03  0.41636564533E+03  0.63814249747E+03  0.94611304433E+02 0.  0.
    5000000    2    1    2    0    0  0.75864595360E+02  0.46814395298E+03  0.89879798689E+02  0.77007173331E+03  0.60001491539E+03 0.  0.
         23    2    4    4    0    0 -0.36806994989E+02  0.51074718678E+03  0.22499751476E+03  0.56666684291E+03  0.90939460748E+02 0.  0.
         23    2    4    4    0    0  0.11267159035E+03 -0.42603233795E+02 -0.13511771608E+03  0.20340489040E+03  0.92772999527E+02 0.  0.
          4    1    3    3  502    0 -0.82333597732E+00 -0.14925939616E+03  0.18182471801E+03  0.23524300904E+03  0.00000000000E+00 0.  1.
         -4    1    3    3    0  502 -0.75041259383E+02 -0.31888455682E+03  0.23454092732E+03  0.40289948843E+03  0.00000000000E+00 0. -1.
         11    1    5    5    0    0 -0.59370749517E+02  0.46761369841E+03  0.20193679177E+03  0.51280203267E+03  0.00000000000E+00 0. -1.
        -11    1    5    5    0    0  0.22563754529E+02  0.43133488367E+02  0.23060722997E+02  0.53864810241E+02  0.00000000000E+00 0.  1.
          5    1    6    6  503    0  0.12376718978E+03 -0.22058826849E+02 -0.98754184850E+02  0.15993557494E+03  0.47000000000E+01 0.  1.
         -5    1    6    6    0  503 -0.11095599427E+02 -0.20544406946E+02 -0.36363531225E+02  0.43469315461E+02  0.47000000000E+01 0. -1.
<mgrwt>
<rscale>  0 0.57326305E+03</rscale>
<asrwt>0</asrwt>
<pdfrwt beam="1">  1        1 0.14726613E+00 0.57326305E+03</pdfrwt>
<pdfrwt beam="2">  1       -1 0.69382215E-01 0.57326305E+03</pdfrwt>
<totfact> 0.36014414E+01</totfact>
</mgrwt>
</event>
<event>
12    1  0.3166324E-008  0.2907994E+03  0.7818608E-02  0.1089933E+00
          2   -1    0    0  501    0  0.00000000000E+00  0.00000000000E+00  0.17970852456E+04  0.17970852456E+04  0.00000000000E+00 0. -1.
         -2   -1    0    0    0  501 -0.00000000000E+00 -0.00000000000E+00 -0.97380735679E+02  0.97380735679E+02  0.00000000000E+00 0.  1.
         23    2    1    2    0    0 -0.14467467422E+03  0.54735738827E+02  0.18474188924E+03  0.25759743662E+03  0.91104946336E+02 0.  0.
    5000000    2    1    2    0    0  0.14467467422E+03 -0.54735738827E+02  0.15149626207E+04  0.16368685447E+04  0.60025005454E+03 0.  0.
         23    2    4    4    0    0  0.96248567287E+02  0.14308338981E+03  0.12971751227E+03  0.23381730951E+03  0.90040313713E+02 0.  0.
         23    2    4    4    0    0  0.48426106937E+02 -0.19781912863E+03  0.13852451084E+04  0.14030512352E+04  0.90395036317E+02 0.  0.
          2    1    3    3  502    0 -0.13240903819E+03  0.96433948215E+01  0.13463590721E+03  0.18908192925E+03  0.00000000000E+00 0. -1.
         -2    1    3    3    0  502 -0.12265636033E+02  0.45092344006E+02  0.50105982037E+02  0.68515507377E+02  0.00000000000E+00 0.  1.
         13    1    5    5    0    0  0.32542551603E+02  0.12325437668E+03  0.91608630376E+02  0.15698025416E+03  0.00000000000E+00 0. -1.
        -13    1    5    5    0    0  0.63706015684E+02  0.19829013124E+02  0.38108881893E+02  0.76837055350E+02  0.00000000000E+00 0.  1.
          5    1    6    6  503    0  0.55166094737E+02 -0.16348056565E+03  0.89210746135E+03  0.90865120148E+03  0.47000000000E+01 0. -1.
         -5    1    6    6    0  503 -0.67399878000E+01 -0.34338562984E+02  0.49313764710E+03  0.49440003371E+03  0.47000000000E+01 0. -1.
<mgrwt>
<rscale>  0 0.29079938E+03</rscale>
<asrwt>0</asrwt>
<pdfrwt beam="1">  1        2 0.27647463E+00 0.29079938E+03</pdfrwt>
<pdfrwt beam="2">  1       -2 0.14981653E-01 0.29079938E+03</pdfrwt>
<totfact> 0.32606413E+02</totfact>
</mgrwt>
</event>
<event>
12    1  0.3166324E-008  0.1114663E+04  0.7818608E-02  0.9191017E-01
          1   -1    0    0  501    0  0.00000000000E+00  0.00000000000E+00  0.10122783303E+04  0.10122783303E+04  0.00000000000E+00 0. -1.
         -1   -1    0    0    0  501 -0.00000000000E+00 -0.00000000000E+00 -0.12841349262E+04  0.12841349262E+04  0.00000000000E+00 0.  1.
         23    2    1    2    0    0 -0.89351649818E+03 -0.55529059109E+03 -0.25011311333E+03  0.10851272730E+04  0.90693197778E+02 0.  0.
    5000000    2    1    2    0    0  0.89351649818E+03  0.55529059109E+03 -0.21743482538E+02  0.12112859834E+04  0.60001798434E+03 0.  0.
         23    2    4    4    0    0  0.28259841598E+03  0.47901323800E+03  0.11090268467E+03  0.57452785838E+03  0.92017974893E+02 0.  0.
         23    2    4    4    0    0  0.61091808219E+03  0.76277353098E+02 -0.13264616721E+03  0.63675812503E+03  0.93950872141E+02 0.  0.
          3    1    3    3  502    0 -0.20369610005E+03 -0.17290581735E+03 -0.65210060836E+02  0.27502886191E+03  0.00000000000E+00 0.  1.
         -3    1    3    3    0  502 -0.68982039813E+03 -0.38238477374E+03 -0.18490305250E+03  0.81009841111E+03  0.00000000000E+00 0. -1.
         11    1    5    5    0    0  0.60657464222E+02  0.13683746763E+03  0.68082878944E+02  0.16443569843E+03  0.00000000000E+00 0. -1.
        -11    1    5    5    0    0  0.22194095176E+03  0.34217577036E+03  0.42819805724E+02  0.41009215995E+03  0.00000000000E+00 0.  1.
          5    1    6    6  503    0  0.51228584299E+02  0.67038890957E+01 -0.39266699019E+02  0.65063612182E+02  0.47000000000E+01 0.  1.
         -5    1    6    6    0  503  0.55968949789E+03  0.69573464003E+02 -0.93379468187E+02  0.57169451285E+03  0.47000000000E+01 0.  1.
<mgrwt>
<rscale>  0 0.11146628E+04</rscale>
<asrwt>0</asrwt>
<pdfrwt beam="1">  1        1 0.15573513E+00 0.11146628E+04</pdfrwt>
<pdfrwt beam="2">  1       -1 0.19755922E+00 0.11146628E+04</pdfrwt>
<totfact> 0.22934324E+00</totfact>
</mgrwt>
</event>
<event>
12    1  0.3166324E-008  0.5580004E+03  0.7818608E-02  0.9996589E-01
          2   -1    0    0  501    0  0.00000000000E+00  0.00000000000E+00  0.79599875079E+03  0.79599875079E+03  0.00000000000E+00 0. -1.
         -2   -1    0    0    0  501 -0.00000000000E+00 -0.00000000000E+00 -0.64374801556E+03  0.64374801556E+03  0.00000000000E+00 0.  1.
         23    2    1    2    0    0 -0.45581261035E+03 -0.21438130986E+03 -0.23910004605E+03  0.56402122263E+03  0.85009562910E+02 0.  0.
    5000000    2    1    2    0    0  0.45581261035E+03  0.21438130986E+03  0.39135078128E+03  0.87572554372E+03  0.60001275998E+03 0.  0.
         23    2    4    4    0    0  0.78466297680E+02  0.20616577564E+03  0.42388471312E+03  0.48621410645E+03  0.89803231450E+02 0.  0.
         23    2    4    4    0    0  0.37734631267E+03  0.82155342226E+01 -0.32533931840E+02  0.38951143726E+03  0.90570239879E+02 0.  0.
          2    1    3    3  502    0 -0.69103688699E+02 -0.23759712676E+02 -0.69117249540E+02  0.10058348732E+03  0.00000000000E+00 0. -1.
         -2    1    3    3    0  502 -0.38670892165E+03 -0.19062159719E+03 -0.16998279651E+03  0.46343773531E+03  0.00000000000E+00 0.  1.
         13    1    5    5    0    0  0.48796315422E+02  0.53616456647E+02  0.20753575088E+03  0.21983378429E+03  0.00000000000E+00 0.  1.
        -13    1    5    5    0    0  0.29669982258E+02  0.15254931899E+03  0.21634896224E+03  0.26638032217E+03  0.00000000000E+00 0. -1.
          5    1    6    6  503    0  0.15018015491E+03  0.37301220981E+02 -0.41455741891E+02  0.16026892572E+03  0.47000000000E+01 0. -1.
         -5    1    6    6    0  503  0.22716615775E+03 -0.29085686759E+02  0.89218100510E+01  0.22924251154E+03  0.47000000000E+01 0.  1.
<mgrwt>
<rscale>  0 0.55800045E+03</rscale>
<asrwt>0</asrwt>
<pdfrwt beam="1">  1        2 0.12246135E+00 0.55800045E+03</pdfrwt>
<pdfrwt beam="2">  1       -2 0.99038156E-01 0.55800045E+03</pdfrwt>
<totfact> 0.30313419E+01</totfact>
</mgrwt>
</event>
<event>
12    1  0.3166324E-008  0.1336803E+04  0.7818608E-02  0.9000879E-01
         -2   -1    0    0    0  501 -0.00000000000E+00  0.00000000000E+00  0.21055002276E+04  0.21055002276E+04  0.00000000000E+00 0. -1.
          2   -1    0    0  501    0  0.00000000000E+00 -0.00000000000E+00 -0.12293161176E+04  0.12293161176E+04  0.00000000000E+00 0.  1.
         23    2    1    2    0    0 -0.92811227186E+03  0.90666164074E+03  0.13052643254E+04  0.18427602697E+04  0.92858669022E+02 0.  0.
    5000000    2    1    2    0    0  0.92811227186E+03 -0.90666164074E+03 -0.42908021536E+03  0.14920560755E+04  0.59891049512E+03 0.  0.
         23    2    4    4    0    0  0.60539303283E+03 -0.83767731538E+03 -0.14581114539E+03  0.10478326036E+04  0.92131787091E+02 0.  0.
         23    2    4    4    0    0  0.32271923904E+03 -0.68984325358E+02 -0.28326906997E+03  0.44422347185E+03  0.90479735578E+02 0.  0.
          4    1    3    3  502    0 -0.38417983560E+03  0.42960870976E+03  0.54361188624E+03  0.79225732716E+03  0.00000000000E+00 0. -1.
         -4    1    3    3    0  502 -0.54393243626E+03  0.47705293098E+03  0.76165243918E+03  0.10505029425E+04  0.00000000000E+00 0.  1.
         11    1    5    5    0    0  0.45558549185E+03 -0.67872905516E+03 -0.13986179321E+03  0.82933261837E+03  0.00000000000E+00 0. -1.
        -11    1    5    5    0    0  0.14980754098E+03 -0.15894826022E+03 -0.59493521790E+01  0.21849998525E+03  0.00000000000E+00 0.  1.
          5    1    6    6  503    0  0.16658449383E+03 -0.72323073197E+02 -0.18695005892E+03  0.26067879667E+03  0.47000000000E+01 0. -1.
         -5    1    6    6    0  503  0.15613474521E+03  0.33387478392E+01 -0.96319011046E+02  0.18354467518E+03  0.47000000000E+01 0.  1.
<mgrwt>
<rscale>  0 0.13368030E+04</rscale>
<asrwt>0</asrwt>
<pdfrwt beam="1">  1        2 0.18912556E+00 0.13368030E+04</pdfrwt>
<pdfrwt beam="2">  1       -2 0.32392311E+00 0.13368030E+04</pdfrwt>
<totfact> 0.39632208E-01</totfact>
</mgrwt>
</event>
<event>
12    1  0.3166324E-008  0.1836820E+04  0.7818608E-02  0.8686961E-01
          1   -1    0    0  501    0  0.00000000000E+00  0.00000000000E+00  0.20312054390E+04  0.20312054390E+04  0.00000000000E+00 0. -1.
         -1   -1    0    0    0  501 -0.00000000000E+00 -0.00000000000E+00 -0.17789045066E+04  0.17789045066E+04  0.00000000000E+00 0.  1.
         23    2    1    2    0    0  0.12853756737E+04  0.12607487405E+04  0.55946313003E+03  0.18875658007E+04  0.90706386668E+02 0.  0.
    5000000    2    1    2    0    0 -0.12853756737E+04 -0.12607487405E+04 -0.30716219760E+03  0.19225441449E+04  0.60012445726E+03 0.  0.
         23    2    4    4    0    0 -0.12849213796E+04 -0.11317914412E+04 -0.19100844617E+03  0.17252804113E+04  0.90185659120E+02 0.  0.
         23    2    4    4    0    0 -0.45429415860E+00 -0.12895729938E+03 -0.11615375142E+03  0.19726373365E+03  0.93760840409E+02 0.  0.
          1    1    3    3  502    0  0.67735555768E+03  0.68539106838E+03  0.34403299051E+03  0.10231960549E+04  0.00000000000E+00 0. -1.
         -1    1    3    3    0  502  0.60802011607E+03  0.57535767216E+03  0.21543013952E+03  0.86436974581E+03  0.00000000000E+00 0.  1.
         13    1    5    5    0    0 -0.33277344784E+03 -0.33807178537E+03 -0.30638978335E+02  0.47536243714E+03  0.00000000000E+00 0.  1.
        -13    1    5    5    0    0 -0.95214793175E+03 -0.79371965578E+03 -0.16036946784E+03  0.12499179742E+04  0.00000000000E+00 0. -1.
          5    1    6    6  503    0 -0.43400123111E+02 -0.93062457715E+02 -0.67696548280E+02  0.12308169795E+03  0.47000000000E+01 0. -1.
         -5    1    6    6    0  503  0.42945828953E+02 -0.35894841669E+02 -0.48457203144E+02  0.74182035692E+02  0.47000000000E+01 0.  1.
<mgrwt>
<rscale>  0 0.18368196E+04</rscale>
<asrwt>0</asrwt>
<pdfrwt beam="1">  1        1 0.31249315E+00 0.18368196E+04</pdfrwt>
<pdfrwt beam="2">  1       -1 0.27367762E+00 0.18368196E+04</pdfrwt>
<totfact> 0.12601558E-01</totfact>
</mgrwt>
</event>
<event>
12    1  0.3166324E-008  0.7566661E+03  0.7818608E-02  0.9624950E-01
          1   -1    0    0  501    0  0.00000000000E+00  0.00000000000E+00  0.56048975076E+03  0.56048975076E+03  0.00000000000E+00 0. -1.
         -1   -1    0    0    0  501 -0.00000000000E+00 -0.00000000000E+00 -0.12489725067E+04  0.12489725067E+04  0.00000000000E+00 0.  1.
         23    2    1    2    0    0 -0.57089306365E+03 -0.33691326793E+03  0.18773843179E+02  0.66943674617E+03  0.91453046418E+02 0.  0.
    5000000    2    1    2    0    0  0.57089306365E+03  0.33691326793E+03 -0.70725659914E+03  0.11400255113E+04  0.60001402416E+03 0.  0.
         23    2    4    4    0    0 -0.95564545979E+02  0.22571987729E+02 -0.35690542263E+02  0.13890594815E+03  0.91536716934E+02 0.  0.
         23    2    4    4    0    0  0.66645760963E+03  0.31434128020E+03 -0.67156605687E+03  0.10011195632E+04  0.90902283358E+02 0.  0.
          2    1    3    3  502    0 -0.12548649465E+03 -0.11630462991E+03  0.21047351353E+02  0.17238508716E+03  0.00000000000E+00 0. -1.
         -2    1    3    3    0  502 -0.44540656900E+03 -0.22060863802E+03 -0.22735081742E+01  0.49705165900E+03  0.00000000000E+00 0.  1.
         11    1    5    5    0    0 -0.54633292055E+02 -0.99288012577E+01  0.23188957393E+02  0.60175621643E+02  0.00000000000E+00 0. -1.
        -11    1    5    5    0    0 -0.40931253924E+02  0.32500788987E+02 -0.58879499656E+02  0.78730326510E+02  0.00000000000E+00 0.  1.
          5    1    6    6  503    0  0.46199634482E+03  0.23103552440E+03 -0.52212425971E+03  0.73447523357E+03  0.47000000000E+01 0. -1.
         -5    1    6    6    0  503  0.20446126481E+03  0.83305755806E+02 -0.14944179716E+03  0.26664432958E+03  0.47000000000E+01 0.  1.
<mgrwt>
<rscale>  0 0.75666606E+03</rscale>
<asrwt>0</asrwt>
<pdfrwt beam="1">  1        1 0.86229192E-01 0.75666606E+03</pdfrwt>
<pdfrwt beam="2">  1       -1 0.19214962E+00 0.75666606E+03</pdfrwt>
<totfact> 0.66576991E+00</totfact>
</mgrwt>
</event>
<event>
12    1  0.3166324E-008  0.8268807E+03  0.7818608E-02  0.9521903E-01
         -2   -1    0    0    0  501 -0.00000000000E+00  0.00000000000E+00  0.71408637411E+03  0.71408637411E+03  0.00000000000E+00 0.  1.
          2   -1    0    0  501    0  0.00000000000E+00 -0.00000000000E+00 -0.14303597792E+04  0.14303597792E+04  0.00000000000E+00 0. -1.
         23    2    1    2    0    0  0.54457760576E+03  0.51382154265E+03 -0.89310307898E+03  0.11689477033E+04  0.90709850817E+02 0.  0.
    5000000    2    1    2    0    0 -0.54457760576E+03 -0.51382154265E+03  0.17682967384E+03  0.97549845004E+03  0.59979258588E+03 0.  0.
         23    2    4    4    0    0 -0.45495764787E+03 -0.61216393579E+03  0.49516053257E+02  0.76978670514E+03  0.91589225584E+02 0.  0.
         23    2    4    4    0    0 -0.89619957895E+02  0.98342393137E+02  0.12731362058E+03  0.20571174490E+03  0.91682064015E+02 0.  0.
          3    1    3    3  502    0  0.37690841752E+03  0.39208296782E+03 -0.59750807517E+03  0.80796343281E+03  0.00000000000E+00 0. -1.
         -3    1    3    3    0  502  0.16766918825E+03  0.12173857483E+03 -0.29559500380E+03  0.36098427052E+03  0.00000000000E+00 0.  1.
         13    1    5    5    0    0 -0.35373852705E+03 -0.50294906399E+03  0.69989265394E+01  0.61492901335E+03  0.00000000000E+00 0.  1.
        -13    1    5    5    0    0 -0.10121912082E+03 -0.10921487180E+03  0.42517126717E+02  0.15485769179E+03  0.00000000000E+00 0. -1.
          5    1    6    6  503    0 -0.61424463974E+02  0.38679158997E+02  0.13375885071E+02  0.73959762145E+02  0.47000000000E+01 0. -1.
         -5    1    6    6    0  503 -0.28195493921E+02  0.59663234140E+02  0.11393773551E+03  0.13175198275E+03  0.47000000000E+01 0.  1.
<mgrwt>
<rscale>  0 0.82688075E+03</rscale>
<asrwt>0</asrwt>
<pdfrwt beam="1">  1        2 0.22005535E+00 0.82688075E+03</pdfrwt>
<pdfrwt beam="2">  1       -2 0.10985944E+00 0.82688075E+03</pdfrwt>
<totfact> 0.92868239E+00</totfact>
</mgrwt>
</event>
<event>
12    1  0.3166324E-008  0.1280836E+04  0.7818608E-02  0.9044902E-01
          1   -1    0    0  501    0  0.00000000000E+00  0.00000000000E+00  0.14470201101E+04  0.14470201101E+04  0.00000000000E+00 0. -1.
         -1   -1    0    0    0  501 -0.00000000000E+00 -0.00000000000E+00 -0.14424940349E+04  0.14424940349E+04  0.00000000000E+00 0.  1.
         23    2    1    2    0    0  0.85436380369E+03  0.91064608083E+03  0.59171384247E+03  0.13848574399E+04  0.92146968679E+02 0.  0.
    5000000    2    1    2    0    0 -0.85436380369E+03 -0.91064608083E+03 -0.58718776726E+03  0.15046567051E+04  0.59999044370E+03 0.  0.
         23    2    4    4    0    0 -0.34220473631E+02 -0.21848362363E+03 -0.31246905429E+03  0.39324442225E+03  0.89989616781E+02 0.  0.
         23    2    4    4    0    0 -0.82014333006E+03 -0.69216245719E+03 -0.27471871297E+03  0.11114122828E+04  0.89682451913E+02 0.  0.
          3    1    3    3  502    0  0.36387058791E+03  0.38397921627E+03  0.30119900988E+03  0.60873860304E+03  0.00000000000E+00 0. -1.
         -3    1    3    3    0  502  0.49049321578E+03  0.52666686456E+03  0.29051483259E+03  0.77611883684E+03  0.00000000000E+00 0.  1.
         11    1    5    5    0    0  0.26257460568E+02 -0.41795187715E+02 -0.43456428676E+02  0.65762855358E+02  0.00000000000E+00 0. -1.
        -11    1    5    5    0    0 -0.60477934199E+02 -0.17668843592E+03 -0.26901262561E+03  0.32748156689E+03  0.00000000000E+00 0.  1.
          5    1    6    6  503    0 -0.14907664840E+03 -0.17292151706E+03 -0.63023542310E+02  0.23689608491E+03  0.47000000000E+01 0. -1.
         -5    1    6    6    0  503 -0.67106668166E+03 -0.51924094014E+03 -0.21169517066E+03  0.87451619792E+03  0.47000000000E+01 0.  1.
<mgrwt>
<rscale>  0 0.12808365E+04</rscale>
<asrwt>0</asrwt>
<pdfrwt beam="1">  1        1 0.22261848E+00 0.12808365E+04</pdfrwt>
<pdfrwt beam="2">  1       -1 0.22192216E+00 0.12808365E+04</pdfrwt>
<totfact> 0.73817533E-01</totfact>
</mgrwt>
</event>
<event>
12    1  0.3166324E-008  0.1019632E+04  0.7818608E-02  0.9287271E-01
          1   -1    0    0  501    0  0.00000000000E+00  0.00000000000E+00  0.24070477333E+04  0.24070477333E+04  0.00000000000E+00 0. -1.
         -1   -1    0    0    0  501 -0.00000000000E+00 -0.00000000000E+00 -0.48532118285E+03  0.48532118285E+03  0.00000000000E+00 0.  1.
         23    2    1    2    0    0 -0.90695065323E+02  0.92809259470E+03  0.42315960390E+03  0.10281122735E+04  0.91484082490E+02 0.  0.
    5000000    2    1    2    0    0  0.90695065323E+02 -0.92809259470E+03  0.14985669465E+04  0.18642566426E+04  0.60014038120E+03 0.  0.
         23    2    4    4    0    0 -0.16618647426E+03 -0.77102983572E+03  0.10416974047E+04  0.13095011091E+04  0.86917892086E+02 0.  0.
         23    2    4    4    0    0  0.25688153959E+03 -0.15706275898E+03  0.45686954182E+03  0.55475553352E+03  0.91471788533E+02 0.  0.
          4    1    3    3  502    0 -0.84311200158E+02  0.39871452115E+03  0.17920045991E+03  0.44519035556E+03  0.00000000000E+00 0. -1.
         -4    1    3    3    0  502 -0.63838651650E+01  0.52937807355E+03  0.24395914399E+03  0.58292191795E+03  0.00000000000E+00 0.  1.
         13    1    5    5    0    0 -0.13567543718E+03 -0.63982180562E+03  0.80558947768E+03  0.10376676605E+04  0.00000000000E+00 0.  1.
        -13    1    5    5    0    0 -0.30511037080E+02 -0.13120803010E+03  0.23610792703E+03  0.27183344856E+03  0.00000000000E+00 0. -1.
          5    1    6    6  503    0  0.70181345006E+02 -0.12703535770E+01  0.83842328913E+02  0.10944706987E+03  0.47000000000E+01 0. -1.
         -5    1    6    6    0  503  0.18670019458E+03 -0.15579240540E+03  0.37302721290E+03  0.44530846366E+03  0.47000000000E+01 0.  1.
<mgrwt>
<rscale>  0 0.10196319E+04</rscale>
<asrwt>0</asrwt>
<pdfrwt beam="1">  1        1 0.37031503E+00 0.10196319E+04</pdfrwt>
<pdfrwt beam="2">  1       -1 0.74664799E-01 0.10196319E+04</pdfrwt>
<totfact> 0.28764800E+00</totfact>
</mgrwt>
</event>
<event>
12    1  0.3166324E-008  0.4430302E+03  0.7818608E-02  0.1029821E+00
         -2   -1    0    0    0  501 -0.00000000000E+00  0.00000000000E+00  0.60241599462E+02  0.60241599462E+02  0.00000000000E+00 0.  1.
          2   -1    0    0  501    0  0.00000000000E+00 -0.00000000000E+00 -0.52547623839E+04  0.52547623839E+04  0.00000000000E+00 0. -1.
         23    2    1    2    0    0  0.25756388340E+03 -0.39259688420E+02 -0.32841538149E+04  0.32957549236E+04  0.91944327844E+02 0.  0.
    5000000    2    1    2    0    0 -0.25756388340E+03  0.39259688420E+02 -0.19103669695E+04  0.20192490597E+04  0.59998694139E+03 0.  0.
         23    2    4    4    0    0  0.17829753068E+03 -0.19829321748E+02 -0.47463682090E+03  0.51499155094E+03  0.88050975831E+02 0.  0.
         23    2    4    4    0    0 -0.43586141408E+03  0.59089010168E+02 -0.14357301486E+04  0.15042575088E+04  0.89458983203E+02 0.  0.
          2    1    3    3  502    0  0.19282192748E+03 -0.23793321795E+02 -0.28403707754E+04  0.28470076501E+04  0.00000000000E+00 0. -1.
         -2    1    3    3    0  502  0.64741955914E+02 -0.15466366625E+02 -0.44378303949E+03  0.44874727352E+03  0.00000000000E+00 0.  1.
         11    1    5    5    0    0  0.30302086869E+02 -0.10165452439E+02 -0.22328769619E+02  0.38988804093E+02  0.00000000000E+00 0.  1.
        -11    1    5    5    0    0  0.14799544381E+03 -0.96638693094E+01 -0.45230805128E+03  0.47600274685E+03  0.00000000000E+00 0. -1.
          5    1    6    6  503    0 -0.35066240859E+03  0.20503785999E+02 -0.12074860388E+04  0.12575488674E+04  0.47000000000E+01 0. -1.
         -5    1    6    6    0  503 -0.85199005488E+02  0.38585224169E+02 -0.22824410987E+03  0.24670864142E+03  0.47000000000E+01 0.  1.
<mgrwt>
<rscale>  0 0.44303018E+03</rscale>
<asrwt>0</asrwt>
<pdfrwt beam="1">  1        2 0.80842491E+00 0.44303018E+03</pdfrwt>
<pdfrwt beam="2">  1       -2 0.92679392E-02 0.44303018E+03</pdfrwt>
<totfact> 0.15904448E+00</totfact>
</mgrwt>
</event>
<event>
12    1  0.3166324E-008  0.6663957E+03  0.7818608E-02  0.9776491E-01
          1   -1    0    0  501    0  0.00000000000E+00  0.00000000000E+00  0.41899665873E+03  0.41899665873E+03  0.00000000000E+00 0. -1.
         -1   -1    0    0    0  501 -0.00000000000E+00 -0.00000000000E+00 -0.11340390967E+04  0.11340390967E+04  0.00000000000E+00 0.  1.
         23    2    1    2    0    0  0.15212430445E+03  0.52380642554E+03 -0.18436218049E+03  0.58387006999E+03  0.96952924635E+02 0.  0.
    5000000    2    1    2    0    0 -0.15212430445E+03 -0.52380642554E+03 -0.53068025749E+03  0.96916568545E+03  0.60012133333E+03 0.  0.
         23    2    4    4    0    0 -0.12604721824E+02 -0.60287692590E+03 -0.48385561258E+03  0.77820857965E+03  0.88729210578E+02 0.  0.
         23    2    4    4    0    0 -0.13951958263E+03  0.79070500365E+02 -0.46824644909E+02  0.19095710580E+03  0.92488977294E+02 0.  0.
          3    1    3    3  502    0  0.14183549782E+03  0.41912019697E+03 -0.11272442369E+03  0.45660250070E+03  0.00000000000E+00 0. -1.
         -3    1    3    3    0  502  0.10288806630E+02  0.10468622856E+03 -0.71637756793E+02  0.12726756928E+03  0.00000000000E+00 0.  1.
         11    1    5    5    0    0 -0.47591482362E+02 -0.30579359591E+03 -0.22500275981E+03  0.38262372433E+03  0.00000000000E+00 0.  1.
        -11    1    5    5    0    0  0.34986760538E+02 -0.29708332999E+03 -0.25885285277E+03  0.39558485532E+03  0.00000000000E+00 0. -1.
          5    1    6    6  503    0 -0.10915772370E+03  0.92340739604E+02 -0.59817958819E+02  0.15505643821E+03  0.47000000000E+01 0. -1.
         -5    1    6    6    0  503 -0.30361858929E+02 -0.13270239239E+02  0.12993313910E+02  0.35900667591E+02  0.47000000000E+01 0.  1.
<mgrwt>
<rscale>  0 0.66639575E+03</rscale>
<asrwt>0</asrwt>
<pdfrwt beam="1">  1        1 0.64461025E-01 0.66639575E+03</pdfrwt>
<pdfrwt beam="2">  1       -1 0.17446755E+00 0.66639575E+03</pdfrwt>
<totfact> 0.13373928E+01</totfact>
</mgrwt>
</event>
<event>
12    1  0.3166324E-008  0.1927632E+04  0.7818608E-02  0.8641223E-01
          2   -1    0    0  501    0  0.00000000000E+00  0.00000000000E+00  0.32016383922E+04  0.32016383922E+04  0.00000000000E+00 0. -1.
         -2   -1    0    0    0  501 -0.00000000000E+00 -0.00000000000E+00 -0.12634946090E+04  0.12634946090E+04  0.00000000000E+00 0.  1.
         23    2    1    2    0    0 -0.89229328040E+03 -0.16578951080E+04  0.15748396171E+04  0.24559506019E+04  0.82280327966E+02 0.  0.
    5000000    2    1    2    0    0  0.89229328040E+03  0.16578951080E+04  0.36330416605E+03  0.20091823993E+04  0.60001709084E+03 0.  0.
         23    2    4    4    0    0  0.80251280682E+03  0.91109146724E+03  0.24964640810E+03  0.12428990179E+04  0.91433980553E+02 0.  0.
         23    2    4    4    0    0  0.89780473579E+02  0.74680364073E+03  0.11365775796E+03  0.76628338141E+03  0.92173333671E+02 0.  0.
          4    1    3    3  502    0 -0.55150199619E+03 -0.10778110357E+04  0.97250764504E+03  0.15529334178E+04  0.00000000000E+00 0. -1.
         -4    1    3    3    0  502 -0.34079128422E+03 -0.58008407222E+03  0.60233197205E+03  0.90301718411E+03  0.00000000000E+00 0.  1.
         11    1    5    5    0    0  0.63393143441E+03  0.71453068210E+03  0.15787740696E+03  0.96816756547E+03  0.00000000000E+00 0. -1.
        -11    1    5    5    0    0  0.16858137241E+03  0.19656078513E+03  0.91769001135E+02  0.27473145241E+03  0.00000000000E+00 0.  1.
          5    1    6    6  503    0  0.10231552023E+03  0.49697502578E+03  0.67819390607E+02  0.51193183303E+03  0.47000000000E+01 0. -1.
         -5    1    6    6    0  503 -0.12535046647E+02  0.24982861495E+03  0.45838367349E+02  0.25435154838E+03  0.47000000000E+01 0.  1.
<mgrwt>
<rscale>  0 0.19276321E+04</rscale>
<asrwt>0</asrwt>
<pdfrwt beam="1">  1        2 0.49255975E+00 0.19276321E+04</pdfrwt>
<pdfrwt beam="2">  1       -2 0.19438379E+00 0.19276321E+04</pdfrwt>
<totfact> 0.16881761E-01</totfact>
</mgrwt>
</event>
<event>
12    1  0.3166324E-008  0.6540918E+03  0.7818608E-02  0.9799131E-01
         -2   -1    0    0    0  501 -0.00000000000E+00  0.00000000000E+00  0.25484935382E+03  0.25484935382E+03  0.00000000000E+00 0.  1.
          2   -1    0    0  501    0  0.00000000000E+00 -0.00000000000E+00 -0.20080323871E+04  0.20080323871E+04  0.00000000000E+00 0. -1.
         23    2    1    2    0    0  0.15674388610E+03 -0.52987188198E+03 -0.41800995026E+03  0.69833518781E+03  0.87217308324E+02 0.  0.
    5000000    2    1    2    0    0 -0.15674388610E+03  0.52987188198E+03 -0.13351730830E+04  0.15645465531E+04  0.59982155521E+03 0.  0.
         23    2    4    4    0    0 -0.45971838257E+01 -0.97871368765E+02 -0.83969266609E+02  0.15354082990E+03  0.83210635064E+02 0.  0.
         23    2    4    4    0    0 -0.15214670227E+03  0.62774325075E+03 -0.12512038164E+04  0.14110057232E+04  0.90641893623E+02 0.  0.
          4    1    3    3  502    0  0.10569307320E+03 -0.22379606297E+03 -0.15932554786E+03  0.29434730120E+03  0.00000000000E+00 0. -1.
         -4    1    3    3    0  502  0.51050812901E+02 -0.30607581901E+03 -0.25868440240E+03  0.40398788661E+03  0.00000000000E+00 0.  1.
         11    1    5    5    0    0 -0.57077463805E+01 -0.63503975196E+02 -0.97576357297E+02  0.11656105155E+03  0.00000000000E+00 0. -1.
        -11    1    5    5    0    0  0.11105625548E+01 -0.34367393569E+02  0.13607090687E+02  0.36979778351E+02  0.00000000000E+00 0.  1.
          5    1    6    6  503    0 -0.14319634909E+03  0.41099975606E+03 -0.83100382196E+03  0.93809137934E+03  0.47000000000E+01 0. -1.
         -5    1    6    6    0  503 -0.89503531823E+01  0.21674349469E+03 -0.42019999444E+03  0.47291434387E+03  0.47000000000E+01 0.  1.
<mgrwt>
<rscale>  0 0.65409185E+03</rscale>
<asrwt>0</asrwt>
<pdfrwt beam="1">  1        2 0.30892807E+00 0.65409185E+03</pdfrwt>
<pdfrwt beam="2">  1       -2 0.39207591E-01 0.65409185E+03</pdfrwt>
<totfact> 0.42471236E+01</totfact>
</mgrwt>
</event>
<event>
12    1  0.3166324E-008  0.6912339E+03  0.7818608E-02  0.9732342E-01
         -2   -1    0    0    0  501 -0.00000000000E+00  0.00000000000E+00  0.17530870434E+04  0.17530870434E+04  0.00000000000E+00 0.  1.
          2   -1    0    0  501    0  0.00000000000E+00 -0.00000000000E+00 -0.13437113576E+04  0.13437113576E+04  0.00000000000E+00 0. -1.
         23    2    1    2    0    0 -0.35864153486E+03 -0.58509743473E+03  0.15140389298E+04  0.16647204244E+04  0.89540223346E+02 0.  0.
    5000000    2    1    2    0    0  0.35864153486E+03  0.58509743473E+03 -0.11046632440E+04  0.14320779766E+04  0.59966965060E+03 0.  0.
         23    2    4    4    0    0  0.15133784220E+03  0.18381732153E+03 -0.21811170864E+02  0.25523095559E+03  0.89303770028E+02 0.  0.
         23    2    4    4    0    0  0.20730369266E+03  0.40128011321E+03 -0.10828520731E+04  0.11768470210E+04  0.91650141261E+02 0.  0.
          4    1    3    3  502    0 -0.76485465918E+02 -0.16763759253E+03  0.33063010325E+03  0.37850845975E+03  0.00000000000E+00 0. -1.
         -4    1    3    3    0  502 -0.28215606895E+03 -0.41745984220E+03  0.11834088266E+04  0.12862119646E+04  0.00000000000E+00 0.  1.
         13    1    5    5    0    0  0.29171164166E+02  0.59379958097E+02  0.30951752913E+02  0.73040723236E+02  0.00000000000E+00 0.  1.
        -13    1    5    5    0    0  0.12216667804E+03  0.12443736343E+03 -0.52762923777E+02  0.18219023236E+03  0.00000000000E+00 0. -1.
          5    1    6    6  503    0  0.10791019113E+03  0.16262508881E+03 -0.36642887811E+03  0.41519121086E+03  0.47000000000E+01 0. -1.
         -5    1    6    6    0  503  0.99393501531E+02  0.23865502440E+03 -0.71642319502E+03  0.76165581018E+03  0.47000000000E+01 0.  1.
<mgrwt>
<rscale>  0 0.69123388E+03</rscale>
<asrwt>0</asrwt>
<pdfrwt beam="1">  1        2 0.20672482E+00 0.69123388E+03</pdfrwt>
<pdfrwt beam="2">  1       -2 0.26970570E+00 0.69123388E+03</pdfrwt>
<totfact> 0.80214633E-01</totfact>
</mgrwt>
</event>
<event>
12    1  0.3166324E-008  0.1180347E+04  0.7818608E-02  0.9130235E-01
          2   -1    0    0  501    0  0.00000000000E+00  0.00000000000E+00  0.12809092662E+04  0.12809092662E+04  0.00000000000E+00 0. -1.
         -2   -1    0    0    0  501 -0.00000000000E+00 -0.00000000000E+00 -0.12462498310E+04  0.12462498310E+04  0.00000000000E+00 0.  1.
         23    2    1    2    0    0  0.11069717975E+04  0.34990945988E+03  0.27961988906E+03  0.11975404524E+04  0.89959225489E+02 0.  0.
    5000000    2    1    2    0    0 -0.11069717975E+04 -0.34990945988E+03 -0.24496045389E+03  0.13296186448E+04  0.60004743641E+03 0.  0.
         23    2    4    4    0    0 -0.26851625835E+03 -0.19642230347E+03  0.16133233478E+03  0.38094551006E+03  0.91698730014E+02 0.  0.
         23    2    4    4    0    0 -0.83845553914E+03 -0.15348715641E+03 -0.40629278867E+03  0.94867313469E+03  0.91328462490E+02 0.  0.
          2    1    3    3  502    0  0.17558613095E+03  0.78281642043E+02  0.20425378407E+02  0.19332796215E+03  0.00000000000E+00 0. -1.
         -2    1    3    3    0  502  0.93138566654E+03  0.27162781784E+03  0.25919451066E+03  0.10042124903E+04  0.00000000000E+00 0.  1.
         11    1    5    5    0    0 -0.23284489584E+03 -0.20280658247E+03  0.14193256773E+03  0.33984130001E+03  0.00000000000E+00 0. -1.
        -11    1    5    5    0    0 -0.35671362510E+02  0.63842789971E+01  0.19399767059E+02  0.41104210046E+02  0.00000000000E+00 0.  1.
          5    1    6    6  503    0 -0.18221521685E+03 -0.18180751716E+02 -0.12610558152E+03  0.22239072075E+03  0.47000000000E+01 0. -1.
         -5    1    6    6    0  503 -0.65624032229E+03 -0.13530640469E+03 -0.28018720715E+03  0.72628241394E+03  0.47000000000E+01 0.  1.
<mgrwt>
<rscale>  0 0.11803473E+04</rscale>
<asrwt>0</asrwt>
<pdfrwt beam="1">  1        2 0.19706296E+00 0.11803473E+04</pdfrwt>
<pdfrwt beam="2">  1       -2 0.19173074E+00 0.11803473E+04</pdfrwt>
<totfact> 0.24898148E+00</totfact>
</mgrwt>
</event>
<event>
12    1  0.3166324E-008  0.9357244E+03  0.7818608E-02  0.9381994E-01
          2   -1    0    0  501    0  0.00000000000E+00  0.00000000000E+00  0.16144471460E+04  0.16144471460E+04  0.00000000000E+00 0. -1.
         -2   -1    0    0    0  501 -0.00000000000E+00 -0.00000000000E+00 -0.13062597135E+04  0.13062597135E+04  0.00000000000E+00 0.  1.
         23    2    1    2    0    0  0.53408097179E+03  0.71238458644E+03  0.12193641171E+04  0.15126505929E+04  0.92350866815E+02 0.  0.
    5000000    2    1    2    0    0 -0.53408097179E+03 -0.71238458644E+03 -0.91117668470E+03  0.14080562666E+04  0.59970427351E+03 0.  0.
         23    2    4    4    0    0 -0.20255199735E+02 -0.33374691621E+03 -0.59776919451E+03  0.69097357504E+03  0.91209617368E+02 0.  0.
         23    2    4    4    0    0 -0.51382577206E+03 -0.37863767023E+03 -0.31340749019E+03  0.71708269154E+03  0.92735765731E+02 0.  0.
          4    1    3    3  502    0  0.44739100582E+03  0.62814730387E+03  0.10080812136E+04  0.12692342103E+04  0.00000000000E+00 0. -1.
         -4    1    3    3    0  502  0.86689965969E+02  0.84237282570E+02  0.21128290359E+03  0.24341638261E+03  0.00000000000E+00 0.  1.
         13    1    5    5    0    0 -0.17567486677E+02 -0.32999460646E+03 -0.54049659960E+03  0.63351529662E+03  0.00000000000E+00 0.  1.
        -13    1    5    5    0    0 -0.26877130581E+01 -0.37523097435E+01 -0.57272594913E+02  0.57458278411E+02  0.00000000000E+00 0. -1.
          5    1    6    6  503    0 -0.17278750240E+03 -0.77929538693E+02 -0.77594864412E+02  0.20486968290E+03  0.47000000000E+01 0. -1.
         -5    1    6    6    0  503 -0.34103826965E+03 -0.30070813154E+03 -0.23581262578E+03  0.51221300864E+03  0.47000000000E+01 0.  1.
<mgrwt>
<rscale>  0 0.93572445E+03</rscale>
<asrwt>0</asrwt>
<pdfrwt beam="1">  1        2 0.24837648E+00 0.93572445E+03</pdfrwt>
<pdfrwt beam="2">  1       -2 0.20096303E+00 0.93572445E+03</pdfrwt>
<totfact> 0.14400589E+00</totfact>
</mgrwt>
</event>
<event>
12    1  0.3166324E-008  0.7819689E+03  0.7818608E-02  0.9586489E-01
          1   -1    0    0  501    0  0.00000000000E+00  0.00000000000E+00  0.10019651796E+04  0.10019651796E+04  0.00000000000E+00 0. -1.
         -1   -1    0    0    0  501 -0.00000000000E+00 -0.00000000000E+00 -0.12061341242E+04  0.12061341242E+04  0.00000000000E+00 0.  1.
         23    2    1    2    0    0 -0.66616110984E+03  0.18600509672E+03  0.65174904873E+03  0.95464279216E+03  0.90540144821E+02 0.  0.
    5000000    2    1    2    0    0  0.66616110984E+03 -0.18600509672E+03 -0.85591799341E+03  0.12534565116E+04  0.60015755833E+03 0.  0.
         23    2    4    4    0    0  0.47376388230E+03  0.12390575938E+03 -0.29697388003E+03  0.57990456043E+03  0.91054711073E+02 0.  0.
         23    2    4    4    0    0  0.19239722755E+03 -0.30991085610E+03 -0.55894411338E+03  0.67355195120E+03  0.90511199195E+02 0.  0.
          3    1    3    3  502    0 -0.23520051381E+03  0.10837303824E+03  0.26271096510E+03  0.36889164845E+03  0.00000000000E+00 0. -1.
         -3    1    3    3    0  502 -0.43096059603E+03  0.77632058479E+02  0.38903808363E+03  0.58575114371E+03  0.00000000000E+00 0.  1.
         11    1    5    5    0    0  0.28973128245E+03  0.99175858371E+02 -0.13983408702E+03  0.33665061831E+03  0.00000000000E+00 0. -1.
        -11    1    5    5    0    0  0.18403259985E+03  0.24729901011E+02 -0.15713979301E+03  0.24325394212E+03  0.00000000000E+00 0.  1.
          5    1    6    6  503    0  0.38571672812E+02 -0.14271292367E+03 -0.24046316548E+03  0.28231077996E+03  0.47000000000E+01 0. -1.
         -5    1    6    6    0  503  0.15382555473E+03 -0.16719793244E+03 -0.31848094790E+03  0.39124117124E+03  0.47000000000E+01 0.  1.
<mgrwt>
<rscale>  0 0.78196889E+03</rscale>
<asrwt>0</asrwt>
<pdfrwt beam="1">  1        1 0.15414849E+00 0.78196889E+03</pdfrwt>
<pdfrwt beam="2">  1       -1 0.18555910E+00 0.78196889E+03</pdfrwt>
<totfact> 0.29640626E+00</totfact>
</mgrwt>
</event>
<event>
12    1  0.3166324E-008  0.9101859E+03  0.7818608E-02  0.9412937E-01
         -3   -1    0    0    0  501 -0.00000000000E+00  0.00000000000E+00  0.12011865061E+04  0.12011865061E+04  0.00000000000E+00 0.  1.
          3   -1    0    0  501    0  0.00000000000E+00 -0.00000000000E+00 -0.72958790966E+03  0.72958790966E+03  0.00000000000E+00 0. -1.
         23    2    1    2    0    0  0.81935489553E+02 -0.82286682092E+03  0.76313552183E+02  0.83544461640E+03  0.91217977441E+02 0.  0.
    5000000    2    1    2    0    0 -0.81935489553E+02  0.82286682092E+03  0.39528504424E+03  0.10953297993E+04  0.59972816651E+03 0.  0.
         23    2    4    4    0    0  0.22958283139E+03  0.42907792235E+03  0.98595515620E+02  0.50493354560E+03  0.91764207927E+02 0.  0.
         23    2    4    4    0    0 -0.31151832094E+03  0.39378889857E+03  0.29668952862E+03  0.59039625374E+03  0.91813392916E+02 0.  0.
          2    1    3    3  502    0  0.31860201792E+02 -0.63074119220E+03  0.34118648196E+02  0.63246628855E+03  0.00000000000E+00 0. -1.
         -2    1    3    3    0  502  0.50075287761E+02 -0.19212562872E+03  0.42194903987E+02  0.20297832785E+03  0.00000000000E+00 0.  1.
         11    1    5    5    0    0  0.90187365694E+02  0.15378136261E+03  0.81115283231E+02  0.19586259876E+03  0.00000000000E+00 0. -1.
        -11    1    5    5    0    0  0.13939546569E+03  0.27529655974E+03  0.17480232389E+02  0.30907094685E+03  0.00000000000E+00 0.  1.
          5    1    6    6  503    0 -0.27808109880E+03  0.33275904632E+03  0.28683427294E+03  0.51995545054E+03  0.47000000000E+01 0. -1.
         -5    1    6    6    0  503 -0.33437222141E+02  0.61029852251E+02  0.98552556768E+01  0.70440803195E+02  0.47000000000E+01 0.  1.
<mgrwt>
<rscale>  0 0.91018588E+03</rscale>
<asrwt>0</asrwt>
<pdfrwt beam="1">  1        3 0.11224429E+00 0.91018588E+03</pdfrwt>
<pdfrwt beam="2">  1       -3 0.18479792E+00 0.91018588E+03</pdfrwt>
<totfact> 0.31333395E-01</totfact>
</mgrwt>
</event>
<event>
12    1  0.3775750E-008  0.6778863E+03  0.7818608E-02  0.9755815E-01
          2   -1    0    0  501    0  0.00000000000E+00  0.00000000000E+00  0.20061943274E+04  0.20061943274E+04  0.00000000000E+00 0. -1.
         -2   -1    0    0    0  501 -0.00000000000E+00 -0.00000000000E+00 -0.25785871998E+03  0.25785871998E+03  0.00000000000E+00 0.  1.
         23    2    1    2    0    0  0.58486994170E+03  0.48019581415E+02  0.63044079698E+03  0.86616342201E+03  0.91677403017E+02 0.  0.
    5000000    2    1    2    0    0 -0.58486994170E+03 -0.48019581415E+02  0.11178948105E+04  0.13978896254E+04  0.60002322342E+03 0.  0.
         23    2    4    4    0    0 -0.65786438471E+03  0.32693857486E+02  0.10473526121E+04  0.12406988455E+04  0.92367169895E+02 0.  0.
         23    2    4    4    0    0  0.72994443005E+02 -0.80713438900E+02  0.70542198356E+02  0.15719077993E+03  0.88825061880E+02 0.  0.
          2    1    3    3  502    0  0.22147390051E+03  0.21836109989E+02  0.17617005302E+03  0.28383691072E+03  0.00000000000E+00 0. -1.
         -2    1    3    3    0  502  0.36339604119E+03  0.26183471426E+02  0.45427074396E+03  0.58232651129E+03  0.00000000000E+00 0.  1.
         11    1    5    5    0    0 -0.35790610584E+03  0.24913253017E+01  0.48676071343E+03  0.60418455743E+03  0.00000000000E+00 0.  1.
        -11    1    5    5    0    0 -0.29995827886E+03  0.30202532184E+02  0.56059189869E+03  0.63651428805E+03  0.00000000000E+00 0. -1.
          5    1    6    6  503    0  0.13171422060E+02 -0.15426343960E+02 -0.21118184578E+02  0.29656806418E+02  0.47000000000E+01 0. -1.
         -5    1    6    6    0  503  0.59823020946E+02 -0.65287094941E+02  0.91660382934E+02  0.12753397351E+03  0.47000000000E+01 0.  1.
<mgrwt>
<rscale>  0 0.67788632E+03</rscale>
<asrwt>0</asrwt>
<pdfrwt beam="1">  1        2 0.30864527E+00 0.67788632E+03</pdfrwt>
<pdfrwt beam="2">  1       -2 0.39670574E-01 0.67788632E+03</pdfrwt>
<totfact> 0.41471078E+01</totfact>
</mgrwt>
</event>
<event>
12    1  0.3166324E-008  0.8532688E+03  0.7818608E-02  0.9485960E-01
         -2   -1    0    0    0  501 -0.00000000000E+00  0.00000000000E+00  0.17759134891E+04  0.17759134891E+04  0.00000000000E+00 0. -1.
          2   -1    0    0  501    0  0.00000000000E+00 -0.00000000000E+00 -0.66182983641E+03  0.66182983641E+03  0.00000000000E+00 0.  1.
         23    2    1    2    0    0 -0.78509834822E+03  0.17875879517E+03  0.11800067096E+04  0.14314614428E+04  0.91279265055E+02 0.  0.
    5000000    2    1    2    0    0  0.78509834822E+03 -0.17875879517E+03 -0.65923056883E+02  0.10062818828E+04  0.59993604237E+03 0.  0.
         23    2    4    4    0    0  0.78386603536E+03 -0.19501205646E+03  0.96993634320E+02  0.81878043353E+03  0.92292847388E+02 0.  0.
         23    2    4    4    0    0  0.12323128639E+01  0.16253261292E+02 -0.16291669120E+03  0.18750144924E+03  0.91374274813E+02 0.  0.
          2    1    3    3  502    0 -0.70189615407E+03  0.16386941224E+03  0.10997842442E+04  0.13149284312E+04  0.00000000000E+00 0. -1.
         -2    1    3    3    0  502 -0.83202194153E+02  0.14889382929E+02  0.80222465435E+02  0.11653301162E+03  0.00000000000E+00 0.  1.
         13    1    5    5    0    0  0.11505953600E+03 -0.16737299006E+02 -0.16310687950E+02  0.11740899686E+03  0.00000000000E+00 0. -1.
        -13    1    5    5    0    0  0.66880649935E+03 -0.17827475745E+03  0.11330432227E+03  0.70137143666E+03  0.00000000000E+00 0.  1.
          5    1    6    6  503    0  0.43595493292E+02 -0.67720674512E+01 -0.77012679908E+02  0.88878967138E+02  0.47000000000E+01 0. -1.
         -5    1    6    6    0  503 -0.42363180428E+02  0.23025328743E+02 -0.85904011294E+02  0.98622482103E+02  0.47000000000E+01 0.  1.
<mgrwt>
<rscale>  0 0.85326878E+03</rscale>
<asrwt>0</asrwt>
<pdfrwt beam="1">  1        2 0.10181998E+00 0.85326878E+03</pdfrwt>
<pdfrwt beam="2">  1       -2 0.27321746E+00 0.85326878E+03</pdfrwt>
<totfact> 0.20780209E+00</totfact>
</mgrwt>
</event>
<event>
12    1  0.3166324E-008  0.1036940E+04  0.7818608E-02  0.9268933E-01
         -2   -1    0    0    0  501 -0.00000000000E+00  0.00000000000E+00  0.92281459096E+03  0.92281459096E+03  0.00000000000E+00 0.  1.
          2   -1    0    0  501    0  0.00000000000E+00 -0.00000000000E+00 -0.14445349338E+04  0.14445349338E+04  0.00000000000E+00 0. -1.
         23    2    1    2    0    0  0.20094551024E+03  0.98433108573E+03 -0.63407133455E+03  0.11918143729E+04  0.95332354112E+02 0.  0.
    5000000    2    1    2    0    0 -0.20094551024E+03 -0.98433108573E+03  0.11235099175E+03  0.11755351518E+04  0.59997780241E+03 0.  0.
         23    2    4    4    0    0 -0.29289549336E+03 -0.57114337713E+03  0.28929499067E+03  0.71001117055E+03  0.91824525123E+02 0.  0.
         23    2    4    4    0    0  0.91949983119E+02 -0.41318770861E+03 -0.17694399892E+03  0.46552398127E+03  0.78895604712E+02 0.  0.
          3    1    3    3  502    0  0.49045101851E+02  0.41695452608E+03 -0.30109635706E+03  0.51663866974E+03  0.00000000000E+00 0. -1.
         -3    1    3    3    0  502  0.15190040839E+03  0.56737655965E+03 -0.33297497749E+03  0.67517570316E+03  0.00000000000E+00 0.  1.
         13    1    5    5    0    0 -0.18171777798E+03 -0.30789311453E+03  0.20477362278E+03  0.41200941421E+03  0.00000000000E+00 0.  1.
        -13    1    5    5    0    0 -0.11117771539E+03 -0.26325026260E+03  0.84521367892E+02  0.29800175635E+03  0.00000000000E+00 0. -1.
          5    1    6    6  503    0  0.56784723539E+02 -0.25840349377E+03 -0.68831286166E+02  0.27341672658E+03  0.47000000000E+01 0. -1.
         -5    1    6    6    0  503  0.35165259580E+02 -0.15478421484E+03 -0.10811271275E+03  0.19210725468E+03  0.47000000000E+01 0.  1.
<mgrwt>
<rscale>  0 0.10369397E+04</rscale>
<asrwt>0</asrwt>
<pdfrwt beam="1">  1        2 0.22223614E+00 0.10369397E+04</pdfrwt>
<pdfrwt beam="2">  1       -2 0.14197148E+00 0.10369397E+04</pdfrwt>
<totfact> 0.46722188E+00</totfact>
</mgrwt>
</event>
<event>
12    1  0.3166324E-008  0.8371323E+03  0.7818608E-02  0.9507772E-01
          1   -1    0    0  501    0  0.00000000000E+00  0.00000000000E+00  0.13910716638E+04  0.13910716638E+04  0.00000000000E+00 0. -1.
         -1   -1    0    0    0  501 -0.00000000000E+00 -0.00000000000E+00 -0.56898394849E+03  0.56898394849E+03  0.00000000000E+00 0.  1.
         23    2    1    2    0    0  0.21617362142E+03 -0.74842858819E+03  0.48025190646E+03  0.91953170195E+03  0.89555965777E+02 0.  0.
    5000000    2    1    2    0    0 -0.21617362142E+03  0.74842858819E+03  0.34183580880E+03  0.10405239103E+04  0.59913429337E+03 0.  0.
         23    2    4    4    0    0 -0.46138199153E+02 -0.32139332814E+02  0.19942853298E+03  0.22431053509E+03  0.85917438581E+02 0.  0.
         23    2    4    4    0    0 -0.17003542226E+03  0.78056792101E+03  0.14240727582E+03  0.81621337520E+03  0.87898336261E+02 0.  0.
          2    1    3    3  502    0  0.14504431054E+03 -0.49664578014E+03  0.26832775517E+03  0.58283330991E+03  0.00000000000E+00 0. -1.
         -2    1    3    3    0  502  0.71129310881E+02 -0.25178280805E+03  0.21192415130E+03  0.33669839204E+03  0.00000000000E+00 0.  1.
         13    1    5    5    0    0  0.12861467091E+02 -0.30916669596E+02  0.12455146586E+03  0.12897412703E+03  0.00000000000E+00 0.  1.
        -13    1    5    5    0    0 -0.58999666243E+02 -0.12226632176E+01  0.74877067116E+02  0.95336408061E+02  0.00000000000E+00 0. -1.
          5    1    6    6  503    0 -0.14790924018E+03  0.50481396277E+03  0.74346588422E+02  0.53128503230E+03  0.47000000000E+01 0. -1.
         -5    1    6    6    0  503 -0.22126182084E+02  0.27575395823E+03  0.68060687397E+02  0.28492834289E+03  0.47000000000E+01 0.  1.
<mgrwt>
<rscale>  0 0.83713226E+03</rscale>
<asrwt>0</asrwt>
<pdfrwt beam="1">  1        1 0.21401102E+00 0.83713226E+03</pdfrwt>
<pdfrwt beam="2">  1       -1 0.87535993E-01 0.83713226E+03</pdfrwt>
<totfact> 0.10253271E+01</totfact>
</mgrwt>
</event>
<event>
12    1  0.3166324E-008  0.5280187E+03  0.7818608E-02  0.1006714E+00
          2   -1    0    0  501    0  0.00000000000E+00  0.00000000000E+00  0.47107527341E+03  0.47107527341E+03  0.00000000000E+00 0. -1.
         -2   -1    0    0    0  501 -0.00000000000E+00 -0.00000000000E+00 -0.74903516514E+03  0.74903516514E+03  0.00000000000E+00 0.  1.
         23    2    1    2    0    0 -0.90334326158E+02 -0.40875382112E+03  0.22746362511E+02  0.42911168681E+03  0.91539423104E+02 0.  0.
    5000000    2    1    2    0    0  0.90334326158E+02  0.40875382112E+03 -0.30070625424E+03  0.79099875174E+03  0.60001233083E+03 0.  0.
         23    2    4    4    0    0 -0.12584062358E+03  0.35860296894E+03  0.19823434200E+02  0.39088932277E+03  0.89272292655E+02 0.  0.
         23    2    4    4    0    0  0.21617494973E+03  0.50150852186E+02 -0.32052968844E+03  0.40010942897E+03  0.90008650233E+02 0.  0.
          3    1    3    3  502    0  0.15013078749E+02 -0.26553080526E+02  0.11185281304E+02  0.32489523493E+02  0.00000000000E+00 0. -1.
         -3    1    3    3    0  502 -0.10534740491E+03 -0.38220074060E+03  0.11561081207E+02  0.39662216331E+03  0.00000000000E+00 0.  1.
         13    1    5    5    0    0 -0.11976291504E+03  0.36339426078E+03  0.20064832959E+02  0.38314637165E+03  0.00000000000E+00 0. -1.
        -13    1    5    5    0    0 -0.60777085351E+01 -0.47912918449E+01 -0.24139875886E+00  0.77429511132E+01  0.00000000000E+00 0.  1.
          5    1    6    6  503    0  0.16324536956E+03 -0.33058839165E+01 -0.20419561628E+03  0.26149171930E+03  0.47000000000E+01 0. -1.
         -5    1    6    6    0  503  0.52929580171E+02  0.53456736103E+02 -0.11633407215E+03  0.13861770967E+03  0.47000000000E+01 0.  1.
<mgrwt>
<rscale>  0 0.52801871E+03</rscale>
<asrwt>0</asrwt>
<pdfrwt beam="1">  1        2 0.72473120E-01 0.52801871E+03</pdfrwt>
<pdfrwt beam="2">  1       -2 0.11523618E+00 0.52801871E+03</pdfrwt>
<totfact> 0.39900468E+01</totfact>
</mgrwt>
</event>
<event>
12    1  0.3166324E-008  0.7274459E+03  0.7818608E-02  0.9671414E-01
         -1   -1    0    0    0  501 -0.00000000000E+00  0.00000000000E+00  0.72494388093E+03  0.72494388093E+03  0.00000000000E+00 0.  1.
          1   -1    0    0  501    0  0.00000000000E+00 -0.00000000000E+00 -0.13781682102E+04  0.13781682102E+04  0.00000000000E+00 0. -1.
         23    2    1    2    0    0 -0.19518866011E+03 -0.58649554246E+03 -0.99674242969E+03  0.11755267975E+04  0.79323048628E+02 0.  0.
    5000000    2    1    2    0    0  0.19518866011E+03  0.58649554246E+03  0.34351810040E+03  0.92758529368E+03  0.60027839990E+03 0.  0.
         23    2    4    4    0    0  0.36923392459E+03  0.24205866409E+03  0.98957397186E+02  0.46140319429E+03  0.90411577351E+02 0.  0.
         23    2    4    4    0    0 -0.17404526447E+03  0.34443687837E+03  0.24456070321E+03  0.46618209939E+03  0.92667658705E+02 0.  0.
          2    1    3    3  502    0 -0.16874333646E+03 -0.51021939996E+03 -0.80973558491E+03  0.97183839561E+03  0.00000000000E+00 0. -1.
         -2    1    3    3    0  502 -0.26445323653E+02 -0.76276142497E+02 -0.18700684478E+03  0.20368840185E+03  0.00000000000E+00 0.  1.
         13    1    5    5    0    0  0.13529895327E+03  0.55900033832E+02  0.66145924656E+02  0.16064216099E+03  0.00000000000E+00 0. -1.
        -13    1    5    5    0    0  0.23393497131E+03  0.18615863026E+03  0.32811472530E+02  0.30076103330E+03  0.00000000000E+00 0.  1.
          5    1    6    6  503    0 -0.81838363167E+02  0.95271578019E+02  0.11584334296E+03  0.17092677196E+03  0.47000000000E+01 0. -1.
         -5    1    6    6    0  503 -0.92206901305E+02  0.24916530035E+03  0.12871736026E+03  0.29525532743E+03  0.47000000000E+01 0.  1.
<mgrwt>
<rscale>  0 0.72744593E+03</rscale>
<asrwt>0</asrwt>
<pdfrwt beam="1">  1        1 0.21202587E+00 0.72744593E+03</pdfrwt>
<pdfrwt beam="2">  1       -1 0.11152983E+00 0.72744593E+03</pdfrwt>
<totfact> 0.61319277E+00</totfact>
</mgrwt>
</event>
<event>
12    1  0.3166324E-008  0.7528443E+03  0.7818608E-02  0.9630899E-01
         -1   -1    0    0    0  501 -0.00000000000E+00  0.00000000000E+00  0.56803029635E+03  0.56803029635E+03  0.00000000000E+00 0.  1.
          1   -1    0    0  501    0  0.00000000000E+00 -0.00000000000E+00 -0.11540255808E+04  0.11540255808E+04  0.00000000000E+00 0. -1.
         23    2    1    2    0    0 -0.37691455984E+03  0.51959880984E+03  0.29721540830E+02  0.64920931320E+03  0.92422149640E+02 0.  0.
    5000000    2    1    2    0    0  0.37691455984E+03 -0.51959880984E+03 -0.61571682533E+03  0.10728465640E+04  0.59987084631E+03 0.  0.
         23    2    4    4    0    0  0.50364580764E+03 -0.29357968275E+03 -0.32869089030E+03  0.67504528353E+03  0.88319328410E+02 0.  0.
         23    2    4    4    0    0 -0.12673124779E+03 -0.22601912710E+03 -0.28702593503E+03  0.39780128047E+03  0.93362285646E+02 0.  0.
          2    1    3    3  502    0 -0.25454512957E+03  0.40227485957E+03  0.49142219542E+02  0.47857417750E+03  0.00000000000E+00 0. -1.
         -2    1    3    3    0  502 -0.12236943027E+03  0.11732395027E+03 -0.19420678711E+02  0.17063513570E+03  0.00000000000E+00 0.  1.
         13    1    5    5    0    0  0.22301134506E+03 -0.15616351435E+03 -0.10993590170E+03  0.29361029567E+03  0.00000000000E+00 0. -1.
        -13    1    5    5    0    0  0.28063446257E+03 -0.13741616839E+03 -0.21875498861E+03  0.38143498786E+03  0.00000000000E+00 0.  1.
          5    1    6    6  503    0 -0.31561526685E+02 -0.15040096985E+03 -0.15700349554E+03  0.21974705757E+03  0.47000000000E+01 0. -1.
         -5    1    6    6    0  503 -0.95169721107E+02 -0.75618157248E+02 -0.13002243949E+03  0.17805422290E+03  0.47000000000E+01 0.  1.
<mgrwt>
<rscale>  0 0.75284426E+03</rscale>
<asrwt>0</asrwt>
<pdfrwt beam="1">  1        1 0.17754240E+00 0.75284426E+03</pdfrwt>
<pdfrwt beam="2">  1       -1 0.87389277E-01 0.75284426E+03</pdfrwt>
<totfact> 0.15359225E+01</totfact>
</mgrwt>
</event>
<event>
12    1  0.3166324E-008  0.8695102E+03  0.7818608E-02  0.9464519E-01
          1   -1    0    0  501    0  0.00000000000E+00  0.00000000000E+00  0.16587138721E+04  0.16587138721E+04  0.00000000000E+00 0. -1.
         -1   -1    0    0    0  501 -0.00000000000E+00 -0.00000000000E+00 -0.50346181902E+03  0.50346181902E+03  0.00000000000E+00 0.  1.
         23    2    1    2    0    0  0.38096286231E+03 -0.69819198807E+03  0.71292134735E+03  0.10719985495E+04  0.91210130565E+02 0.  0.
    5000000    2    1    2    0    0 -0.38096286231E+03  0.69819198807E+03  0.44233070571E+03  0.10901771416E+04  0.60018746425E+03 0.  0.
         23    2    4    4    0    0 -0.38276342596E+03  0.21103796162E+03  0.35697087980E+02  0.44908645713E+03  0.96744521229E+02 0.  0.
         23    2    4    4    0    0  0.18005636580E+01  0.48715402645E+03  0.40663361773E+03  0.64109068449E+03  0.91236391626E+02 0.  0.
          4    1    3    3  502    0  0.13427272686E+03 -0.29509105139E+03  0.34181327052E+03  0.47110954744E+03  0.00000000000E+00 0. -1.
         -4    1    3    3    0  502  0.24669013545E+03 -0.40310093668E+03  0.37110807683E+03  0.60088900204E+03  0.00000000000E+00 0.  1.
         13    1    5    5    0    0 -0.14881241710E+03  0.13659699339E+03  0.10195302011E+02  0.20225681267E+03  0.00000000000E+00 0.  1.
        -13    1    5    5    0    0 -0.23395100886E+03  0.74440968228E+02  0.25501785969E+02  0.24682964446E+03  0.00000000000E+00 0. -1.
          5    1    6    6  503    0 -0.40285864842E+02  0.30593718362E+03  0.27233727896E+03  0.41159469718E+03  0.47000000000E+01 0. -1.
         -5    1    6    6    0  503  0.42086428500E+02  0.18121684282E+03  0.13429633876E+03  0.22949598731E+03  0.47000000000E+01 0.  1.
<mgrwt>
<rscale>  0 0.86951022E+03</rscale>
<asrwt>0</asrwt>
<pdfrwt beam="1">  1        1 0.25518675E+00 0.86951022E+03</pdfrwt>
<pdfrwt beam="2">  1       -1 0.77455665E-01 0.86951022E+03</pdfrwt>
<totfact> 0.86980828E+00</totfact>
</mgrwt>
</event>
<event>
12    1  0.3166324E-008  0.5383166E+03  0.7818608E-02  0.1004235E+00
          2   -1    0    0  501    0  0.00000000000E+00  0.00000000000E+00  0.13071683900E+04  0.13071683900E+04  0.00000000000E+00 0. -1.
         -2   -1    0    0    0  501 -0.00000000000E+00 -0.00000000000E+00 -0.32852932575E+03  0.32852932575E+03  0.00000000000E+00 0.  1.
         23    2    1    2    0    0  0.13849415960E+03  0.40459249600E+03  0.36186925978E+02  0.43936139420E+03  0.94091556678E+02 0.  0.
    5000000    2    1    2    0    0 -0.13849415960E+03 -0.40459249600E+03  0.94245213826E+03  0.11963363215E+04  0.60010735811E+03 0.  0.
         23    2    4    4    0    0 -0.40787479099E+01 -0.46285425997E+03  0.37347148735E+03  0.60175785034E+03  0.91547017556E+02 0.  0.
         23    2    4    4    0    0 -0.13441541169E+03  0.58261763972E+02  0.56898065091E+03  0.59457847119E+03  0.91228511219E+02 0.  0.
          3    1    3    3  502    0  0.94507587743E+02  0.15004407660E+03  0.36478372498E+02  0.18104027376E+03  0.00000000000E+00 0. -1.
         -3    1    3    3    0  502  0.43986571854E+02  0.25454841940E+03 -0.29144652029E+00  0.25832112043E+03  0.00000000000E+00 0.  1.
         13    1    5    5    0    0  0.33855727581E+02 -0.33728091195E+03  0.24587479503E+03  0.41875892669E+03  0.00000000000E+00 0.  1.
        -13    1    5    5    0    0 -0.37934475491E+02 -0.12557334802E+03  0.12759669232E+03  0.18299892365E+03  0.00000000000E+00 0. -1.
          5    1    6    6  503    0 -0.14105541610E+03  0.33901249199E+02  0.50990681951E+03  0.53016316328E+03  0.47000000000E+01 0. -1.
         -5    1    6    6    0  503  0.66400044112E+01  0.24360514773E+02  0.59073831394E+02  0.64415307918E+02  0.47000000000E+01 0.  1.
<mgrwt>
<rscale>  0 0.53831661E+03</rscale>
<asrwt>0</asrwt>
<pdfrwt beam="1">  1        2 0.20110283E+00 0.53831661E+03</pdfrwt>
<pdfrwt beam="2">  1       -2 0.50542974E-01 0.53831661E+03</pdfrwt>
<totfact> 0.63176789E+01</totfact>
</mgrwt>
</event>
<event>
12    1  0.3166324E-008  0.8947863E+03  0.7818608E-02  0.9432122E-01
         -2   -1    0    0    0  501 -0.00000000000E+00  0.00000000000E+00  0.55582652106E+03  0.55582652106E+03  0.00000000000E+00 0. -1.
          2   -1    0    0  501    0  0.00000000000E+00 -0.00000000000E+00 -0.19288237838E+04  0.19288237838E+04  0.00000000000E+00 0.  1.
         23    2    1    2    0    0  0.85012647124E+03 -0.23970563610E+03 -0.10372901608E+04  0.13653598248E+04  0.89792896841E+02 0.  0.
    5000000    2    1    2    0    0 -0.85012647124E+03  0.23970563610E+03 -0.33570710188E+03  0.11192904800E+04  0.59994842392E+03 0.  0.
         23    2    4    4    0    0 -0.59629305618E+03  0.17940016504E+03  0.65613097851E+02  0.63238835760E+03  0.88657363760E+02 0.  0.
         23    2    4    4    0    0 -0.25383341506E+03  0.60305471065E+02 -0.40132019974E+03  0.48690212244E+03  0.89149434561E+02 0.  0.
          3    1    3    3  502    0  0.30252139064E+03 -0.41421422832E+02 -0.36576006661E+03  0.47646128110E+03  0.00000000000E+00 0. -1.
         -3    1    3    3    0  502  0.54760508060E+03 -0.19828421327E+03 -0.67153009423E+03  0.88889854370E+03  0.00000000000E+00 0.  1.
         11    1    5    5    0    0 -0.23560412569E+03  0.31638844338E+02  0.45889622113E+02  0.24210778164E+03  0.00000000000E+00 0. -1.
        -11    1    5    5    0    0 -0.36068893049E+03  0.14776132070E+03  0.19723475738E+02  0.39028057596E+03  0.00000000000E+00 0.  1.
          5    1    6    6  503    0 -0.12390384025E+03 -0.13667427688E+02 -0.20690229868E+03  0.24159803685E+03  0.47000000000E+01 0. -1.
         -5    1    6    6    0  503 -0.12992957481E+03  0.73972898753E+02 -0.19441790105E+03  0.24530408560E+03  0.47000000000E+01 0.  1.
<mgrwt>
<rscale>  0 0.89478627E+03</rscale>
<asrwt>0</asrwt>
<pdfrwt beam="1">  1        2 0.29674212E+00 0.89478627E+03</pdfrwt>
<pdfrwt beam="2">  1       -2 0.85511771E-01 0.89478627E+03</pdfrwt>
<totfact> 0.88145565E+00</totfact>
</mgrwt>
</event>
<event>
12    1  0.3166324E-008  0.7090121E+03  0.7818608E-02  0.9701943E-01
          1   -1    0    0  501    0  0.00000000000E+00  0.00000000000E+00  0.34403530066E+04  0.34403530066E+04  0.00000000000E+00 0. -1.
         -1   -1    0    0    0  501 -0.00000000000E+00 -0.00000000000E+00 -0.18881206702E+03  0.18881206702E+03  0.00000000000E+00 0.  1.
         23    2    1    2    0    0 -0.28911530135E+03 -0.59325116570E+03  0.18648868574E+04  0.19803953722E+04  0.92888300367E+02 0.  0.
    5000000    2    1    2    0    0  0.28911530135E+03  0.59325116570E+03  0.13866540823E+04  0.16487697015E+04  0.60008114582E+03 0.  0.
         23    2    4    4    0    0  0.24434578829E+03  0.12154749093E+03  0.15840355348E+03  0.32831549948E+03  0.90668211832E+02 0.  0.
         23    2    4    4    0    0  0.44769513064E+02  0.47170367476E+03  0.12282505288E+04  0.13204542020E+04  0.10242691066E+03 0.  0.
          1    1    3    3  502    0 -0.95860914275E+02 -0.18227029977E+03  0.46179590942E+03  0.50563548038E+03  0.00000000000E+00 0.  1.
         -1    1    3    3    0  502 -0.19325438708E+03 -0.41098086592E+03  0.14030909480E+04  0.14747598918E+04  0.00000000000E+00 0. -1.
         13    1    5    5    0    0  0.18058105400E+03  0.78491166432E+02  0.65109664094E+02  0.20738767714E+03  0.00000000000E+00 0. -1.
        -13    1    5    5    0    0  0.63764734285E+02  0.43056324501E+02  0.93293889385E+02  0.12092782233E+03  0.00000000000E+00 0.  1.
          5    1    6    6  503    0  0.15280332476E+02  0.44089654910E+03  0.11378704252E+04  0.12204074935E+04  0.47000000000E+01 0. -1.
         -5    1    6    6    0  503  0.29489180589E+02  0.30807125664E+02  0.90380103578E+02  0.10004670852E+03  0.47000000000E+01 0.  1.
<mgrwt>
<rscale>  0 0.70901213E+03</rscale>
<asrwt>0</asrwt>
<pdfrwt beam="1">  1        1 0.52928503E+00 0.70901213E+03</pdfrwt>
<pdfrwt beam="2">  1       -1 0.29048013E-01 0.70901213E+03</pdfrwt>
<totfact> 0.32739768E+00</totfact>
</mgrwt>
</event>
<event>
12    1  0.3166324E-008  0.1075048E+04  0.7818608E-02  0.9229859E-01
         -1   -1    0    0    0  501 -0.00000000000E+00  0.00000000000E+00  0.13981513373E+04  0.13981513373E+04  0.00000000000E+00 0.  1.
          1   -1    0    0  501    0  0.00000000000E+00 -0.00000000000E+00 -0.87740043065E+03  0.87740043065E+03  0.00000000000E+00 0. -1.
         23    2    1    2    0    0  0.99461593257E+03  0.14151386945E+03  0.37601178219E+02  0.10095822134E+04  0.92495234344E+02 0.  0.
    5000000    2    1    2    0    0 -0.99461593257E+03 -0.14151386945E+03  0.48314972842E+03  0.12659695546E+04  0.59996518603E+03 0.  0.
         23    2    4    4    0    0 -0.63404567902E+03  0.17250102158E+03  0.39645219830E+03  0.77272900788E+03  0.90361764843E+02 0.  0.
         23    2    4    4    0    0 -0.36057025355E+03 -0.31401489103E+03  0.86697530121E+02  0.49324054669E+03  0.84578458447E+02 0.  0.
          1    1    3    3  502    0  0.90217806898E+03  0.12714667258E+03  0.68812425221E+01  0.91111958380E+03  0.00000000000E+00 0. -1.
         -1    1    3    3    0  502  0.92437863595E+02  0.14367196870E+02  0.30719935697E+02  0.98462629566E+02  0.00000000000E+00 0.  1.
         11    1    5    5    0    0 -0.33841812477E+01  0.10149602186E+02  0.78269329294E+00  0.10727521431E+02  0.00000000000E+00 0. -1.
        -11    1    5    5    0    0 -0.63066149778E+03  0.16235141940E+03  0.39566950501E+03  0.76200148645E+03  0.00000000000E+00 0.  1.
          5    1    6    6  503    0 -0.35763050724E+03 -0.29468707355E+03  0.91950665615E+02  0.47245853356E+03  0.47000000000E+01 0. -1.
         -5    1    6    6    0  503 -0.29397463049E+01 -0.19327817485E+02 -0.52531354945E+01  0.20782013127E+02  0.47000000000E+01 0.  1.
<mgrwt>
<rscale>  0 0.10750476E+04</rscale>
<asrwt>0</asrwt>
<pdfrwt beam="1">  1        1 0.13498468E+00 0.10750476E+04</pdfrwt>
<pdfrwt beam="2">  1       -1 0.21510021E+00 0.10750476E+04</pdfrwt>
<totfact> 0.22459275E+00</totfact>
</mgrwt>
</event>
<event>
12    1  0.3166324E-008  0.1868285E+04  0.7818608E-02  0.8670806E-01
          2   -1    0    0  501    0  0.00000000000E+00  0.00000000000E+00  0.31368780355E+04  0.31368780355E+04  0.00000000000E+00 0. -1.
         -2   -1    0    0    0  501 -0.00000000000E+00 -0.00000000000E+00 -0.12336203383E+04  0.12336203383E+04  0.00000000000E+00 0.  1.
         23    2    1    2    0    0 -0.16980172698E+04  0.75889454540E+03  0.39908281530E+03  0.19043677822E+04  0.90365793836E+02 0.  0.
    5000000    2    1    2    0    0  0.16980172698E+04 -0.75889454540E+03  0.15041748819E+04  0.24661305916E+04  0.60006203012E+03 0.  0.
         23    2    4    4    0    0  0.69676998319E+03 -0.41813959385E+03  0.99837381878E+03  0.12905381579E+04  0.91702374777E+02 0.  0.
         23    2    4    4    0    0  0.10012472866E+04 -0.34075495155E+03  0.50580106309E+03  0.11755924337E+04  0.87021771967E+02 0.  0.
          1    1    3    3  502    0 -0.11094377896E+04  0.54228410823E+03  0.25947888827E+03  0.12618452981E+04  0.00000000000E+00 0. -1.
         -1    1    3    3    0  502 -0.58857948027E+03  0.21661043716E+03  0.13960392703E+03  0.64252248406E+03  0.00000000000E+00 0.  1.
         11    1    5    5    0    0  0.30030767683E+03 -0.22812208841E+03  0.42939896516E+03  0.57149615857E+03  0.00000000000E+00 0. -1.
        -11    1    5    5    0    0  0.39646230637E+03 -0.19001750544E+03  0.56897485362E+03  0.71904199932E+03  0.00000000000E+00 0.  1.
          5    1    6    6  503    0  0.39638000162E+03 -0.12915382001E+03  0.24615139896E+03  0.48415949451E+03  0.47000000000E+01 0. -1.
         -5    1    6    6    0  503  0.60486728502E+03 -0.21160113154E+03  0.25964966413E+03  0.69143293922E+03  0.47000000000E+01 0.  1.
<mgrwt>
<rscale>  0 0.18682850E+04</rscale>
<asrwt>0</asrwt>
<pdfrwt beam="1">  1        2 0.48259662E+00 0.18682850E+04</pdfrwt>
<pdfrwt beam="2">  1       -2 0.18978775E+00 0.18682850E+04</pdfrwt>
<totfact> 0.20089760E-01</totfact>
</mgrwt>
</event>
<event>
12    1  0.3166324E-008  0.5544077E+03  0.7818608E-02  0.1000479E+00
          2   -1    0    0  501    0  0.00000000000E+00  0.00000000000E+00  0.61533351625E+03  0.61533351625E+03  0.00000000000E+00 0. -1.
         -2   -1    0    0    0  501 -0.00000000000E+00 -0.00000000000E+00 -0.68123023026E+03  0.68123023026E+03  0.00000000000E+00 0.  1.
         23    2    1    2    0    0 -0.37262063989E+03  0.11177551835E+03 -0.34604322285E+03  0.52856560862E+03  0.91081187751E+02 0.  0.
    5000000    2    1    2    0    0  0.37262063989E+03 -0.11177551835E+03  0.28014650884E+03  0.76799813789E+03  0.59999930467E+03 0.  0.
         23    2    4    4    0    0 -0.10597869512E+03  0.11249625391E+03  0.70049348903E+02  0.19263921444E+03  0.91192459641E+02 0.  0.
         23    2    4    4    0    0  0.47859933501E+03 -0.22427177227E+03  0.21009715994E+03  0.57535892344E+03  0.86844244846E+02 0.  0.
          1    1    3    3  502    0 -0.13998088712E+03  0.79079222547E+02 -0.17715788917E+03  0.23923438276E+03  0.00000000000E+00 0. -1.
         -1    1    3    3    0  502 -0.23263975277E+03  0.32696295807E+02 -0.16888533367E+03  0.28933122586E+03  0.00000000000E+00 0.  1.
         13    1    5    5    0    0 -0.61519879557E+02  0.34362292959E+01  0.21659005580E+02  0.65311681766E+02  0.00000000000E+00 0.  1.
        -13    1    5    5    0    0 -0.44458815567E+02  0.10906002461E+03  0.48390343323E+02  0.12732753268E+03  0.00000000000E+00 0. -1.
          5    1    6    6  503    0  0.43770263035E+03 -0.18005625706E+03  0.20116819513E+03  0.51429036648E+03  0.47000000000E+01 0. -1.
         -5    1    6    6    0  503  0.40896704662E+02 -0.44215515206E+02  0.89289648078E+01  0.61068556964E+02  0.47000000000E+01 0.  1.
<mgrwt>
<rscale>  0 0.55440774E+03</rscale>
<asrwt>0</asrwt>
<pdfrwt beam="1">  1        2 0.94666696E-01 0.55440774E+03</pdfrwt>
<pdfrwt beam="2">  1       -2 0.10480465E+00 0.55440774E+03</pdfrwt>
<totfact> 0.36605898E+01</totfact>
</mgrwt>
</event>
<event>
12    1  0.3166324E-008  0.7531073E+03  0.7818608E-02  0.9630488E-01
          1   -1    0    0  501    0  0.00000000000E+00  0.00000000000E+00  0.50527946333E+03  0.50527946333E+03  0.00000000000E+00 0. -1.
         -1   -1    0    0    0  501 -0.00000000000E+00 -0.00000000000E+00 -0.14190835829E+04  0.14190835829E+04  0.00000000000E+00 0.  1.
         23    2    1    2    0    0  0.67328868827E+03 -0.26554624217E+03 -0.56191351718E+03  0.92049879352E+03  0.87970242661E+02 0.  0.
    5000000    2    1    2    0    0 -0.67328868827E+03  0.26554624217E+03 -0.35189060240E+03  0.10038642527E+04  0.60006997706E+03 0.  0.
         23    2    4    4    0    0 -0.24857832105E+03  0.22463883144E+03  0.11384488745E+03  0.36582496167E+03  0.92808716696E+02 0.  0.
         23    2    4    4    0    0 -0.42471036722E+03  0.40907410726E+02 -0.46573548985E+03  0.63803929106E+03  0.90179144774E+02 0.  0.
          4    1    3    3  502    0  0.60128576168E+03 -0.25009982286E+03 -0.53242750222E+03  0.84117390218E+03  0.00000000000E+00 0. -1.
         -4    1    3    3    0  502  0.72002926590E+02 -0.15446419303E+02 -0.29486014965E+02  0.79324891335E+02  0.00000000000E+00 0.  1.
         13    1    5    5    0    0 -0.32785976675E+02  0.78341229931E+02  0.45318036685E+02  0.96260028167E+02  0.00000000000E+00 0.  1.
        -13    1    5    5    0    0 -0.21579234438E+03  0.14629760151E+03  0.68526850764E+02  0.26956493350E+03  0.00000000000E+00 0. -1.
          5    1    6    6  503    0 -0.13622230249E+03  0.54672139716E+02 -0.14439533284E+03  0.20595548233E+03  0.47000000000E+01 0. -1.
         -5    1    6    6    0  503 -0.28848806473E+03 -0.13764728991E+02 -0.32134015701E+03  0.43208380873E+03  0.47000000000E+01 0.  1.
<mgrwt>
<rscale>  0 0.75310731E+03</rscale>
<asrwt>0</asrwt>
<pdfrwt beam="1">  1        1 0.77735303E-01 0.75310731E+03</pdfrwt>
<pdfrwt beam="2">  1       -1 0.21832055E+00 0.75310731E+03</pdfrwt>
<totfact> 0.51138078E+00</totfact>
</mgrwt>
</event>
<event>
12    1  0.3166324E-008  0.5002115E+03  0.7818608E-02  0.1013724E+00
          2   -1    0    0  501    0  0.00000000000E+00  0.00000000000E+00  0.36604998982E+03  0.36604998982E+03  0.00000000000E+00 0. -1.
         -2   -1    0    0    0  501 -0.00000000000E+00 -0.00000000000E+00 -0.79529378353E+03  0.79529378353E+03  0.00000000000E+00 0.  1.
         23    2    1    2    0    0  0.14126452961E+03 -0.33530593554E+03 -0.18651560074E+03  0.41870585443E+03  0.90226301480E+02 0.  0.
    5000000    2    1    2    0    0 -0.14126452961E+03  0.33530593554E+03 -0.24272819298E+03  0.74263791892E+03  0.60017361256E+03 0.  0.
         23    2    4    4    0    0 -0.29901672746E+03  0.62741483170E+02 -0.26343992137E+03  0.41351384134E+03  0.90805329107E+02 0.  0.
         23    2    4    4    0    0  0.15775219785E+03  0.27256445237E+03  0.20711728387E+02  0.32912407758E+03  0.93362444957E+02 0.  0.
          2    1    3    3  502    0  0.11419014745E+03 -0.26545888261E+03 -0.18624411410E+03  0.34379452900E+03  0.00000000000E+00 0. -1.
         -2    1    3    3    0  502  0.27074382166E+02 -0.69847052930E+02 -0.27148663247E+00  0.74911325430E+02  0.00000000000E+00 0.  1.
         13    1    5    5    0    0 -0.11537879793E+03  0.44903386981E+02 -0.55969502540E+02  0.13587187490E+03  0.00000000000E+00 0. -1.
        -13    1    5    5    0    0 -0.18363792953E+03  0.17838096190E+02 -0.20747041883E+03  0.27764196644E+03  0.00000000000E+00 0.  1.
          5    1    6    6  503    0  0.13444579568E+03  0.27310687012E+03  0.15878320548E+02  0.30485610629E+03  0.47000000000E+01 0. -1.
         -5    1    6    6    0  503  0.23306402168E+02 -0.54241774651E+00  0.48334078392E+01  0.24267971287E+02  0.47000000000E+01 0.  1.
<mgrwt>
<rscale>  0 0.50021151E+03</rscale>
<asrwt>0</asrwt>
<pdfrwt beam="1">  1        2 0.56315384E-01 0.50021151E+03</pdfrwt>
<pdfrwt beam="2">  1       -2 0.12235289E+00 0.50021151E+03</pdfrwt>
<totfact> 0.45815092E+01</totfact>
</mgrwt>
</event>
<event>
12    1  0.3166324E-008  0.2833324E+04  0.7818608E-02  0.8292997E-01
         -2   -1    0    0    0  501 -0.00000000000E+00  0.00000000000E+00  0.22646259562E+04  0.22646259562E+04  0.00000000000E+00 0.  1.
          2   -1    0    0  501    0  0.00000000000E+00 -0.00000000000E+00 -0.37017667947E+04  0.37017667947E+04  0.00000000000E+00 0. -1.
         23    2    1    2    0    0 -0.20589798607E+04 -0.19161801791E+04 -0.15765143413E+03  0.28186800245E+04  0.94649672082E+02 0.  0.
    5000000    2    1    2    0    0  0.20589798607E+04  0.19161801791E+04 -0.12794894044E+04  0.31477127264E+04  0.59988142709E+03 0.  0.
         23    2    4    4    0    0  0.14547870938E+04  0.10408345083E+04 -0.96596967677E+03  0.20349450483E+04  0.90343628521E+02 0.  0.
         23    2    4    4    0    0  0.60419276699E+03  0.87534567072E+03 -0.31351972762E+03  0.11127676781E+04  0.93157624283E+02 0.  0.
          3    1    3    3  502    0 -0.10993755660E+04 -0.10132674151E+04 -0.37045666098E+02  0.14955633958E+04  0.00000000000E+00 0. -1.
         -3    1    3    3    0  502 -0.95960429478E+03 -0.90291276401E+03 -0.12060576803E+03  0.13231166287E+04  0.00000000000E+00 0.  1.
         13    1    5    5    0    0  0.76795452516E+03  0.55862992779E+03 -0.46221405731E+03  0.10561549998E+04  0.00000000000E+00 0. -1.
        -13    1    5    5    0    0  0.68683256860E+03  0.48220458056E+03 -0.50375561945E+03  0.97879004844E+03  0.00000000000E+00 0.  1.
          5    1    6    6  503    0  0.49409001949E+03  0.75062430643E+03 -0.29223336571E+03  0.94497842663E+03  0.47000000000E+01 0.  1.
         -5    1    6    6    0  503  0.11010274749E+03  0.12472136429E+03 -0.21286361917E+02  0.16778925150E+03  0.47000000000E+01 0. -1.
<mgrwt>
<rscale>  0 0.28333241E+04</rscale>
<asrwt>0</asrwt>
<pdfrwt beam="1">  1        2 0.56950258E+00 0.28333241E+04</pdfrwt>
<pdfrwt beam="2">  1       -2 0.34840400E+00 0.28333241E+04</pdfrwt>
<totfact> 0.75009374E-03</totfact>
</mgrwt>
</event>
<event>
12    1  0.3166324E-008  0.1481049E+04  0.7818608E-02  0.8897154E-01
         -2   -1    0    0    0  501 -0.00000000000E+00  0.00000000000E+00  0.21938681782E+04  0.21938681782E+04  0.00000000000E+00 0.  1.
          2   -1    0    0  501    0  0.00000000000E+00 -0.00000000000E+00 -0.10078791392E+04  0.10078791392E+04  0.00000000000E+00 0. -1.
         23    2    1    2    0    0  0.61395790943E+03 -0.12853015753E+04  0.60645000521E+03  0.15508135749E+04  0.91086119209E+02 0.  0.
    5000000    2    1    2    0    0 -0.61395790943E+03  0.12853015753E+04  0.57953903379E+03  0.16509337425E+04  0.60064321885E+03 0.  0.
         23    2    4    4    0    0 -0.38885831427E+02  0.74022705266E+03  0.24370626045E+03  0.78548100440E+03  0.90219008575E+02 0.  0.
         23    2    4    4    0    0 -0.57507207800E+03  0.54507452266E+03  0.33583277333E+03  0.86545273810E+03  0.91709650998E+02 0.  0.
          4    1    3    3  502    0  0.26363837254E+03 -0.48468128903E+03  0.19836472716E+03  0.58631877711E+03  0.00000000000E+00 0. -1.
         -4    1    3    3    0  502  0.35031953689E+03 -0.80062028630E+03  0.40808527805E+03  0.96449479776E+03  0.00000000000E+00 0.  1.
         11    1    5    5    0    0 -0.33839251444E+02  0.16586731150E+03  0.26218482020E+02  0.17130227308E+03  0.00000000000E+00 0.  1.
        -11    1    5    5    0    0 -0.50465799824E+01  0.57435974116E+03  0.21748777844E+03  0.61417873132E+03  0.00000000000E+00 0. -1.
          5    1    6    6  503    0 -0.55553200576E+03  0.52487784288E+03  0.34028033478E+03  0.83661541679E+03  0.47000000000E+01 0. -1.
         -5    1    6    6    0  503 -0.19540072242E+02  0.20196679779E+02 -0.44475614511E+01  0.28837321307E+02  0.47000000000E+01 0.  1.
<mgrwt>
<rscale>  0 0.14810489E+04</rscale>
<asrwt>0</asrwt>
<pdfrwt beam="1">  1        2 0.15505833E+00 0.14810489E+04</pdfrwt>
<pdfrwt beam="2">  1       -2 0.33751818E+00 0.14810489E+04</pdfrwt>
<totfact> 0.44105084E-01</totfact>
</mgrwt>
</event>
<event>
12    1  0.3166324E-008  0.1064514E+04  0.7818608E-02  0.9240487E-01
          2   -1    0    0  501    0  0.00000000000E+00  0.00000000000E+00  0.11214357336E+04  0.11214357336E+04  0.00000000000E+00 0.  1.
         -2   -1    0    0    0  501 -0.00000000000E+00 -0.00000000000E+00 -0.10341869694E+04  0.10341869694E+04  0.00000000000E+00 0. -1.
         23    2    1    2    0    0  0.60453225035E+03 -0.77190741334E+03  0.18522958375E+03  0.10018812195E+04  0.90308819468E+02 0.  0.
    5000000    2    1    2    0    0 -0.60453225035E+03  0.77190741334E+03 -0.97980819561E+02  0.11537414835E+04  0.60018236676E+03 0.  0.
         23    2    4    4    0    0 -0.15988001645E+03  0.65269419815E+03 -0.21016192723E+02  0.67813795800E+03  0.88645776915E+02 0.  0.
         23    2    4    4    0    0 -0.44465223390E+03  0.11921321519E+03 -0.76964626838E+02  0.47560352555E+03  0.91366076497E+02 0.  0.
          3    1    3    3  502    0  0.44959542606E+03 -0.51408355351E+03  0.10918138294E+03  0.69162021479E+03  0.00000000000E+00 0. -1.
         -3    1    3    3    0  502  0.15493682429E+03 -0.25782385983E+03  0.76048200810E+02  0.31026100475E+03  0.00000000000E+00 0.  1.
         11    1    5    5    0    0 -0.10932445165E+03  0.28742504072E+03 -0.32361407242E+02  0.30921230642E+03  0.00000000000E+00 0. -1.
        -11    1    5    5    0    0 -0.50555564792E+02  0.36526915743E+03  0.11345214519E+02  0.36892565158E+03  0.00000000000E+00 0.  1.
          5    1    6    6  503    0 -0.11808775042E+03 -0.81543463793E+01 -0.27064984507E+02  0.12151466393E+03  0.47000000000E+01 0. -1.
         -5    1    6    6    0  503 -0.32656448349E+03  0.12736756157E+03 -0.49899642331E+02  0.35408886162E+03  0.47000000000E+01 0.  1.
<mgrwt>
<rscale>  0 0.10645137E+04</rscale>
<asrwt>0</asrwt>
<pdfrwt beam="1">  1        2 0.17252857E+00 0.10645137E+04</pdfrwt>
<pdfrwt beam="2">  1       -2 0.15910569E+00 0.10645137E+04</pdfrwt>
<totfact> 0.53232896E+00</totfact>
</mgrwt>
</event>
<event>
12    1  0.3166324E-008  0.1029096E+04  0.7818608E-02  0.9277196E-01
         -1   -1    0    0    0  501 -0.00000000000E+00  0.00000000000E+00  0.10225649053E+04  0.10225649053E+04  0.00000000000E+00 0.  1.
          1   -1    0    0  501    0  0.00000000000E+00 -0.00000000000E+00 -0.24485349528E+04  0.24485349528E+04  0.00000000000E+00 0. -1.
         23    2    1    2    0    0  0.72875760261E+03 -0.68308798697E+03  0.57454913652E+03  0.11559933081E+04  0.92287468015E+02 0.  0.
    5000000    2    1    2    0    0 -0.72875760261E+03  0.68308798697E+03 -0.20005191840E+04  0.23151065500E+04  0.59995374085E+03 0.  0.
         23    2    4    4    0    0 -0.35657972655E+03  0.54996341608E+03 -0.74975343395E+03  0.10000827652E+04  0.91795778978E+02 0.  0.
         23    2    4    4    0    0 -0.37217787607E+03  0.13312457089E+03 -0.12507657500E+04  0.13150237848E+04  0.92919699217E+02 0.  0.
          1    1    3    3  502    0  0.62426813110E+03 -0.62018417968E+03  0.48579306937E+03  0.10051537308E+04  0.00000000000E+00 0.  1.
         -1    1    3    3    0  502  0.10448947152E+03 -0.62903807291E+02  0.88756067149E+02  0.15083957732E+03  0.00000000000E+00 0. -1.
         13    1    5    5    0    0 -0.18517264186E+03  0.30169032780E+03 -0.33635926629E+03  0.48830678594E+03  0.00000000000E+00 0. -1.
        -13    1    5    5    0    0 -0.17140708468E+03  0.24827308828E+03 -0.41339416766E+03  0.51177597922E+03  0.00000000000E+00 0.  1.
          5    1    6    6  503    0 -0.16800263084E+03  0.26333542570E+02 -0.42740393596E+03  0.46001581919E+03  0.47000000000E+01 0. -1.
         -5    1    6    6    0  503 -0.20417524523E+03  0.10679102832E+03 -0.82336181405E+03  0.85500796565E+03  0.47000000000E+01 0.  1.
<mgrwt>
<rscale>  0 0.10290963E+04</rscale>
<asrwt>0</asrwt>
<pdfrwt beam="1">  1        1 0.37669768E+00 0.10290963E+04</pdfrwt>
<pdfrwt beam="2">  1       -1 0.15731768E+00 0.10290963E+04</pdfrwt>
<totfact> 0.45619612E-01</totfact>
</mgrwt>
</event>
<event>
12    1  0.3166324E-008  0.1096949E+04  0.7818608E-02  0.9208171E-01
          1   -1    0    0  501    0  0.00000000000E+00  0.00000000000E+00  0.92087694265E+03  0.92087694265E+03  0.00000000000E+00 0. -1.
         -1   -1    0    0    0  501 -0.00000000000E+00 -0.00000000000E+00 -0.14267942255E+04  0.14267942255E+04  0.00000000000E+00 0.  1.
         23    2    1    2    0    0  0.10390550303E+04 -0.21724404343E+02 -0.47761331063E+03  0.11472918738E+04  0.89760031703E+02 0.  0.
    5000000    2    1    2    0    0 -0.10390550303E+04  0.21724404343E+02 -0.28303972219E+02  0.12003792944E+04  0.60000169148E+03 0.  0.
         23    2    4    4    0    0 -0.60696077442E+01 -0.73028194844E+02  0.97152720917E+02  0.15144418191E+03  0.90148386972E+02 0.  0.
         23    2    4    4    0    0 -0.10329854226E+04  0.94752599187E+02 -0.12545669314E+03  0.10489351125E+04  0.92133327401E+02 0.  0.
          2    1    3    3  502    0  0.59247681935E+03 -0.37864397769E+02 -0.31237424043E+03  0.67085032621E+03  0.00000000000E+00 0. -1.
         -2    1    3    3    0  502  0.44657821098E+03  0.16139993426E+02 -0.16523907020E+03  0.47644154755E+03  0.00000000000E+00 0.  1.
         11    1    5    5    0    0  0.40023658077E+02 -0.45591386999E+02  0.37969762801E+02  0.71569341631E+02  0.00000000000E+00 0.  1.
        -11    1    5    5    0    0 -0.46093265821E+02 -0.27436807845E+02  0.59182958116E+02  0.79874840283E+02  0.00000000000E+00 0. -1.
          5    1    6    6  503    0 -0.58034999536E+03  0.23884303609E+02 -0.34973869939E+02  0.58191222590E+03  0.47000000000E+01 0. -1.
         -5    1    6    6    0  503 -0.45263542723E+03  0.70868295577E+02 -0.90482823197E+02  0.46702288658E+03  0.47000000000E+01 0.  1.
<mgrwt>
<rscale>  0 0.10969487E+04</rscale>
<asrwt>0</asrwt>
<pdfrwt beam="1">  1        1 0.14167338E+00 0.10969487E+04</pdfrwt>
<pdfrwt beam="2">  1       -1 0.21950680E+00 0.10969487E+04</pdfrwt>
<totfact> 0.19272014E+00</totfact>
</mgrwt>
</event>
<event>
12    1  0.3166324E-008  0.6891506E+03  0.7818608E-02  0.9735968E-01
          2   -1    0    0  501    0  0.00000000000E+00  0.00000000000E+00  0.92507469343E+03  0.92507469343E+03  0.00000000000E+00 0. -1.
         -2   -1    0    0    0  501 -0.00000000000E+00 -0.00000000000E+00 -0.68408911770E+03  0.68408911770E+03  0.00000000000E+00 0.  1.
         23    2    1    2    0    0  0.37592059337E+02 -0.66639617483E+03  0.22702902415E+03  0.71156202384E+03  0.96339561994E+02 0.  0.
    5000000    2    1    2    0    0 -0.37592059337E+02  0.66639617483E+03  0.13956551584E+02  0.89760178730E+03  0.59999763205E+03 0.  0.
         23    2    4    4    0    0  0.33429414315E+02  0.13740206213E+03  0.25497719921E+03  0.30573229649E+03  0.91989198176E+02 0.  0.
         23    2    4    4    0    0 -0.71021473652E+02  0.52899411271E+03 -0.24102064763E+03  0.59186949081E+03  0.85672169140E+02 0.  0.
          3    1    3    3  502    0  0.42490474113E+02 -0.10979942456E+03  0.37561007049E+02  0.12358067517E+03  0.00000000000E+00 0. -1.
         -3    1    3    3    0  502 -0.48984147762E+01 -0.55659675027E+03  0.18946801710E+03  0.58798134867E+03  0.00000000000E+00 0.  1.
         13    1    5    5    0    0 -0.26283830855E+02  0.74295350923E+02  0.15021206470E+03  0.16962990100E+03  0.00000000000E+00 0.  1.
        -13    1    5    5    0    0  0.59713245170E+02  0.63106711204E+02  0.10476513451E+03  0.13610239549E+03  0.00000000000E+00 0. -1.
          5    1    6    6  503    0  0.13588474486E+02  0.62481529573E+02 -0.47306646527E+02  0.79678083450E+02  0.47000000000E+01 0. -1.
         -5    1    6    6    0  503 -0.84609948138E+02  0.46651258313E+03 -0.19371400110E+03  0.51219140735E+03  0.47000000000E+01 0.  1.
<mgrwt>
<rscale>  0 0.68915061E+03</rscale>
<asrwt>0</asrwt>
<pdfrwt beam="1">  1        2 0.14231918E+00 0.68915061E+03</pdfrwt>
<pdfrwt beam="2">  1       -2 0.10524448E+00 0.68915061E+03</pdfrwt>
<totfact> 0.21074838E+01</totfact>
</mgrwt>
</event>
<event>
12    1  0.3166324E-008  0.4570871E+03  0.7818608E-02  0.1025629E+00
          1   -1    0    0  501    0  0.00000000000E+00  0.00000000000E+00  0.67124134490E+03  0.67124134490E+03  0.00000000000E+00 0. -1.
         -1   -1    0    0    0  501 -0.00000000000E+00 -0.00000000000E+00 -0.68198188781E+03  0.68198188781E+03  0.00000000000E+00 0.  1.
         23    2    1    2    0    0  0.18127079773E+03  0.34819479583E+03  0.36480926469E+03  0.54370988057E+03  0.91847246379E+02 0.  0.
    5000000    2    1    2    0    0 -0.18127079773E+03 -0.34819479583E+03 -0.37554980760E+03  0.80951335214E+03  0.60014622498E+03 0.  0.
         23    2    4    4    0    0 -0.25093912786E+03 -0.27773822086E+03  0.25608609062E+02  0.38643412454E+03  0.92555748250E+02 0.  0.
         23    2    4    4    0    0  0.69668330135E+02 -0.70456574969E+02 -0.40115841666E+03  0.42307922760E+03  0.90830349475E+02 0.  0.
          2    1    3    3  502    0  0.80372164183E+02  0.71090766506E+02  0.11425792739E+03  0.15674328001E+03  0.00000000000E+00 0. -1.
         -2    1    3    3    0  502  0.10089863354E+03  0.27710402933E+03  0.25055133730E+03  0.38696660055E+03  0.00000000000E+00 0.  1.
         13    1    5    5    0    0 -0.16542984317E+03 -0.21796182395E+03  0.52659461349E+02  0.27865284599E+03  0.00000000000E+00 0. -1.
        -13    1    5    5    0    0 -0.85509284697E+02 -0.59776396914E+02 -0.27050852287E+02  0.10778127855E+03  0.00000000000E+00 0.  1.
          5    1    6    6  503    0 -0.12121015213E+02 -0.47038474560E+02 -0.13053791497E+03  0.13936202619E+03  0.47000000000E+01 0. -1.
         -5    1    6    6    0  503  0.81789345348E+02 -0.23418100409E+02 -0.27062050170E+03  0.28371720141E+03  0.47000000000E+01 0.  1.
<mgrwt>
<rscale>  0 0.45708709E+03</rscale>
<asrwt>0</asrwt>
<pdfrwt beam="1">  1        1 0.10326790E+00 0.45708709E+03</pdfrwt>
<pdfrwt beam="2">  1       -1 0.10492029E+00 0.45708709E+03</pdfrwt>
<totfact> 0.26416660E+01</totfact>
</mgrwt>
</event>
<event>
12    1  0.3166324E-008  0.8615459E+03  0.7818608E-02  0.9474970E-01
          1   -1    0    0  501    0  0.00000000000E+00  0.00000000000E+00  0.78090340942E+03  0.78090340942E+03  0.00000000000E+00 0. -1.
         -1   -1    0    0    0  501 -0.00000000000E+00 -0.00000000000E+00 -0.96785595307E+03  0.96785595307E+03  0.00000000000E+00 0.  1.
         23    2    1    2    0    0  0.25548294226E+03 -0.71455189818E+03 -0.20926679239E+01  0.76369810999E+03  0.85874763263E+02 0.  0.
    5000000    2    1    2    0    0 -0.25548294226E+03  0.71455189818E+03 -0.18485987573E+03  0.98506125249E+03  0.60026373247E+03 0.  0.
         23    2    4    4    0    0 -0.27445959872E+03  0.50254318054E+02 -0.92284931884E+02  0.30837543378E+03  0.93409483966E+02 0.  0.
         23    2    4    4    0    0  0.18976656458E+02  0.66429758013E+03 -0.92574943841E+02  0.67668581871E+03  0.87648094992E+02 0.  0.
          3    1    3    3  502    0  0.40956578053E+02 -0.23118371433E+03 -0.56381761914E+01  0.23485131486E+03  0.00000000000E+00 0. -1.
         -3    1    3    3    0  502  0.21452636421E+03 -0.48336818385E+03  0.35455082674E+01  0.52884679514E+03  0.00000000000E+00 0.  1.
         11    1    5    5    0    0 -0.21555252055E+03  0.77003872172E+02 -0.80352575816E+02  0.24258817343E+03  0.00000000000E+00 0.  1.
        -11    1    5    5    0    0 -0.58907078168E+02 -0.26749554118E+02 -0.11932356068E+02  0.65787260356E+02  0.00000000000E+00 0. -1.
          5    1    6    6  503    0 -0.12718660696E+02  0.23546922766E+03  0.42440427722E+01  0.23589748494E+03  0.47000000000E+01 0. -1.
         -5    1    6    6    0  503  0.31695317154E+02  0.42882835247E+03 -0.96818986613E+02  0.44078833376E+03  0.47000000000E+01 0.  1.
<mgrwt>
<rscale>  0 0.86154587E+03</rscale>
<asrwt>0</asrwt>
<pdfrwt beam="1">  1        1 0.12013899E+00 0.86154587E+03</pdfrwt>
<pdfrwt beam="2">  1       -1 0.14890092E+00 0.86154587E+03</pdfrwt>
<totfact> 0.83223397E+00</totfact>
</mgrwt>
</event>
<event>
12    1  0.3166324E-008  0.1283482E+04  0.7818608E-02  0.9042768E-01
         -1   -1    0    0    0  501 -0.00000000000E+00  0.00000000000E+00  0.92636742775E+03  0.92636742775E+03  0.00000000000E+00 0.  1.
          1   -1    0    0  501    0  0.00000000000E+00 -0.00000000000E+00 -0.18806477838E+04  0.18806477838E+04  0.00000000000E+00 0. -1.
         23    2    1    2    0    0 -0.11387826242E+04 -0.48692323620E+03 -0.26950061902E+03  0.12698586557E+04  0.77397149280E+02 0.  0.
    5000000    2    1    2    0    0  0.11387826242E+04  0.48692323620E+03 -0.68477973703E+03  0.15371565558E+04  0.60000573802E+03 0.  0.
         23    2    4    4    0    0  0.13682567445E+03  0.25121370132E+03 -0.32617483793E+03  0.44343884019E+03  0.91751791141E+02 0.  0.
         23    2    4    4    0    0  0.10019569498E+04  0.23570953489E+03 -0.35860489911E+03  0.10937177156E+04  0.90245519406E+02 0.  0.
          1    1    3    3  502    0 -0.28432065179E+03 -0.15572382349E+03 -0.83769752711E+02  0.33482161476E+03  0.00000000000E+00 0.  1.
         -1    1    3    3    0  502 -0.85446197243E+03 -0.33119941271E+03 -0.18573086631E+03  0.93503704098E+03  0.00000000000E+00 0. -1.
         13    1    5    5    0    0  0.21789296609E+02  0.12222071667E+03 -0.10399722082E+03  0.16195091530E+03  0.00000000000E+00 0. -1.
        -13    1    5    5    0    0  0.11503637784E+03  0.12899298465E+03 -0.22217761711E+03  0.28148792489E+03  0.00000000000E+00 0.  1.
          5    1    6    6  503    0  0.81118065941E+03  0.18806308230E+03 -0.25205842054E+03  0.87002144944E+03  0.47000000000E+01 0. -1.
         -5    1    6    6    0  503  0.19077629037E+03  0.47646452584E+02 -0.10654647857E+03  0.22369626619E+03  0.47000000000E+01 0.  1.
<mgrwt>
<rscale>  0 0.12834819E+04</rscale>
<asrwt>0</asrwt>
<pdfrwt beam="1">  1        1 0.28933042E+00 0.12834819E+04</pdfrwt>
<pdfrwt beam="2">  1       -1 0.14251807E+00 0.12834819E+04</pdfrwt>
<totfact> 0.13973666E+00</totfact>
</mgrwt>
</event>
<event>
12    1  0.3166324E-008  0.6435873E+03  0.7818608E-02  0.9818887E-01
          1   -1    0    0  501    0  0.00000000000E+00  0.00000000000E+00  0.10294107838E+04  0.10294107838E+04  0.00000000000E+00 0. -1.
         -1   -1    0    0    0  501 -0.00000000000E+00 -0.00000000000E+00 -0.48013118728E+03  0.48013118728E+03  0.00000000000E+00 0.  1.
         23    2    1    2    0    0 -0.63761338202E+02 -0.51569965196E+03  0.48011769604E+03  0.71284896038E+03  0.87344141099E+02 0.  0.
    5000000    2    1    2    0    0  0.63761338202E+02  0.51569965196E+03  0.69161900513E+02  0.79669301074E+03  0.59993728473E+03 0.  0.
         23    2    4    4    0    0 -0.41210738134E+02  0.61479427365E+03  0.58718779886E+02  0.62554327759E+03  0.90477473256E+02 0.  0.
         23    2    4    4    0    0  0.10497207634E+03 -0.99094621696E+02  0.10443120627E+02  0.17114973316E+03  0.91347093722E+02 0.  0.
          4    1    3    3  502    0 -0.12764281455E+02 -0.20473297728E+03  0.24584873894E+03  0.32018763453E+03  0.00000000000E+00 0. -1.
         -4    1    3    3    0  502 -0.50997056747E+02 -0.31096667468E+03  0.23426895710E+03  0.39266132585E+03  0.00000000000E+00 0.  1.
         13    1    5    5    0    0 -0.66727232724E+02  0.49260193056E+03  0.59999205253E+02  0.50070858811E+03  0.00000000000E+00 0. -1.
        -13    1    5    5    0    0  0.25516494589E+02  0.12219234309E+03 -0.12804253677E+01  0.12483468947E+03  0.00000000000E+00 0.  1.
          5    1    6    6  503    0  0.50487897154E+02 -0.40983947932E+02 -0.40241608169E+02  0.76617157186E+02  0.47000000000E+01 0. -1.
         -5    1    6    6    0  503  0.54484179183E+02 -0.58110673764E+02  0.50684728796E+02  0.94532575971E+02  0.47000000000E+01 0.  1.
<mgrwt>
<rscale>  0 0.64358727E+03</rscale>
<asrwt>0</asrwt>
<pdfrwt beam="1">  1        1 0.15837089E+00 0.64358727E+03</pdfrwt>
<pdfrwt beam="2">  1       -1 0.73866337E-01 0.64358727E+03</pdfrwt>
<totfact> 0.27590596E+01</totfact>
</mgrwt>
</event>
<event>
12    1  0.3166324E-008  0.1002742E+04  0.7818608E-02  0.9305542E-01
         -1   -1    0    0    0  501 -0.00000000000E+00  0.00000000000E+00  0.29058858396E+03  0.29058858396E+03  0.00000000000E+00 0.  1.
          1   -1    0    0  501    0  0.00000000000E+00 -0.00000000000E+00 -0.41209251058E+04  0.41209251058E+04  0.00000000000E+00 0. -1.
         23    2    1    2    0    0 -0.41544841655E+03 -0.84042574438E+03 -0.10214503006E+04  0.13901186450E+04  0.10077852851E+03 0.  0.
    5000000    2    1    2    0    0  0.41544841655E+03  0.84042574438E+03 -0.28088862212E+04  0.30213950448E+04  0.60006115886E+03 0.  0.
         23    2    4    4    0    0  0.19634896148E+03  0.84743073189E+01 -0.89567194305E+03  0.92162480488E+03  0.92408456554E+02 0.  0.
         23    2    4    4    0    0  0.21909945507E+03  0.83195143706E+03 -0.19132142782E+04  0.20997702399E+04  0.92186883203E+02 0.  0.
          4    1    3    3  502    0 -0.34501881940E+03 -0.72003768790E+03 -0.81464072202E+03  0.11406716283E+04  0.00000000000E+00 0. -1.
         -4    1    3    3    0  502 -0.70429597151E+02 -0.12038805647E+03 -0.20680957863E+03  0.24944701664E+03  0.00000000000E+00 0.  1.
         13    1    5    5    0    0  0.19308804699E+03  0.16564270731E+02 -0.89079380702E+03  0.91163094264E+03  0.00000000000E+00 0. -1.
        -13    1    5    5    0    0  0.32609144949E+01 -0.80899634125E+01 -0.48781360330E+01  0.99938622422E+01  0.00000000000E+00 0.  1.
          5    1    6    6  503    0  0.20728984984E+03  0.64135992163E+03 -0.15085721767E+04  0.16523086072E+04  0.47000000000E+01 0. -1.
         -5    1    6    6    0  503  0.11809605233E+02  0.19059151543E+03 -0.40464210142E+03  0.44746163274E+03  0.47000000000E+01 0.  1.
<mgrwt>
<rscale>  0 0.10027424E+04</rscale>
<asrwt>0</asrwt>
<pdfrwt beam="1">  1        1 0.63398843E+00 0.10027424E+04</pdfrwt>
<pdfrwt beam="2">  1       -1 0.44705939E-01 0.10027424E+04</pdfrwt>
<totfact> 0.39206635E-01</totfact>
</mgrwt>
</event>
<event>
12    1  0.3166324E-008  0.6063407E+03  0.7818608E-02  0.9892338E-01
         -2   -1    0    0    0  501 -0.00000000000E+00  0.00000000000E+00  0.12696197669E+04  0.12696197669E+04  0.00000000000E+00 0.  1.
          2   -1    0    0  501    0  0.00000000000E+00 -0.00000000000E+00 -0.46739050936E+03  0.46739050936E+03  0.00000000000E+00 0. -1.
         23    2    1    2    0    0 -0.49065179600E+03  0.16496844318E+03 -0.10116316751E+03  0.53527278994E+03  0.91264456496E+02 0.  0.
    5000000    2    1    2    0    0  0.49065179600E+03 -0.16496844318E+03  0.90339242505E+03  0.12017374863E+04  0.60008444423E+03 0.  0.
         23    2    4    4    0    0  0.34789728453E+03  0.11457543221E+03  0.20136397830E+03  0.42809212876E+03  0.92495236114E+02 0.  0.
         23    2    4    4    0    0  0.14275451147E+03 -0.27954387540E+03  0.70202844674E+03  0.77364535754E+03  0.84614244638E+02 0.  0.
          2    1    3    3  502    0 -0.14519021531E+03  0.26237402593E+02  0.66717805635E+01  0.14769262870E+03  0.00000000000E+00 0.  1.
         -2    1    3    3    0  502 -0.34546158069E+03  0.13873104059E+03 -0.10783494808E+03  0.38758016123E+03  0.00000000000E+00 0. -1.
         11    1    5    5    0    0  0.74179260828E+02  0.66958964146E+02  0.55103288942E+02  0.11411589753E+03  0.00000000000E+00 0. -1.
        -11    1    5    5    0    0  0.27371802370E+03  0.47616468069E+02  0.14626068936E+03  0.31397623124E+03  0.00000000000E+00 0.  1.
          5    1    6    6  503    0  0.56494624313E+02 -0.84144246017E+02  0.14430896694E+03  0.17640596547E+03  0.47000000000E+01 0. -1.
         -5    1    6    6    0  503  0.86259887161E+02 -0.19539962938E+03  0.55771947980E+03  0.59723939207E+03  0.47000000000E+01 0.  1.
<mgrwt>
<rscale>  0 0.60634069E+03</rscale>
<asrwt>0</asrwt>
<pdfrwt beam="1">  1        2 0.71906233E-01 0.60634069E+03</pdfrwt>
<pdfrwt beam="2">  1       -2 0.19532612E+00 0.60634069E+03</pdfrwt>
<totfact> 0.98479886E+00</totfact>
</mgrwt>
</event>
<event>
12    1  0.3166324E-008  0.7216403E+03  0.7818608E-02  0.9680924E-01
          2   -1    0    0  501    0  0.00000000000E+00  0.00000000000E+00  0.10475198380E+04  0.10475198380E+04  0.00000000000E+00 0. -1.
         -2   -1    0    0    0  501 -0.00000000000E+00 -0.00000000000E+00 -0.74914397541E+03  0.74914397541E+03  0.00000000000E+00 0.  1.
         23    2    1    2    0    0 -0.65330996646E+03  0.14837572466E+03  0.54005056075E+03  0.86536177377E+03  0.91471981395E+02 0.  0.
    5000000    2    1    2    0    0  0.65330996646E+03 -0.14837572466E+03 -0.24167469818E+03  0.93130203962E+03  0.60007296332E+03 0.  0.
         23    2    4    4    0    0  0.55031683024E+03  0.45123583370E+02  0.42076536434E+02  0.56114017821E+03  0.90681383234E+02 0.  0.
         23    2    4    4    0    0  0.10299313622E+03 -0.19349930803E+03 -0.28375123462E+03  0.37016186141E+03  0.91953641440E+02 0.  0.
          1    1    3    3  502    0 -0.33895088418E+03  0.84312720922E+02  0.22352739873E+03  0.41468160651E+03  0.00000000000E+00 0. -1.
         -1    1    3    3    0  502 -0.31435908228E+03  0.64063003741E+02  0.31652316202E+03  0.45068016725E+03  0.00000000000E+00 0.  1.
         13    1    5    5    0    0  0.44692773114E+03  0.49168248606E+02  0.48215560197E+00  0.44962444997E+03  0.00000000000E+00 0.  1.
        -13    1    5    5    0    0  0.10338909909E+03 -0.40446652369E+01  0.41594380832E+02  0.11151572824E+03  0.00000000000E+00 0. -1.
          5    1    6    6  503    0  0.67038811290E+02 -0.10777896843E+03 -0.91419363329E+02  0.15649312523E+03  0.47000000000E+01 0. -1.
         -5    1    6    6    0  503  0.35954324933E+02 -0.85720339607E+02 -0.19233187129E+03  0.21366873617E+03  0.47000000000E+01 0.  1.
<mgrwt>
<rscale>  0 0.72164035E+03</rscale>
<asrwt>0</asrwt>
<pdfrwt beam="1">  1        2 0.16115690E+00 0.72164035E+03</pdfrwt>
<pdfrwt beam="2">  1       -2 0.11525292E+00 0.72164035E+03</pdfrwt>
<totfact> 0.14064591E+01</totfact>
</mgrwt>
</event>
<event>
12    1  0.3166324E-008  0.6584450E+03  0.7818608E-02  0.9791061E-01
          2   -1    0    0  501    0  0.00000000000E+00  0.00000000000E+00  0.10163930936E+04  0.10163930936E+04  0.00000000000E+00 0. -1.
         -2   -1    0    0    0  501 -0.00000000000E+00 -0.00000000000E+00 -0.47025996369E+03  0.47025996369E+03  0.00000000000E+00 0.  1.
         23    2    1    2    0    0  0.29386260754E+02  0.52486686153E+03  0.24695407959E+02  0.53361048888E+03  0.88212901616E+02 0.  0.
    5000000    2    1    2    0    0 -0.29386260754E+02 -0.52486686153E+03  0.52143772196E+03  0.95304256842E+03  0.60003671944E+03 0.  0.
         23    2    4    4    0    0  0.26917303263E+03 -0.20047870608E+03  0.26345336474E+03  0.43530276266E+03  0.86226368906E+02 0.  0.
         23    2    4    4    0    0 -0.29855929339E+03 -0.32438815545E+03  0.25798435722E+03  0.51773980576E+03  0.84458574655E+02 0.  0.
          4    1    3    3  502    0  0.15840895572E+02  0.17352611341E+03 -0.32889145512E+02  0.17732439736E+03  0.00000000000E+00 0. -1.
         -4    1    3    3    0  502  0.13545365182E+02  0.35134074812E+03  0.57584553472E+02  0.35628609152E+03  0.00000000000E+00 0.  1.
         11    1    5    5    0    0  0.53291024757E+02 -0.80882966128E+02  0.49999878727E+02  0.10900447423E+03  0.00000000000E+00 0. -1.
        -11    1    5    5    0    0  0.21588200788E+03 -0.11959573996E+03  0.21345348602E+03  0.32629828843E+03  0.00000000000E+00 0.  1.
          5    1    6    6  503    0 -0.13975357575E+03 -0.97772524770E+02  0.11915376128E+03  0.20811111783E+03  0.47000000000E+01 0.  1.
         -5    1    6    6    0  503 -0.15880571764E+03 -0.22661563068E+03  0.13883059594E+03  0.30962868793E+03  0.47000000000E+01 0. -1.
<mgrwt>
<rscale>  0 0.65844496E+03</rscale>
<asrwt>0</asrwt>
<pdfrwt beam="1">  1        2 0.15636817E+00 0.65844496E+03</pdfrwt>
<pdfrwt beam="2">  1       -2 0.72347687E-01 0.65844496E+03</pdfrwt>
<totfact> 0.43570062E+01</totfact>
</mgrwt>
</event>
<event>
12    1  0.3166324E-008  0.1547501E+04  0.7818608E-02  0.8853466E-01
         -2   -1    0    0    0  501 -0.00000000000E+00  0.00000000000E+00  0.94766434773E+03  0.94766434773E+03  0.00000000000E+00 0.  1.
          2   -1    0    0  501    0  0.00000000000E+00 -0.00000000000E+00 -0.32170072903E+04  0.32170072903E+04  0.00000000000E+00 0. -1.
         23    2    1    2    0    0 -0.13200713779E+04  0.75487018755E+03 -0.19889981884E+04  0.25059474548E+04  0.10602551491E+03 0.  0.
    5000000    2    1    2    0    0  0.13200713779E+04 -0.75487018755E+03 -0.28034475413E+03  0.16587241832E+04  0.60029600377E+03 0.  0.
         23    2    4    4    0    0 -0.23156314387E+02 -0.25297497153E+02  0.19997892013E+02  0.98223442522E+02  0.89842922469E+02 0.  0.
         23    2    4    4    0    0  0.13432276923E+04 -0.72957269040E+03 -0.30034264614E+03  0.15605007407E+04  0.91760083024E+02 0.  0.
          1    1    3    3  502    0 -0.75208070042E+03  0.45890297314E+03 -0.10755638596E+04  0.13903434593E+04  0.00000000000E+00 0. -1.
         -1    1    3    3    0  502 -0.56799067745E+03  0.29596721441E+03 -0.91343432882E+03  0.11156039955E+04  0.00000000000E+00 0.  1.
         13    1    5    5    0    0 -0.87534769309E+01  0.58609379467E+01 -0.33245183915E+02  0.34874291470E+02  0.00000000000E+00 0. -1.
        -13    1    5    5    0    0 -0.14402837456E+02 -0.31158435099E+02  0.53243075929E+02  0.63349151052E+02  0.00000000000E+00 0.  1.
          5    1    6    6  503    0  0.44080315700E+03 -0.23465158765E+03 -0.14169614580E+03  0.51910372619E+03  0.47000000000E+01 0. -1.
         -5    1    6    6    0  503  0.90242453526E+03 -0.49492110275E+03 -0.15864650034E+03  0.10413970145E+04  0.47000000000E+01 0.  1.
<mgrwt>
<rscale>  0 0.15475007E+04</rscale>
<asrwt>0</asrwt>
<pdfrwt beam="1">  1        2 0.49492420E+00 0.15475007E+04</pdfrwt>
<pdfrwt beam="2">  1       -2 0.14579451E+00 0.15475007E+04</pdfrwt>
<totfact> 0.38586149E-01</totfact>
</mgrwt>
</event>
<event>
12    1  0.3166324E-008  0.4987589E+03  0.7818608E-02  0.1014103E+00
         -2   -1    0    0    0  501 -0.00000000000E+00  0.00000000000E+00  0.15786743275E+03  0.15786743275E+03  0.00000000000E+00 0.  1.
          2   -1    0    0  501    0  0.00000000000E+00 -0.00000000000E+00 -0.20790346664E+04  0.20790346664E+04  0.00000000000E+00 0. -1.
         23    2    1    2    0    0  0.15507484430E+03 -0.32940495152E+03 -0.33426947324E+03  0.50237750804E+03  0.89951378135E+02 0.  0.
    5000000    2    1    2    0    0 -0.15507484430E+03  0.32940495152E+03 -0.15868977604E+04  0.17345245911E+04  0.59814314820E+03 0.  0.
         23    2    4    4    0    0  0.95939692242E+02 -0.89732053574E+02 -0.68127794835E+03  0.70144850111E+03  0.10312172818E+03 0.  0.
         23    2    4    4    0    0 -0.25101453654E+03  0.41913700510E+03 -0.90561981203E+03  0.10330760900E+04  0.91732421290E+02 0.  0.
          3    1    3    3  502    0  0.13340100647E+03 -0.23034121812E+03 -0.28383507108E+03  0.38912112878E+03  0.00000000000E+00 0. -1.
         -3    1    3    3    0  502  0.21673837829E+02 -0.99063733404E+02 -0.50434402158E+02  0.11325637926E+03  0.00000000000E+00 0.  1.
         11    1    5    5    0    0  0.58434646314E+02 -0.24181276013E+02 -0.12519766924E+03  0.14026331803E+03  0.00000000000E+00 0.  1.
        -11    1    5    5    0    0  0.37505045928E+02 -0.65550777562E+02 -0.55608027910E+03  0.56118518309E+03  0.00000000000E+00 0. -1.
          5    1    6    6  503    0 -0.22518562199E+03  0.34041641859E+03 -0.80564403245E+03  0.90314799419E+03  0.47000000000E+01 0. -1.
         -5    1    6    6    0  503 -0.25828914546E+02  0.78720586513E+02 -0.99975779583E+02  0.12992809577E+03  0.47000000000E+01 0.  1.
<mgrwt>
<rscale>  0 0.49875890E+03</rscale>
<asrwt>0</asrwt>
<pdfrwt beam="1">  1        2 0.31985151E+00 0.49875890E+03</pdfrwt>
<pdfrwt beam="2">  1       -2 0.24287296E-01 0.49875890E+03</pdfrwt>
<totfact> 0.96910766E+01</totfact>
</mgrwt>
</event>
<event>
12    1  0.3166324E-008  0.2189716E+04  0.7818608E-02  0.8522721E-01
          1   -1    0    0  501    0  0.00000000000E+00  0.00000000000E+00  0.33952954349E+04  0.33952954349E+04  0.00000000000E+00 0. -1.
         -1   -1    0    0    0  501 -0.00000000000E+00 -0.00000000000E+00 -0.15016529118E+04  0.15016529118E+04  0.00000000000E+00 0.  1.
         23    2    1    2    0    0  0.35129649062E+03  0.21312765279E+04  0.38793976334E+03  0.21964165111E+04  0.89439184753E+02 0.  0.
    5000000    2    1    2    0    0 -0.35129649062E+03 -0.21312765279E+04  0.15057027598E+04  0.27005318355E+04  0.59998544253E+03 0.  0.
         23    2    4    4    0    0 -0.14415196363E+02 -0.14935343159E+04  0.84552594028E+03  0.17185130080E+04  0.86719620304E+02 0.  0.
         23    2    4    4    0    0 -0.33688129426E+03 -0.63774221203E+03  0.66017681952E+03  0.98201882751E+03  0.91232719613E+02 0.  0.
          2    1    3    3  502    0  0.16624912663E+03  0.10993654447E+04  0.24252964338E+03  0.11380086911E+04  0.00000000000E+00 0. -1.
         -2    1    3    3    0  502  0.18504736399E+03  0.10319110832E+04  0.14541011996E+03  0.10584078200E+04  0.00000000000E+00 0.  1.
         11    1    5    5    0    0  0.35353691732E+02 -0.80280581523E+03  0.45813457061E+03  0.92500505148E+03  0.00000000000E+00 0. -1.
        -11    1    5    5    0    0 -0.49768888095E+02 -0.69072850063E+03  0.38739136967E+03  0.79350795655E+03  0.00000000000E+00 0.  1.
          5    1    6    6  503    0 -0.10094536053E+03 -0.14479132017E+03  0.20677268962E+03  0.27190352587E+03  0.47000000000E+01 0. -1.
         -5    1    6    6    0  503 -0.23593593373E+03 -0.49295089186E+03  0.45340412990E+03  0.71011530164E+03  0.47000000000E+01 0.  1.
<mgrwt>
<rscale>  0 0.21897161E+04</rscale>
<asrwt>0</asrwt>
<pdfrwt beam="1">  1        1 0.52235314E+00 0.21897161E+04</pdfrwt>
<pdfrwt beam="2">  1       -1 0.23102353E+00 0.21897161E+04</pdfrwt>
<totfact> 0.24483958E-02</totfact>
</mgrwt>
</event>
<event>
12    1  0.3166324E-008  0.4941951E+03  0.7818608E-02  0.1015305E+00
          2   -1    0    0  501    0  0.00000000000E+00  0.00000000000E+00  0.27748373011E+04  0.27748373011E+04  0.00000000000E+00 0. -1.
         -2   -1    0    0    0  501 -0.00000000000E+00 -0.00000000000E+00 -0.11840949280E+03  0.11840949280E+03  0.00000000000E+00 0.  1.
         23    2    1    2    0    0  0.60931562858E+02  0.31943498246E+03  0.16031420549E+04  0.16382103382E+04  0.88979214739E+02 0.  0.
    5000000    2    1    2    0    0 -0.60931562858E+02 -0.31943498246E+03  0.10532857534E+04  0.12550364557E+04  0.59996188496E+03 0.  0.
         23    2    4    4    0    0  0.23851135773E+03 -0.10072980651E+03  0.28240851808E+03  0.39391980098E+03  0.91564604682E+02 0.  0.
         23    2    4    4    0    0 -0.29944292059E+03 -0.21870517595E+03  0.77087723531E+03  0.86111665470E+03  0.98854258392E+02 0.  0.
          2    1    3    3  502    0  0.11305767413E+02  0.24476611752E+03  0.12560100525E+04  0.12796872761E+04  0.00000000000E+00 0. -1.
         -2    1    3    3    0  502  0.49625795445E+02  0.74668864943E+02  0.34713200238E+03  0.35852306208E+03  0.00000000000E+00 0.  1.
         11    1    5    5    0    0  0.16607959524E+03 -0.10783210578E+03  0.17553069096E+03  0.26461522719E+03  0.00000000000E+00 0.  1.
        -11    1    5    5    0    0  0.72431762493E+02  0.71022992663E+01  0.10687782712E+03  0.12930457379E+03  0.00000000000E+00 0. -1.
          5    1    6    6  503    0 -0.93474794575E+02 -0.12609313577E+03  0.28834118676E+03  0.32832871652E+03  0.47000000000E+01 0. -1.
         -5    1    6    6    0  503 -0.20596812601E+03 -0.92612040186E+02  0.48253604855E+03  0.53278793818E+03  0.47000000000E+01 0.  1.
<mgrwt>
<rscale>  0 0.49419511E+03</rscale>
<asrwt>0</asrwt>
<pdfrwt beam="1">  1        2 0.42689800E+00 0.49419511E+03</pdfrwt>
<pdfrwt beam="2">  1       -2 0.18216847E-01 0.49419511E+03</pdfrwt>
<totfact> 0.65733375E+01</totfact>
</mgrwt>
</event>
<event>
12    1  0.3166324E-008  0.4317483E+03  0.7818608E-02  0.1033309E+00
          2   -1    0    0  501    0  0.00000000000E+00  0.00000000000E+00  0.10235950764E+04  0.10235950764E+04  0.00000000000E+00 0. -1.
         -2   -1    0    0    0  501 -0.00000000000E+00 -0.00000000000E+00 -0.23300189461E+03  0.23300189461E+03  0.00000000000E+00 0.  1.
         23    2    1    2    0    0  0.81248805191E+02 -0.27572520746E+03  0.33941682528E+03  0.45277765229E+03  0.84723448643E+02 0.  0.
    5000000    2    1    2    0    0 -0.81248805191E+02  0.27572520746E+03  0.45117635656E+03  0.80381931878E+03  0.59994969301E+03 0.  0.
         23    2    4    4    0    0 -0.24622727934E+03  0.13770294046E+02  0.39865307660E+03  0.47700907210E+03  0.88294310655E+02 0.  0.
         23    2    4    4    0    0  0.16497847415E+03  0.26195491342E+03  0.52523279960E+02  0.32681024668E+03  0.90597841030E+02 0.  0.
          1    1    3    3  502    0  0.48040206693E+02 -0.63946537383E+02  0.13293300264E+03  0.15513930609E+03  0.00000000000E+00 0. -1.
         -1    1    3    3    0  502  0.33208598498E+02 -0.21177867008E+03  0.20648382264E+03  0.29763834620E+03  0.00000000000E+00 0.  1.
         13    1    5    5    0    0 -0.21088943612E+03  0.26406847437E+02  0.37929068450E+03  0.43477936842E+03  0.00000000000E+00 0. -1.
        -13    1    5    5    0    0 -0.35337843214E+02 -0.12636553390E+02  0.19362392102E+02  0.42229703676E+02  0.00000000000E+00 0.  1.
          5    1    6    6  503    0  0.16833291406E+03  0.22163878205E+03  0.61584803689E+02  0.28508682486E+03  0.47000000000E+01 0. -1.
         -5    1    6    6    0  503 -0.33544399119E+01  0.40316131373E+02 -0.90615237282E+01  0.41723421819E+02  0.47000000000E+01 0.  1.
<mgrwt>
<rscale>  0 0.43174829E+03</rscale>
<asrwt>0</asrwt>
<pdfrwt beam="1">  1        2 0.15747616E+00 0.43174829E+03</pdfrwt>
<pdfrwt beam="2">  1       -2 0.35846446E-01 0.43174829E+03</pdfrwt>
<totfact> 0.18454709E+02</totfact>
</mgrwt>
</event>
<event>
12    1  0.3166324E-008  0.1196482E+04  0.7818608E-02  0.9115942E-01
         -2   -1    0    0    0  501 -0.00000000000E+00  0.00000000000E+00  0.18751989554E+04  0.18751989554E+04  0.00000000000E+00 0.  1.
          2   -1    0    0  501    0  0.00000000000E+00 -0.00000000000E+00 -0.10860475993E+04  0.10860475993E+04  0.00000000000E+00 0. -1.
         23    2    1    2    0    0  0.92353245323E+03  0.75439748297E+03  0.10612827638E+04  0.15988683748E+04  0.89617078029E+02 0.  0.
    5000000    2    1    2    0    0 -0.92353245323E+03 -0.75439748297E+03 -0.27213140768E+03  0.13623781799E+04  0.59999253955E+03 0.  0.
         23    2    4    4    0    0 -0.76471639929E+03 -0.63245683279E+03  0.20395707451E+02  0.99673039096E+03  0.90899233671E+02 0.  0.
         23    2    4    4    0    0 -0.15881605393E+03 -0.12194065018E+03 -0.29252711513E+03  0.36564778893E+03  0.89633315857E+02 0.  0.
          3    1    3    3  502    0  0.52564624922E+03  0.47760370969E+03  0.66174184698E+03  0.97072733292E+03  0.00000000000E+00 0. -1.
         -3    1    3    3    0  502  0.39788620401E+03  0.27679377328E+03  0.39954091683E+03  0.62814104187E+03  0.00000000000E+00 0.  1.
         13    1    5    5    0    0 -0.11353480120E+03 -0.56465496070E+02 -0.62196142923E+01  0.12695348334E+03  0.00000000000E+00 0.  1.
        -13    1    5    5    0    0 -0.65118159809E+03 -0.57599133672E+03  0.26615321744E+02  0.86977690762E+03  0.00000000000E+00 0. -1.
          5    1    6    6  503    0 -0.88947698118E+02 -0.83036743459E+02 -0.10158526728E+03  0.15858262923E+03  0.47000000000E+01 0. -1.
         -5    1    6    6    0  503 -0.69868355816E+02 -0.38903906721E+02 -0.19094184785E+03  0.20706515971E+03  0.47000000000E+01 0.  1.
<mgrwt>
<rscale>  0 0.11964818E+04</rscale>
<asrwt>0</asrwt>
<pdfrwt beam="1">  1        2 0.16708425E+00 0.11964818E+04</pdfrwt>
<pdfrwt beam="2">  1       -2 0.28849215E+00 0.11964818E+04</pdfrwt>
<totfact> 0.81133629E-01</totfact>
</mgrwt>
</event>
<event>
12    1  0.3166324E-008  0.4273405E+03  0.7818608E-02  0.1034703E+00
          2   -1    0    0  501    0  0.00000000000E+00  0.00000000000E+00  0.16368095295E+04  0.16368095295E+04  0.00000000000E+00 0. -1.
         -2   -1    0    0    0  501 -0.00000000000E+00 -0.00000000000E+00 -0.20491460167E+03  0.20491460167E+03  0.00000000000E+00 0.  1.
         23    2    1    2    0    0 -0.13503101582E+03  0.20583163493E+03 -0.79136968091E+01  0.26260122905E+03  0.91086451963E+02 0.  0.
    5000000    2    1    2    0    0  0.13503101582E+03 -0.20583163493E+03  0.14398086247E+04  0.15791229021E+04  0.59998352247E+03 0.  0.
         23    2    4    4    0    0 -0.18638760753E+03  0.26098475177E+02  0.28140526809E+03  0.35146090081E+03  0.94415937435E+02 0.  0.
         23    2    4    4    0    0  0.32141862335E+03 -0.23193011011E+03  0.11584033566E+04  0.12276620013E+04  0.90300307694E+02 0.  0.
          1    1    3    3  502    0 -0.86221129890E+02  0.61252071391E+02 -0.26068388982E+02  0.10892869408E+03  0.00000000000E+00 0. -1.
         -1    1    3    3    0  502 -0.48809885929E+02  0.14457956354E+03  0.18154692173E+02  0.15367253498E+03  0.00000000000E+00 0.  1.
         13    1    5    5    0    0 -0.99779229920E+02  0.27178784192E+02  0.22628037698E+03  0.24879186088E+03  0.00000000000E+00 0. -1.
        -13    1    5    5    0    0 -0.86608377613E+02 -0.10803090149E+01  0.55124891104E+02  0.10266903993E+03  0.00000000000E+00 0.  1.
          5    1    6    6  503    0  0.54257025089E+02 -0.31895752574E+01  0.16994025100E+03  0.17848186762E+03  0.47000000000E+01 0. -1.
         -5    1    6    6    0  503  0.26716159826E+03 -0.22874053485E+03  0.98846310559E+03  0.10491801337E+04  0.47000000000E+01 0.  1.
<mgrwt>
<rscale>  0 0.42734054E+03</rscale>
<asrwt>0</asrwt>
<pdfrwt beam="1">  1        2 0.25181684E+00 0.42734054E+03</pdfrwt>
<pdfrwt beam="2">  1       -2 0.31525324E-01 0.42734054E+03</pdfrwt>
<totfact> 0.10545705E+02</totfact>
</mgrwt>
</event>
<event>
12    1  0.3166324E-008  0.8920125E+03  0.7818608E-02  0.9435622E-01
         -2   -1    0    0    0  501 -0.00000000000E+00  0.00000000000E+00  0.31849145983E+04  0.31849145983E+04  0.00000000000E+00 0. -1.
          2   -1    0    0  501    0  0.00000000000E+00 -0.00000000000E+00 -0.31165473350E+03  0.31165473350E+03  0.00000000000E+00 0.  1.
         23    2    1    2    0    0  0.64645716744E+03  0.57810127743E+03  0.86545782140E+03  0.12286715729E+04  0.92242274697E+02 0.  0.
    5000000    2    1    2    0    0 -0.64645716744E+03 -0.57810127743E+03  0.20078020434E+04  0.22678977589E+04  0.59998603556E+03 0.  0.
         23    2    4    4    0    0 -0.18648106307E+03 -0.33569727807E+02  0.10535195844E+04  0.10734050392E+04  0.79954675080E+02 0.  0.
         23    2    4    4    0    0 -0.45997610438E+03 -0.54453154962E+03  0.95428245905E+03  0.11944927197E+04  0.89806572941E+02 0.  0.
          2    1    3    3  502    0  0.27549893567E+03  0.30811674111E+03  0.41246374030E+03  0.58391945229E+03  0.00000000000E+00 0. -1.
         -2    1    3    3    0  502  0.37095823178E+03  0.26998453632E+03  0.45299408110E+03  0.64475212066E+03  0.00000000000E+00 0.  1.
         13    1    5    5    0    0 -0.11089917945E+03 -0.49551069899E+02  0.50118289405E+03  0.51569199123E+03  0.00000000000E+00 0. -1.
        -13    1    5    5    0    0 -0.75581883619E+02  0.15981342092E+02  0.55233669030E+03  0.55771304798E+03  0.00000000000E+00 0.  1.
          5    1    6    6  503    0 -0.14142409794E+03 -0.15290033781E+03  0.21593279826E+03  0.30004724985E+03  0.47000000000E+01 0. -1.
         -5    1    6    6    0  503 -0.31855200644E+03 -0.39163121181E+03  0.73834966080E+03  0.89444546982E+03  0.47000000000E+01 0.  1.
<mgrwt>
<rscale>  0 0.89201247E+03</rscale>
<asrwt>0</asrwt>
<pdfrwt beam="1">  1        2 0.47946884E-01 0.89201247E+03</pdfrwt>
<pdfrwt beam="2">  1       -2 0.48998684E+00 0.89201247E+03</pdfrwt>
<totfact> 0.20733440E-01</totfact>
</mgrwt>
</event>
<event>
12    1  0.3166324E-008  0.9617746E+03  0.7818608E-02  0.9351493E-01
          1   -1    0    0  501    0  0.00000000000E+00  0.00000000000E+00  0.17251472285E+04  0.17251472285E+04  0.00000000000E+00 0. -1.
         -1   -1    0    0    0  501 -0.00000000000E+00 -0.00000000000E+00 -0.87378433713E+03  0.87378433713E+03  0.00000000000E+00 0.  1.
         23    2    1    2    0    0  0.85492789290E+03  0.32229904396E+03 -0.34257432249E+03  0.98018132596E+03  0.92843360222E+02 0.  0.
    5000000    2    1    2    0    0 -0.85492789290E+03 -0.32229904396E+03  0.11939372139E+04  0.16187502397E+04  0.60007323887E+03 0.  0.
         23    2    4    4    0    0 -0.72096000683E+03 -0.41208462694E+03  0.11675917192E+04  0.14356599371E+04  0.90840304724E+02 0.  0.
         23    2    4    4    0    0 -0.13396788607E+03  0.89785582982E+02  0.26345494730E+02  0.18309030265E+03  0.82578014166E+02 0.  0.
          1    1    3    3  502    0  0.40824424387E+03  0.14530248804E+03 -0.11380883551E+03  0.44802748434E+03  0.00000000000E+00 0. -1.
         -1    1    3    3    0  502  0.44668364903E+03  0.17699655592E+03 -0.22876548699E+03  0.53215384163E+03  0.00000000000E+00 0.  1.
         11    1    5    5    0    0 -0.54602269249E+03 -0.29358333038E+03  0.80576163793E+03  0.10166532200E+04  0.00000000000E+00 0. -1.
        -11    1    5    5    0    0 -0.17493731434E+03 -0.11850129656E+03  0.36183008125E+03  0.41900671705E+03  0.00000000000E+00 0.  1.
          5    1    6    6  503    0 -0.14343408986E+03  0.81216718744E+02  0.15377815983E+02  0.16561419251E+03  0.47000000000E+01 0. -1.
         -5    1    6    6    0  503  0.94662037903E+01  0.85688642383E+01  0.10967678747E+02  0.17476110140E+02  0.47000000000E+01 0.  1.
<mgrwt>
<rscale>  0 0.96177461E+03</rscale>
<asrwt>0</asrwt>
<pdfrwt beam="1">  1        1 0.26540726E+00 0.96177461E+03</pdfrwt>
<pdfrwt beam="2">  1       -1 0.13442836E+00 0.96177461E+03</pdfrwt>
<totfact> 0.21615759E+00</totfact>
</mgrwt>
</event>
<event>
12    1  0.3166324E-008  0.6502150E+03  0.7818608E-02  0.9806376E-01
          1   -1    0    0  501    0  0.00000000000E+00  0.00000000000E+00  0.35703523282E+03  0.35703523282E+03  0.00000000000E+00 0. -1.
         -1   -1    0    0    0  501 -0.00000000000E+00 -0.00000000000E+00 -0.17759165821E+04  0.17759165821E+04  0.00000000000E+00 0.  1.
         23    2    1    2    0    0  0.53257603849E+03 -0.22132567447E+03 -0.12712618156E+03  0.59631578866E+03  0.82517651462E+02 0.  0.
    5000000    2    1    2    0    0 -0.53257603849E+03  0.22132567447E+03 -0.12917551677E+04  0.15366360262E+04  0.59999714408E+03 0.  0.
         23    2    4    4    0    0 -0.86383032015E+02 -0.12286302802E+03 -0.70525192393E+02  0.18804272775E+03  0.88481143895E+02 0.  0.
         23    2    4    4    0    0 -0.44619300648E+03  0.34418870249E+03 -0.12212299753E+04  0.13485932985E+04  0.98727757954E+02 0.  0.
          2    1    3    3  502    0  0.30922271857E+03 -0.15452196175E+03 -0.42421259980E+02  0.34827473299E+03  0.00000000000E+00 0. -1.
         -2    1    3    3    0  502  0.22335331992E+03 -0.66803712728E+02 -0.84704921582E+02  0.24804105567E+03  0.00000000000E+00 0.  1.
         11    1    5    5    0    0 -0.55938074114E+02 -0.48715862361E+02  0.94944475064E+01  0.74782671219E+02  0.00000000000E+00 0.  1.
        -11    1    5    5    0    0 -0.30444957901E+02 -0.74147165655E+02 -0.80019639899E+02  0.11326005653E+03  0.00000000000E+00 0. -1.
          5    1    6    6  503    0 -0.69259972615E+02  0.26485158173E+02 -0.22699990066E+03  0.23885027174E+03  0.47000000000E+01 0. -1.
         -5    1    6    6    0  503 -0.37693303386E+03  0.31770354432E+03 -0.99423007465E+03  0.11097430268E+04  0.47000000000E+01 0.  1.
<mgrwt>
<rscale>  0 0.65021497E+03</rscale>
<asrwt>0</asrwt>
<pdfrwt beam="1">  1        1 0.54928498E-01 0.65021497E+03</pdfrwt>
<pdfrwt beam="2">  1       -1 0.27321793E+00 0.65021497E+03</pdfrwt>
<totfact> 0.36458711E+00</totfact>
</mgrwt>
</event>
<event>
12    1  0.3166324E-008  0.5741456E+03  0.7818608E-02  0.9960547E-01
         -1   -1    0    0    0  501 -0.00000000000E+00  0.00000000000E+00  0.53213457174E+03  0.53213457174E+03  0.00000000000E+00 0.  1.
          1   -1    0    0  501    0  0.00000000000E+00 -0.00000000000E+00 -0.95568505875E+03  0.95568505875E+03  0.00000000000E+00 0. -1.
         23    2    1    2    0    0 -0.54058695521E+03 -0.87928175756E+02  0.33046063796E+02  0.55592912598E+03  0.89440094675E+02 0.  0.
    5000000    2    1    2    0    0  0.54058695521E+03  0.87928175756E+02 -0.45659655080E+03  0.93189050451E+03  0.59997823458E+03 0.  0.
         23    2    4    4    0    0  0.15608727547E+03 -0.48663612475E+02 -0.47748329416E+03  0.51283162834E+03  0.90964817835E+02 0.  0.
         23    2    4    4    0    0  0.38449967975E+03  0.13659178823E+03  0.20886743364E+02  0.41905887617E+03  0.93149156267E+02 0.  0.
          4    1    3    3  502    0 -0.44857302695E+03 -0.37961091889E+02  0.23503846675E+02  0.45078956933E+03  0.00000000000E+00 0. -1.
         -4    1    3    3    0  502 -0.92013928263E+02 -0.49967083867E+02  0.95422171214E+01  0.10513955665E+03  0.00000000000E+00 0.  1.
         13    1    5    5    0    0  0.76866006484E+02 -0.60783167702E+02 -0.33847688997E+03  0.35237704447E+03  0.00000000000E+00 0. -1.
        -13    1    5    5    0    0  0.79221268985E+02  0.12119555227E+02 -0.13900640419E+03  0.16045458387E+03  0.00000000000E+00 0.  1.
          5    1    6    6  503    0  0.16645307139E+03  0.19297586299E+02  0.34108238967E+02  0.17106865223E+03  0.47000000000E+01 0. -1.
         -5    1    6    6    0  503  0.21804660836E+03  0.11729420193E+03 -0.13221495603E+02  0.24799022394E+03  0.47000000000E+01 0.  1.
<mgrwt>
<rscale>  0 0.57414559E+03</rscale>
<asrwt>0</asrwt>
<pdfrwt beam="1">  1        1 0.14702847E+00 0.57414559E+03</pdfrwt>
<pdfrwt beam="2">  1       -1 0.81866857E-01 0.57414559E+03</pdfrwt>
<totfact> 0.25607262E+01</totfact>
</mgrwt>
</event>
<event>
12    1  0.3166324E-008  0.8212826E+03  0.7818608E-02  0.9529712E-01
         -1   -1    0    0    0  501 -0.00000000000E+00  0.00000000000E+00  0.42001791918E+03  0.42001791918E+03  0.00000000000E+00 0.  1.
          1   -1    0    0  501    0  0.00000000000E+00 -0.00000000000E+00 -0.20260617016E+04  0.20260617016E+04  0.00000000000E+00 0. -1.
         23    2    1    2    0    0  0.38036547984E+03  0.63876703508E+03 -0.25431184903E+03  0.79092243738E+03  0.90457515109E+02 0.  0.
    5000000    2    1    2    0    0 -0.38036547984E+03 -0.63876703508E+03 -0.13517319334E+04  0.16551571834E+04  0.59972065052E+03 0.  0.
         23    2    4    4    0    0 -0.15729549053E+03  0.42561388983E+02 -0.10612992346E+03  0.21501514846E+03  0.91731184685E+02 0.  0.
         23    2    4    4    0    0 -0.22306998931E+03 -0.68132842406E+03 -0.12456020099E+04  0.14401420349E+04  0.92282566535E+02 0.  0.
          1    1    3    3  502    0  0.34798003090E+03  0.56631173973E+03 -0.19777339286E+03  0.69347920184E+03  0.00000000000E+00 0. -1.
         -1    1    3    3    0  502  0.32385448944E+02  0.72455295348E+02 -0.56538456166E+02  0.97443235542E+02  0.00000000000E+00 0.  1.
         11    1    5    5    0    0  0.71959841895E+00  0.20269785913E+02  0.45792907746E+01  0.20793074492E+02  0.00000000000E+00 0.  1.
        -11    1    5    5    0    0 -0.15801508895E+03  0.22291603070E+02 -0.11070921423E+03  0.19422207397E+03  0.00000000000E+00 0. -1.
          5    1    6    6  503    0 -0.17103305060E+03 -0.44819142125E+03 -0.75626119922E+03  0.89558971963E+03  0.47000000000E+01 0. -1.
         -5    1    6    6    0  503 -0.52036938718E+02 -0.23313700281E+03 -0.48934081069E+03  0.54455231529E+03  0.47000000000E+01 0.  1.
<mgrwt>
<rscale>  0 0.82128255E+03</rscale>
<asrwt>0</asrwt>
<pdfrwt beam="1">  1        1 0.31170180E+00 0.82128255E+03</pdfrwt>
<pdfrwt beam="2">  1       -1 0.64618142E-01 0.82128255E+03</pdfrwt>
<totfact> 0.72013345E+00</totfact>
</mgrwt>
</event>
<event>
12    1  0.3166324E-008  0.3966168E+03  0.7818608E-02  0.1044957E+00
          2   -1    0    0  501    0  0.00000000000E+00  0.00000000000E+00  0.20990201729E+04  0.20990201729E+04  0.00000000000E+00 0. -1.
         -2   -1    0    0    0  501 -0.00000000000E+00 -0.00000000000E+00 -0.53235385535E+03  0.53235385535E+03  0.00000000000E+00 0.  1.
         23    2    1    2    0    0 -0.29094037411E+03  0.12897307533E+03 -0.41792872896E+03  0.53377874368E+03  0.94736314408E+02 0.  0.
    5000000    2    1    2    0    0  0.29094037411E+03 -0.12897307533E+03  0.19845950465E+04  0.20975952846E+04  0.60000676978E+03 0.  0.
         23    2    4    4    0    0  0.18134184997E+03  0.83843241846E+02  0.17015356995E+04  0.17157744065E+04  0.93506798249E+02 0.  0.
         23    2    4    4    0    0  0.10959852414E+03 -0.21281631717E+03  0.28305934700E+03  0.38182087813E+03  0.91443795336E+02 0.  0.
          3    1    3    3  502    0 -0.43916306460E+02  0.15655633586E+01 -0.11268457909E+03  0.12095001996E+03  0.00000000000E+00 0. -1.
         -3    1    3    3    0  502 -0.24702406765E+03  0.12740751197E+03 -0.30524414987E+03  0.41282872372E+03  0.00000000000E+00 0.  1.
         13    1    5    5    0    0  0.95995714990E+02  0.72667364703E+00  0.95232668104E+03  0.95715297250E+03  0.00000000000E+00 0.  1.
        -13    1    5    5    0    0  0.85346134980E+02  0.83116568199E+02  0.74920901851E+03  0.75862143397E+03  0.00000000000E+00 0. -1.
          5    1    6    6  503    0  0.11141101818E+03 -0.12209529344E+03  0.17957102016E+03  0.24410554466E+03  0.47000000000E+01 0. -1.
         -5    1    6    6    0  503 -0.18124940390E+01 -0.90721023736E+02  0.10348832684E+03  0.13771533347E+03  0.47000000000E+01 0.  1.
<mgrwt>
<rscale>  0 0.39661685E+03</rscale>
<asrwt>0</asrwt>
<pdfrwt beam="1">  1        2 0.32292618E+00 0.39661685E+03</pdfrwt>
<pdfrwt beam="2">  1       -2 0.81900594E-01 0.39661685E+03</pdfrwt>
<totfact> 0.86490191E+00</totfact>
</mgrwt>
</event>
<event>
12    1  0.3166324E-008  0.4932656E+03  0.7818608E-02  0.1015552E+00
          2   -1    0    0  501    0  0.00000000000E+00  0.00000000000E+00  0.22607494451E+04  0.22607494451E+04  0.00000000000E+00 0. -1.
         -2   -1    0    0    0  501 -0.00000000000E+00 -0.00000000000E+00 -0.24650202975E+03  0.24650202975E+03  0.00000000000E+00 0.  1.
         23    2    1    2    0    0  0.22275460359E+03 -0.35567809711E+03  0.16191130923E+04  0.16752937143E+04  0.94632453628E+02 0.  0.
    5000000    2    1    2    0    0 -0.22275460359E+03  0.35567809711E+03  0.39513432303E+03  0.83195776056E+03  0.59991337702E+03 0.  0.
         23    2    4    4    0    0 -0.19225292532E+03  0.67899303168E+01  0.41781216672E+03  0.46924090474E+03  0.92804792863E+02 0.  0.
         23    2    4    4    0    0 -0.30501678268E+02  0.34888816680E+03 -0.22677843682E+02  0.36271685582E+03  0.91629294403E+02 0.  0.
          3    1    3    3  502    0  0.72715028506E+01  0.11281551514E+01  0.69669436943E+01  0.10133399834E+02  0.00000000000E+00 0. -1.
         -3    1    3    3    0  502  0.21548310074E+03 -0.35680625226E+03  0.16121461487E+04  0.16651603145E+04  0.00000000000E+00 0.  1.
         11    1    5    5    0    0 -0.98131783402E+02  0.47896079933E+02  0.18579661289E+03  0.21550931012E+03  0.00000000000E+00 0. -1.
        -11    1    5    5    0    0 -0.94121141919E+02 -0.41106149617E+02  0.23201555382E+03  0.25373159462E+03  0.00000000000E+00 0.  1.
          5    1    6    6  503    0 -0.26194689376E+02  0.27956111292E+03  0.19186298861E+02  0.28147962924E+03  0.47000000000E+01 0. -1.
         -5    1    6    6    0  503 -0.43069888914E+01  0.69327053874E+02 -0.41864142543E+02  0.81237226583E+02  0.47000000000E+01 0.  1.
<mgrwt>
<rscale>  0 0.49326558E+03</rscale>
<asrwt>0</asrwt>
<pdfrwt beam="1">  1        2 0.34780759E+00 0.49326558E+03</pdfrwt>
<pdfrwt beam="2">  1       -2 0.37923391E-01 0.49326558E+03</pdfrwt>
<totfact> 0.33922024E+01</totfact>
</mgrwt>
</event>
<event>
12    1  0.3166324E-008  0.1102201E+04  0.7818608E-02  0.9203049E-01
          2   -1    0    0  501    0  0.00000000000E+00  0.00000000000E+00  0.19119276207E+04  0.19119276207E+04  0.00000000000E+00 0. -1.
         -2   -1    0    0    0  501 -0.00000000000E+00 -0.00000000000E+00 -0.76621007216E+03  0.76621007216E+03  0.00000000000E+00 0.  1.
         23    2    1    2    0    0  0.10275285366E+04  0.35895945137E+03  0.89092553865E+03  0.14094285059E+04  0.89853305369E+02 0.  0.
    5000000    2    1    2    0    0 -0.10275285366E+04 -0.35895945137E+03  0.25479200985E+03  0.12687091870E+04  0.60003104214E+03 0.  0.
         23    2    4    4    0    0 -0.32453380277E+03 -0.50987149914E+02  0.35041581658E+03  0.48969188853E+03  0.95315384829E+02 0.  0.
         23    2    4    4    0    0 -0.70299473382E+03 -0.30797230146E+03 -0.95623806728E+02  0.77901729842E+03  0.93142388767E+02 0.  0.
          1    1    3    3  502    0  0.19260419552E+03  0.30916466382E+02  0.15926548308E+03  0.25182870790E+03  0.00000000000E+00 0. -1.
         -1    1    3    3    0  502  0.83492434108E+03  0.32804298499E+03  0.73166005558E+03  0.11575997980E+04  0.00000000000E+00 0.  1.
         11    1    5    5    0    0 -0.68753107574E+02 -0.49085614793E+02  0.10962158450E+03  0.13839537264E+03  0.00000000000E+00 0.  1.
        -11    1    5    5    0    0 -0.25578069520E+03 -0.19015351208E+01  0.24079423208E+03  0.35129651589E+03  0.00000000000E+00 0. -1.
          5    1    6    6  503    0 -0.27769595698E+02  0.35240695386E+01  0.42957677400E+01  0.28707370688E+02  0.47000000000E+01 0. -1.
         -5    1    6    6    0  503 -0.67522513812E+03 -0.31149637099E+03 -0.99919574468E+02  0.75030992773E+03  0.47000000000E+01 0.  1.
<mgrwt>
<rscale>  0 0.11022013E+04</rscale>
<asrwt>0</asrwt>
<pdfrwt beam="1">  1        2 0.29414271E+00 0.11022013E+04</pdfrwt>
<pdfrwt beam="2">  1       -2 0.11787847E+00 0.11022013E+04</pdfrwt>
<totfact> 0.40934854E+00</totfact>
</mgrwt>
</event>
<event>
12    1  0.3166324E-008  0.1170619E+04  0.7818608E-02  0.9138969E-01
         -1   -1    0    0    0  501 -0.00000000000E+00  0.00000000000E+00  0.14132979740E+04  0.14132979740E+04  0.00000000000E+00 0.  1.
          1   -1    0    0  501    0  0.00000000000E+00 -0.00000000000E+00 -0.10078622688E+04  0.10078622688E+04  0.00000000000E+00 0. -1.
         23    2    1    2    0    0 -0.10378126735E+04  0.34689070607E+03  0.41429609497E+03  0.11732149592E+04  0.86045215395E+02 0.  0.
    5000000    2    1    2    0    0  0.10378126735E+04 -0.34689070607E+03 -0.88603897017E+01  0.12479452836E+04  0.59991717522E+03 0.  0.
         23    2    4    4    0    0  0.28172144932E+03  0.15229186505E+03  0.41123945622E+02  0.33606262068E+03  0.93204715243E+02 0.  0.
         23    2    4    4    0    0  0.75609122414E+03 -0.49918257111E+03 -0.49984335324E+02  0.91188266290E+03  0.90412270130E+02 0.  0.
          4    1    3    3  502    0 -0.26760688842E+03  0.12790669472E+03  0.99946485324E+02  0.31299020626E+03  0.00000000000E+00 0. -1.
         -4    1    3    3    0  502 -0.77020578504E+03  0.21898401135E+03  0.31434960964E+03  0.86022475297E+03  0.00000000000E+00 0.  1.
         11    1    5    5    0    0  0.27466071497E+03  0.11870397642E+03  0.36675904759E+02  0.30145358574E+03  0.00000000000E+00 0.  1.
        -11    1    5    5    0    0  0.70607343579E+01  0.33587888623E+02  0.44480408626E+01  0.34609034938E+02  0.00000000000E+00 0. -1.
          5    1    6    6  503    0  0.60581889359E+03 -0.44015633457E+03 -0.47309022724E+02  0.75034283119E+03  0.47000000000E+01 0. -1.
         -5    1    6    6    0  503  0.15027233055E+03 -0.59026236547E+02 -0.26753126001E+01  0.16153983171E+03  0.47000000000E+01 0.  1.
<mgrwt>
<rscale>  0 0.11706194E+04</rscale>
<asrwt>0</asrwt>
<pdfrwt beam="1">  1        1 0.15505573E+00 0.11706194E+04</pdfrwt>
<pdfrwt beam="2">  1       -1 0.21743046E+00 0.11706194E+04</pdfrwt>
<totfact> 0.16817596E+00</totfact>
</mgrwt>
</event>
<event>
12    1  0.3166324E-008  0.4843934E+03  0.7818608E-02  0.1017935E+00
          2   -1    0    0  501    0  0.00000000000E+00  0.00000000000E+00  0.54846764451E+03  0.54846764451E+03  0.00000000000E+00 0. -1.
         -2   -1    0    0    0  501 -0.00000000000E+00 -0.00000000000E+00 -0.46618512028E+03  0.46618512028E+03  0.00000000000E+00 0.  1.
         23    2    1    2    0    0  0.22702355323E+03 -0.20628974004E+03  0.11582232528E+03  0.34003288968E+03  0.90068887312E+02 0.  0.
    5000000    2    1    2    0    0 -0.22702355323E+03  0.20628974004E+03 -0.33539801056E+02  0.67461987511E+03  0.59990991580E+03 0.  0.
         23    2    4    4    0    0 -0.42856520448E+02  0.38351834531E+03 -0.62577015631E+02  0.40093980346E+03  0.88959769427E+02 0.  0.
         23    2    4    4    0    0 -0.18416703278E+03 -0.17722860527E+03  0.29037214575E+02  0.27368007166E+03  0.93435257278E+02 0.  0.
          4    1    3    3  502    0  0.68637669163E+02 -0.11563532212E+03  0.27356174379E+02  0.13722615504E+03  0.00000000000E+00 0.  1.
         -4    1    3    3    0  502  0.15838588407E+03 -0.90654417925E+02  0.88466150902E+02  0.20280673464E+03  0.00000000000E+00 0. -1.
         13    1    5    5    0    0  0.26942190879E+02  0.14321999742E+03 -0.26509908044E+02  0.14812367986E+03  0.00000000000E+00 0. -1.
        -13    1    5    5    0    0 -0.69798711327E+02  0.24029834789E+03 -0.36067107587E+02  0.25281612360E+03  0.00000000000E+00 0.  1.
          5    1    6    6  503    0 -0.11954739264E+03 -0.11906783076E+03 -0.25845981566E+02  0.17075957417E+03  0.47000000000E+01 0. -1.
         -5    1    6    6    0  503 -0.64619640143E+02 -0.58160774509E+02  0.54883196141E+02  0.10292049748E+03  0.47000000000E+01 0.  1.
<mgrwt>
<rscale>  0 0.48439344E+03</rscale>
<asrwt>0</asrwt>
<pdfrwt beam="1">  1        2 0.84379637E-01 0.48439344E+03</pdfrwt>
<pdfrwt beam="2">  1       -2 0.71720788E-01 0.48439344E+03</pdfrwt>
<totfact> 0.10023245E+02</totfact>
</mgrwt>
</event>
<event>
12    1  0.3166324E-008  0.5733545E+03  0.7818608E-02  0.9962283E-01
         -1   -1    0    0    0  501 -0.00000000000E+00  0.00000000000E+00  0.66684634075E+03  0.66684634075E+03  0.00000000000E+00 0.  1.
          1   -1    0    0  501    0  0.00000000000E+00 -0.00000000000E+00 -0.82120908487E+03  0.82120908487E+03  0.00000000000E+00 0. -1.
         23    2    1    2    0    0  0.16787310626E+03 -0.48464271316E+03 -0.40497822289E+03  0.66002700955E+03  0.92565398993E+02 0.  0.
    5000000    2    1    2    0    0 -0.16787310626E+03  0.48464271316E+03  0.25061547876E+03  0.82802841607E+03  0.59980246781E+03 0.  0.
         23    2    4    4    0    0 -0.20678243620E+03  0.51647306410E+03  0.36419264760E+03  0.67266026089E+03  0.10164713545E+03 0.  0.
         23    2    4    4    0    0  0.38909329935E+02 -0.31830350940E+02 -0.11357716883E+03  0.15536815518E+03  0.93340147675E+02 0.  0.
          3    1    3    3  502    0  0.11125977553E+03 -0.23646710976E+03 -0.25201514473E+03  0.36305242710E+03  0.00000000000E+00 0. -1.
         -3    1    3    3    0  502  0.56613330733E+02 -0.24817560340E+03 -0.15296307816E+03  0.29697458245E+03  0.00000000000E+00 0.  1.
         11    1    5    5    0    0 -0.17437969777E+03  0.32508404614E+03  0.26832553999E+03  0.45616500464E+03  0.00000000000E+00 0.  1.
        -11    1    5    5    0    0 -0.32402738432E+02  0.19138901796E+03  0.95867107606E+02  0.21649525624E+03  0.00000000000E+00 0. -1.
          5    1    6    6  503    0  0.24087456940E+02 -0.42413168320E+02 -0.12437522171E+03  0.13368009652E+03  0.47000000000E+01 0. -1.
         -5    1    6    6    0  503  0.14821872996E+02  0.10582817381E+02  0.10798052878E+02  0.21688058667E+02  0.47000000000E+01 0.  1.
<mgrwt>
<rscale>  0 0.57335455E+03</rscale>
<asrwt>0</asrwt>
<pdfrwt beam="1">  1        1 0.12633986E+00 0.57335455E+03</pdfrwt>
<pdfrwt beam="2">  1       -1 0.10259174E+00 0.57335455E+03</pdfrwt>
<totfact> 0.20039048E+01</totfact>
</mgrwt>
</event>
<event>
12    1  0.3166324E-008  0.5199648E+03  0.7818608E-02  0.1008695E+00
          2   -1    0    0  501    0  0.00000000000E+00  0.00000000000E+00  0.15322072258E+04  0.15322072258E+04  0.00000000000E+00 0. -1.
         -2   -1    0    0    0  501 -0.00000000000E+00 -0.00000000000E+00 -0.76413154902E+03  0.76413154902E+03  0.00000000000E+00 0.  1.
         23    2    1    2    0    0  0.31500736662E+03 -0.36790691232E+03 -0.56911805591E+03  0.75277489420E+03  0.90496091783E+02 0.  0.
    5000000    2    1    2    0    0 -0.31500736662E+03  0.36790691232E+03  0.13371937327E+04  0.15435638807E+04  0.59993102741E+03 0.  0.
         23    2    4    4    0    0 -0.39168873516E+00  0.64721577172E+02 -0.18582447277E+02  0.11612169061E+03  0.94603930741E+02 0.  0.
         23    2    4    4    0    0 -0.31461567789E+03  0.30318533515E+03  0.13557761800E+04  0.14274421900E+04  0.92508288421E+02 0.  0.
          2    1    3    3  502    0  0.27062824953E+02 -0.78075552679E+02 -0.11920220107E+03  0.14504259085E+03  0.00000000000E+00 0. -1.
         -2    1    3    3    0  502  0.28794454167E+03 -0.28983135964E+03 -0.44991585484E+03  0.60773230335E+03  0.00000000000E+00 0.  1.
         13    1    5    5    0    0 -0.38275694905E+02  0.46842702079E+01 -0.23163186596E+02  0.44983379387E+02  0.00000000000E+00 0.  1.
        -13    1    5    5    0    0  0.37884006170E+02  0.60037306964E+02  0.45807393192E+01  0.71138311223E+02  0.00000000000E+00 0. -1.
          5    1    6    6  503    0 -0.14758290829E+03  0.11235575571E+03  0.44820111770E+03  0.48508851004E+03  0.47000000000E+01 0. -1.
         -5    1    6    6    0  503 -0.16703276959E+03  0.19082957944E+03  0.90757506231E+03  0.94235368001E+03  0.47000000000E+01 0.  1.
<mgrwt>
<rscale>  0 0.51996482E+03</rscale>
<asrwt>0</asrwt>
<pdfrwt beam="1">  1        2 0.23572419E+00 0.51996482E+03</pdfrwt>
<pdfrwt beam="2">  1       -2 0.11755870E+00 0.51996482E+03</pdfrwt>
<totfact> 0.72602333E+00</totfact>
</mgrwt>
</event>
<event>
12    1  0.3166324E-008  0.6742148E+03  0.7818608E-02  0.9762374E-01
          2   -1    0    0  501    0  0.00000000000E+00  0.00000000000E+00  0.10314362699E+04  0.10314362699E+04  0.00000000000E+00 0. -1.
         -2   -1    0    0    0  501 -0.00000000000E+00 -0.00000000000E+00 -0.64513118010E+03  0.64513118010E+03  0.00000000000E+00 0.  1.
         23    2    1    2    0    0  0.58356724466E+03 -0.18287923378E+03 -0.18650978258E+03  0.64598094216E+03  0.92249311311E+02 0.  0.
    5000000    2    1    2    0    0 -0.58356724466E+03  0.18287923378E+03  0.57281487234E+03  0.10305865078E+04  0.59999677407E+03 0.  0.
         23    2    4    4    0    0 -0.25926719119E+03  0.27997540875E+03  0.55532091993E+03  0.67974334097E+03  0.89799663397E+02 0.  0.
         23    2    4    4    0    0 -0.32430005348E+03 -0.97096174973E+02  0.17493952409E+02  0.35084316683E+03  0.90480370602E+02 0.  0.
          3    1    3    3  502    0  0.43987623177E+03 -0.17769202952E+03 -0.13494769052E+03  0.49323061118E+03  0.00000000000E+00 0. -1.
         -3    1    3    3    0  502  0.14369101289E+03 -0.51872042588E+01 -0.51562092063E+02  0.15275033097E+03  0.00000000000E+00 0.  1.
         11    1    5    5    0    0 -0.55820267272E+02  0.10373687884E+03  0.22193244059E+03  0.25125932909E+03  0.00000000000E+00 0. -1.
        -11    1    5    5    0    0 -0.20344692392E+03  0.17623852991E+03  0.33338847934E+03  0.42848401187E+03  0.00000000000E+00 0.  1.
          5    1    6    6  503    0 -0.58380631647E+02 -0.40889188470E+02 -0.25056618313E+02  0.75697741092E+02  0.47000000000E+01 0. -1.
         -5    1    6    6    0  503 -0.26591942183E+03 -0.56206986503E+02  0.42550570722E+02  0.27514542574E+03  0.47000000000E+01 0.  1.
<mgrwt>
<rscale>  0 0.67421476E+03</rscale>
<asrwt>0</asrwt>
<pdfrwt beam="1">  1        2 0.15868250E+00 0.67421476E+03</pdfrwt>
<pdfrwt beam="2">  1       -2 0.99250951E-01 0.67421476E+03</pdfrwt>
<totfact> 0.20736791E+01</totfact>
</mgrwt>
</event>
<event>
12    1  0.3166324E-008  0.6866410E+03  0.7818608E-02  0.9740355E-01
         -1   -1    0    0    0  501 -0.00000000000E+00  0.00000000000E+00  0.52747479890E+03  0.52747479890E+03  0.00000000000E+00 0.  1.
          1   -1    0    0  501    0  0.00000000000E+00 -0.00000000000E+00 -0.13190488922E+04  0.13190488922E+04  0.00000000000E+00 0. -1.
         23    2    1    2    0    0  0.42667249035E+03 -0.49314943751E+03 -0.69162937045E+03  0.95499442538E+03  0.91746306211E+02 0.  0.
    5000000    2    1    2    0    0 -0.42667249035E+03  0.49314943751E+03 -0.99944722822E+02  0.89152926569E+03  0.59965798771E+03 0.  0.
         23    2    4    4    0    0 -0.23464932667E+03  0.89958741708E+02  0.20863704930E+03  0.34077942981E+03  0.97202467718E+02 0.  0.
         23    2    4    4    0    0 -0.19202316369E+03  0.40319069580E+03 -0.30858177212E+03  0.55074983588E+03  0.93096933692E+02 0.  0.
          3    1    3    3  502    0  0.26811080256E+03 -0.24774777771E+03 -0.41391834770E+03  0.55189742015E+03  0.00000000000E+00 0. -1.
         -3    1    3    3    0  502  0.15856168779E+03 -0.24540165980E+03 -0.27771102275E+03  0.40309700523E+03  0.00000000000E+00 0.  1.
         13    1    5    5    0    0 -0.24158638407E+03  0.76113700143E+02  0.19052416943E+03  0.31694910547E+03  0.00000000000E+00 0.  1.
        -13    1    5    5    0    0  0.69370574080E+01  0.13845041565E+02  0.18112879864E+02  0.23830324345E+02  0.00000000000E+00 0. -1.
          5    1    6    6  503    0 -0.13883414247E+03  0.26650044382E+03 -0.15432356975E+03  0.33783910350E+03  0.47000000000E+01 0. -1.
         -5    1    6    6    0  503 -0.53189021214E+02  0.13669025198E+03 -0.15425820237E+03  0.21291073238E+03  0.47000000000E+01 0.  1.
<mgrwt>
<rscale>  0 0.68664101E+03</rscale>
<asrwt>0</asrwt>
<pdfrwt beam="1">  1        1 0.20293060E+00 0.68664101E+03</pdfrwt>
<pdfrwt beam="2">  1       -1 0.81149970E-01 0.68664101E+03</pdfrwt>
<totfact> 0.13847153E+01</totfact>
</mgrwt>
</event>
<event>
12    1  0.3166324E-008  0.6270221E+03  0.7818608E-02  0.9850877E-01
          2   -1    0    0  501    0  0.00000000000E+00  0.00000000000E+00  0.59487296441E+03  0.59487296441E+03  0.00000000000E+00 0. -1.
         -2   -1    0    0    0  501 -0.00000000000E+00 -0.00000000000E+00 -0.98327478777E+03  0.98327478777E+03  0.00000000000E+00 0.  1.
         23    2    1    2    0    0 -0.40890840020E+03  0.27790031906E+03  0.25995626222E+03  0.56600010205E+03  0.91346538859E+02 0.  0.
    5000000    2    1    2    0    0  0.40890840020E+03 -0.27790031906E+03 -0.64835808558E+03  0.10121476501E+04  0.59969991783E+03 0.  0.
         23    2    4    4    0    0  0.43308605538E+03  0.41296503263E+02 -0.36904049479E+03  0.57800520481E+03  0.92898855951E+02 0.  0.
         23    2    4    4    0    0 -0.24177655179E+02 -0.31919682233E+03 -0.27931759079E+03  0.43414244533E+03  0.89387783943E+02 0.  0.
          1    1    3    3  502    0 -0.97521178340E+02  0.36888275801E+02  0.24132019939E+02  0.10702093021E+03  0.00000000000E+00 0. -1.
         -1    1    3    3    0  502 -0.31138722186E+03  0.24101204326E+03  0.23582424228E+03  0.45897917184E+03  0.00000000000E+00 0.  1.
         11    1    5    5    0    0  0.18049252799E+02 -0.28384307621E+01  0.34377665391E+01  0.18591677024E+02  0.00000000000E+00 0. -1.
        -11    1    5    5    0    0  0.41503680258E+03  0.44134934026E+02 -0.37247826133E+03  0.55941352778E+03  0.00000000000E+00 0.  1.
          5    1    6    6  503    0 -0.10693425395E+02 -0.19596771235E+03 -0.11253604373E+03  0.22628332853E+03  0.47000000000E+01 0. -1.
         -5    1    6    6    0  503 -0.13484229783E+02 -0.12322910998E+03 -0.16678154706E+03  0.20785911680E+03  0.47000000000E+01 0.  1.
<mgrwt>
<rscale>  0 0.62702212E+03</rscale>
<asrwt>0</asrwt>
<pdfrwt beam="1">  1        2 0.91518917E-01 0.62702212E+03</pdfrwt>
<pdfrwt beam="2">  1       -2 0.15127305E+00 0.62702212E+03</pdfrwt>
<totfact> 0.15089872E+01</totfact>
</mgrwt>
</event>
<event>
12    1  0.3166324E-008  0.6629486E+03  0.7818608E-02  0.9782781E-01
         -1   -1    0    0    0  501 -0.00000000000E+00  0.00000000000E+00  0.94496027765E+03  0.94496027765E+03  0.00000000000E+00 0.  1.
          1   -1    0    0  501    0  0.00000000000E+00 -0.00000000000E+00 -0.58122961559E+03  0.58122961559E+03  0.00000000000E+00 0. -1.
         23    2    1    2    0    0  0.51849545084E+03  0.23616653424E+03 -0.88287608851E+02  0.58333558647E+03  0.88732970892E+02 0.  0.
    5000000    2    1    2    0    0 -0.51849545084E+03 -0.23616653424E+03  0.45201827091E+03  0.94285430678E+03  0.60003463411E+03 0.  0.
         23    2    4    4    0    0 -0.34255985464E+03 -0.38142107874E+03  0.46217182844E+03  0.69613392630E+03  0.90389994085E+02 0.  0.
         23    2    4    4    0    0 -0.17593559621E+03  0.14525454450E+03 -0.10153557531E+02  0.24672038048E+03  0.93357563711E+02 0.  0.
          4    1    3    3  502    0  0.36235182652E+03  0.16020065357E+03 -0.10214444203E+03  0.40914127466E+03  0.00000000000E+00 0. -1.
         -4    1    3    3    0  502  0.15614362432E+03  0.75965880672E+02  0.13856833182E+02  0.17419431181E+03  0.00000000000E+00 0.  1.
         13    1    5    5    0    0 -0.21442408077E+03 -0.26307128511E+03  0.35638803456E+03  0.49213475659E+03  0.00000000000E+00 0.  1.
        -13    1    5    5    0    0 -0.12813577387E+03 -0.11834979363E+03  0.10578379388E+03  0.20399916971E+03  0.00000000000E+00 0. -1.
          5    1    6    6  503    0 -0.86739037050E+02  0.12233454087E+03  0.15947648515E+02  0.15088345811E+03  0.47000000000E+01 0. -1.
         -5    1    6    6    0  503 -0.89196559158E+02  0.22920003629E+02 -0.26101206046E+02  0.95836922369E+02  0.47000000000E+01 0.  1.
<mgrwt>
<rscale>  0 0.66294864E+03</rscale>
<asrwt>0</asrwt>
<pdfrwt beam="1">  1        1 0.89419941E-01 0.66294864E+03</pdfrwt>
<pdfrwt beam="2">  1       -1 0.14537850E+00 0.66294864E+03</pdfrwt>
<totfact> 0.14144855E+01</totfact>
</mgrwt>
</event>
<event>
12    1  0.3166324E-008  0.1342076E+04  0.7818608E-02  0.8996848E-01
          2   -1    0    0  501    0  0.00000000000E+00  0.00000000000E+00  0.42410218912E+04  0.42410218912E+04  0.00000000000E+00 0. -1.
         -2   -1    0    0    0  501 -0.00000000000E+00 -0.00000000000E+00 -0.56832337036E+03  0.56832337036E+03  0.00000000000E+00 0.  1.
         23    2    1    2    0    0  0.10456909687E+04 -0.79529426253E+03  0.67039524604E+03  0.14777161197E+04  0.90843704036E+02 0.  0.
    5000000    2    1    2    0    0 -0.10456909687E+04  0.79529426253E+03  0.30023032748E+04  0.33316291418E+04  0.59997101479E+03 0.  0.
         23    2    4    4    0    0 -0.19924994765E+03  0.35420627015E+03  0.14406808225E+04  0.14992107061E+04  0.83119706007E+02 0.  0.
         23    2    4    4    0    0 -0.84644102107E+03  0.44108799238E+03  0.15616224523E+04  0.18324184357E+04  0.89842199509E+02 0.  0.
          3    1    3    3  502    0  0.49527100656E+03 -0.38201845143E+03  0.36993291758E+03  0.72669239069E+03  0.00000000000E+00 0. -1.
         -3    1    3    3    0  502  0.55041996216E+03 -0.41327581110E+03  0.30046232846E+03  0.75102372906E+03  0.00000000000E+00 0.  1.
         11    1    5    5    0    0 -0.20447464335E+03  0.32038962769E+03  0.12994902936E+04  0.13539329439E+04  0.00000000000E+00 0.  1.
        -11    1    5    5    0    0  0.52246956963E+01  0.33816642460E+02  0.14119052888E+03  0.14527776222E+03  0.00000000000E+00 0. -1.
          5    1    6    6  503    0 -0.30784987569E+03  0.19014070517E+03  0.52637773974E+03  0.63876494004E+03  0.47000000000E+01 0. -1.
         -5    1    6    6    0  503 -0.53859114538E+03  0.25094728721E+03  0.10352447126E+04  0.11936534957E+04  0.47000000000E+01 0.  1.
<mgrwt>
<rscale>  0 0.13420758E+04</rscale>
<asrwt>0</asrwt>
<pdfrwt beam="1">  1        2 0.65246488E+00 0.13420758E+04</pdfrwt>
<pdfrwt beam="2">  1       -2 0.87434368E-01 0.13420758E+04</pdfrwt>
<totfact> 0.24177655E-01</totfact>
</mgrwt>
</event>
<event>
12    1  0.3166324E-008  0.1755949E+04  0.7818608E-02  0.8730083E-01
          1   -1    0    0  501    0  0.00000000000E+00  0.00000000000E+00  0.28414041270E+04  0.28414041270E+04  0.00000000000E+00 0. -1.
         -1   -1    0    0    0  501 -0.00000000000E+00 -0.00000000000E+00 -0.17646422934E+04  0.17646422934E+04  0.00000000000E+00 0.  1.
         23    2    1    2    0    0  0.51530255940E+03  0.16447422873E+04 -0.87368322573E+03  0.19348918176E+04  0.98843550311E+02 0.  0.
    5000000    2    1    2    0    0 -0.51530255940E+03 -0.16447422873E+04  0.19504450594E+04  0.26711546028E+04  0.60009754459E+03 0.  0.
         23    2    4    4    0    0 -0.35256051274E+03 -0.15176992631E+04  0.18585419576E+04  0.24270526819E+04  0.93255264769E+02 0.  0.
         23    2    4    4    0    0 -0.16274204665E+03 -0.12704302422E+03  0.91903101780E+02  0.24410192087E+03  0.92274936484E+02 0.  0.
          3    1    3    3  502    0  0.14201680714E+03  0.58801104199E+03 -0.27889239209E+03  0.66611314758E+03  0.00000000000E+00 0. -1.
         -3    1    3    3    0  502  0.37328575225E+03  0.10567312453E+04 -0.59479083364E+03  0.12687786700E+04  0.00000000000E+00 0.  1.
         13    1    5    5    0    0 -0.69645262935E+02 -0.18337543612E+03  0.25941162119E+03  0.32522515651E+03  0.00000000000E+00 0. -1.
        -13    1    5    5    0    0 -0.28291524981E+03 -0.13343238270E+04  0.15991303364E+04  0.21018275254E+04  0.00000000000E+00 0.  1.
          5    1    6    6  503    0 -0.50864106916E+02 -0.97869573087E+02  0.42946591292E+02  0.11845720920E+03  0.47000000000E+01 0. -1.
         -5    1    6    6    0  503 -0.11187793973E+03 -0.29173451138E+02  0.48956510488E+02  0.12564471167E+03  0.47000000000E+01 0.  1.
<mgrwt>
<rscale>  0 0.17559488E+04</rscale>
<asrwt>0</asrwt>
<pdfrwt beam="1">  1        1 0.43713910E+00 0.17559488E+04</pdfrwt>
<pdfrwt beam="2">  1       -1 0.27148343E+00 0.17559488E+04</pdfrwt>
<totfact> 0.35920146E-02</totfact>
</mgrwt>
</event>
<event>
12    1  0.3166324E-008  0.3663360E+03  0.7818608E-02  0.1056103E+00
          2   -1    0    0  501    0  0.00000000000E+00  0.00000000000E+00  0.16991809367E+04  0.16991809367E+04  0.00000000000E+00 0. -1.
         -2   -1    0    0    0  501 -0.00000000000E+00 -0.00000000000E+00 -0.11503904575E+03  0.11503904575E+03  0.00000000000E+00 0.  1.
         23    2    1    2    0    0 -0.89491625057E+02 -0.64437817897E+02  0.32786869929E+02  0.14718548690E+03  0.91801990085E+02 0.  0.
    5000000    2    1    2    0    0  0.89491625057E+02  0.64437817897E+02  0.15513550210E+04  0.16670344955E+04  0.60011717585E+03 0.  0.
         23    2    4    4    0    0  0.32975040645E+03 -0.11915216538E+02  0.90490885714E+03  0.96763729522E+03  0.92653075641E+02 0.  0.
         23    2    4    4    0    0 -0.24025878140E+03  0.76353034435E+02  0.64644616388E+03  0.69939720033E+03  0.87805085957E+02 0.  0.
          3    1    3    3  502    0  0.10878050033E+02 -0.30956099944E+02  0.24701009931E+02  0.41070086290E+02  0.00000000000E+00 0. -1.
         -3    1    3    3    0  502 -0.10036967509E+03 -0.33481717953E+02  0.80858599976E+01  0.10611540061E+03  0.00000000000E+00 0.  1.
         13    1    5    5    0    0  0.13616152892E+02 -0.15907678671E+02  0.11347270507E+03  0.11538851181E+03  0.00000000000E+00 0. -1.
        -13    1    5    5    0    0  0.31613425356E+03  0.39924621331E+01  0.79143615206E+03  0.85224878341E+03  0.00000000000E+00 0.  1.
          5    1    6    6  503    0 -0.67735657948E+02 -0.80928903721E+00  0.97548843225E+02  0.11885554729E+03  0.47000000000E+01 0. -1.
         -5    1    6    6    0  503 -0.17252312345E+03  0.77162323472E+02  0.54889732066E+03  0.58054165304E+03  0.47000000000E+01 0.  1.
<mgrwt>
<rscale>  0 0.36633596E+03</rscale>
<asrwt>0</asrwt>
<pdfrwt beam="1">  1        2 0.26141243E+00 0.36633596E+03</pdfrwt>
<pdfrwt beam="2">  1       -2 0.17698316E-01 0.36633596E+03</pdfrwt>
<totfact> 0.27429058E+02</totfact>
</mgrwt>
</event>
<event>
12    1  0.3166324E-008  0.8277966E+03  0.7818608E-02  0.9520632E-01
         -2   -1    0    0    0  501 -0.00000000000E+00  0.00000000000E+00  0.66023145324E+03  0.66023145324E+03  0.00000000000E+00 0.  1.
          2   -1    0    0  501    0  0.00000000000E+00 -0.00000000000E+00 -0.11499407898E+04  0.11499407898E+04  0.00000000000E+00 0. -1.
         23    2    1    2    0    0  0.62988193352E+03  0.43098252032E+03 -0.27178976248E+03  0.81518114771E+03  0.90296431827E+02 0.  0.
    5000000    2    1    2    0    0 -0.62988193352E+03 -0.43098252032E+03 -0.21791957411E+03  0.99499109535E+03  0.60001762979E+03 0.  0.
         23    2    4    4    0    0 -0.23360804540E+02 -0.25173664644E+03 -0.23262029535E+03  0.35568015341E+03  0.92082046948E+02 0.  0.
         23    2    4    4    0    0 -0.60652112898E+03 -0.17924587388E+03  0.14700721248E+02  0.63931094194E+03  0.92224758489E+02 0.  0.
          2    1    3    3  502    0  0.46280955301E+03  0.30257357805E+03 -0.23708229204E+03  0.60162402353E+03  0.00000000000E+00 0. -1.
         -2    1    3    3    0  502  0.16707238052E+03  0.12840894227E+03 -0.34707470438E+02  0.21355712418E+03  0.00000000000E+00 0.  1.
         11    1    5    5    0    0 -0.37019206338E+01 -0.12718675355E+03 -0.17669791021E+03  0.21774371626E+03  0.00000000000E+00 0. -1.
        -11    1    5    5    0    0 -0.19658883906E+02 -0.12454989289E+03 -0.55922385141E+02  0.13793643715E+03  0.00000000000E+00 0.  1.
          5    1    6    6  503    0 -0.78233621464E+02  0.63750081343E+01  0.10460462288E+02  0.79326234799E+02  0.47000000000E+01 0. -1.
         -5    1    6    6    0  503 -0.52828750752E+03 -0.18562088201E+03  0.42402589597E+01  0.55998470715E+03  0.47000000000E+01 0.  1.
<mgrwt>
<rscale>  0 0.82779662E+03</rscale>
<asrwt>0</asrwt>
<pdfrwt beam="1">  1        2 0.17691397E+00 0.82779662E+03</pdfrwt>
<pdfrwt beam="2">  1       -2 0.10157407E+00 0.82779662E+03</pdfrwt>
<totfact> 0.16321371E+01</totfact>
</mgrwt>
</event>
<event>
12    1  0.3166324E-008  0.1028393E+04  0.7818608E-02  0.9277940E-01
         -2   -1    0    0    0  501 -0.00000000000E+00  0.00000000000E+00  0.88444462427E+03  0.88444462427E+03  0.00000000000E+00 0. -1.
          2   -1    0    0  501    0  0.00000000000E+00 -0.00000000000E+00 -0.17346879167E+04  0.17346879167E+04  0.00000000000E+00 0.  1.
         23    2    1    2    0    0 -0.75934016043E+03  0.57136383865E+03  0.31060583289E+03  0.10033002809E+04  0.84150786391E+02 0.  0.
    5000000    2    1    2    0    0  0.75934016043E+03 -0.57136383865E+03 -0.11608491253E+04  0.16158322601E+04  0.60024085638E+03 0.  0.
         23    2    4    4    0    0  0.80466562598E+03 -0.36528709069E+03 -0.99402908104E+03  0.13330333189E+04  0.89233329252E+02 0.  0.
         23    2    4    4    0    0 -0.45325465556E+02 -0.20607674796E+03 -0.16682004430E+03  0.28279894123E+03  0.87317181018E+02 0.  0.
          4    1    3    3  502    0 -0.65924100037E+03  0.47530648294E+03  0.23875314821E+03  0.84706435120E+03  0.00000000000E+00 0. -1.
         -4    1    3    3    0  502 -0.10009916006E+03  0.96057355707E+02  0.71852684678E+02  0.15623592969E+03  0.00000000000E+00 0.  1.
         13    1    5    5    0    0  0.27832899566E+03 -0.10083070969E+03 -0.38633665864E+03  0.48671334032E+03  0.00000000000E+00 0. -1.
        -13    1    5    5    0    0  0.52633663033E+03 -0.26445638100E+03 -0.60769242240E+03  0.84631997857E+03  0.00000000000E+00 0.  1.
          5    1    6    6  503    0 -0.13973502097E+02 -0.34095936670E+01 -0.37165087885E+02  0.40127519825E+02  0.47000000000E+01 0. -1.
         -5    1    6    6    0  503 -0.31351963458E+02 -0.20266715429E+03 -0.12965495642E+03  0.24267142140E+03  0.47000000000E+01 0.  1.
<mgrwt>
<rscale>  0 0.10283935E+04</rscale>
<asrwt>0</asrwt>
<pdfrwt beam="1">  1        2 0.26687506E+00 0.10283935E+04</pdfrwt>
<pdfrwt beam="2">  1       -2 0.13606841E+00 0.10283935E+04</pdfrwt>
<totfact> 0.35967966E+00</totfact>
</mgrwt>
</event>
<event>
12    1  0.3166324E-008  0.8221031E+03  0.7818608E-02  0.9528564E-01
          2   -1    0    0  501    0  0.00000000000E+00  0.00000000000E+00  0.16108285124E+04  0.16108285124E+04  0.00000000000E+00 0. -1.
         -2   -1    0    0    0  501 -0.00000000000E+00 -0.00000000000E+00 -0.68094539595E+03  0.68094539595E+03  0.00000000000E+00 0.  1.
         23    2    1    2    0    0 -0.80750090968E+03  0.48286458874E+02 -0.13603404360E+03  0.82532316903E+03  0.90905286284E+02 0.  0.
    5000000    2    1    2    0    0  0.80750090968E+03 -0.48286458874E+02  0.10659171601E+04  0.14664507393E+04  0.59992422648E+03 0.  0.
         23    2    4    4    0    0  0.34870617297E+03  0.51397198441E+02  0.83242317668E+02  0.37365181861E+03  0.91916978977E+02 0.  0.
         23    2    4    4    0    0  0.45879473671E+03 -0.99683657316E+02  0.98267484238E+03  0.10927989207E+04  0.90167584449E+02 0.  0.
          1    1    3    3  502    0 -0.67227127927E+03  0.32483635053E+02 -0.78874669092E+02  0.67766147368E+03  0.00000000000E+00 0. -1.
         -1    1    3    3    0  502 -0.13522963041E+03  0.15802823821E+02 -0.57159374503E+02  0.14766169536E+03  0.00000000000E+00 0.  1.
         11    1    5    5    0    0  0.80367337575E+02  0.37938616666E+02 -0.95949121992E+01  0.89388533513E+02  0.00000000000E+00 0. -1.
        -11    1    5    5    0    0  0.26833883540E+03  0.13458581776E+02  0.92837229867E+02  0.28426328510E+03  0.00000000000E+00 0.  1.
          5    1    6    6  503    0  0.52546105484E+02  0.15820322473E+02  0.96446953362E+02  0.11106520885E+03  0.47000000000E+01 0. -1.
         -5    1    6    6    0  503  0.40624863123E+03 -0.11550397979E+03  0.88622788902E+03  0.98173371186E+03  0.47000000000E+01 0.  1.
<mgrwt>
<rscale>  0 0.82210313E+03</rscale>
<asrwt>0</asrwt>
<pdfrwt beam="1">  1        2 0.24781977E+00 0.82210313E+03</pdfrwt>
<pdfrwt beam="2">  1       -2 0.10476083E+00 0.82210313E+03</pdfrwt>
<totfact> 0.82660183E+00</totfact>
</mgrwt>
</event>
<event>
12    1  0.3166324E-008  0.1081256E+04  0.7818608E-02  0.9223656E-01
         -2   -1    0    0    0  501 -0.00000000000E+00  0.00000000000E+00  0.55958372225E+03  0.55958372225E+03  0.00000000000E+00 0.  1.
          2   -1    0    0  501    0  0.00000000000E+00 -0.00000000000E+00 -0.34230437993E+04  0.34230437993E+04  0.00000000000E+00 0. -1.
         23    2    1    2    0    0 -0.44590421087E+02 -0.10100084699E+04 -0.25809588722E+04  0.27735297555E+04  0.94937819633E+02 0.  0.
    5000000    2    1    2    0    0  0.44590421087E+02  0.10100084699E+04 -0.28250120486E+03  0.12090977661E+04  0.60000421849E+03 0.  0.
         23    2    4    4    0    0 -0.12714996291E+03  0.54598932275E+01 -0.26123669268E+02  0.15385949458E+03  0.82421929573E+02 0.  0.
         23    2    4    4    0    0  0.17174038400E+03  0.10045485767E+04 -0.25637753560E+03  0.10552382715E+04  0.95842404138E+02 0.  0.
          3    1    3    3  502    0 -0.48820135920E+02 -0.37666597344E+03 -0.87930809975E+03  0.95783265527E+03  0.00000000000E+00 0. -1.
         -3    1    3    3    0  502  0.42297148337E+01 -0.63334249648E+03 -0.17016507724E+04  0.18156971002E+04  0.00000000000E+00 0.  1.
         11    1    5    5    0    0 -0.62556230706E+02  0.11401752679E+02 -0.53840916272E+02  0.83319422881E+02  0.00000000000E+00 0.  1.
        -11    1    5    5    0    0 -0.64593732205E+02 -0.59418594511E+01  0.27717247005E+02  0.70540071700E+02  0.00000000000E+00 0. -1.
          5    1    6    6  503    0  0.10016785728E+03  0.74083127186E+03 -0.15326606075E+03  0.76313638910E+03  0.47000000000E+01 0. -1.
         -5    1    6    6    0  503  0.71572526719E+02  0.26371730483E+03 -0.10311147485E+03  0.29210188239E+03  0.47000000000E+01 0.  1.
<mgrwt>
<rscale>  0 0.10812556E+04</rscale>
<asrwt>0</asrwt>
<pdfrwt beam="1">  1        2 0.52662212E+00 0.10812556E+04</pdfrwt>
<pdfrwt beam="2">  1       -2 0.86089804E-01 0.10812556E+04</pdfrwt>
<totfact> 0.10960175E+00</totfact>
</mgrwt>
</event>
<event>
12    1  0.3166324E-008  0.5400612E+03  0.7818608E-02  0.1003821E+00
         -1   -1    0    0    0  501 -0.00000000000E+00  0.00000000000E+00  0.11463738506E+04  0.11463738506E+04  0.00000000000E+00 0.  1.
          1   -1    0    0  501    0  0.00000000000E+00 -0.00000000000E+00 -0.33662645469E+03  0.33662645469E+03  0.00000000000E+00 0. -1.
         23    2    1    2    0    0 -0.35950098953E+03 -0.19528402359E+03  0.34756993798E+02  0.42088992185E+03  0.92538999112E+02 0.  0.
    5000000    2    1    2    0    0  0.35950098953E+03  0.19528402359E+03  0.77499040213E+03  0.10621103834E+04  0.60007627174E+03 0.  0.
         23    2    4    4    0    0  0.20690976131E+03  0.35847889765E+03  0.68216080411E+03  0.80332356822E+03  0.93094700128E+02 0.  0.
         23    2    4    4    0    0  0.15259122822E+03 -0.16319487407E+03  0.92829598012E+02  0.25878681523E+03  0.91851138375E+02 0.  0.
          1    1    3    3  502    0 -0.22165084261E+03 -0.16991992953E+03  0.23148997170E+02  0.28024588231E+03  0.00000000000E+00 0. -1.
         -1    1    3    3    0  502 -0.13785014692E+03 -0.25364094057E+02  0.11607996628E+02  0.14064403954E+03  0.00000000000E+00 0.  1.
         11    1    5    5    0    0  0.17350493367E+03  0.23921499543E+03  0.42194700506E+03  0.51513789525E+03  0.00000000000E+00 0. -1.
        -11    1    5    5    0    0  0.33404827648E+02  0.11926390222E+03  0.26021379906E+03  0.28818567297E+03  0.00000000000E+00 0.  1.
          5    1    6    6  503    0  0.10030473561E+03 -0.41284626615E+02  0.47756321684E+02  0.11860951328E+03  0.47000000000E+01 0. -1.
         -5    1    6    6    0  503  0.52286492607E+02 -0.12191024745E+03  0.45073276328E+02  0.14017730195E+03  0.47000000000E+01 0.  1.
<mgrwt>
<rscale>  0 0.54006123E+03</rscale>
<asrwt>0</asrwt>
<pdfrwt beam="1">  1        1 0.51788686E-01 0.54006123E+03</pdfrwt>
<pdfrwt beam="2">  1       -1 0.17636521E+00 0.54006123E+03</pdfrwt>
<totfact> 0.17573111E+01</totfact>
</mgrwt>
</event>
<event>
12    1  0.3166324E-008  0.3735073E+03  0.7818608E-02  0.1053360E+00
          1   -1    0    0  501    0  0.00000000000E+00  0.00000000000E+00  0.51371819744E+03  0.51371819744E+03  0.00000000000E+00 0. -1.
         -1   -1    0    0    0  501 -0.00000000000E+00 -0.00000000000E+00 -0.68704473093E+03  0.68704473093E+03  0.00000000000E+00 0.  1.
         23    2    1    2    0    0  0.33375094851E+03 -0.13303633742E+02  0.21903844544E+03  0.40980608422E+03  0.91632438453E+02 0.  0.
    5000000    2    1    2    0    0 -0.33375094851E+03  0.13303633742E+02 -0.39236497892E+03  0.79095684415E+03  0.60007980330E+03 0.  0.
         23    2    4    4    0    0 -0.13470544304E+03  0.10016400521E+03  0.12052831183E+03  0.22587123389E+03  0.91172123033E+02 0.  0.
         23    2    4    4    0    0 -0.19904550547E+03 -0.86860371472E+02 -0.51289329076E+03  0.56508561027E+03  0.95385438325E+02 0.  0.
          1    1    3    3  502    0  0.42060982204E+02 -0.70130756701E+01 -0.36155246364E+01  0.42794643038E+02  0.00000000000E+00 0. -1.
         -1    1    3    3    0  502  0.29168996631E+03 -0.62905580721E+01  0.22265397007E+03  0.36701144118E+03  0.00000000000E+00 0.  1.
         13    1    5    5    0    0 -0.20639521627E+01  0.45553675576E+02  0.15782384401E+02  0.48254335706E+02  0.00000000000E+00 0.  1.
        -13    1    5    5    0    0 -0.13264149088E+03  0.54610329639E+02  0.10474592743E+03  0.17761689818E+03  0.00000000000E+00 0. -1.
          5    1    6    6  503    0 -0.98777578445E+02 -0.14765547346E+02 -0.13848303095E+03  0.17080594618E+03  0.47000000000E+01 0.  1.
         -5    1    6    6    0  503 -0.10026792703E+03 -0.72094824127E+02 -0.37441025981E+03  0.39427966408E+03  0.47000000000E+01 0. -1.
<mgrwt>
<rscale>  0 0.37350732E+03</rscale>
<asrwt>0</asrwt>
<pdfrwt beam="1">  1        1 0.79033569E-01 0.37350732E+03</pdfrwt>
<pdfrwt beam="2">  1       -1 0.10569919E+00 0.37350732E+03</pdfrwt>
<totfact> 0.38420082E+01</totfact>
</mgrwt>
</event>
<event>
12    1  0.3166324E-008  0.7245727E+03  0.7818608E-02  0.9676108E-01
          1   -1    0    0  501    0  0.00000000000E+00  0.00000000000E+00  0.84105332426E+03  0.84105332426E+03  0.00000000000E+00 0. -1.
         -1   -1    0    0    0  501 -0.00000000000E+00 -0.00000000000E+00 -0.10896222755E+04  0.10896222755E+04  0.00000000000E+00 0.  1.
         23    2    1    2    0    0  0.29441286577E+03  0.57550886279E+03  0.46053938495E+03  0.79893646694E+03  0.91178760923E+02 0.  0.
    5000000    2    1    2    0    0 -0.29441286577E+03 -0.57550886279E+03 -0.70910833616E+03  0.11317391328E+04  0.60009119775E+03 0.  0.
         23    2    4    4    0    0 -0.17242597495E+03 -0.61175798866E+03 -0.73149723525E+03  0.97337467714E+03  0.91605149415E+02 0.  0.
         23    2    4    4    0    0 -0.12198689083E+03  0.36249125872E+02  0.22388899082E+02  0.15836445566E+03  0.91560020503E+02 0.  0.
          2    1    3    3  502    0  0.18324722616E+02  0.11077100742E+03  0.78032422610E+02  0.13672991817E+03  0.00000000000E+00 0. -1.
         -2    1    3    3    0  502  0.27608814316E+03  0.46473785536E+03  0.38250696234E+03  0.66220654877E+03  0.00000000000E+00 0.  1.
         11    1    5    5    0    0 -0.14201995007E+03 -0.34708744172E+03 -0.40467250259E+03  0.55172383741E+03  0.00000000000E+00 0. -1.
        -11    1    5    5    0    0 -0.30406024875E+02 -0.26467054694E+03 -0.32682473266E+03  0.42165083973E+03  0.00000000000E+00 0.  1.
          5    1    6    6  503    0 -0.38349156079E+02  0.56733346133E+02  0.22153622035E+02  0.72126301061E+02  0.47000000000E+01 0. -1.
         -5    1    6    6    0  503 -0.83637734750E+02 -0.20484220261E+02  0.23527704710E+00  0.86238154602E+02  0.47000000000E+01 0.  1.
<mgrwt>
<rscale>  0 0.72457270E+03</rscale>
<asrwt>0</asrwt>
<pdfrwt beam="1">  1        1 0.12939282E+00 0.72457270E+03</pdfrwt>
<pdfrwt beam="2">  1       -1 0.16763419E+00 0.72457270E+03</pdfrwt>
<totfact> 0.54260621E+00</totfact>
</mgrwt>
</event>
<event>
12    1  0.3166324E-008  0.7895335E+03  0.7818608E-02  0.9575292E-01
         -2   -1    0    0    0  501 -0.00000000000E+00  0.00000000000E+00  0.80300840897E+03  0.80300840897E+03  0.00000000000E+00 0.  1.
          2   -1    0    0  501    0  0.00000000000E+00 -0.00000000000E+00 -0.92767361123E+03  0.92767361123E+03  0.00000000000E+00 0. -1.
         23    2    1    2    0    0  0.71787304343E+03  0.23694724139E+03 -0.61410971707E+02  0.76386593035E+03  0.90742219535E+02 0.  0.
    5000000    2    1    2    0    0 -0.71787304343E+03 -0.23694724139E+03 -0.63254230552E+02  0.96681608986E+03  0.59937179800E+03 0.  0.
         23    2    4    4    0    0 -0.62388715381E+03 -0.27273522087E+03 -0.25248266119E+03  0.73185434651E+03  0.90794322070E+02 0.  0.
         23    2    4    4    0    0 -0.93985889626E+02  0.35787979476E+02  0.18922843064E+03  0.23496174335E+03  0.96361273092E+02 0.  0.
          2    1    3    3  502    0  0.56093034939E+03  0.17654049231E+03 -0.10453908596E+02  0.58814852418E+03  0.00000000000E+00 0. -1.
         -2    1    3    3    0  502  0.15694269404E+03  0.60406749086E+02 -0.50957063111E+02  0.17571740616E+03  0.00000000000E+00 0.  1.
         13    1    5    5    0    0 -0.58453965713E+03 -0.23571403529E+03 -0.21435554916E+03  0.66572968887E+03  0.00000000000E+00 0.  1.
        -13    1    5    5    0    0 -0.39347496676E+02 -0.37021185577E+02 -0.38127112028E+02  0.66124657638E+02  0.00000000000E+00 0. -1.
          5    1    6    6  503    0 -0.55394831335E+02 -0.29214199158E+02  0.73834673617E+02  0.96931448969E+02  0.47000000000E+01 0. -1.
         -5    1    6    6    0  503 -0.38591058291E+02  0.65002178634E+02  0.11539375702E+03  0.13803029438E+03  0.47000000000E+01 0.  1.
<mgrwt>
<rscale>  0 0.78953349E+03</rscale>
<asrwt>0</asrwt>
<pdfrwt beam="1">  1        2 0.14271902E+00 0.78953349E+03</pdfrwt>
<pdfrwt beam="2">  1       -2 0.12353976E+00 0.78953349E+03</pdfrwt>
<totfact> 0.14037680E+01</totfact>
</mgrwt>
</event>
<event>
12    1  0.3166324E-008  0.1564390E+04  0.7818608E-02  0.8842728E-01
         -1   -1    0    0    0  501 -0.00000000000E+00  0.00000000000E+00  0.18678778468E+04  0.18678778468E+04  0.00000000000E+00 0.  1.
          1   -1    0    0  501    0  0.00000000000E+00 -0.00000000000E+00 -0.14930943990E+04  0.14930943990E+04  0.00000000000E+00 0. -1.
         23    2    1    2    0    0 -0.61314837048E+03 -0.14206862777E+04 -0.28326768253E+03  0.15756694846E+04  0.90516964487E+02 0.  0.
    5000000    2    1    2    0    0  0.61314837048E+03  0.14206862777E+04  0.65805113035E+03  0.17853027613E+04  0.59997852904E+03 0.  0.
         23    2    4    4    0    0 -0.28833374784E+02  0.15448511939E+03  0.24510169768E+03  0.30401902489E+03  0.87496912352E+02 0.  0.
         23    2    4    4    0    0  0.64198174527E+03  0.12662011583E+04  0.41294943267E+03  0.14812837364E+04  0.90930408158E+02 0.  0.
          1    1    3    3  502    0 -0.41343053210E+03 -0.84663403885E+03 -0.16938492256E+03  0.95729057898E+03  0.00000000000E+00 0. -1.
         -1    1    3    3    0  502 -0.19971783838E+03 -0.57405223886E+03 -0.11388275997E+03  0.61837890563E+03  0.00000000000E+00 0.  1.
         11    1    5    5    0    0 -0.71077413186E+01  0.42536430319E+02  0.14827642663E+03  0.15442074532E+03  0.00000000000E+00 0. -1.
        -11    1    5    5    0    0 -0.21725633465E+02  0.11194868908E+03  0.96825271051E+02  0.14959827957E+03  0.00000000000E+00 0.  1.
          5    1    6    6  503    0  0.45276054528E+03  0.81491048532E+03  0.24526485725E+03  0.96397518156E+03  0.47000000000E+01 0. -1.
         -5    1    6    6    0  503  0.18922119998E+03  0.45129067299E+03  0.16768457543E+03  0.51730855482E+03  0.47000000000E+01 0.  1.
<mgrwt>
<rscale>  0 0.15643901E+04</rscale>
<asrwt>0</asrwt>
<pdfrwt beam="1">  1        1 0.22970683E+00 0.15643901E+04</pdfrwt>
<pdfrwt beam="2">  1       -1 0.28736582E+00 0.15643901E+04</pdfrwt>
<totfact> 0.24761666E-01</totfact>
</mgrwt>
</event>
<event>
12    1  0.3166324E-008  0.9499583E+03  0.7818608E-02  0.9365199E-01
          1   -1    0    0  501    0  0.00000000000E+00  0.00000000000E+00  0.17074150846E+04  0.17074150846E+04  0.00000000000E+00 0. -1.
         -1   -1    0    0    0  501 -0.00000000000E+00 -0.00000000000E+00 -0.71793651532E+03  0.71793651532E+03  0.00000000000E+00 0.  1.
         23    2    1    2    0    0  0.62944352550E+03 -0.70299789545E+03  0.25198118616E+02  0.94863058677E+03  0.94126787689E+02 0.  0.
    5000000    2    1    2    0    0 -0.62944352550E+03  0.70299789545E+03  0.96428045065E+03  0.14767210131E+04  0.60038568465E+03 0.  0.
         23    2    4    4    0    0 -0.42682610956E+03  0.47598015082E+03  0.96221661484E+03  0.11588954150E+04  0.91870220241E+02 0.  0.
         23    2    4    4    0    0 -0.20261741594E+03  0.22701774464E+03  0.20638358122E+01  0.31782559809E+03  0.91749538213E+02 0.  0.
          3    1    3    3  502    0  0.25305506543E+03 -0.27335864621E+03  0.55589788975E+02  0.37663250024E+03  0.00000000000E+00 0. -1.
         -3    1    3    3    0  502  0.37638846007E+03 -0.42963924924E+03 -0.30391670358E+02  0.57199808652E+03  0.00000000000E+00 0.  1.
         13    1    5    5    0    0 -0.39112915039E+03  0.39488776364E+03  0.80117870549E+03  0.97509265011E+03  0.00000000000E+00 0.  1.
        -13    1    5    5    0    0 -0.35696959163E+02  0.81092387172E+02  0.16103790934E+03  0.18380276493E+03  0.00000000000E+00 0. -1.
          5    1    6    6  503    0 -0.32702964734E+02  0.81901011346E+02 -0.27225945755E+02  0.92415375799E+02  0.47000000000E+01 0. -1.
         -5    1    6    6    0  503 -0.16991445121E+03  0.14511673329E+03  0.29289781568E+02  0.22541022230E+03  0.47000000000E+01 0.  1.
<mgrwt>
<rscale>  0 0.94995828E+03</rscale>
<asrwt>0</asrwt>
<pdfrwt beam="1">  1        1 0.26267924E+00 0.94995828E+03</pdfrwt>
<pdfrwt beam="2">  1       -1 0.11045177E+00 0.94995828E+03</pdfrwt>
<totfact> 0.36115698E+00</totfact>
</mgrwt>
</event>
<event>
12    1  0.3166324E-008  0.4616724E+03  0.7818608E-02  0.1024297E+00
          1   -1    0    0  501    0  0.00000000000E+00  0.00000000000E+00  0.20368481946E+04  0.20368481946E+04  0.00000000000E+00 0. -1.
         -1   -1    0    0    0  501 -0.00000000000E+00 -0.00000000000E+00 -0.16635503342E+03  0.16635503342E+03  0.00000000000E+00 0.  1.
         23    2    1    2    0    0 -0.34061030749E+03 -0.23681363142E+03  0.54929091451E+03  0.69397981023E+03  0.88268854416E+02 0.  0.
    5000000    2    1    2    0    0  0.34061030749E+03  0.23681363142E+03  0.13212022466E+04  0.15092234178E+04  0.60006988808E+03 0.  0.
         23    2    4    4    0    0  0.52297444246E+02  0.16592127633E+03  0.11253269648E+04  0.11423298478E+04  0.91059380865E+02 0.  0.
         23    2    4    4    0    0  0.28831286324E+03  0.70892355096E+02  0.19587528184E+03  0.36689356996E+03  0.89965173939E+02 0.  0.
          3    1    3    3  502    0 -0.45057997520E+02 -0.97027934912E-02  0.67534573241E+02  0.81185847397E+02  0.00000000000E+00 0. -1.
         -3    1    3    3    0  502 -0.29555230997E+03 -0.23680392863E+03  0.48175634126E+03  0.61279396284E+03  0.00000000000E+00 0.  1.
         11    1    5    5    0    0  0.47573718764E+02  0.23691738681E+02  0.25957166154E+03  0.26495660904E+03  0.00000000000E+00 0.  1.
        -11    1    5    5    0    0  0.47237254821E+01  0.14222953765E+03  0.86575530326E+03  0.87737323876E+03  0.00000000000E+00 0. -1.
          5    1    6    6  503    0  0.16021947691E+03  0.72505765481E+02  0.76890962299E+02  0.19199395015E+03  0.47000000000E+01 0. -1.
         -5    1    6    6    0  503  0.12809338633E+03 -0.16134103855E+01  0.11898431954E+03  0.17489961981E+03  0.47000000000E+01 0.  1.
<mgrwt>
<rscale>  0 0.46167238E+03</rscale>
<asrwt>0</asrwt>
<pdfrwt beam="1">  1        1 0.31336124E+00 0.46167238E+03</pdfrwt>
<pdfrwt beam="2">  1       -1 0.25593084E-01 0.46167238E+03</pdfrwt>
<totfact> 0.41021592E+01</totfact>
</mgrwt>
</event>
<event>
12    1  0.3166324E-008  0.5808722E+03  0.7818608E-02  0.9945904E-01
         -2   -1    0    0    0  501 -0.00000000000E+00  0.00000000000E+00  0.10684509956E+04  0.10684509956E+04  0.00000000000E+00 0.  1.
          2   -1    0    0  501    0  0.00000000000E+00 -0.00000000000E+00 -0.76205939786E+03  0.76205939786E+03  0.00000000000E+00 0. -1.
         23    2    1    2    0    0  0.18563115789E+03 -0.44667664637E+03  0.78345526770E+03  0.92405024299E+03  0.78023982727E+02 0.  0.
    5000000    2    1    2    0    0 -0.18563115789E+03  0.44667664637E+03 -0.47706367001E+03  0.90646015042E+03  0.60008441561E+03 0.  0.
         23    2    4    4    0    0 -0.13362785364E+03 -0.51991786351E+02  0.46127237128E+02  0.17631593104E+03  0.91651712558E+02 0.  0.
         23    2    4    4    0    0 -0.52003304252E+02  0.49866843272E+03 -0.52319090714E+03  0.73014421938E+03  0.89483553486E+02 0.  0.
          3    1    3    3  502    0  0.75178517326E+02 -0.24423222580E+03  0.46892845448E+03  0.53403659519E+03  0.00000000000E+00 0. -1.
         -3    1    3    3    0  502  0.11045264057E+03 -0.20244442057E+03  0.31452681323E+03  0.39001364780E+03  0.00000000000E+00 0.  1.
         13    1    5    5    0    0 -0.35524943255E+02 -0.58577552271E+02  0.19819162776E+01  0.68536699770E+02  0.00000000000E+00 0. -1.
        -13    1    5    5    0    0 -0.98102910387E+02  0.65857659192E+01  0.44145320850E+02  0.10777923126E+03  0.00000000000E+00 0.  1.
          5    1    6    6  503    0  0.23457258812E+02  0.15781688495E+03 -0.17994446516E+03  0.24053796521E+03  0.47000000000E+01 0. -1.
         -5    1    6    6    0  503 -0.75460563064E+02  0.34085154777E+03 -0.34324644198E+03  0.48960625417E+03  0.47000000000E+01 0.  1.
<mgrwt>
<rscale>  0 0.58087223E+03</rscale>
<asrwt>0</asrwt>
<pdfrwt beam="1">  1        2 0.11723991E+00 0.58087223E+03</pdfrwt>
<pdfrwt beam="2">  1       -2 0.16437708E+00 0.58087223E+03</pdfrwt>
<totfact> 0.89348498E+00</totfact>
</mgrwt>
</event>
<event>
12    1  0.3166324E-008  0.3334951E+03  0.7818608E-02  0.1069601E+00
         -1   -1    0    0    0  501 -0.00000000000E+00  0.00000000000E+00  0.15581444492E+03  0.15581444492E+03  0.00000000000E+00 0.  1.
          1   -1    0    0  501    0  0.00000000000E+00 -0.00000000000E+00 -0.16214332531E+04  0.16214332531E+04  0.00000000000E+00 0. -1.
         23    2    1    2    0    0 -0.29263399971E+03 -0.10883499483E+03 -0.54624795620E+03  0.63588130324E+03  0.92078706928E+02 0.  0.
    5000000    2    1    2    0    0  0.29263399971E+03  0.10883499483E+03 -0.91937085195E+03  0.11413663947E+04  0.59999564144E+03 0.  0.
         23    2    4    4    0    0  0.11126189476E+03 -0.21457021856E+02  0.40738667207E+02  0.15155567837E+03  0.92031905492E+02 0.  0.
         23    2    4    4    0    0  0.18137210495E+03  0.13029201669E+03 -0.96010951916E+03  0.98981071637E+03  0.89683417614E+02 0.  0.
          3    1    3    3  502    0 -0.14330593913E+03 -0.41440364755E+02 -0.17411741781E+03  0.22928316816E+03  0.00000000000E+00 0. -1.
         -3    1    3    3    0  502 -0.14932806059E+03 -0.67394630075E+02 -0.37213053839E+03  0.40659813508E+03  0.00000000000E+00 0.  1.
         13    1    5    5    0    0  0.10869745776E+03 -0.76866598666E+01  0.52265823103E+00  0.10897015754E+03  0.00000000000E+00 0. -1.
        -13    1    5    5    0    0  0.25644370019E+01 -0.13770361989E+02  0.40216008976E+02  0.42585520830E+02  0.00000000000E+00 0.  1.
          5    1    6    6  503    0  0.11241559612E+03  0.44889060570E+02 -0.36304427616E+03  0.38272121768E+03  0.47000000000E+01 0. -1.
         -5    1    6    6    0  503  0.68956508836E+02  0.85402956116E+02 -0.59706524300E+03  0.60708949869E+03  0.47000000000E+01 0.  1.
<mgrwt>
<rscale>  0 0.33349511E+03</rscale>
<asrwt>0</asrwt>
<pdfrwt beam="1">  1        1 0.24945124E+00 0.33349511E+03</pdfrwt>
<pdfrwt beam="2">  1       -1 0.23971456E-01 0.33349511E+03</pdfrwt>
<totfact> 0.88377097E+01</totfact>
</mgrwt>
</event>
<event>
12    1  0.3166324E-008  0.7130044E+03  0.7818608E-02  0.9695248E-01
          2   -1    0    0  501    0  0.00000000000E+00  0.00000000000E+00  0.14081707056E+04  0.14081707056E+04  0.00000000000E+00 0. -1.
         -2   -1    0    0    0  501 -0.00000000000E+00 -0.00000000000E+00 -0.85305126640E+03  0.85305126640E+03  0.00000000000E+00 0.  1.
         23    2    1    2    0    0 -0.44434457124E+03 -0.50744723478E+03 -0.52048754344E+03  0.85696556864E+03  0.92400805688E+02 0.  0.
    5000000    2    1    2    0    0  0.44434457124E+03  0.50744723478E+03  0.10756069826E+04  0.14042564033E+04  0.60005072384E+03 0.  0.
         23    2    4    4    0    0  0.24473981514E+03  0.48317364948E+03  0.36140197847E+03  0.65694759762E+03  0.87260548432E+02 0.  0.
         23    2    4    4    0    0  0.19960475610E+03  0.24273585295E+02  0.71420500412E+03  0.74730880569E+03  0.89165001831E+02 0.  0.
          3    1    3    3  502    0 -0.15929856846E+03 -0.18551398115E+03 -0.24587669873E+03  0.34676623551E+03  0.00000000000E+00 0. -1.
         -3    1    3    3    0  502 -0.28504600278E+03 -0.32193325363E+03 -0.27461084471E+03  0.51019933313E+03  0.00000000000E+00 0.  1.
         13    1    5    5    0    0  0.11595654654E+03  0.31705770751E+03  0.20514201275E+03  0.39503766399E+03  0.00000000000E+00 0.  1.
        -13    1    5    5    0    0  0.12878326860E+03  0.16611594197E+03  0.15625996572E+03  0.26190993363E+03  0.00000000000E+00 0. -1.
          5    1    6    6  503    0  0.14425185091E+03  0.34125334856E+01  0.61494141759E+03  0.63166073088E+03  0.47000000000E+01 0. -1.
         -5    1    6    6    0  503  0.55352905185E+02  0.20861051810E+02  0.99263586535E+02  0.11564807481E+03  0.47000000000E+01 0.  1.
<mgrwt>
<rscale>  0 0.71300435E+03</rscale>
<asrwt>0</asrwt>
<pdfrwt beam="1">  1        2 0.21664165E+00 0.71300435E+03</pdfrwt>
<pdfrwt beam="2">  1       -2 0.13123866E+00 0.71300435E+03</pdfrwt>
<totfact> 0.62474397E+00</totfact>
</mgrwt>
</event>
<event>
12    1  0.3166324E-008  0.5198985E+03  0.7818608E-02  0.1008712E+00
          2   -1    0    0  501    0  0.00000000000E+00  0.00000000000E+00  0.97463475163E+03  0.97463475163E+03  0.00000000000E+00 0. -1.
         -2   -1    0    0    0  501 -0.00000000000E+00 -0.00000000000E+00 -0.36922273414E+03  0.36922273414E+03  0.00000000000E+00 0.  1.
         23    2    1    2    0    0 -0.27890702150E+03  0.30772896441E+03  0.40529888816E+03  0.58736188398E+03  0.90777485298E+02 0.  0.
    5000000    2    1    2    0    0  0.27890702150E+03 -0.30772896441E+03  0.20011312933E+03  0.75649560179E+03  0.59979503900E+03 0.  0.
         23    2    4    4    0    0  0.39216248999E+03 -0.18503421950E+03 -0.45822581560E+02  0.44546117830E+03  0.91142039958E+02 0.  0.
         23    2    4    4    0    0 -0.11325546850E+03 -0.12269474491E+03  0.24593571089E+03  0.31103442349E+03  0.91527248015E+02 0.  0.
          1    1    3    3  502    0 -0.20908343945E+03  0.27159646066E+03  0.35793428589E+03  0.49557792032E+03  0.00000000000E+00 0.  1.
         -1    1    3    3    0  502 -0.69823582049E+02  0.36132503754E+02  0.47364602264E+02  0.91783963661E+02  0.00000000000E+00 0. -1.
         13    1    5    5    0    0  0.10435829346E+03 -0.79162952181E+02 -0.45918473118E+02  0.13880177443E+03  0.00000000000E+00 0. -1.
        -13    1    5    5    0    0  0.28780419653E+03 -0.10587126732E+03  0.95891558201E-01  0.30665940387E+03  0.00000000000E+00 0.  1.
          5    1    6    6  503    0 -0.60018826760E+02 -0.17350857482E+02  0.13568748814E+03  0.14945399379E+03  0.47000000000E+01 0. -1.
         -5    1    6    6    0  503 -0.53236641736E+02 -0.10534388743E+03  0.11024822275E+03  0.16158042970E+03  0.47000000000E+01 0.  1.
<mgrwt>
<rscale>  0 0.51989847E+03</rscale>
<asrwt>0</asrwt>
<pdfrwt beam="1">  1        2 0.14994381E+00 0.51989847E+03</pdfrwt>
<pdfrwt beam="2">  1       -2 0.56803498E-01 0.51989847E+03</pdfrwt>
<totfact> 0.78766799E+01</totfact>
</mgrwt>
</event>
<event>
12    1  0.3166324E-008  0.5189727E+03  0.7818608E-02  0.1008942E+00
         -2   -1    0    0    0  501 -0.00000000000E+00  0.00000000000E+00  0.18659654107E+03  0.18659654107E+03  0.00000000000E+00 0.  1.
          2   -1    0    0  501    0  0.00000000000E+00 -0.00000000000E+00 -0.18065249437E+04  0.18065249437E+04  0.00000000000E+00 0. -1.
         23    2    1    2    0    0 -0.96285031485E+02 -0.40930702320E+03 -0.56060739324E+03  0.70515687829E+03  0.78501765009E+02 0.  0.
    5000000    2    1    2    0    0  0.96285031485E+02  0.40930702320E+03 -0.10593210094E+04  0.12879646064E+04  0.59990730956E+03 0.  0.
         23    2    4    4    0    0 -0.16428104700E+03  0.23917915972E+03 -0.18565157835E+03  0.35607401302E+03  0.90151324746E+02 0.  0.
         23    2    4    4    0    0  0.26056607848E+03  0.17012786347E+03 -0.87366943101E+03  0.93189059343E+03  0.91014461814E+02 0.  0.
          3    1    3    3  502    0  0.73901042221E+00 -0.90643049809E+02 -0.16248867102E+03  0.18606256159E+03  0.00000000000E+00 0. -1.
         -3    1    3    3    0  502 -0.97024041907E+02 -0.31866397339E+03 -0.39811872222E+03  0.51909431670E+03  0.00000000000E+00 0.  1.
         11    1    5    5    0    0 -0.10483292609E+03  0.11826252198E+03 -0.14715792283E+03  0.21594309609E+03  0.00000000000E+00 0.  1.
        -11    1    5    5    0    0 -0.59448120910E+02  0.12091663775E+03 -0.38493655515E+02  0.14013091693E+03  0.00000000000E+00 0. -1.
          5    1    6    6  503    0  0.77254341892E+01 -0.80150462828E+01 -0.64269282531E+02  0.65395366635E+02  0.47000000000E+01 0. -1.
         -5    1    6    6    0  503  0.25284064429E+03  0.17814290975E+03 -0.80940014848E+03  0.86649522680E+03  0.47000000000E+01 0.  1.
<mgrwt>
<rscale>  0 0.51897270E+03</rscale>
<asrwt>0</asrwt>
<pdfrwt beam="1">  1        2 0.27792692E+00 0.51897270E+03</pdfrwt>
<pdfrwt beam="2">  1       -2 0.28707160E-01 0.51897270E+03</pdfrwt>
<totfact> 0.10011911E+02</totfact>
</mgrwt>
</event>
<event>
12    1  0.3166324E-008  0.1771998E+04  0.7818608E-02  0.8721334E-01
         -1   -1    0    0    0  501 -0.00000000000E+00  0.00000000000E+00  0.28160078032E+04  0.28160078032E+04  0.00000000000E+00 0.  1.
          1   -1    0    0  501    0  0.00000000000E+00 -0.00000000000E+00 -0.12860238429E+04  0.12860238429E+04  0.00000000000E+00 0. -1.
         23    2    1    2    0    0 -0.11873200368E+04 -0.12788979408E+04  0.69748751197E+02  0.17488386456E+04  0.90900534288E+02 0.  0.
    5000000    2    1    2    0    0  0.11873200368E+04  0.12788979408E+04  0.14602352091E+04  0.23531930004E+04  0.59993467844E+03 0.  0.
         23    2    4    4    0    0  0.60831423524E+03  0.35598562055E+03  0.82310345716E+03  0.10877855954E+04  0.94901156468E+02 0.  0.
         23    2    4    4    0    0  0.57900580160E+03  0.92291232029E+03  0.63713175195E+03  0.12654074051E+04  0.91127175915E+02 0.  0.
          3    1    3    3  502    0 -0.65846161631E+03 -0.75776034742E+03  0.70608346208E+02  0.10063587744E+04  0.00000000000E+00 0. -1.
         -3    1    3    3    0  502 -0.52885842054E+03 -0.52113759342E+03 -0.85959501021E+00  0.74247987121E+03  0.00000000000E+00 0.  1.
         13    1    5    5    0    0  0.26059995665E+03  0.19081459231E+03  0.32419392034E+03  0.45762893705E+03  0.00000000000E+00 0.  1.
        -13    1    5    5    0    0  0.34771427859E+03  0.16517102824E+03  0.49890953681E+03  0.63015665833E+03  0.00000000000E+00 0. -1.
          5    1    6    6  503    0  0.49603012420E+03  0.77988424796E+03  0.50197303176E+03  0.10517910149E+04  0.47000000000E+01 0. -1.
         -5    1    6    6    0  503  0.82975677406E+02  0.14302807232E+03  0.13515872020E+03  0.21361639019E+03  0.47000000000E+01 0.  1.
<mgrwt>
<rscale>  0 0.17719980E+04</rscale>
<asrwt>0</asrwt>
<pdfrwt beam="1">  1        1 0.19784982E+00 0.17719980E+04</pdfrwt>
<pdfrwt beam="2">  1       -1 0.43323197E+00 0.17719980E+04</pdfrwt>
<totfact> 0.35889860E-02</totfact>
</mgrwt>
</event>
<event>
12    1  0.3166324E-008  0.5547285E+03  0.7818608E-02  0.1000405E+00
          1   -1    0    0  501    0  0.00000000000E+00  0.00000000000E+00  0.19759748796E+04  0.19759748796E+04  0.00000000000E+00 0. -1.
         -1   -1    0    0    0  501 -0.00000000000E+00 -0.00000000000E+00 -0.27607143654E+03  0.27607143654E+03  0.00000000000E+00 0.  1.
         23    2    1    2    0    0  0.12492690393E+03 -0.53405688248E+03  0.11298586059E+04  0.12590797524E+04  0.88757357482E+02 0.  0.
    5000000    2    1    2    0    0 -0.12492690393E+03  0.53405688248E+03  0.57004483716E+03  0.99296656375E+03  0.60017330439E+03 0.  0.
         23    2    4    4    0    0 -0.89688620613E+02  0.27958869657E+03 -0.53695625380E+02  0.31214150685E+03  0.91297383294E+02 0.  0.
         23    2    4    4    0    0 -0.35238283313E+02  0.25446818591E+03  0.62374046254E+03  0.68082505690E+03  0.92058672821E+02 0.  0.
          3    1    3    3  502    0  0.62939468034E+02 -0.25844829711E+03  0.64874953169E+03  0.70116535409E+03  0.00000000000E+00 0. -1.
         -3    1    3    3    0  502  0.61987435892E+02 -0.27560858537E+03  0.48110907419E+03  0.55791439828E+03  0.00000000000E+00 0.  1.
         13    1    5    5    0    0 -0.47221271932E+02  0.14018524114E+03 -0.73318110020E+02  0.16509783649E+03  0.00000000000E+00 0. -1.
        -13    1    5    5    0    0 -0.42467348681E+02  0.13940345543E+03  0.19622484640E+02  0.14704367036E+03  0.00000000000E+00 0.  1.
          5    1    6    6  503    0 -0.50044047138E+01  0.22408043402E+03  0.56582059240E+03  0.60861491746E+03  0.47000000000E+01 0. -1.
         -5    1    6    6    0  503 -0.30233878599E+02  0.30387751894E+02  0.57919870138E+02  0.72210139434E+02  0.47000000000E+01 0.  1.
<mgrwt>
<rscale>  0 0.55472851E+03</rscale>
<asrwt>0</asrwt>
<pdfrwt beam="1">  1        1 0.30399613E+00 0.55472851E+03</pdfrwt>
<pdfrwt beam="2">  1       -1 0.42472530E-01 0.55472851E+03</pdfrwt>
<totfact> 0.18157670E+01</totfact>
</mgrwt>
</event>
<event>
12    1  0.3166324E-008  0.4299939E+03  0.7818608E-02  0.1033862E+00
          2   -1    0    0  501    0  0.00000000000E+00  0.00000000000E+00  0.19741386636E+04  0.19741386636E+04  0.00000000000E+00 0. -1.
         -2   -1    0    0    0  501 -0.00000000000E+00 -0.00000000000E+00 -0.16363966581E+03  0.16363966581E+03  0.00000000000E+00 0.  1.
         23    2    1    2    0    0 -0.29464966505E+03  0.20080284249E+03  0.30421070599E+03  0.47764978221E+03  0.92005185428E+02 0.  0.
    5000000    2    1    2    0    0  0.29464966505E+03 -0.20080284249E+03  0.15062882918E+04  0.16601285472E+04  0.59998514028E+03 0.  0.
         23    2    4    4    0    0 -0.47528981886E+02 -0.12565952749E+03  0.11099805978E+04  0.11217593854E+04  0.90762713655E+02 0.  0.
         23    2    4    4    0    0  0.34217864693E+03 -0.75143314991E+02  0.39630769395E+03  0.53836916179E+03  0.10024381217E+03 0.  0.
          2    1    3    3  502    0 -0.19711438970E+03  0.10435742126E+03  0.23507501312E+03  0.32404446576E+03  0.00000000000E+00 0. -1.
         -2    1    3    3    0  502 -0.97535275351E+02  0.96445421224E+02  0.69135692866E+02  0.15360531645E+03  0.00000000000E+00 0.  1.
         11    1    5    5    0    0 -0.39726358209E+02 -0.49239921630E+02  0.23351288007E+03  0.24193184697E+03  0.00000000000E+00 0. -1.
        -11    1    5    5    0    0 -0.78026236779E+01 -0.76419605864E+02  0.87646771776E+03  0.87982753843E+03  0.00000000000E+00 0.  1.
          5    1    6    6  503    0  0.16284535353E+03 -0.77235599266E+02  0.15557796498E+03  0.23813974919E+03  0.47000000000E+01 0. -1.
         -5    1    6    6    0  503  0.17933329340E+03  0.20922842745E+01  0.24072972898E+03  0.30022941260E+03  0.47000000000E+01 0.  1.
<mgrwt>
<rscale>  0 0.42999385E+03</rscale>
<asrwt>0</asrwt>
<pdfrwt beam="1">  1        2 0.30371362E+00 0.42999385E+03</pdfrwt>
<pdfrwt beam="2">  1       -2 0.25175335E-01 0.42999385E+03</pdfrwt>
<totfact> 0.10472985E+02</totfact>
</mgrwt>
</event>
<event>
12    1  0.3166324E-008  0.1162121E+04  0.7818608E-02  0.9146674E-01
          1   -1    0    0  501    0  0.00000000000E+00  0.00000000000E+00  0.12908458623E+04  0.12908458623E+04  0.00000000000E+00 0. -1.
         -1   -1    0    0    0  501 -0.00000000000E+00 -0.00000000000E+00 -0.14018709513E+04  0.14018709513E+04  0.00000000000E+00 0.  1.
         23    2    1    2    0    0 -0.69951750459E+03 -0.91083318445E+03  0.50506393254E+03  0.12579560963E+04  0.91772191011E+02 0.  0.
    5000000    2    1    2    0    0  0.69951750459E+03  0.91083318445E+03 -0.61608902149E+03  0.14347607174E+04  0.60002566992E+03 0.  0.
         23    2    4    4    0    0  0.23825415634E+03  0.48136755893E+03  0.58304230096E+01  0.54463191599E+03  0.90056428261E+02 0.  0.
         23    2    4    4    0    0  0.46126334825E+03  0.42946562552E+03 -0.62191944450E+03  0.89012880138E+03  0.91328460262E+02 0.  0.
          4    1    3    3  502    0 -0.17334957123E+03 -0.25923506440E+03  0.17618507731E+03  0.35818162143E+03  0.00000000000E+00 0. -1.
         -4    1    3    3    0  502 -0.52616793336E+03 -0.65159812005E+03  0.32887885523E+03  0.89977447484E+03  0.00000000000E+00 0.  1.
         11    1    5    5    0    0  0.11487341938E+03  0.32894598930E+03  0.80372427912E+01  0.34851967467E+03  0.00000000000E+00 0. -1.
        -11    1    5    5    0    0  0.12338073696E+03  0.15242156963E+03 -0.22068197816E+01  0.19611224132E+03  0.00000000000E+00 0.  1.
          5    1    6    6  503    0  0.99484992535E+02  0.92536818022E+02 -0.85370629559E+02  0.16053211772E+03  0.47000000000E+01 0. -1.
         -5    1    6    6    0  503  0.36177835571E+03  0.33692880750E+03 -0.53654881494E+03  0.72959668366E+03  0.47000000000E+01 0.  1.
<mgrwt>
<rscale>  0 0.11621210E+04</rscale>
<asrwt>0</asrwt>
<pdfrwt beam="1">  1        1 0.19859167E+00 0.11621210E+04</pdfrwt>
<pdfrwt beam="2">  1       -1 0.21567245E+00 0.11621210E+04</pdfrwt>
<totfact> 0.10641057E+00</totfact>
</mgrwt>
</event>
<event>
12    1  0.3166324E-008  0.4899816E+03  0.7818608E-02  0.1016427E+00
          1   -1    0    0  501    0  0.00000000000E+00  0.00000000000E+00  0.29912136240E+03  0.29912136240E+03  0.00000000000E+00 0. -1.
         -1   -1    0    0    0  501 -0.00000000000E+00 -0.00000000000E+00 -0.11180858901E+04  0.11180858901E+04  0.00000000000E+00 0.  1.
         23    2    1    2    0    0  0.32343830740E+03  0.26101377406E+03 -0.34922897297E+03  0.54923715524E+03  0.83426903289E+02 0.  0.
    5000000    2    1    2    0    0 -0.32343830740E+03 -0.26101377406E+03 -0.46973555475E+03  0.86797009728E+03  0.59998339096E+03 0.  0.
         23    2    4    4    0    0 -0.37199320026E+03 -0.14229637153E+03 -0.40052906612E+02  0.41036075210E+03  0.90357695558E+02 0.  0.
         23    2    4    4    0    0  0.48554892858E+02 -0.11871740253E+03 -0.42968264814E+03  0.45760934518E+03  0.91256426616E+02 0.  0.
          2    1    3    3  502    0  0.24578933584E+03  0.15321114252E+03 -0.25987064014E+03  0.38912568845E+03  0.00000000000E+00 0. -1.
         -2    1    3    3    0  502  0.77648971555E+02  0.10780263154E+03 -0.89358332828E+02  0.16011146679E+03  0.00000000000E+00 0.  1.
         11    1    5    5    0    0 -0.14316004140E+03 -0.79182104831E+02 -0.54780767161E+02  0.17252691277E+03  0.00000000000E+00 0.  1.
        -11    1    5    5    0    0 -0.22883315886E+03 -0.63114266703E+02  0.14727860549E+02  0.23783383933E+03  0.00000000000E+00 0. -1.
          5    1    6    6  503    0  0.47821509844E+02 -0.11803905364E+02 -0.15968608467E+03  0.16717644757E+03  0.47000000000E+01 0. -1.
         -5    1    6    6    0  503  0.73338301361E+00 -0.10691349716E+03 -0.26999656347E+03  0.29043289761E+03  0.47000000000E+01 0.  1.
<mgrwt>
<rscale>  0 0.48998157E+03</rscale>
<asrwt>0</asrwt>
<pdfrwt beam="1">  1        1 0.46018670E-01 0.48998157E+03</pdfrwt>
<pdfrwt beam="2">  1       -1 0.17201322E+00 0.48998157E+03</pdfrwt>
<totfact> 0.22157254E+01</totfact>
</mgrwt>
</event>
<event>
12    1  0.3166324E-008  0.5240479E+03  0.7818608E-02  0.1007686E+00
          2   -1    0    0  501    0  0.00000000000E+00  0.00000000000E+00  0.15495041302E+04  0.15495041302E+04  0.00000000000E+00 0. -1.
         -2   -1    0    0    0  501 -0.00000000000E+00 -0.00000000000E+00 -0.25054178099E+03  0.25054178099E+03  0.00000000000E+00 0.  1.
         23    2    1    2    0    0 -0.37366840146E+03 -0.27054912791E+02  0.92038626845E+03  0.99769581046E+03  0.89028110735E+02 0.  0.
    5000000    2    1    2    0    0  0.37366840146E+03  0.27054912791E+02  0.37857608073E+03  0.80235010070E+03  0.60007148961E+03 0.  0.
         23    2    4    4    0    0  0.51828843607E+02  0.25988813082E+03  0.61138276570E+02  0.28675107336E+03  0.90885750456E+02 0.  0.
         23    2    4    4    0    0  0.32183955785E+03 -0.23283321803E+03  0.31743780416E+03  0.51559902734E+03  0.85343945714E+02 0.  0.
          4    1    3    3  502    0 -0.13807351806E+03 -0.22000744368E+02  0.24123346618E+03  0.27882237060E+03  0.00000000000E+00 0.  1.
         -4    1    3    3    0  502 -0.23559488340E+03 -0.50541684231E+01  0.67915280227E+03  0.71887343986E+03  0.00000000000E+00 0. -1.
         11    1    5    5    0    0 -0.34199587011E+01  0.41145211700E+02 -0.21413948753E+02  0.46510017894E+02  0.00000000000E+00 0.  1.
        -11    1    5    5    0    0  0.55248802308E+02  0.21874291913E+03  0.82552225323E+02  0.24024105546E+03  0.00000000000E+00 0. -1.
          5    1    6    6  503    0  0.13964359820E+03 -0.52277929788E+02  0.12991822730E+03  0.19782353815E+03  0.47000000000E+01 0. -1.
         -5    1    6    6    0  503  0.18219595965E+03 -0.18055528825E+03  0.18751957686E+03  0.31777548919E+03  0.47000000000E+01 0.  1.
<mgrwt>
<rscale>  0 0.52404790E+03</rscale>
<asrwt>0</asrwt>
<pdfrwt beam="1">  1        2 0.23838525E+00 0.52404790E+03</pdfrwt>
<pdfrwt beam="2">  1       -2 0.38544890E-01 0.52404790E+03</pdfrwt>
<totfact> 0.79276765E+01</totfact>
</mgrwt>
</event>
<event>
12    1  0.3166324E-008  0.4188449E+03  0.7818608E-02  0.1037443E+00
          2   -1    0    0  501    0  0.00000000000E+00  0.00000000000E+00  0.21448714587E+04  0.21448714587E+04  0.00000000000E+00 0. -1.
         -2   -1    0    0    0  501 -0.00000000000E+00 -0.00000000000E+00 -0.10865790565E+03  0.10865790565E+03  0.00000000000E+00 0.  1.
         23    2    1    2    0    0  0.21729841747E+03  0.32166175557E+02  0.20615706825E+03  0.31505618811E+03  0.92230145781E+02 0.  0.
    5000000    2    1    2    0    0 -0.21729841747E+03 -0.32166175557E+02  0.18300564847E+04  0.19384731762E+04  0.60026515173E+03 0.  0.
         23    2    4    4    0    0 -0.10338455507E+03 -0.28752435113E+03  0.12225841396E+04  0.12635202169E+04  0.91720998262E+02 0.  0.
         23    2    4    4    0    0 -0.11391386240E+03  0.25535817557E+03  0.60747234516E+03  0.67495295925E+03  0.91403945189E+02 0.  0.
          4    1    3    3  502    0  0.14107864223E+03 -0.21342330225E+02  0.10234051687E+03  0.17559117217E+03  0.00000000000E+00 0. -1.
         -4    1    3    3    0  502  0.76219775242E+02  0.53508505782E+02  0.10381655138E+03  0.13946501594E+03  0.00000000000E+00 0.  1.
         13    1    5    5    0    0 -0.99360056642E+02 -0.22171306498E+03  0.80839293353E+03  0.84411387799E+03  0.00000000000E+00 0.  1.
        -13    1    5    5    0    0 -0.40244984240E+01 -0.65811286150E+02  0.41419120606E+03  0.41940633895E+03  0.00000000000E+00 0. -1.
          5    1    6    6  503    0 -0.57309176636E+02  0.21689662331E+03  0.43822987193E+03  0.49233728031E+03  0.47000000000E+01 0. -1.
         -5    1    6    6    0  503 -0.56604685767E+02  0.38461552269E+02  0.16924247323E+03  0.18261567895E+03  0.47000000000E+01 0.  1.
<mgrwt>
<rscale>  0 0.41884489E+03</rscale>
<asrwt>0</asrwt>
<pdfrwt beam="1">  1        2 0.32998020E+00 0.41884489E+03</pdfrwt>
<pdfrwt beam="2">  1       -2 0.16716602E-01 0.41884489E+03</pdfrwt>
<totfact> 0.17321389E+02</totfact>
</mgrwt>
</event>
<event>
12    1  0.3166324E-008  0.5760370E+03  0.7818608E-02  0.9956408E-01
          1   -1    0    0  501    0  0.00000000000E+00  0.00000000000E+00  0.25007536587E+04  0.25007536587E+04  0.00000000000E+00 0. -1.
         -1   -1    0    0    0  501 -0.00000000000E+00 -0.00000000000E+00 -0.15887541199E+03  0.15887541199E+03  0.00000000000E+00 0.  1.
         23    2    1    2    0    0  0.45879785701E+03 -0.11273453122E+03  0.70571885952E+03  0.85408668562E+03  0.90666475304E+02 0.  0.
    5000000    2    1    2    0    0 -0.45879785701E+03  0.11273453122E+03  0.16361593872E+04  0.18055423851E+04  0.59980098021E+03 0.  0.
         23    2    4    4    0    0 -0.57216536612E+01  0.19587085825E+03  0.20136552278E+03  0.29573573508E+03  0.92268200418E+02 0.  0.
         23    2    4    4    0    0 -0.45307620335E+03 -0.83136327025E+02  0.14347938644E+04  0.15098066500E+04  0.93236216586E+02 0.  0.
          3    1    3    3  502    0  0.14657494696E+03  0.28895070408E+01  0.18535351577E+03  0.23632285148E+03  0.00000000000E+00 0. -1.
         -3    1    3    3    0  502  0.31222291005E+03 -0.11562403826E+03  0.52036534376E+03  0.61776383413E+03  0.00000000000E+00 0.  1.
         11    1    5    5    0    0 -0.23417650559E+02  0.19089822527E+03  0.15895786680E+03  0.24951577542E+03  0.00000000000E+00 0.  1.
        -11    1    5    5    0    0  0.17695996898E+02  0.49726329817E+01  0.42407655984E+02  0.46219959661E+02  0.00000000000E+00 0. -1.
          5    1    6    6  503    0 -0.10821091040E+03 -0.65083695725E+01  0.46982478160E+03  0.48219225979E+03  0.47000000000E+01 0. -1.
         -5    1    6    6    0  503 -0.34486529294E+03 -0.76627957452E+02  0.96496908282E+03  0.10276143902E+04  0.47000000000E+01 0.  1.
<mgrwt>
<rscale>  0 0.57603704E+03</rscale>
<asrwt>0</asrwt>
<pdfrwt beam="1">  1        1 0.38473130E+00 0.57603704E+03</pdfrwt>
<pdfrwt beam="2">  1       -1 0.24442373E-01 0.57603704E+03</pdfrwt>
<totfact> 0.21241383E+01</totfact>
</mgrwt>
</event>
<event>
12    1  0.3166324E-008  0.7357170E+03  0.7818608E-02  0.9658028E-01
         -1   -1    0    0    0  501 -0.00000000000E+00  0.00000000000E+00  0.17686447596E+03  0.17686447596E+03  0.00000000000E+00 0.  1.
          1   -1    0    0  501    0  0.00000000000E+00 -0.00000000000E+00 -0.35159834804E+04  0.35159834804E+04  0.00000000000E+00 0. -1.
         23    2    1    2    0    0 -0.33380240854E+01  0.65988573798E+03 -0.17169023339E+04  0.18416312023E+04  0.91605302647E+02 0.  0.
    5000000    2    1    2    0    0  0.33380240854E+01 -0.65988573798E+03 -0.16222166705E+04  0.18512167541E+04  0.59996351120E+03 0.  0.
         23    2    4    4    0    0  0.20950560706E+01 -0.71235958263E+03 -0.10665392697E+04  0.12857051134E+04  0.89839081878E+02 0.  0.
         23    2    4    4    0    0  0.12429680148E+01  0.52473844647E+02 -0.55567740087E+03  0.56551164068E+03  0.90944997444E+02 0.  0.
          3    1    3    3  502    0  0.42098358357E+02  0.22129790224E+03 -0.58738212896E+03  0.62909681190E+03  0.00000000000E+00 0. -1.
         -3    1    3    3    0  502 -0.45436382442E+02  0.43858783574E+03 -0.11295202050E+04  0.12125343904E+04  0.00000000000E+00 0.  1.
         11    1    5    5    0    0 -0.18042900592E+02 -0.63829657342E+03 -0.91425817245E+03  0.11151753529E+04  0.00000000000E+00 0. -1.
        -11    1    5    5    0    0  0.20137956663E+02 -0.74063009208E+02 -0.15228109720E+03  0.17052976044E+03  0.00000000000E+00 0.  1.
          5    1    6    6  503    0 -0.27631652315E+02 -0.19966162396E+01 -0.33964741062E+03  0.34080778781E+03  0.47000000000E+01 0. -1.
         -5    1    6    6    0  503  0.28874620330E+02  0.54470460887E+02 -0.21602999025E+03  0.22470385287E+03  0.47000000000E+01 0.  1.
<mgrwt>
<rscale>  0 0.73571703E+03</rscale>
<asrwt>0</asrwt>
<pdfrwt beam="1">  1        1 0.54092051E+00 0.73571703E+03</pdfrwt>
<pdfrwt beam="2">  1       -1 0.27209921E-01 0.73571703E+03</pdfrwt>
<totfact> 0.31880408E+00</totfact>
</mgrwt>
</event>
<event>
12    1  0.3166324E-008  0.4467793E+03  0.7818608E-02  0.1028687E+00
          1   -1    0    0  501    0  0.00000000000E+00  0.00000000000E+00  0.13161014299E+04  0.13161014299E+04  0.00000000000E+00 0. -1.
         -1   -1    0    0    0  501 -0.00000000000E+00 -0.00000000000E+00 -0.21966050099E+03  0.21966050099E+03  0.00000000000E+00 0.  1.
         23    2    1    2    0    0  0.14696090842E+03  0.28601393488E+03  0.61783279730E+03  0.70289062554E+03  0.94532462648E+02 0.  0.
    5000000    2    1    2    0    0 -0.14696090842E+03 -0.28601393488E+03  0.47860813158E+03  0.83287130534E+03  0.60100531453E+03 0.  0.
         23    2    4    4    0    0  0.61636474954E+02  0.95563141160E+02  0.33626202480E+03  0.36641507446E+03  0.90865221500E+02 0.  0.
         23    2    4    4    0    0 -0.20859738337E+03 -0.38157707604E+03  0.14234610679E+03  0.46645623088E+03  0.90581829833E+02 0.  0.
          4    1    3    3  502    0  0.76426567081E+02  0.23534779444E+03  0.43425419579E+03  0.49980627354E+03  0.00000000000E+00 0.  1.
         -4    1    3    3    0  502  0.70534341334E+02  0.50666140447E+02  0.18357860151E+03  0.20308435200E+03  0.00000000000E+00 0. -1.
         13    1    5    5    0    0  0.59950747267E+00  0.41529773185E+02  0.34986275912E+02  0.54305809746E+02  0.00000000000E+00 0.  1.
        -13    1    5    5    0    0  0.61036967481E+02  0.54033367974E+02  0.30127574889E+03  0.31210926471E+03  0.00000000000E+00 0. -1.
          5    1    6    6  503    0 -0.12351558825E+03 -0.25833969537E+03  0.13456599282E+03  0.31642628710E+03  0.47000000000E+01 0. -1.
         -5    1    6    6    0  503 -0.85081795121E+02 -0.12323738068E+03  0.77801139659E+01  0.15002994378E+03  0.47000000000E+01 0.  1.
<mgrwt>
<rscale>  0 0.44677931E+03</rscale>
<asrwt>0</asrwt>
<pdfrwt beam="1">  1        1 0.20247714E+00 0.44677931E+03</pdfrwt>
<pdfrwt beam="2">  1       -1 0.33793924E-01 0.44677931E+03</pdfrwt>
<totfact> 0.77295836E+01</totfact>
</mgrwt>
</event>
<event>
12    1  0.3166324E-008  0.5790175E+03  0.7818608E-02  0.9949920E-01
         -2   -1    0    0    0  501 -0.00000000000E+00  0.00000000000E+00  0.32508036807E+03  0.32508036807E+03  0.00000000000E+00 0.  1.
          2   -1    0    0  501    0  0.00000000000E+00 -0.00000000000E+00 -0.11918002861E+04  0.11918002861E+04  0.00000000000E+00 0. -1.
         23    2    1    2    0    0  0.14535540894E+03 -0.39413652777E+03 -0.71896718059E+02  0.43586632278E+03  0.91315474246E+02 0.  0.
    5000000    2    1    2    0    0 -0.14535540894E+03  0.39413652777E+03 -0.79482320000E+03  0.10810143314E+04  0.60031347480E+03 0.  0.
         23    2    4    4    0    0 -0.11310931114E+03 -0.13300877614E+03 -0.23986385812E+03  0.30947394328E+03  0.88059073027E+02 0.  0.
         23    2    4    4    0    0 -0.32246097803E+02  0.52714530391E+03 -0.55495934188E+03  0.77154038813E+03  0.91502552551E+02 0.  0.
          1    1    3    3  502    0  0.14736928595E+02 -0.15439287549E+03 -0.70543398788E+01  0.15525495412E+03  0.00000000000E+00 0. -1.
         -1    1    3    3    0  502  0.13061848034E+03 -0.23974365228E+03 -0.64842378181E+02  0.28061136866E+03  0.00000000000E+00 0.  1.
         13    1    5    5    0    0 -0.35927560014E+01 -0.67489007750E+02 -0.74431740311E+02  0.10053734644E+03  0.00000000000E+00 0. -1.
        -13    1    5    5    0    0 -0.10951655513E+03 -0.65519768385E+02 -0.16543211781E+03  0.20893659684E+03  0.00000000000E+00 0.  1.
          5    1    6    6  503    0 -0.54141951019E+02  0.47319976345E+03 -0.47662531275E+03  0.67382723732E+03  0.47000000000E+01 0. -1.
         -5    1    6    6    0  503  0.21895853216E+02  0.53945540454E+02 -0.78334029130E+02  0.97713150817E+02  0.47000000000E+01 0.  1.
<mgrwt>
<rscale>  0 0.57901748E+03</rscale>
<asrwt>0</asrwt>
<pdfrwt beam="1">  1        2 0.18335389E+00 0.57901748E+03</pdfrwt>
<pdfrwt beam="2">  1       -2 0.50012365E-01 0.57901748E+03</pdfrwt>
<totfact> 0.74886695E+01</totfact>
</mgrwt>
</event>
<event>
12    1  0.3166324E-008  0.7346179E+03  0.7818608E-02  0.9659796E-01
         -1   -1    0    0    0  501 -0.00000000000E+00  0.00000000000E+00  0.53087513001E+03  0.53087513001E+03  0.00000000000E+00 0.  1.
          1   -1    0    0  501    0  0.00000000000E+00 -0.00000000000E+00 -0.11425629798E+04  0.11425629798E+04  0.00000000000E+00 0. -1.
         23    2    1    2    0    0 -0.44593448877E+03 -0.43448572601E+03 -0.49601021146E+03  0.80078195205E+03  0.87121699224E+02 0.  0.
    5000000    2    1    2    0    0  0.44593448877E+03  0.43448572601E+03 -0.11567763835E+03  0.87265615779E+03  0.60042654783E+03 0.  0.
         23    2    4    4    0    0  0.46658137345E+03  0.76483056785E+02 -0.14030031511E+03  0.50192220529E+03  0.93241008804E+02 0.  0.
         23    2    4    4    0    0 -0.20646884680E+02  0.35800266923E+03  0.24622676770E+02  0.37073395250E+03  0.90802986200E+02 0.  0.
          3    1    3    3  502    0 -0.13509896768E+03 -0.80809040192E+02 -0.13666871277E+03  0.20847102699E+03  0.00000000000E+00 0. -1.
         -3    1    3    3    0  502 -0.31083552109E+03 -0.35367668582E+03 -0.35934149869E+03  0.59231092506E+03  0.00000000000E+00 0.  1.
         11    1    5    5    0    0  0.24483662584E+03  0.51294555469E+02 -0.26904547172E+02  0.25159483188E+03  0.00000000000E+00 0. -1.
        -11    1    5    5    0    0  0.22174474761E+03  0.25188501316E+02 -0.11339576794E+03  0.25032737341E+03  0.00000000000E+00 0.  1.
          5    1    6    6  503    0  0.31001741185E+02  0.11830409076E+03  0.27636737204E+02  0.12547049490E+03  0.47000000000E+01 0. -1.
         -5    1    6    6    0  503 -0.51648625866E+02  0.23969857846E+03 -0.30140604341E+01  0.24526345759E+03  0.47000000000E+01 0.  1.
<mgrwt>
<rscale>  0 0.73461793E+03</rscale>
<asrwt>0</asrwt>
<pdfrwt beam="1">  1        1 0.17577892E+00 0.73461793E+03</pdfrwt>
<pdfrwt beam="2">  1       -1 0.81673097E-01 0.73461793E+03</pdfrwt>
<totfact> 0.18162805E+01</totfact>
</mgrwt>
</event>
<event>
12    1  0.3166324E-008  0.1074683E+04  0.7818608E-02  0.9230225E-01
          2   -1    0    0  501    0  0.00000000000E+00  0.00000000000E+00  0.84166161202E+03  0.84166161202E+03  0.00000000000E+00 0. -1.
         -2   -1    0    0    0  501 -0.00000000000E+00 -0.00000000000E+00 -0.15352054991E+04  0.15352054991E+04  0.00000000000E+00 0.  1.
         23    2    1    2    0    0  0.15607851876E+03 -0.10437314035E+04 -0.31985993790E+03  0.11066447923E+04  0.92825480011E+02 0.  0.
    5000000    2    1    2    0    0 -0.15607851876E+03  0.10437314035E+04 -0.37368394916E+03  0.12702223188E+04  0.60007441081E+03 0.  0.
         23    2    4    4    0    0  0.31445213071E+02  0.14278992894E+03 -0.29573450136E+03  0.34219296247E+03  0.90881037829E+02 0.  0.
         23    2    4    4    0    0 -0.18752373183E+03  0.90094147459E+03 -0.77949447801E+02  0.92802935631E+03  0.91113550644E+02 0.  0.
          4    1    3    3  502    0  0.11622618434E+03 -0.62385107296E+03 -0.15080617241E+03  0.65225852911E+03  0.00000000000E+00 0. -1.
         -4    1    3    3    0  502  0.39852334415E+02 -0.41988033058E+03 -0.16905376549E+03  0.45438626321E+03  0.00000000000E+00 0.  1.
         13    1    5    5    0    0 -0.15375642549E+02  0.11548234488E+03 -0.22158840281E+03  0.25034776336E+03  0.00000000000E+00 0.  1.
        -13    1    5    5    0    0  0.46820855620E+02  0.27307584067E+02 -0.74146098552E+02  0.91845199107E+02  0.00000000000E+00 0. -1.
          5    1    6    6  503    0 -0.70761939246E+02  0.21253822280E+03  0.98849793371E+01  0.22427561395E+03  0.47000000000E+01 0. -1.
         -5    1    6    6    0  503 -0.11676179258E+03  0.68840325179E+03 -0.87834427138E+02  0.70375374235E+03  0.47000000000E+01 0.  1.
<mgrwt>
<rscale>  0 0.10746826E+04</rscale>
<asrwt>0</asrwt>
<pdfrwt beam="1">  1        2 0.12948640E+00 0.10746826E+04</pdfrwt>
<pdfrwt beam="2">  1       -2 0.23618546E+00 0.10746826E+04</pdfrwt>
<totfact> 0.24851583E+00</totfact>
</mgrwt>
</event>
<event>
12    1  0.3166324E-008  0.6723828E+03  0.7818608E-02  0.9765663E-01
          2   -1    0    0  501    0  0.00000000000E+00  0.00000000000E+00  0.21518719921E+04  0.21518719921E+04  0.00000000000E+00 0. -1.
         -2   -1    0    0    0  501 -0.00000000000E+00 -0.00000000000E+00 -0.28395219718E+03  0.28395219718E+03  0.00000000000E+00 0.  1.
         23    2    1    2    0    0 -0.21998826297E+03  0.62419934321E+03  0.73810749681E+03  0.99553948732E+03  0.90975480609E+02 0.  0.
    5000000    2    1    2    0    0  0.21998826297E+03 -0.62419934321E+03  0.11298122981E+04  0.14402847019E+04  0.59993711154E+03 0.  0.
         23    2    4    4    0    0  0.19173953267E+03 -0.36280185161E+03  0.10770371902E+04  0.11557277702E+04  0.85488817437E+02 0.  0.
         23    2    4    4    0    0  0.28248730300E+02 -0.26139749160E+03  0.52775107854E+02  0.28455693166E+03  0.95188213409E+02 0.  0.
          1    1    3    3  502    0 -0.45524522487E+02  0.18333849596E+03  0.15758740609E+03  0.24600666009E+03  0.00000000000E+00 0. -1.
         -1    1    3    3    0  502 -0.17446374048E+03  0.44086084725E+03  0.58052009072E+03  0.74953282724E+03  0.00000000000E+00 0.  1.
         13    1    5    5    0    0  0.11309790091E+03 -0.13793949001E+03  0.39889434525E+03  0.43696125316E+03  0.00000000000E+00 0. -1.
        -13    1    5    5    0    0  0.78641631760E+02 -0.22486236160E+03  0.67814284496E+03  0.71876651708E+03  0.00000000000E+00 0.  1.
          5    1    6    6  503    0  0.58459252902E+01 -0.19027778324E+03 -0.44013863228E+01  0.19047643382E+03  0.47000000000E+01 0. -1.
         -5    1    6    6    0  503  0.22402805010E+02 -0.71119708355E+02  0.57176494176E+02  0.94080497847E+02  0.47000000000E+01 0.  1.
<mgrwt>
<rscale>  0 0.67238275E+03</rscale>
<asrwt>0</asrwt>
<pdfrwt beam="1">  1        2 0.33105722E+00 0.67238275E+03</pdfrwt>
<pdfrwt beam="2">  1       -2 0.43684955E-01 0.67238275E+03</pdfrwt>
<totfact> 0.28607590E+01</totfact>
</mgrwt>
</event>
<event>
12    1  0.3166324E-008  0.1206358E+04  0.7818608E-02  0.9107310E-01
         -2   -1    0    0    0  501 -0.00000000000E+00  0.00000000000E+00  0.66750597861E+03  0.66750597861E+03  0.00000000000E+00 0. -1.
          2   -1    0    0  501    0  0.00000000000E+00 -0.00000000000E+00 -0.24359581323E+04  0.24359581323E+04  0.00000000000E+00 0.  1.
         23    2    1    2    0    0  0.11378253108E+04  0.31900693119E+03 -0.56368907172E+03  0.13123747814E+04  0.90389917876E+02 0.  0.
    5000000    2    1    2    0    0 -0.11378253108E+04 -0.31900693119E+03 -0.12047630819E+04  0.17910893295E+04  0.60011252479E+03 0.  0.
         23    2    4    4    0    0 -0.15280388713E+03  0.26984790275E+02  0.17103386982E+02  0.18140179290E+03  0.92395226017E+02 0.  0.
         23    2    4    4    0    0 -0.98502142369E+03 -0.34599172147E+03 -0.12218664689E+04  0.16096875366E+04  0.90326192477E+02 0.  0.
          4    1    3    3  502    0  0.10801245271E+04  0.28121002821E+03 -0.53344036941E+03  0.12370556583E+04  0.00000000000E+00 0. -1.
         -4    1    3    3    0  502  0.57700783710E+02  0.37796902989E+02 -0.30248702307E+02  0.75319123120E+02  0.00000000000E+00 0.  1.
         13    1    5    5    0    0 -0.14373094256E+03  0.52426478713E+02  0.92546548861E+01  0.15327350768E+03  0.00000000000E+00 0. -1.
        -13    1    5    5    0    0 -0.90729445754E+01 -0.25441688438E+02  0.78487320957E+01  0.28128285219E+02  0.00000000000E+00 0.  1.
          5    1    6    6  503    0 -0.28471195359E+03 -0.14186729529E+03 -0.38945836692E+03  0.50287884779E+03  0.47000000000E+01 0. -1.
         -5    1    6    6    0  503 -0.70030947009E+03 -0.20412442618E+03 -0.83240810200E+03  0.11068086888E+04  0.47000000000E+01 0.  1.
<mgrwt>
<rscale>  0 0.12063576E+04</rscale>
<asrwt>0</asrwt>
<pdfrwt beam="1">  1        2 0.37476279E+00 0.12063576E+04</pdfrwt>
<pdfrwt beam="2">  1       -2 0.10269323E+00 0.12063576E+04</pdfrwt>
<totfact> 0.28847613E+00</totfact>
</mgrwt>
</event>
<event>
12    1  0.3166324E-008  0.7346979E+03  0.7818608E-02  0.9659667E-01
          2   -1    0    0  501    0  0.00000000000E+00  0.00000000000E+00  0.26841718375E+04  0.26841718375E+04  0.00000000000E+00 0. -1.
         -2   -1    0    0    0  501 -0.00000000000E+00 -0.00000000000E+00 -0.26654211002E+03  0.26654211002E+03  0.00000000000E+00 0.  1.
         23    2    1    2    0    0 -0.14725802929E+03  0.67894134042E+03  0.63446040943E+03  0.94512667187E+03  0.89878494853E+02 0.  0.
    5000000    2    1    2    0    0  0.14725802929E+03 -0.67894134042E+03  0.17831693181E+04  0.20055872757E+04  0.60003435940E+03 0.  0.
         23    2    4    4    0    0  0.23511615917E+03 -0.53047207958E+03  0.16893574057E+04  0.17886136844E+04  0.92359257598E+02 0.  0.
         23    2    4    4    0    0 -0.87858129880E+02 -0.14846926083E+03  0.93811912373E+02  0.21697359122E+03  0.92275088648E+02 0.  0.
          4    1    3    3  502    0 -0.86071756405E+02  0.41910544255E+03  0.44816835430E+03  0.61960680517E+03  0.00000000000E+00 0. -1.
         -4    1    3    3    0  502 -0.61186272881E+02  0.25983589787E+03  0.18629205513E+03  0.32551986670E+03  0.00000000000E+00 0.  1.
         11    1    5    5    0    0  0.12618952220E+03 -0.23743674597E+03  0.90992874834E+03  0.94882576425E+03  0.00000000000E+00 0. -1.
        -11    1    5    5    0    0  0.10892663696E+03 -0.29303533361E+03  0.77942865736E+03  0.83978792019E+03  0.00000000000E+00 0.  1.
          5    1    6    6  503    0 -0.68246390713E+02 -0.33146087462E+02  0.54281318255E+02  0.93406554753E+02  0.47000000000E+01 0. -1.
         -5    1    6    6    0  503 -0.19611739167E+02 -0.11532317337E+03  0.39530594118E+02  0.12356703647E+03  0.47000000000E+01 0.  1.
<mgrwt>
<rscale>  0 0.73469795E+03</rscale>
<asrwt>0</asrwt>
<pdfrwt beam="1">  1        2 0.41294949E+00 0.73469795E+03</pdfrwt>
<pdfrwt beam="2">  1       -2 0.41006480E-01 0.73469795E+03</pdfrwt>
<totfact> 0.16114428E+01</totfact>
</mgrwt>
</event>
<event>
12    1  0.3166324E-008  0.7267160E+03  0.7818608E-02  0.9672604E-01
         -2   -1    0    0    0  501 -0.00000000000E+00  0.00000000000E+00  0.22004849462E+03  0.22004849462E+03  0.00000000000E+00 0.  1.
          2   -1    0    0  501    0  0.00000000000E+00 -0.00000000000E+00 -0.32430855501E+04  0.32430855501E+04  0.00000000000E+00 0. -1.
         23    2    1    2    0    0 -0.63757782315E+03  0.30444663204E+03 -0.17418564461E+04  0.18818962108E+04  0.90973826970E+02 0.  0.
    5000000    2    1    2    0    0  0.63757782315E+03 -0.30444663204E+03 -0.12811806094E+04  0.15812378339E+04  0.59974669748E+03 0.  0.
         23    2    4    4    0    0  0.42619617475E+03 -0.12471532518E+03 -0.11900119974E+04  0.12739508446E+04  0.98107639367E+02 0.  0.
         23    2    4    4    0    0  0.21138164840E+03 -0.17973130686E+03 -0.91168612011E+02  0.30728698928E+03  0.95540745318E+02 0.  0.
          2    1    3    3  502    0 -0.36347069708E+03  0.15256994994E+03 -0.86067879174E+03  0.94665543880E+03  0.00000000000E+00 0. -1.
         -2    1    3    3    0  502 -0.27410712608E+03  0.15187668210E+03 -0.88117765437E+03  0.93524077204E+03  0.00000000000E+00 0.  1.
         11    1    5    5    0    0  0.14977306614E+02  0.12708667673E+02 -0.77137776349E+02  0.79599412608E+02  0.00000000000E+00 0. -1.
        -11    1    5    5    0    0  0.41121886814E+03 -0.13742399286E+03 -0.11128742210E+04  0.11943514320E+04  0.00000000000E+00 0.  1.
          5    1    6    6  503    0  0.72042085087E+02 -0.98172831031E+01 -0.13009660153E+02  0.74012041780E+02  0.47000000000E+01 0. -1.
         -5    1    6    6    0  503  0.13933956332E+03 -0.16991402376E+03 -0.78158951858E+02  0.23327494750E+03  0.47000000000E+01 0.  1.
<mgrwt>
<rscale>  0 0.72671604E+03</rscale>
<asrwt>0</asrwt>
<pdfrwt beam="1">  1        2 0.49893621E+00 0.72671604E+03</pdfrwt>
<pdfrwt beam="2">  1       -2 0.33853617E-01 0.72671604E+03</pdfrwt>
<totfact> 0.10664073E+01</totfact>
</mgrwt>
</event>
<event>
12    1  0.3166324E-008  0.7460228E+03  0.7818608E-02  0.9641611E-01
         -1   -1    0    0    0  501 -0.00000000000E+00  0.00000000000E+00  0.37963896884E+03  0.37963896884E+03  0.00000000000E+00 0.  1.
          1   -1    0    0  501    0  0.00000000000E+00 -0.00000000000E+00 -0.20693079674E+04  0.20693079674E+04  0.00000000000E+00 0. -1.
         23    2    1    2    0    0  0.47915955477E+03 -0.55989276418E+03 -0.11111877229E+04  0.13364370652E+04  0.90840999493E+02 0.  0.
    5000000    2    1    2    0    0 -0.47915955477E+03  0.55989276418E+03 -0.57848127557E+03  0.11125098710E+04  0.59996986646E+03 0.  0.
         23    2    4    4    0    0 -0.41472152175E+03  0.40159382388E+03 -0.67684480384E+03  0.89420553384E+03  0.90626200875E+02 0.  0.
         23    2    4    4    0    0 -0.64438033021E+02  0.15829894030E+03  0.98363528270E+02  0.21830433720E+03  0.93651403331E+02 0.  0.
          3    1    3    3  502    0  0.10689690507E+03 -0.13618675123E+03 -0.19699634652E+03  0.26226196840E+03  0.00000000000E+00 0. -1.
         -3    1    3    3    0  502  0.37226264969E+03 -0.42370601295E+03 -0.91419137643E+03  0.10741750968E+04  0.00000000000E+00 0.  1.
         13    1    5    5    0    0 -0.26570591815E+03  0.23313158240E+03 -0.34992181955E+03  0.49738842915E+03  0.00000000000E+00 0.  1.
        -13    1    5    5    0    0 -0.14901560360E+03  0.16846224148E+03 -0.32692298429E+03  0.39681710469E+03  0.00000000000E+00 0. -1.
          5    1    6    6  503    0 -0.47829693766E+02  0.60815560197E+02  0.90257133306E+02  0.11897332508E+03  0.47000000000E+01 0. -1.
         -5    1    6    6    0  503 -0.16608339255E+02  0.97483380104E+02  0.81063949642E+01  0.99331012119E+02  0.47000000000E+01 0.  1.
<mgrwt>
<rscale>  0 0.74602275E+03</rscale>
<asrwt>0</asrwt>
<pdfrwt beam="1">  1        1 0.31835508E+00 0.74602275E+03</pdfrwt>
<pdfrwt beam="2">  1       -1 0.58405993E-01 0.74602275E+03</pdfrwt>
<totfact> 0.83303133E+00</totfact>
</mgrwt>
</event>
<event>
12    1  0.3166324E-008  0.3731172E+03  0.7818608E-02  0.1053507E+00
         -1   -1    0    0    0  501 -0.00000000000E+00  0.00000000000E+00  0.99961211902E+02  0.99961211902E+02  0.00000000000E+00 0.  1.
          1   -1    0    0  501    0  0.00000000000E+00 -0.00000000000E+00 -0.19711784322E+04  0.19711784322E+04  0.00000000000E+00 0. -1.
         23    2    1    2    0    0  0.15114185705E+03  0.13737702039E+03 -0.75591243384E+03  0.78831246837E+03  0.91195578112E+02 0.  0.
    5000000    2    1    2    0    0 -0.15114185705E+03 -0.13737702039E+03 -0.11153047865E+04  0.12828271758E+04  0.60002040751E+03 0.  0.
         23    2    4    4    0    0 -0.26557429873E+03 -0.23311675706E+03 -0.10193231464E+04  0.10827045115E+04  0.91412536729E+02 0.  0.
         23    2    4    4    0    0  0.11443244168E+03  0.95739736672E+02 -0.95981640031E+02  0.20012266421E+03  0.92605208377E+02 0.  0.
          4    1    3    3  502    0  0.61176545375E+02  0.11478259581E+03 -0.47467512365E+03  0.49217282231E+03  0.00000000000E+00 0.  1.
         -4    1    3    3    0  502  0.89965311677E+02  0.22594424583E+02 -0.28123731019E+03  0.29613964606E+03  0.00000000000E+00 0. -1.
         13    1    5    5    0    0 -0.18678658824E+03 -0.12103922839E+03 -0.53692622832E+03  0.58123102034E+03  0.00000000000E+00 0. -1.
        -13    1    5    5    0    0 -0.78787710494E+02 -0.11207752867E+03 -0.48239691813E+03  0.50147349121E+03  0.00000000000E+00 0.  1.
          5    1    6    6  503    0  0.48614009598E+01 -0.96155417922E+01  0.94417830926E+01  0.15077437820E+02  0.47000000000E+01 0. -1.
         -5    1    6    6    0  503  0.10957104072E+03  0.10535527846E+03 -0.10542342312E+03  0.18504522639E+03  0.47000000000E+01 0.  1.
<mgrwt>
<rscale>  0 0.37311724E+03</rscale>
<asrwt>0</asrwt>
<pdfrwt beam="1">  1        1 0.30325819E+00 0.37311724E+03</pdfrwt>
<pdfrwt beam="2">  1       -1 0.15378649E-01 0.37311724E+03</pdfrwt>
<totfact> 0.10677907E+02</totfact>
</mgrwt>
</event>
<event>
12    1  0.3166324E-008  0.4340393E+03  0.7818608E-02  0.1032592E+00
         -2   -1    0    0    0  501 -0.00000000000E+00  0.00000000000E+00  0.61761638444E+03  0.61761638444E+03  0.00000000000E+00 0.  1.
          2   -1    0    0  501    0  0.00000000000E+00 -0.00000000000E+00 -0.50041000007E+03  0.50041000007E+03  0.00000000000E+00 0. -1.
         23    2    1    2    0    0 -0.23675030371E+03  0.28883765277E+02 -0.26430147789E+03  0.36791599475E+03  0.92854347119E+02 0.  0.
    5000000    2    1    2    0    0  0.23675030371E+03 -0.28883765277E+02  0.38150786226E+03  0.75011038976E+03  0.60019361014E+03 0.  0.
         23    2    4    4    0    0  0.29405158847E+03 -0.25094301331E+03  0.26763534472E+03  0.47905782368E+03  0.91809520586E+02 0.  0.
         23    2    4    4    0    0 -0.57301284768E+02  0.22205924803E+03  0.11387251754E+03  0.27105256608E+03  0.88931414317E+02 0.  0.
          3    1    3    3  502    0 -0.61869692639E+02  0.16361027965E+02 -0.13711339557E+03  0.15131300456E+03  0.00000000000E+00 0. -1.
         -3    1    3    3    0  502 -0.17488061107E+03  0.12522737313E+02 -0.12718808231E+03  0.21660299019E+03  0.00000000000E+00 0.  1.
         13    1    5    5    0    0  0.18371352475E+03 -0.20384558395E+03  0.21225223591E+03  0.34692173890E+03  0.00000000000E+00 0. -1.
        -13    1    5    5    0    0  0.11033806373E+03 -0.47097429359E+02  0.55383108809E+02  0.13213608478E+03  0.00000000000E+00 0.  1.
          5    1    6    6  503    0 -0.46696757515E+02  0.87336438574E+02  0.82905784570E+01  0.99494041813E+02  0.47000000000E+01 0. -1.
         -5    1    6    6    0  503 -0.10604527253E+02  0.13472280946E+03  0.10558193908E+03  0.17155852426E+03  0.47000000000E+01 0.  1.
<mgrwt>
<rscale>  0 0.43403932E+03</rscale>
<asrwt>0</asrwt>
<pdfrwt beam="1">  1        2 0.76986154E-01 0.43403932E+03</pdfrwt>
<pdfrwt beam="2">  1       -2 0.95017905E-01 0.43403932E+03</pdfrwt>
<totfact> 0.59493402E+01</totfact>
</mgrwt>
</event>
<event>
12    1  0.3166324E-008  0.6864357E+03  0.7818608E-02  0.9740714E-01
         -2   -1    0    0    0  501 -0.00000000000E+00  0.00000000000E+00  0.54884565502E+03  0.54884565502E+03  0.00000000000E+00 0.  1.
          2   -1    0    0  501    0  0.00000000000E+00 -0.00000000000E+00 -0.14394388896E+04  0.14394388896E+04  0.00000000000E+00 0. -1.
         23    2    1    2    0    0  0.38586251192E+03  0.42069949775E+03  0.20652615833E+03  0.61369264965E+03  0.89931466385E+02 0.  0.
    5000000    2    1    2    0    0 -0.38586251192E+03 -0.42069949775E+03 -0.10971193929E+04  0.13745918949E+04  0.59996164036E+03 0.  0.
         23    2    4    4    0    0 -0.25724244752E+03  0.86174622299E+02 -0.30196137093E+03  0.41833278107E+03  0.10110343145E+03 0.  0.
         23    2    4    4    0    0 -0.12862006440E+03 -0.50687412005E+03 -0.79515802195E+03  0.95625911387E+03  0.93224022949E+02 0.  0.
          3    1    3    3  502    0  0.27278031659E+03  0.24247344887E+03  0.15435121141E+03  0.39626603562E+03  0.00000000000E+00 0. -1.
         -3    1    3    3    0  502  0.11308219534E+03  0.17822604889E+03  0.52174946919E+02  0.21742661403E+03  0.00000000000E+00 0.  1.
         11    1    5    5    0    0 -0.10630262676E+03  0.51764701623E+02 -0.20197890101E+03  0.23404125543E+03  0.00000000000E+00 0.  1.
        -11    1    5    5    0    0 -0.15093982076E+03  0.34409920677E+02 -0.99982469925E+02  0.18429152565E+03  0.00000000000E+00 0. -1.
          5    1    6    6  503    0 -0.62991820250E+02 -0.30434288539E+03 -0.54800280582E+03  0.63001724301E+03  0.47000000000E+01 0.  1.
         -5    1    6    6    0  503 -0.65628244154E+02 -0.20253123466E+03 -0.24715521612E+03  0.32624187086E+03  0.47000000000E+01 0. -1.
<mgrwt>
<rscale>  0 0.68643569E+03</rscale>
<asrwt>0</asrwt>
<pdfrwt beam="1">  1        2 0.22145214E+00 0.68643569E+03</pdfrwt>
<pdfrwt beam="2">  1       -2 0.84437793E-01 0.68643569E+03</pdfrwt>
<totfact> 0.17335491E+01</totfact>
</mgrwt>
</event>
<event>
12    1  0.3166324E-008  0.1417686E+04  0.7818608E-02  0.8941115E-01
          2   -1    0    0  501    0  0.00000000000E+00  0.00000000000E+00  0.15835574864E+04  0.15835574864E+04  0.00000000000E+00 0. -1.
         -2   -1    0    0    0  501 -0.00000000000E+00 -0.00000000000E+00 -0.13067702162E+04  0.13067702162E+04  0.00000000000E+00 0.  1.
         23    2    1    2    0    0 -0.13561934495E+04 -0.22179471711E+03  0.15769625717E+03  0.13862134996E+04  0.90918579143E+02 0.  0.
    5000000    2    1    2    0    0  0.13561934495E+04  0.22179471711E+03  0.11909101310E+03  0.15041142030E+04  0.59976937006E+03 0.  0.
         23    2    4    4    0    0  0.12029158333E+04  0.33995686256E+03 -0.12204399628E+02  0.12531128010E+04  0.86980309902E+02 0.  0.
         23    2    4    4    0    0  0.15327761615E+03 -0.11816214545E+03  0.13129541273E+03  0.25100140193E+03  0.91142186387E+02 0.  0.
          3    1    3    3  502    0 -0.11643014172E+04 -0.20801993050E+03  0.16198825750E+03  0.11937798277E+04  0.00000000000E+00 0. -1.
         -3    1    3    3    0  502 -0.19189203231E+03 -0.13774786616E+02 -0.42920003363E+01  0.19243367189E+03  0.00000000000E+00 0.  1.
         11    1    5    5    0    0  0.59566641262E+03  0.21201468887E+03  0.50202485447E+01  0.63229257968E+03  0.00000000000E+00 0.  1.
        -11    1    5    5    0    0  0.60724942070E+03  0.12794217369E+03 -0.17224648173E+02  0.62082022136E+03  0.00000000000E+00 0. -1.
          5    1    6    6  503    0  0.50317208706E+02 -0.85423313266E+02  0.32261260608E+02  0.10436399225E+03  0.47000000000E+01 0. -1.
         -5    1    6    6    0  503  0.10296040744E+03 -0.32738832180E+02  0.99034152123E+02  0.14663740969E+03  0.47000000000E+01 0.  1.
<mgrwt>
<rscale>  0 0.14176864E+04</rscale>
<asrwt>0</asrwt>
<pdfrwt beam="1">  1        2 0.24362423E+00 0.14176864E+04</pdfrwt>
<pdfrwt beam="2">  1       -2 0.20104157E+00 0.14176864E+04</pdfrwt>
<totfact> 0.14147547E+00</totfact>
</mgrwt>
</event>
<event>
12    1  0.3166324E-008  0.9898714E+03  0.7818608E-02  0.9319724E-01
         -2   -1    0    0    0  501 -0.00000000000E+00  0.00000000000E+00  0.44461778058E+03  0.44461778058E+03  0.00000000000E+00 0.  1.
          2   -1    0    0  501    0  0.00000000000E+00 -0.00000000000E+00 -0.28376193803E+04  0.28376193803E+04  0.00000000000E+00 0. -1.
         23    2    1    2    0    0 -0.15637645505E+03  0.97408207537E+03 -0.62754603037E+03  0.11727149458E+04  0.90315218295E+02 0.  0.
    5000000    2    1    2    0    0  0.15637645505E+03 -0.97408207537E+03 -0.17654555694E+04  0.21095222151E+04  0.59996760182E+03 0.  0.
         23    2    4    4    0    0  0.88988375971E+02 -0.43080850551E+03 -0.29373135175E+03  0.53662766976E+03  0.90422615940E+02 0.  0.
         23    2    4    4    0    0  0.67388079077E+02 -0.54327356986E+03 -0.14717242176E+04  0.15728945453E+04  0.91311297508E+02 0.  0.
          3    1    3    3  502    0 -0.55605457022E+02  0.25207268558E+03 -0.12160086807E+03  0.28534080813E+03  0.00000000000E+00 0. -1.
         -3    1    3    3    0  502 -0.10077099803E+03  0.72200938979E+03 -0.50594516230E+03  0.88737413769E+03  0.00000000000E+00 0.  1.
         11    1    5    5    0    0  0.74346219247E+02 -0.28407200395E+03 -0.24147646658E+03  0.38017778428E+03  0.00000000000E+00 0. -1.
        -11    1    5    5    0    0  0.14642156723E+02 -0.14673650156E+03 -0.52254885165E+02  0.15644988548E+03  0.00000000000E+00 0.  1.
          5    1    6    6  503    0  0.23461095668E+02 -0.42450055749E+02 -0.86927352875E+02  0.99653825420E+02  0.47000000000E+01 0. -1.
         -5    1    6    6    0  503  0.43926983409E+02 -0.50082351412E+03 -0.13847968647E+04  0.14732407199E+04  0.47000000000E+01 0.  1.
<mgrwt>
<rscale>  0 0.98987143E+03</rscale>
<asrwt>0</asrwt>
<pdfrwt beam="1">  1        2 0.43655680E+00 0.98987143E+03</pdfrwt>
<pdfrwt beam="2">  1       -2 0.68402740E-01 0.98987143E+03</pdfrwt>
<totfact> 0.43736252E+00</totfact>
</mgrwt>
</event>
<event>
12    1  0.3166324E-008  0.1328008E+04  0.7818608E-02  0.9007645E-01
         -1   -1    0    0    0  501 -0.00000000000E+00  0.00000000000E+00  0.16675135838E+04  0.16675135838E+04  0.00000000000E+00 0.  1.
          1   -1    0    0  501    0  0.00000000000E+00 -0.00000000000E+00 -0.11535932485E+04  0.11535932485E+04  0.00000000000E+00 0. -1.
         23    2    1    2    0    0 -0.58569220608E+03 -0.11175874704E+04 -0.15046029195E+03  0.12740466560E+04  0.92300965177E+02 0.  0.
    5000000    2    1    2    0    0  0.58569220608E+03  0.11175874704E+04  0.66438062719E+03  0.15470601763E+04  0.59996371316E+03 0.  0.
         23    2    4    4    0    0  0.30718943352E+03  0.10488926843E+04  0.51110803795E+03  0.12096718058E+04  0.86794238770E+02 0.  0.
         23    2    4    4    0    0  0.27850277255E+03  0.68694786003E+02  0.15327258924E+03  0.33738837051E+03  0.89753317469E+02 0.  0.
          1    1    3    3  502    0 -0.32736757462E+03 -0.64287143236E+03 -0.40760405906E+02  0.72257499137E+03  0.00000000000E+00 0. -1.
         -1    1    3    3    0  502 -0.25832463145E+03 -0.47471603799E+03 -0.10969988604E+03  0.55147166467E+03  0.00000000000E+00 0.  1.
         13    1    5    5    0    0  0.26492751627E+03  0.94606415675E+03  0.48415719159E+03  0.10952772086E+04  0.00000000000E+00 0. -1.
        -13    1    5    5    0    0  0.42261917247E+02  0.10282852760E+03  0.26950846359E+02  0.11439459715E+03  0.00000000000E+00 0.  1.
          5    1    6    6  503    0 -0.36505938129E+00 -0.97064825864E+01  0.43221480350E+01  0.11624114426E+02  0.47000000000E+01 0. -1.
         -5    1    6    6    0  503  0.27886783194E+03  0.78401268590E+02  0.14895044121E+03  0.32576425608E+03  0.47000000000E+01 0.  1.
<mgrwt>
<rscale>  0 0.13280079E+04</rscale>
<asrwt>0</asrwt>
<pdfrwt beam="1">  1        1 0.17747588E+00 0.13280079E+04</pdfrwt>
<pdfrwt beam="2">  1       -1 0.25654055E+00 0.13280079E+04</pdfrwt>
<totfact> 0.70636943E-01</totfact>
</mgrwt>
</event>
<event>
12    1  0.3166324E-008  0.7408784E+03  0.7818608E-02  0.9649770E-01
         -2   -1    0    0    0  501 -0.00000000000E+00  0.00000000000E+00  0.59846017314E+03  0.59846017314E+03  0.00000000000E+00 0.  1.
          2   -1    0    0  501    0  0.00000000000E+00 -0.00000000000E+00 -0.11523526129E+04  0.11523526129E+04  0.00000000000E+00 0. -1.
         23    2    1    2    0    0 -0.23044831538E+03  0.66468665235E+03 -0.86244963027E+02  0.71470249492E+03  0.91905879647E+02 0.  0.
    5000000    2    1    2    0    0  0.23044831538E+03 -0.66468665235E+03 -0.46764747676E+03  0.10361102911E+04  0.59992966339E+03 0.  0.
         23    2    4    4    0    0  0.60255412800E+02 -0.24071865705E+02  0.10664402777E+03  0.15446710429E+03  0.90977844326E+02 0.  0.
         23    2    4    4    0    0  0.17019290258E+03 -0.64061478665E+03 -0.57429150453E+03  0.88164318686E+03  0.90172322770E+02 0.  0.
          3    1    3    3  502    0 -0.84728396107E+02  0.17204796643E+03  0.99420606506E+01  0.19203710170E+03  0.00000000000E+00 0. -1.
         -3    1    3    3    0  502 -0.14571991927E+03  0.49263868592E+03 -0.96187023678E+02  0.52266539322E+03  0.00000000000E+00 0.  1.
         13    1    5    5    0    0  0.81585330001E+02 -0.33437091767E+02  0.79760302316E+02  0.11889453731E+03  0.00000000000E+00 0. -1.
        -13    1    5    5    0    0 -0.21329917202E+02  0.93652260620E+01  0.26883725451E+02  0.35572566975E+02  0.00000000000E+00 0.  1.
          5    1    6    6  503    0  0.16955959784E+03 -0.58895941109E+03 -0.49970044623E+03  0.79078838578E+03  0.47000000000E+01 0. -1.
         -5    1    6    6    0  503  0.63330473518E+00 -0.51655375560E+02 -0.74591058305E+02  0.90854801074E+02  0.47000000000E+01 0.  1.
<mgrwt>
<rscale>  0 0.74087843E+03</rscale>
<asrwt>0</asrwt>
<pdfrwt beam="1">  1        2 0.17728502E+00 0.74087843E+03</pdfrwt>
<pdfrwt beam="2">  1       -2 0.92070796E-01 0.74087843E+03</pdfrwt>
<totfact> 0.20682139E+01</totfact>
</mgrwt>
</event>
<event>
12    1  0.3166324E-008  0.6665020E+03  0.7818608E-02  0.9776298E-01
          1   -1    0    0  501    0  0.00000000000E+00  0.00000000000E+00  0.66680269942E+03  0.66680269942E+03  0.00000000000E+00 0. -1.
         -1   -1    0    0    0  501 -0.00000000000E+00 -0.00000000000E+00 -0.88143763610E+03  0.88143763610E+03  0.00000000000E+00 0.  1.
         23    2    1    2    0    0  0.55557027746E+03 -0.13539401574E+02  0.24046710737E+03  0.61228860066E+03  0.90726248554E+02 0.  0.
    5000000    2    1    2    0    0 -0.55557027746E+03  0.13539401574E+02 -0.45510204404E+03  0.93595173486E+03  0.60003844120E+03 0.  0.
         23    2    4    4    0    0  0.66164457342E+02 -0.10738707601E+03 -0.18514252910E+03  0.24177991082E+03  0.90939813527E+02 0.  0.
         23    2    4    4    0    0 -0.62173473480E+03  0.12092647758E+03 -0.26995951493E+03  0.69417182404E+03  0.88425608024E+02 0.  0.
          1    1    3    3  502    0  0.51483266042E+03  0.89127941508E+01  0.23301749873E+03  0.56518073291E+03  0.00000000000E+00 0. -1.
         -1    1    3    3    0  502  0.40737617040E+02 -0.22452195725E+02  0.74496086316E+01  0.47107867748E+02  0.00000000000E+00 0.  1.
         11    1    5    5    0    0  0.22090802809E+02 -0.64962427476E+01 -0.99957180211E+02  0.10257505844E+03  0.00000000000E+00 0. -1.
        -11    1    5    5    0    0  0.44073654533E+02 -0.10089083326E+03 -0.85185348894E+02  0.13920485238E+03  0.00000000000E+00 0.  1.
          5    1    6    6  503    0 -0.40865405830E+03  0.40617182682E+02 -0.19278098259E+03  0.45368986339E+03  0.47000000000E+01 0. -1.
         -5    1    6    6    0  503 -0.21308067650E+03  0.80309294898E+02 -0.77178532342E+02  0.24048196065E+03  0.47000000000E+01 0.  1.
<mgrwt>
<rscale>  0 0.66650199E+03</rscale>
<asrwt>0</asrwt>
<pdfrwt beam="1">  1        1 0.10258503E+00 0.66650199E+03</pdfrwt>
<pdfrwt beam="2">  1       -1 0.13560579E+00 0.66650199E+03</pdfrwt>
<totfact> 0.13883039E+01</totfact>
</mgrwt>
</event>
<event>
12    1  0.3166324E-008  0.4433212E+03  0.7818608E-02  0.1029733E+00
          1   -1    0    0  501    0  0.00000000000E+00  0.00000000000E+00  0.38598107484E+03  0.38598107484E+03  0.00000000000E+00 0. -1.
         -1   -1    0    0    0  501 -0.00000000000E+00 -0.00000000000E+00 -0.12308162242E+04  0.12308162242E+04  0.00000000000E+00 0.  1.
         23    2    1    2    0    0  0.50828444318E+02  0.40921802281E+03 -0.77813394158E+03  0.88537173807E+03  0.91366091089E+02 0.  0.
    5000000    2    1    2    0    0 -0.50828444318E+02 -0.40921802281E+03 -0.66701207806E+02  0.73142556099E+03  0.60040934303E+03 0.  0.
         23    2    4    4    0    0 -0.67550819301E+02 -0.39122736343E+03  0.19591988572E+03  0.45195505182E+03  0.90866958616E+02 0.  0.
         23    2    4    4    0    0  0.16722374983E+02 -0.17990659387E+02 -0.26262109352E+03  0.27947050916E+03  0.92361383056E+02 0.  0.
          1    1    3    3  502    0  0.26580684013E+02  0.17535293965E+03 -0.24276866215E+03  0.30065230671E+03  0.00000000000E+00 0. -1.
         -1    1    3    3    0  502  0.24247760305E+02  0.23386508316E+03 -0.53536527943E+03  0.58471943137E+03  0.00000000000E+00 0.  1.
         11    1    5    5    0    0 -0.40742846522E+02 -0.35194109516E+03  0.14655773420E+03  0.38340798565E+03  0.00000000000E+00 0. -1.
        -11    1    5    5    0    0 -0.26807972779E+02 -0.39286268263E+02  0.49362151515E+02  0.68547066172E+02  0.00000000000E+00 0.  1.
          5    1    6    6  503    0 -0.25659645878E+02 -0.13916218959E+00 -0.19968135338E+03  0.20137817578E+03  0.47000000000E+01 0.  1.
         -5    1    6    6    0  503  0.42382020861E+02 -0.17851497197E+02 -0.62939740144E+02  0.78092333387E+02  0.47000000000E+01 0. -1.
<mgrwt>
<rscale>  0 0.44332118E+03</rscale>
<asrwt>0</asrwt>
<pdfrwt beam="1">  1        1 0.59381704E-01 0.44332118E+03</pdfrwt>
<pdfrwt beam="2">  1       -1 0.18935634E+00 0.44332118E+03</pdfrwt>
<totfact> 0.12126709E+01</totfact>
</mgrwt>
</event>
<event>
12    1  0.3166324E-008  0.9906294E+03  0.7818608E-02  0.9318882E-01
          1   -1    0    0  501    0  0.00000000000E+00  0.00000000000E+00  0.11370788855E+04  0.11370788855E+04  0.00000000000E+00 0. -1.
         -1   -1    0    0    0  501 -0.00000000000E+00 -0.00000000000E+00 -0.11188423073E+04  0.11188423073E+04  0.00000000000E+00 0.  1.
         23    2    1    2    0    0  0.93977318451E+03  0.22571452121E+03 -0.39155016113E+03  0.10467067406E+04  0.90348152776E+02 0.  0.
    5000000    2    1    2    0    0 -0.93977318451E+03 -0.22571452121E+03  0.40978673930E+03  0.12092144522E+04  0.60012809984E+03 0.  0.
         23    2    4    4    0    0 -0.19729974589E+03 -0.15458515345E+03  0.37185469892E+03  0.45704854155E+03  0.88281894096E+02 0.  0.
         23    2    4    4    0    0 -0.74247343863E+03 -0.71129367756E+02  0.37932040384E+02  0.75216591062E+03  0.89378539904E+02 0.  0.
          3    1    3    3  502    0  0.71089799949E+03  0.20928167136E+03 -0.29024702353E+03  0.79587569276E+03  0.00000000000E+00 0. -1.
         -3    1    3    3    0  502  0.22887518502E+03  0.16432849846E+02 -0.10130313760E+03  0.25083104784E+03  0.00000000000E+00 0.  1.
         11    1    5    5    0    0 -0.10426915425E+03 -0.13295352735E+03  0.25846453925E+03  0.30879218743E+03  0.00000000000E+00 0.  1.
        -11    1    5    5    0    0 -0.93030591636E+02 -0.21631626102E+02  0.11339015967E+03  0.14825635412E+03  0.00000000000E+00 0. -1.
          5    1    6    6  503    0 -0.24348339599E+03 -0.33568377323E+02  0.53147173163E+02  0.25151085880E+03  0.47000000000E+01 0. -1.
         -5    1    6    6    0  503 -0.49899004264E+03 -0.37560990432E+02 -0.15215132779E+02  0.50065505183E+03  0.47000000000E+01 0.  1.
<mgrwt>
<rscale>  0 0.99062943E+03</rscale>
<asrwt>0</asrwt>
<pdfrwt beam="1">  1        1 0.17493521E+00 0.99062943E+03</pdfrwt>
<pdfrwt beam="2">  1       -1 0.17212959E+00 0.99062943E+03</pdfrwt>
<totfact> 0.28364551E+00</totfact>
</mgrwt>
</event>
<event>
12    1  0.3166324E-008  0.6564627E+03  0.7818608E-02  0.9794727E-01
          2   -1    0    0  501    0  0.00000000000E+00  0.00000000000E+00  0.13189745645E+04  0.13189745645E+04  0.00000000000E+00 0. -1.
         -2   -1    0    0    0  501 -0.00000000000E+00 -0.00000000000E+00 -0.42791760171E+03  0.42791760171E+03  0.00000000000E+00 0.  1.
         23    2    1    2    0    0 -0.44273452104E+03  0.44342092875E+03  0.41738843614E+03  0.75821550856E+03  0.89675384756E+02 0.  0.
    5000000    2    1    2    0    0  0.44273452104E+03 -0.44342092875E+03  0.47366852667E+03  0.98867665767E+03  0.60040293478E+03 0.  0.
         23    2    4    4    0    0  0.25339910753E+03 -0.99877076996E+02 -0.85688066594E+02  0.29964538186E+03  0.90875584758E+02 0.  0.
         23    2    4    4    0    0  0.18933541351E+03 -0.34354385176E+03  0.55935659327E+03  0.68903127582E+03  0.89521079828E+02 0.  0.
          2    1    3    3  502    0 -0.44283757355E+02  0.89404121183E+02  0.73175485816E+02  0.12372873464E+03  0.00000000000E+00 0.  1.
         -2    1    3    3    0  502 -0.39845076369E+03  0.35401680757E+03  0.34421295032E+03  0.63448677393E+03  0.00000000000E+00 0. -1.
         11    1    5    5    0    0  0.20733280369E+03 -0.54137092619E+02 -0.94381462807E+02  0.23414862119E+03  0.00000000000E+00 0. -1.
        -11    1    5    5    0    0  0.46066303843E+02 -0.45739984377E+02  0.86933962134E+01  0.65496760670E+02  0.00000000000E+00 0.  1.
          5    1    6    6  503    0  0.13190342619E+03 -0.30298423454E+03  0.48168137331E+03  0.58415494144E+03  0.47000000000E+01 0. -1.
         -5    1    6    6    0  503  0.57431987318E+02 -0.40559617221E+02  0.77675219961E+02  0.10487633438E+03  0.47000000000E+01 0.  1.
<mgrwt>
<rscale>  0 0.65646267E+03</rscale>
<asrwt>0</asrwt>
<pdfrwt beam="1">  1        2 0.20291916E+00 0.65646267E+03</pdfrwt>
<pdfrwt beam="2">  1       -2 0.65833477E-01 0.65646267E+03</pdfrwt>
<totfact> 0.35289075E+01</totfact>
</mgrwt>
</event>
<event>
12    1  0.3166324E-008  0.6461765E+03  0.7818608E-02  0.9813980E-01
         -2   -1    0    0    0  501 -0.00000000000E+00  0.00000000000E+00  0.15271476334E+03  0.15271476334E+03  0.00000000000E+00 0.  1.
          2   -1    0    0  501    0  0.00000000000E+00 -0.00000000000E+00 -0.31555100496E+04  0.31555100496E+04  0.00000000000E+00 0. -1.
         23    2    1    2    0    0  0.53141442819E+03 -0.17624764999E+03 -0.12691109092E+04  0.13900988027E+04  0.90926634056E+02 0.  0.
    5000000    2    1    2    0    0 -0.53141442819E+03  0.17624764999E+03 -0.17336843770E+04  0.19181260102E+04  0.60006778227E+03 0.  0.
         23    2    4    4    0    0 -0.33890159767E+03  0.33488085032E+03 -0.14509723926E+04  0.15300202722E+04  0.92960595435E+02 0.  0.
         23    2    4    4    0    0 -0.19251283051E+03 -0.15863320032E+03 -0.28271198440E+03  0.38810573804E+03  0.92056046069E+02 0.  0.
          4    1    3    3  502    0  0.13575698783E+03 -0.76468679402E+02 -0.42168173758E+03  0.44954744631E+03  0.00000000000E+00 0. -1.
         -4    1    3    3    0  502  0.39565744035E+03 -0.99778970591E+02 -0.84742917162E+03  0.94055135639E+03  0.00000000000E+00 0.  1.
         11    1    5    5    0    0 -0.24384871026E+03  0.21070497142E+03 -0.10896737632E+04  0.11363308008E+04  0.00000000000E+00 0. -1.
        -11    1    5    5    0    0 -0.95052887414E+02  0.12417587890E+03 -0.36129862939E+03  0.39368947141E+03  0.00000000000E+00 0.  1.
          5    1    6    6  503    0 -0.37960271060E+02 -0.35448598029E+02 -0.12422052353E+03  0.13472347140E+03  0.47000000000E+01 0. -1.
         -5    1    6    6    0  503 -0.15455255945E+03 -0.12318460229E+03 -0.15849146087E+03  0.25338226663E+03  0.47000000000E+01 0.  1.
<mgrwt>
<rscale>  0 0.64617655E+03</rscale>
<asrwt>0</asrwt>
<pdfrwt beam="1">  1        2 0.48546308E+00 0.64617655E+03</pdfrwt>
<pdfrwt beam="2">  1       -2 0.23494579E-01 0.64617655E+03</pdfrwt>
<totfact> 0.24074822E+01</totfact>
</mgrwt>
</event>
<event>
12    1  0.3166324E-008  0.9897618E+03  0.7818608E-02  0.9319846E-01
          2   -1    0    0  501    0  0.00000000000E+00  0.00000000000E+00  0.16210345896E+04  0.16210345896E+04  0.00000000000E+00 0.  1.
         -2   -1    0    0    0  501 -0.00000000000E+00 -0.00000000000E+00 -0.80574202673E+03  0.80574202673E+03  0.00000000000E+00 0. -1.
         23    2    1    2    0    0  0.89528800873E+03  0.10417546851E+03 -0.21629441724E+03  0.93135019271E+03  0.90756595965E+02 0.  0.
    5000000    2    1    2    0    0 -0.89528800873E+03 -0.10417546851E+03  0.10315869802E+04  0.14954264237E+04  0.59977941289E+03 0.  0.
         23    2    4    4    0    0 -0.31012994208E+03  0.23283806928E+03  0.44316492013E+03  0.59571851767E+03  0.89951422321E+02 0.  0.
         23    2    4    4    0    0 -0.58515806666E+03 -0.33701353779E+03  0.58842206002E+03  0.89970790599E+03  0.85121723148E+02 0.  0.
          3    1    3    3  502    0  0.70829595908E+03  0.45550809624E+02 -0.16225297737E+03  0.72806872654E+03  0.00000000000E+00 0. -1.
         -3    1    3    3    0  502  0.18699204966E+03  0.58624658891E+02 -0.54041439872E+02  0.20328146617E+03  0.00000000000E+00 0.  1.
         11    1    5    5    0    0 -0.22990143990E+03  0.20651593021E+03  0.30774354012E+03  0.43613024200E+03  0.00000000000E+00 0.  1.
        -11    1    5    5    0    0 -0.80228502177E+02  0.26322139067E+02  0.13542138001E+03  0.15958827567E+03  0.00000000000E+00 0. -1.
          5    1    6    6  503    0 -0.25570990633E+03 -0.10071815597E+03  0.25061537551E+03  0.37197024018E+03  0.47000000000E+01 0. -1.
         -5    1    6    6    0  503 -0.32944816032E+03 -0.23629538183E+03  0.33780668451E+03  0.52773766581E+03  0.47000000000E+01 0.  1.
<mgrwt>
<rscale>  0 0.98976183E+03</rscale>
<asrwt>0</asrwt>
<pdfrwt beam="1">  1        2 0.24938994E+00 0.98976183E+03</pdfrwt>
<pdfrwt beam="2">  1       -2 0.12396031E+00 0.98976183E+03</pdfrwt>
<totfact> 0.52923797E+00</totfact>
</mgrwt>
</event>
<event>
12    1  0.3166324E-008  0.6744276E+03  0.7818608E-02  0.9761992E-01
         -1   -1    0    0    0  501 -0.00000000000E+00  0.00000000000E+00  0.36953872222E+03  0.36953872222E+03  0.00000000000E+00 0.  1.
          1   -1    0    0  501    0  0.00000000000E+00 -0.00000000000E+00 -0.13806948387E+04  0.13806948387E+04  0.00000000000E+00 0. -1.
         23    2    1    2    0    0 -0.27456945712E+03 -0.46572485444E+03 -0.14757521982E+03  0.56768720966E+03  0.90566526283E+02 0.  0.
    5000000    2    1    2    0    0  0.27456945712E+03  0.46572485444E+03 -0.86358089668E+03  0.11825463513E+04  0.60029649421E+03 0.  0.
         23    2    4    4    0    0 -0.83910453649E+01  0.49974573748E+03 -0.55116984677E+03  0.74987218809E+03  0.93294623165E+02 0.  0.
         23    2    4    4    0    0  0.28296050249E+03 -0.34020883046E+02 -0.31241104991E+03  0.43267416317E+03  0.91554360470E+02 0.  0.
          1    1    3    3  502    0 -0.11897180321E+03 -0.17300772898E+03 -0.14483579728E+02  0.21046552765E+03  0.00000000000E+00 0. -1.
         -1    1    3    3    0  502 -0.15559765391E+03 -0.29271712545E+03 -0.13309164009E+03  0.35722168201E+03  0.00000000000E+00 0.  1.
         13    1    5    5    0    0  0.40242819112E+02  0.15411444770E+03 -0.18064548515E+03  0.24083923847E+03  0.00000000000E+00 0.  1.
        -13    1    5    5    0    0 -0.48633864477E+02  0.34563128979E+03 -0.37052436161E+03  0.50903294963E+03  0.00000000000E+00 0. -1.
          5    1    6    6  503    0  0.15048450284E+03 -0.63283416972E+02 -0.16134218949E+03  0.22957301359E+03  0.47000000000E+01 0. -1.
         -5    1    6    6    0  503  0.13247599965E+03  0.29262533926E+02 -0.15106886042E+03  0.20310114959E+03  0.47000000000E+01 0.  1.
<mgrwt>
<rscale>  0 0.67442757E+03</rscale>
<asrwt>0</asrwt>
<pdfrwt beam="1">  1        1 0.21241459E+00 0.67442757E+03</pdfrwt>
<pdfrwt beam="2">  1       -1 0.56852112E-01 0.67442757E+03</pdfrwt>
<totfact> 0.25868514E+01</totfact>
</mgrwt>
</event>
<event>
12    1  0.3166324E-008  0.5818923E+03  0.7818608E-02  0.9943703E-01
         -2   -1    0    0    0  501 -0.00000000000E+00  0.00000000000E+00  0.31867059705E+03  0.31867059705E+03  0.00000000000E+00 0.  1.
          2   -1    0    0  501    0  0.00000000000E+00 -0.00000000000E+00 -0.17040433200E+04  0.17040433200E+04  0.00000000000E+00 0. -1.
         23    2    1    2    0    0  0.53060276065E+03  0.14523640138E+03 -0.21683748681E+03  0.59850980131E+03  0.92534235168E+02 0.  0.
    5000000    2    1    2    0    0 -0.53060276065E+03 -0.14523640138E+03 -0.11685352362E+04  0.14242041158E+04  0.60020818335E+03 0.  0.
         23    2    4    4    0    0 -0.16350878065E+03 -0.16407104609E+03 -0.64491314764E+02  0.25691284998E+03  0.90502228092E+02 0.  0.
         23    2    4    4    0    0 -0.36709398000E+03  0.18834644713E+02 -0.11040439214E+04  0.11672912658E+04  0.92429350562E+02 0.  0.
          1    1    3    3  502    0  0.27947368184E+03  0.60501091954E+02 -0.65671277086E+02  0.29339161134E+03  0.00000000000E+00 0. -1.
         -1    1    3    3    0  502  0.25112907881E+03  0.84735309421E+02 -0.15116620973E+03  0.30511818997E+03  0.00000000000E+00 0.  1.
         11    1    5    5    0    0 -0.44087490790E+02 -0.98140964075E+02 -0.53230674840E+02  0.12003691273E+03  0.00000000000E+00 0.  1.
        -11    1    5    5    0    0 -0.11942128986E+03 -0.65930082014E+02 -0.11260639925E+02  0.13687593725E+03  0.00000000000E+00 0. -1.
          5    1    6    6  503    0 -0.12228094789E+03  0.19641547663E+02 -0.50825767856E+03  0.52315043575E+03  0.47000000000E+01 0. -1.
         -5    1    6    6    0  503 -0.24481303210E+03 -0.80690294984E+00 -0.59578624285E+03  0.64414083006E+03  0.47000000000E+01 0.  1.
<mgrwt>
<rscale>  0 0.58189230E+03</rscale>
<asrwt>0</asrwt>
<pdfrwt beam="1">  1        2 0.26216051E+00 0.58189230E+03</pdfrwt>
<pdfrwt beam="2">  1       -2 0.49026246E-01 0.58189230E+03</pdfrwt>
<totfact> 0.40306874E+01</totfact>
</mgrwt>
</event>
<event>
12    1  0.3166324E-008  0.1322220E+04  0.7818608E-02  0.9012127E-01
         -2   -1    0    0    0  501 -0.00000000000E+00  0.00000000000E+00  0.14682847045E+04  0.14682847045E+04  0.00000000000E+00 0.  1.
          2   -1    0    0  501    0  0.00000000000E+00 -0.00000000000E+00 -0.20248912134E+04  0.20248912134E+04  0.00000000000E+00 0. -1.
         23    2    1    2    0    0 -0.78248059280E+03 -0.10040081572E+04 -0.13663467391E+04  0.18696184638E+04  0.90892963048E+02 0.  0.
    5000000    2    1    2    0    0  0.78248059280E+03  0.10040081572E+04  0.80974023020E+03  0.16235574542E+04  0.59995942259E+03 0.  0.
         23    2    4    4    0    0  0.68788090101E+03  0.49750290729E+03  0.66552779169E+03  0.10826813241E+04  0.92640872434E+02 0.  0.
         23    2    4    4    0    0  0.94599691788E+02  0.50650524990E+03  0.14421243852E+03  0.54087613010E+03  0.79076487165E+02 0.  0.
          1    1    3    3  502    0 -0.50435951305E+03 -0.57885337666E+03 -0.84374820129E+03  0.11407720093E+04  0.00000000000E+00 0. -1.
         -1    1    3    3    0  502 -0.27812107975E+03 -0.42515478053E+03 -0.52259853782E+03  0.72884645444E+03  0.00000000000E+00 0.  1.
         13    1    5    5    0    0  0.27289137150E+03  0.19691684543E+03  0.20716395626E+03  0.39517445442E+03  0.00000000000E+00 0.  1.
        -13    1    5    5    0    0  0.41498952951E+03  0.30058606186E+03  0.45836383543E+03  0.68750686965E+03  0.00000000000E+00 0. -1.
          5    1    6    6  503    0  0.17506164174E+02  0.27622088380E+03  0.97842416799E+02  0.29359780475E+03  0.47000000000E+01 0. -1.
         -5    1    6    6    0  503  0.77093527613E+02  0.23028436610E+03  0.46370021718E+02  0.24727832534E+03  0.47000000000E+01 0.  1.
<mgrwt>
<rscale>  0 0.13222204E+04</rscale>
<asrwt>0</asrwt>
<pdfrwt beam="1">  1        2 0.31152173E+00 0.13222204E+04</pdfrwt>
<pdfrwt beam="2">  1       -2 0.22588995E+00 0.13222204E+04</pdfrwt>
<totfact> 0.56189282E-01</totfact>
</mgrwt>
</event>
<event>
12    1  0.3166324E-008  0.6392783E+03  0.7818608E-02  0.9827108E-01
         -1   -1    0    0    0  501 -0.00000000000E+00  0.00000000000E+00  0.13843696725E+03  0.13843696725E+03  0.00000000000E+00 0.  1.
          1   -1    0    0  501    0  0.00000000000E+00 -0.00000000000E+00 -0.35599798522E+04  0.35599798522E+04  0.00000000000E+00 0. -1.
         23    2    1    2    0    0  0.53689788033E+03 -0.11319634816E+03 -0.10053368632E+04  0.11490442275E+04  0.92345445068E+02 0.  0.
    5000000    2    1    2    0    0 -0.53689788033E+03  0.11319634816E+03 -0.24162060218E+04  0.25493725919E+04  0.60014692007E+03 0.  0.
         23    2    4    4    0    0 -0.52993398939E+03 -0.74410521351E+02 -0.21142973186E+04  0.21827700695E+04  0.88685207092E+02 0.  0.
         23    2    4    4    0    0 -0.69638909410E+01  0.18760686951E+03 -0.30190870313E+03  0.36660252241E+03  0.89463462634E+02 0.  0.
          2    1    3    3  502    0  0.92579143434E+02 -0.11534358105E+02 -0.10901376893E+03  0.14348498539E+03  0.00000000000E+00 0. -1.
         -2    1    3    3    0  502  0.44431873689E+03 -0.10166199006E+03 -0.89632309426E+03  0.10055592422E+04  0.00000000000E+00 0.  1.
         11    1    5    5    0    0 -0.33535533028E+03 -0.21510013392E+02 -0.14563536183E+04  0.14946209351E+04  0.00000000000E+00 0. -1.
        -11    1    5    5    0    0 -0.19457865910E+03 -0.52900507959E+02 -0.65794370038E+03  0.68814913441E+03  0.00000000000E+00 0.  1.
          5    1    6    6  503    0 -0.22599630548E+02  0.12221033844E+03 -0.12089618538E+03  0.17344765136E+03  0.47000000000E+01 0. -1.
         -5    1    6    6    0  503  0.15635739607E+02  0.65396531078E+02 -0.18101251775E+03  0.19315487106E+03  0.47000000000E+01 0.  1.
<mgrwt>
<rscale>  0 0.63927833E+03</rscale>
<asrwt>0</asrwt>
<pdfrwt beam="1">  1        1 0.54768916E+00 0.63927833E+03</pdfrwt>
<pdfrwt beam="2">  1       -1 0.21297997E-01 0.63927833E+03</pdfrwt>
<totfact> 0.45574205E+00</totfact>
</mgrwt>
</event>
<event>
12    1  0.3166324E-008  0.7006961E+03  0.7818608E-02  0.9716043E-01
          1   -1    0    0  501    0  0.00000000000E+00  0.00000000000E+00  0.45349890733E+03  0.45349890733E+03  0.00000000000E+00 0. -1.
         -1   -1    0    0    0  501 -0.00000000000E+00 -0.00000000000E+00 -0.11490196937E+04  0.11490196937E+04  0.00000000000E+00 0.  1.
         23    2    1    2    0    0 -0.76002403562E+02  0.58702975727E+03 -0.32755042482E+03  0.68282710575E+03  0.92645962020E+02 0.  0.
    5000000    2    1    2    0    0  0.76002403562E+02 -0.58702975727E+03 -0.36797036155E+03  0.91969149528E+03  0.60004163043E+03 0.  0.
         23    2    4    4    0    0  0.72530549199E+02  0.81577608611E+02 -0.15633087328E+03  0.21302329937E+03  0.94994722692E+02 0.  0.
         23    2    4    4    0    0  0.34718543624E+01 -0.66860736588E+03 -0.21163948827E+03  0.70666819592E+03  0.86837794995E+02 0.  0.
          1    1    3    3  502    0 -0.23096519871E+01  0.36853505876E+03 -0.20000053758E+03  0.41931329464E+03  0.00000000000E+00 0. -1.
         -1    1    3    3    0  502 -0.73692751575E+02  0.21849469851E+03 -0.12754988724E+03  0.26351381111E+03  0.00000000000E+00 0.  1.
         13    1    5    5    0    0 -0.93580205167E+01 -0.41052468363E+01  0.61358804204E+01  0.11919506203E+02  0.00000000000E+00 0.  1.
        -13    1    5    5    0    0  0.81888569716E+02  0.85682855447E+02 -0.16246675370E+03  0.20110379316E+03  0.00000000000E+00 0. -1.
          5    1    6    6  503    0  0.33835583205E+02 -0.54796853340E+03 -0.18497086271E+03  0.57935366602E+03  0.47000000000E+01 0. -1.
         -5    1    6    6    0  503 -0.30363728842E+02 -0.12063883248E+03 -0.26668625569E+02  0.12731452989E+03  0.47000000000E+01 0.  1.
<mgrwt>
<rscale>  0 0.70069610E+03</rscale>
<asrwt>0</asrwt>
<pdfrwt beam="1">  1        1 0.69769065E-01 0.70069610E+03</pdfrwt>
<pdfrwt beam="2">  1       -1 0.17677226E+00 0.70069610E+03</pdfrwt>
<totfact> 0.11527429E+01</totfact>
</mgrwt>
</event>
<event>
12    1  0.3489157E-008  0.6818557E+03  0.7818608E-02  0.9748775E-01
          1   -1    0    0  501    0  0.00000000000E+00  0.00000000000E+00  0.15808445087E+04  0.15808445087E+04  0.00000000000E+00 0. -1.
         -1   -1    0    0    0  501 -0.00000000000E+00 -0.00000000000E+00 -0.40801282069E+03  0.40801282069E+03  0.00000000000E+00 0.  1.
         23    2    1    2    0    0 -0.30658831130E+03 -0.57660924992E+03  0.77352125569E+03  0.10163615577E+04  0.90449229805E+02 0.  0.
    5000000    2    1    2    0    0  0.30658831130E+03  0.57660924992E+03  0.39931043233E+03  0.97249577173E+03  0.59985380298E+03 0.  0.
         23    2    4    4    0    0 -0.31292506128E+02  0.17645481042E+03  0.39269379553E+03  0.44082318674E+03  0.89449113233E+02 0.  0.
         23    2    4    4    0    0  0.33788081742E+03  0.40015443951E+03  0.66166368030E+01  0.53167258500E+03  0.91350618583E+02 0.  0.
          3    1    3    3  502    0 -0.16470892647E+03 -0.36240307275E+03  0.52546623148E+03  0.65922665148E+03  0.00000000000E+00 0. -1.
         -3    1    3    3    0  502 -0.14187938483E+03 -0.21420617717E+03  0.24805502421E+03  0.35713490618E+03  0.00000000000E+00 0.  1.
         11    1    5    5    0    0 -0.39518594913E+02  0.14491397360E+03  0.22866007340E+03  0.27358217825E+03  0.00000000000E+00 0. -1.
        -11    1    5    5    0    0  0.82260887851E+01  0.31540836812E+02  0.16403372213E+03  0.16724100848E+03  0.00000000000E+00 0.  1.
          5    1    6    6  503    0  0.15851571177E+03  0.22401738028E+03 -0.35439431029E+02  0.27674728692E+03  0.47000000000E+01 0. -1.
         -5    1    6    6    0  503  0.17936510565E+03  0.17613705923E+03  0.42056067832E+02  0.25492529808E+03  0.47000000000E+01 0.  1.
<mgrwt>
<rscale>  0 0.68185569E+03</rscale>
<asrwt>0</asrwt>
<pdfrwt beam="1">  1        1 0.24320684E+00 0.68185569E+03</pdfrwt>
<pdfrwt beam="2">  1       -1 0.62771204E-01 0.68185569E+03</pdfrwt>
<totfact> 0.15512368E+01</totfact>
</mgrwt>
</event>
<event>
12    1  0.3166324E-008  0.7550060E+03  0.7818608E-02  0.9627529E-01
          2   -1    0    0  501    0  0.00000000000E+00  0.00000000000E+00  0.25466547671E+04  0.25466547671E+04  0.00000000000E+00 0. -1.
         -2   -1    0    0    0  501 -0.00000000000E+00 -0.00000000000E+00 -0.33004524041E+03  0.33004524041E+03  0.00000000000E+00 0.  1.
         23    2    1    2    0    0  0.45055478314E+03  0.58685057276E+03  0.15313109385E+04  0.17031942962E+04  0.92544112356E+02 0.  0.
    5000000    2    1    2    0    0 -0.45055478314E+03 -0.58685057276E+03  0.68529858816E+03  0.11735057113E+04  0.60007357233E+03 0.  0.
         23    2    4    4    0    0 -0.38019840327E+03 -0.51898153559E+03  0.21502420516E+03  0.68456965187E+03  0.92236323245E+02 0.  0.
         23    2    4    4    0    0 -0.70356379871E+02 -0.67869037173E+02  0.47027438301E+03  0.48893605945E+03  0.91346858336E+02 0.  0.
          3    1    3    3  502    0  0.26100526778E+03  0.26446895160E+03  0.75118892398E+03  0.83806466080E+03  0.00000000000E+00 0. -1.
         -3    1    3    3    0  502  0.18954951535E+03  0.32238162116E+03  0.78012201456E+03  0.86512963539E+03  0.00000000000E+00 0.  1.
         11    1    5    5    0    0 -0.33064039007E+03 -0.38983616437E+03  0.17928710650E+03  0.54170025767E+03  0.00000000000E+00 0.  1.
        -11    1    5    5    0    0 -0.49558013194E+02 -0.12914537122E+03  0.35737098656E+02  0.14286939420E+03  0.00000000000E+00 0. -1.
          5    1    6    6  503    0 -0.64323072372E+02 -0.21525589015E+02  0.39038563974E+03  0.39626234534E+03  0.47000000000E+01 0. -1.
         -5    1    6    6    0  503 -0.60333074995E+01 -0.46343448159E+02  0.79888743269E+02  0.92673714114E+02  0.47000000000E+01 0.  1.
<mgrwt>
<rscale>  0 0.75500596E+03</rscale>
<asrwt>0</asrwt>
<pdfrwt beam="1">  1        2 0.39179303E+00 0.75500596E+03</pdfrwt>
<pdfrwt beam="2">  1       -2 0.50776193E-01 0.75500596E+03</pdfrwt>
<totfact> 0.12569506E+01</totfact>
</mgrwt>
</event>
<event>
12    1  0.3166324E-008  0.1128925E+04  0.7818608E-02  0.9177449E-01
          2   -1    0    0  501    0  0.00000000000E+00  0.00000000000E+00  0.10418535168E+04  0.10418535168E+04  0.00000000000E+00 0. -1.
         -2   -1    0    0    0  501 -0.00000000000E+00 -0.00000000000E+00 -0.13367984817E+04  0.13367984817E+04  0.00000000000E+00 0.  1.
         23    2    1    2    0    0 -0.47426408913E+02 -0.10550305671E+04 -0.45399889426E+03  0.11535015457E+04  0.95457101697E+02 0.  0.
    5000000    2    1    2    0    0  0.47426408913E+02  0.10550305671E+04  0.15905392937E+03  0.12251504528E+04  0.60029719120E+03 0.  0.
         23    2    4    4    0    0  0.12841331540E+03  0.10851355274E+02  0.55813410882E+02  0.16896832135E+03  0.93954378827E+02 0.  0.
         23    2    4    4    0    0 -0.80986906490E+02  0.10441792118E+04  0.10324051848E+03  0.10561821315E+04  0.89403493795E+02 0.  0.
          1    1    3    3  502    0 -0.73921730482E+02 -0.65537710072E+03 -0.29653885479E+03  0.72313128738E+03  0.00000000000E+00 0. -1.
         -1    1    3    3    0  502  0.26495321569E+02 -0.39965346638E+03 -0.15746003947E+03  0.43037025837E+03  0.00000000000E+00 0.  1.
         11    1    5    5    0    0  0.69177636034E+02  0.42442492777E+02 -0.78001048971E+00  0.81163532062E+02  0.00000000000E+00 0. -1.
        -11    1    5    5    0    0  0.59235679368E+02 -0.31591137503E+02  0.56593421372E+02  0.87804789286E+02  0.00000000000E+00 0.  1.
          5    1    6    6  503    0 -0.42763877259E+01  0.48673371666E+03  0.18570160899E+02  0.48712928397E+03  0.47000000000E+01 0. -1.
         -5    1    6    6    0  503 -0.76710518764E+02  0.55744549517E+03  0.84670357584E+02  0.56905284748E+03  0.47000000000E+01 0.  1.
<mgrwt>
<rscale>  0 0.11289251E+04</rscale>
<asrwt>0</asrwt>
<pdfrwt beam="1">  1        2 0.16028516E+00 0.11289251E+04</pdfrwt>
<pdfrwt beam="2">  1       -2 0.20566131E+00 0.11289251E+04</pdfrwt>
<totfact> 0.28324541E+00</totfact>
</mgrwt>
</event>
<event>
12    1  0.3166324E-008  0.3805817E+03  0.7818608E-02  0.1050719E+00
         -2   -1    0    0    0  501 -0.00000000000E+00  0.00000000000E+00  0.23253841537E+03  0.23253841537E+03  0.00000000000E+00 0.  1.
          2   -1    0    0  501    0  0.00000000000E+00 -0.00000000000E+00 -0.11905170906E+04  0.11905170906E+04  0.00000000000E+00 0. -1.
         23    2    1    2    0    0 -0.16608291131E+03  0.29674039275E+03 -0.42486981809E+03  0.55133343308E+03  0.88407001936E+02 0.  0.
    5000000    2    1    2    0    0  0.16608291131E+03 -0.29674039275E+03 -0.53310885711E+03  0.87172207285E+03  0.60004660207E+03 0.  0.
         23    2    4    4    0    0  0.46491777663E+02 -0.26226645206E+03  0.33492026274E+02  0.28448747961E+03  0.94160676325E+02 0.  0.
         23    2    4    4    0    0  0.11959113365E+03 -0.34473940687E+02 -0.56660088338E+03  0.58723459324E+03  0.91199860808E+02 0.  0.
          3    1    3    3  502    0 -0.34598574814E+02  0.88431991341E+02 -0.64412092571E+02  0.11474404621E+03  0.00000000000E+00 0. -1.
         -3    1    3    3    0  502 -0.13148433650E+03  0.20830840141E+03 -0.36045772551E+03  0.43658938687E+03  0.00000000000E+00 0.  1.
         13    1    5    5    0    0  0.61895651399E+01 -0.62087425919E+02  0.49528118594E+02  0.79663000856E+02  0.00000000000E+00 0. -1.
        -13    1    5    5    0    0  0.40302212524E+02 -0.20017902614E+03 -0.16036092321E+02  0.20482447876E+03  0.00000000000E+00 0.  1.
          5    1    6    6  503    0  0.89739197076E+02  0.19007302249E+02 -0.37181757837E+03  0.38299452034E+03  0.47000000000E+01 0. -1.
         -5    1    6    6    0  503  0.29851936576E+02 -0.53481242935E+02 -0.19478330501E+03  0.20424007289E+03  0.47000000000E+01 0.  1.
<mgrwt>
<rscale>  0 0.38058171E+03</rscale>
<asrwt>0</asrwt>
<pdfrwt beam="1">  1        2 0.18315648E+00 0.38058171E+03</pdfrwt>
<pdfrwt beam="2">  1       -2 0.35775141E-01 0.38058171E+03</pdfrwt>
<totfact> 0.14813611E+02</totfact>
</mgrwt>
</event>
<event>
12    1  0.3166324E-008  0.2167741E+03  0.7818608E-02  0.1136311E+00
         -1   -1    0    0    0  501 -0.00000000000E+00  0.00000000000E+00  0.29905329692E+03  0.29905329692E+03  0.00000000000E+00 0.  1.
          1   -1    0    0  501    0  0.00000000000E+00 -0.00000000000E+00 -0.53064299332E+03  0.53064299332E+03  0.00000000000E+00 0. -1.
         23    2    1    2    0    0 -0.12670186687E+03  0.47694723863E+02  0.21793186507E+02  0.16468211517E+03  0.91198170636E+02 0.  0.
    5000000    2    1    2    0    0  0.12670186687E+03 -0.47694723863E+02 -0.25338288291E+03  0.66501417506E+03  0.59976063386E+03 0.  0.
         23    2    4    4    0    0  0.92623264927E+02  0.84323719862E+02 -0.40972189361E+03  0.43824608433E+03  0.92184821942E+02 0.  0.
         23    2    4    4    0    0  0.34078601944E+02 -0.13201844372E+03  0.15633901069E+03  0.22676809073E+03  0.91606004800E+02 0.  0.
          4    1    3    3  502    0 -0.10005726985E+02  0.16588731652E+02 -0.28000659142E+02  0.34049045547E+02  0.00000000000E+00 0. -1.
         -4    1    3    3    0  502 -0.11669613989E+03  0.31105992210E+02  0.49793845649E+02  0.13063306963E+03  0.00000000000E+00 0.  1.
         13    1    5    5    0    0  0.57188155040E+02 -0.69074947294E+01 -0.15712538707E+03  0.16735168306E+03  0.00000000000E+00 0.  1.
        -13    1    5    5    0    0  0.35435109887E+02  0.91231214591E+02 -0.25259650653E+03  0.27089440127E+03  0.00000000000E+00 0. -1.
          5    1    6    6  503    0  0.16604215067E+01 -0.38889421037E+02  0.11177823957E+03  0.11845509238E+03  0.47000000000E+01 0. -1.
         -5    1    6    6    0  503  0.32418180437E+02 -0.93129022687E+02  0.44560771121E+02  0.10831299835E+03  0.47000000000E+01 0.  1.
<mgrwt>
<rscale>  0 0.21677405E+03</rscale>
<asrwt>0</asrwt>
<pdfrwt beam="1">  1        1 0.81637382E-01 0.21677405E+03</pdfrwt>
<pdfrwt beam="2">  1       -1 0.46008200E-01 0.21677405E+03</pdfrwt>
<totfact> 0.20316389E+02</totfact>
</mgrwt>
</event>
<event>
12    1  0.3166324E-008  0.2463599E+03  0.7818608E-02  0.1115627E+00
         -2   -1    0    0    0  501 -0.00000000000E+00  0.00000000000E+00  0.85781923589E+03  0.85781923589E+03  0.00000000000E+00 0.  1.
          2   -1    0    0  501    0  0.00000000000E+00 -0.00000000000E+00 -0.21648645192E+03  0.21648645192E+03  0.00000000000E+00 0. -1.
         23    2    1    2    0    0  0.12066767218E+03  0.13741922214E+03  0.45019118738E+02  0.20883861030E+03  0.90233665418E+02 0.  0.
    5000000    2    1    2    0    0 -0.12066767218E+03 -0.13741922214E+03  0.59631366523E+03  0.86546707752E+03  0.59999878767E+03 0.  0.
         23    2    4    4    0    0  0.18760064826E+02 -0.13519723300E+03 -0.74502364692E+02  0.17429160633E+03  0.78719310538E+02 0.  0.
         23    2    4    4    0    0 -0.13942773701E+03 -0.22219891448E+01  0.67081602993E+03  0.69117547119E+03  0.91018431539E+02 0.  0.
          1    1    3    3  502    0  0.79700308885E+02  0.11111540172E+03 -0.78494778943E+01  0.13696855857E+03  0.00000000000E+00 0. -1.
         -1    1    3    3    0  502  0.40967363299E+02  0.26303820425E+02  0.52868596633E+02  0.71870051722E+02  0.00000000000E+00 0.  1.
         13    1    5    5    0    0 -0.12874552233E+02 -0.12202116533E+03 -0.51798190280E+02  0.13318397576E+03  0.00000000000E+00 0. -1.
        -13    1    5    5    0    0  0.31634617059E+02 -0.13176067670E+02 -0.22704174411E+02  0.41107630574E+02  0.00000000000E+00 0.  1.
          5    1    6    6  503    0 -0.39574142271E+02  0.24588321194E+02  0.37216529478E+03  0.37509971330E+03  0.47000000000E+01 0. -1.
         -5    1    6    6    0  503 -0.99853594739E+02 -0.26810310338E+02  0.29865073514E+03  0.31607575789E+03  0.47000000000E+01 0.  1.
<mgrwt>
<rscale>  0 0.24635995E+03</rscale>
<asrwt>0</asrwt>
<pdfrwt beam="1">  1        2 0.33305608E-01 0.24635995E+03</pdfrwt>
<pdfrwt beam="2">  1       -2 0.13197219E+00 0.24635995E+03</pdfrwt>
<totfact> 0.69321465E+01</totfact>
</mgrwt>
</event>
<event>
12    1  0.3166324E-008  0.6932290E+03  0.7818608E-02  0.9728882E-01
         -2   -1    0    0    0  501 -0.00000000000E+00  0.00000000000E+00  0.23890660116E+03  0.23890660116E+03  0.00000000000E+00 0.  1.
          2   -1    0    0  501    0  0.00000000000E+00 -0.00000000000E+00 -0.23490090332E+04  0.23490090332E+04  0.00000000000E+00 0. -1.
         23    2    1    2    0    0 -0.21427552013E+03  0.52931613069E+03 -0.46154341893E+03  0.74297903121E+03  0.11360435081E+03 0.  0.
    5000000    2    1    2    0    0  0.21427552013E+03 -0.52931613069E+03 -0.16485590131E+04  0.18449366031E+04  0.59996223646E+03 0.  0.
         23    2    4    4    0    0  0.21685429353E+03 -0.63528012057E+03 -0.12480028587E+04  0.14199523248E+04  0.90259920380E+02 0.  0.
         23    2    4    4    0    0 -0.25787734034E+01  0.10596398988E+03 -0.40055615441E+03  0.42498427833E+03  0.94506014431E+02 0.  0.
          3    1    3    3  502    0 -0.67787046170E+02  0.64037039159E+02 -0.57273394490E+02  0.10943522161E+03  0.00000000000E+00 0. -1.
         -3    1    3    3    0  502 -0.14648847396E+03  0.46527909153E+03 -0.40427002444E+03  0.63354380960E+03  0.00000000000E+00 0.  1.
         11    1    5    5    0    0  0.20371566449E+03 -0.60067927154E+03 -0.11248382981E+04  0.12913469155E+04  0.00000000000E+00 0. -1.
        -11    1    5    5    0    0  0.13138629037E+02 -0.34600849030E+02 -0.12316456062E+03  0.12860540937E+03  0.00000000000E+00 0.  1.
          5    1    6    6  503    0  0.33531700545E+02  0.86359968854E+02 -0.20363386928E+03  0.22376608742E+03  0.47000000000E+01 0. -1.
         -5    1    6    6    0  503 -0.36110473949E+02  0.19604021022E+02 -0.19692228513E+03  0.20121819090E+03  0.47000000000E+01 0.  1.
<mgrwt>
<rscale>  0 0.69322903E+03</rscale>
<asrwt>0</asrwt>
<pdfrwt beam="1">  1        2 0.36138599E+00 0.69322903E+03</pdfrwt>
<pdfrwt beam="2">  1       -2 0.36754863E-01 0.69322903E+03</pdfrwt>
<totfact> 0.31080061E+01</totfact>
</mgrwt>
</event>
<event>
12    1  0.3166324E-008  0.5661843E+03  0.7818608E-02  0.9978158E-01
         -2   -1    0    0    0  501 -0.00000000000E+00  0.00000000000E+00  0.89197830427E+02  0.89197830427E+02  0.00000000000E+00 0.  1.
          2   -1    0    0  501    0  0.00000000000E+00 -0.00000000000E+00 -0.44868693306E+04  0.44868693306E+04  0.00000000000E+00 0. -1.
         23    2    1    2    0    0 -0.15016548764E+03 -0.44828760525E+03 -0.21061699828E+04  0.21605953403E+04  0.93320829782E+02 0.  0.
    5000000    2    1    2    0    0  0.15016548764E+03  0.44828760525E+03 -0.22915015174E+04  0.24154718207E+04  0.60001121825E+03 0.  0.
         23    2    4    4    0    0 -0.34645733477E+02  0.44926407916E+03 -0.20379994649E+04  0.20891396477E+04  0.89577392267E+02 0.  0.
         23    2    4    4    0    0  0.18481122112E+03 -0.97647390862E+00 -0.25350205251E+03  0.32633217303E+03  0.89851297030E+02 0.  0.
          4    1    3    3  502    0 -0.14689585347E+03 -0.37262412323E+03 -0.18761632290E+04  0.19184409271E+04  0.00000000000E+00 0.  1.
         -4    1    3    3    0  502 -0.32696341780E+01 -0.75663482025E+02 -0.23000675380E+03  0.24215441316E+03  0.00000000000E+00 0. -1.
         13    1    5    5    0    0 -0.41702086955E+02  0.16261678475E+03 -0.61261495547E+03  0.63520104408E+03  0.00000000000E+00 0.  1.
        -13    1    5    5    0    0  0.70563534777E+01  0.28664729441E+03 -0.14253845094E+04  0.14539386036E+04  0.00000000000E+00 0. -1.
          5    1    6    6  503    0  0.11053526727E+03 -0.39762283095E+02 -0.11545180514E+03  0.16477346199E+03  0.47000000000E+01 0. -1.
         -5    1    6    6    0  503  0.74275953852E+02  0.38785809187E+02 -0.13805024737E+03  0.16155871104E+03  0.47000000000E+01 0.  1.
<mgrwt>
<rscale>  0 0.56618435E+03</rscale>
<asrwt>0</asrwt>
<pdfrwt beam="1">  1        2 0.69028745E+00 0.56618435E+03</pdfrwt>
<pdfrwt beam="2">  1       -2 0.13722746E-01 0.56618435E+03</pdfrwt>
<totfact> 0.61198011E+00</totfact>
</mgrwt>
</event>
<event>
12    1  0.3166324E-008  0.8753477E+03  0.7818608E-02  0.9456934E-01
          2   -1    0    0  501    0  0.00000000000E+00  0.00000000000E+00  0.32255719655E+04  0.32255719655E+04  0.00000000000E+00 0. -1.
         -2   -1    0    0    0  501 -0.00000000000E+00 -0.00000000000E+00 -0.26070310653E+03  0.26070310653E+03  0.00000000000E+00 0.  1.
         23    2    1    2    0    0  0.45923533447E+03  0.65371634105E+03  0.16440028569E+04  0.18300744074E+04  0.90469863826E+02 0.  0.
    5000000    2    1    2    0    0 -0.45923533447E+03 -0.65371634105E+03  0.13208660021E+04  0.16562006646E+04  0.60005957956E+03 0.  0.
         23    2    4    4    0    0 -0.50107512298E+03 -0.29917402608E+03  0.57265253609E+03  0.82282349525E+03  0.92337427369E+02 0.  0.
         23    2    4    4    0    0  0.41839788504E+02 -0.35454231498E+03  0.74821346600E+03  0.83337716937E+03  0.85107547958E+02 0.  0.
          3    1    3    3  502    0  0.12645461134E+03  0.20692578608E+03  0.59006924235E+03  0.63795827484E+03  0.00000000000E+00 0. -1.
         -3    1    3    3    0  502  0.33278072313E+03  0.44679055498E+03  0.10539336145E+04  0.11921161326E+04  0.00000000000E+00 0.  1.
         11    1    5    5    0    0 -0.21596283448E+03 -0.76618616052E+02  0.22460078527E+03  0.32086737283E+03  0.00000000000E+00 0.  1.
        -11    1    5    5    0    0 -0.28511228850E+03 -0.22255541003E+03  0.34805175082E+03  0.50195612242E+03  0.00000000000E+00 0. -1.
          5    1    6    6  503    0  0.24051166751E+01 -0.21747906050E+03  0.37103915851E+03  0.43011053636E+03  0.47000000000E+01 0. -1.
         -5    1    6    6    0  503  0.39434671829E+02 -0.13706325448E+03  0.37717430749E+03  0.40326663302E+03  0.47000000000E+01 0.  1.
<mgrwt>
<rscale>  0 0.87534771E+03</rscale>
<asrwt>0</asrwt>
<pdfrwt beam="1">  1        2 0.49624181E+00 0.87534771E+03</pdfrwt>
<pdfrwt beam="2">  1       -2 0.40108173E-01 0.87534771E+03</pdfrwt>
<totfact> 0.76952565E+00</totfact>
</mgrwt>
</event>
<event>
12    1  0.3166324E-008  0.1005970E+04  0.7818608E-02  0.9302021E-01
         -2   -1    0    0    0  501 -0.00000000000E+00  0.00000000000E+00  0.23056402555E+03  0.23056402555E+03  0.00000000000E+00 0.  1.
          2   -1    0    0  501    0  0.00000000000E+00 -0.00000000000E+00 -0.44491041086E+04  0.44491041086E+04  0.00000000000E+00 0. -1.
         23    2    1    2    0    0 -0.87730403773E+03  0.27882021763E+03 -0.20068410776E+04  0.22100326263E+04  0.97108239030E+02 0.  0.
    5000000    2    1    2    0    0  0.87730403773E+03 -0.27882021763E+03 -0.22116990055E+04  0.24696355079E+04  0.60006996484E+03 0.  0.
         23    2    4    4    0    0  0.43528123792E+03 -0.43185078379E+03 -0.11689192949E+04  0.13231279108E+04  0.91270448207E+02 0.  0.
         23    2    4    4    0    0  0.44202279981E+03  0.15303056616E+03 -0.10427797105E+04  0.11465075971E+04  0.91036453008E+02 0.  0.
          2    1    3    3  502    0 -0.48558816425E+03  0.16671388935E+03 -0.10060348105E+04  0.11294668769E+04  0.00000000000E+00 0. -1.
         -2    1    3    3    0  502 -0.39171587347E+03  0.11210632828E+03 -0.10008062671E+04  0.10805657493E+04  0.00000000000E+00 0.  1.
         13    1    5    5    0    0  0.81629979000E+02 -0.57805269553E+02 -0.25980254890E+03  0.27839228990E+03  0.00000000000E+00 0. -1.
        -13    1    5    5    0    0  0.35365125892E+03 -0.37404551424E+03 -0.90911674604E+03  0.10447356209E+04  0.00000000000E+00 0.  1.
          5    1    6    6  503    0  0.18719161657E+03  0.18662825601E+02 -0.42976443400E+03  0.46915728824E+03  0.47000000000E+01 0. -1.
         -5    1    6    6    0  503  0.25483118324E+03  0.13436774056E+03 -0.61301527652E+03  0.67735030885E+03  0.47000000000E+01 0.  1.
<mgrwt>
<rscale>  0 0.10059702E+04</rscale>
<asrwt>0</asrwt>
<pdfrwt beam="1">  1        2 0.68447749E+00 0.10059702E+04</pdfrwt>
<pdfrwt beam="2">  1       -2 0.35471392E-01 0.10059702E+04</pdfrwt>
<totfact> 0.11039548E+00</totfact>
</mgrwt>
</event>
<event>
12    1  0.3798658E-008  0.9630654E+03  0.7818608E-02  0.9350008E-01
          2   -1    0    0  501    0  0.00000000000E+00  0.00000000000E+00  0.13079593420E+04  0.13079593420E+04  0.00000000000E+00 0.  1.
         -2   -1    0    0    0  501 -0.00000000000E+00 -0.00000000000E+00 -0.80837117981E+03  0.80837117981E+03  0.00000000000E+00 0. -1.
         23    2    1    2    0    0 -0.69553155218E+03 -0.62921234126E+03  0.19905243504E+03  0.96303921366E+03  0.90279259433E+02 0.  0.
    5000000    2    1    2    0    0  0.69553155218E+03  0.62921234126E+03  0.30053572715E+03  0.11532913082E+04  0.60007233539E+03 0.  0.
         23    2    4    4    0    0  0.12525602186E+03  0.28221927386E+03 -0.13726372349E+03  0.34927191094E+03  0.88389753008E+02 0.  0.
         23    2    4    4    0    0  0.57027553031E+03  0.34699306740E+03  0.43779945064E+03  0.80401939721E+03  0.95710306719E+02 0.  0.
          3    1    3    3  502    0 -0.31762925376E+03 -0.34805112971E+03  0.96183074144E+02  0.48091487343E+03  0.00000000000E+00 0. -1.
         -3    1    3    3    0  502 -0.37790229842E+03 -0.28116121155E+03  0.10286936089E+03  0.48212434023E+03  0.00000000000E+00 0.  1.
         11    1    5    5    0    0  0.58686579468E+02  0.64841537975E+02 -0.81766752610E+01  0.87837336452E+02  0.00000000000E+00 0. -1.
        -11    1    5    5    0    0  0.66569442395E+02  0.21737773588E+03 -0.12908704823E+03  0.26143457449E+03  0.00000000000E+00 0.  1.
          5    1    6    6  503    0  0.22972403223E+03  0.16565650289E+03  0.13632639755E+03  0.31435996024E+03  0.47000000000E+01 0. -1.
         -5    1    6    6    0  503  0.34055149808E+03  0.18133656452E+03  0.30147305309E+03  0.48965943697E+03  0.47000000000E+01 0.  1.
<mgrwt>
<rscale>  0 0.96306543E+03</rscale>
<asrwt>0</asrwt>
<pdfrwt beam="1">  1        2 0.20122451E+00 0.96306543E+03</pdfrwt>
<pdfrwt beam="2">  1       -2 0.12436480E+00 0.96306543E+03</pdfrwt>
<totfact> 0.79152200E+00</totfact>
</mgrwt>
</event>
<event>
12    1  0.3166324E-008  0.9486962E+03  0.7818608E-02  0.9366676E-01
          1   -1    0    0  501    0  0.00000000000E+00  0.00000000000E+00  0.11401344764E+04  0.11401344764E+04  0.00000000000E+00 0. -1.
         -1   -1    0    0    0  501 -0.00000000000E+00 -0.00000000000E+00 -0.84880886665E+03  0.84880886665E+03  0.00000000000E+00 0.  1.
         23    2    1    2    0    0 -0.67434321813E+03  0.57666772402E+03  0.18140350092E+03  0.91218871080E+03  0.10907141784E+03 0.  0.
    5000000    2    1    2    0    0  0.67434321813E+03 -0.57666772402E+03  0.10992210882E+03  0.10767546322E+04  0.60002768960E+03 0.  0.
         23    2    4    4    0    0  0.62597188590E+03 -0.25434034068E+03 -0.83007179618E+02  0.68680186363E+03  0.90976904717E+02 0.  0.
         23    2    4    4    0    0  0.48371332233E+02 -0.32232738334E+03  0.19292928844E+03  0.38995276861E+03  0.92772428972E+02 0.  0.
          1    1    3    3  502    0 -0.67591278624E+03  0.56150704802E+03  0.17880462234E+03  0.89672702232E+03  0.00000000000E+00 0. -1.
         -1    1    3    3    0  502  0.15695681092E+01  0.15160675996E+02  0.25988785803E+01  0.15461688477E+02  0.00000000000E+00 0.  1.
         13    1    5    5    0    0  0.28669552978E+03 -0.13583304594E+03  0.30641272556E+01  0.31726066892E+03  0.00000000000E+00 0.  1.
        -13    1    5    5    0    0  0.33927635612E+03 -0.11850729474E+03 -0.86071306873E+02  0.36954119472E+03  0.00000000000E+00 0. -1.
          5    1    6    6  503    0  0.13096175788E+02 -0.16106945448E+03  0.43930701994E+02  0.16753171510E+03  0.47000000000E+01 0. -1.
         -5    1    6    6    0  503  0.35275156445E+02 -0.16125792886E+03  0.14899858645E+03  0.22242105351E+03  0.47000000000E+01 0.  1.
<mgrwt>
<rscale>  0 0.94869618E+03</rscale>
<asrwt>0</asrwt>
<pdfrwt beam="1">  1        1 0.17540530E+00 0.94869618E+03</pdfrwt>
<pdfrwt beam="2">  1       -1 0.13058598E+00 0.94869618E+03</pdfrwt>
<totfact> 0.59853705E+00</totfact>
</mgrwt>
</event>
<event>
12    1  0.3166324E-008  0.6849596E+03  0.7818608E-02  0.9743305E-01
          1   -1    0    0  501    0  0.00000000000E+00  0.00000000000E+00  0.16489333615E+04  0.16489333615E+04  0.00000000000E+00 0. -1.
         -1   -1    0    0    0  501 -0.00000000000E+00 -0.00000000000E+00 -0.37761899333E+03  0.37761899333E+03  0.00000000000E+00 0.  1.
         23    2    1    2    0    0  0.54183693801E+03  0.24927316252E+03  0.14947785759E+03  0.62147734717E+03  0.90366399634E+02 0.  0.
    5000000    2    1    2    0    0 -0.54183693801E+03 -0.24927316252E+03  0.11218365106E+04  0.14050750076E+04  0.59999520307E+03 0.  0.
         23    2    4    4    0    0 -0.46447040514E+03 -0.38846537557E+03  0.63019004860E+03  0.87850846136E+03  0.89440002583E+02 0.  0.
         23    2    4    4    0    0 -0.77366532878E+02  0.13919221305E+03  0.49164646197E+03  0.52656654628E+03  0.10097540052E+03 0.  0.
          2    1    3    3  502    0  0.46436705866E+03  0.22377089389E+03  0.97069070680E+02  0.52453082140E+03  0.00000000000E+00 0. -1.
         -2    1    3    3    0  502  0.77469879356E+02  0.25502268635E+02  0.52408786906E+02  0.96946525765E+02  0.00000000000E+00 0.  1.
         11    1    5    5    0    0 -0.11767737258E+03 -0.79130255703E+02  0.10019375446E+03  0.17363280168E+03  0.00000000000E+00 0.  1.
        -11    1    5    5    0    0 -0.34679303256E+03 -0.30933511987E+03  0.52999629414E+03  0.70487565968E+03  0.00000000000E+00 0. -1.
          5    1    6    6  503    0  0.60067946676E+01  0.11420235844E+02  0.16984582737E+03  0.17040011280E+03  0.47000000000E+01 0. -1.
         -5    1    6    6    0  503 -0.83373327545E+02  0.12777197721E+03  0.32180063460E+03  0.35616643347E+03  0.47000000000E+01 0.  1.
<mgrwt>
<rscale>  0 0.68495962E+03</rscale>
<asrwt>0</asrwt>
<pdfrwt beam="1">  1        1 0.25368205E+00 0.68495962E+03</pdfrwt>
<pdfrwt beam="2">  1       -1 0.58095231E-01 0.68495962E+03</pdfrwt>
<totfact> 0.16245718E+01</totfact>
</mgrwt>
</event>
<event>
12    1  0.3166324E-008  0.1036529E+04  0.7818608E-02  0.9269364E-01
         -1   -1    0    0    0  501 -0.00000000000E+00  0.00000000000E+00  0.10817472575E+04  0.10817472575E+04  0.00000000000E+00 0.  1.
          1   -1    0    0  501    0  0.00000000000E+00 -0.00000000000E+00 -0.14500255972E+04  0.14500255972E+04  0.00000000000E+00 0. -1.
         23    2    1    2    0    0  0.96264112591E+03  0.11519838885E+02 -0.86118566285E+03  0.12949091859E+04  0.91314894283E+02 0.  0.
    5000000    2    1    2    0    0 -0.96264112591E+03 -0.11519838885E+02  0.49290732312E+03  0.12368636687E+04  0.60005288255E+03 0.  0.
         23    2    4    4    0    0  0.16307210901E+02 -0.95303177788E+02  0.13252483519E+03  0.18692895869E+03  0.89615751021E+02 0.  0.
         23    2    4    4    0    0 -0.97894833681E+03  0.83783338903E+02  0.36038248793E+03  0.10499347100E+04  0.84426676560E+02 0.  0.
          4    1    3    3  502    0  0.80729793860E+03  0.39087153858E+02 -0.74189428820E+03  0.10971166310E+04  0.00000000000E+00 0. -1.
         -4    1    3    3    0  502  0.15534318731E+03 -0.27567314973E+02 -0.11929137465E+03  0.19779255488E+03  0.00000000000E+00 0.  1.
         11    1    5    5    0    0  0.42737623465E+02 -0.25416153225E+02  0.24110847065E+02  0.55261363088E+02  0.00000000000E+00 0. -1.
        -11    1    5    5    0    0 -0.26430412563E+02 -0.69887024563E+02  0.10841398813E+03  0.13166759560E+03  0.00000000000E+00 0.  1.
          5    1    6    6  503    0 -0.43564771186E+03  0.33493393097E+02  0.11619727308E+03  0.45214448189E+03  0.47000000000E+01 0. -1.
         -5    1    6    6    0  503 -0.54330062495E+03  0.50289945806E+02  0.24418521485E+03  0.59779022815E+03  0.47000000000E+01 0.  1.
<mgrwt>
<rscale>  0 0.10365290E+04</rscale>
<asrwt>0</asrwt>
<pdfrwt beam="1">  1        1 0.22308086E+00 0.10365290E+04</pdfrwt>
<pdfrwt beam="2">  1       -1 0.16642265E+00 0.10365290E+04</pdfrwt>
<totfact> 0.18541809E+00</totfact>
</mgrwt>
</event>
<event>
12    1  0.3166324E-008  0.9160139E+03  0.7818608E-02  0.9405782E-01
         -2   -1    0    0    0  501 -0.00000000000E+00  0.00000000000E+00  0.55472112345E+03  0.55472112345E+03  0.00000000000E+00 0.  1.
          2   -1    0    0  501    0  0.00000000000E+00 -0.00000000000E+00 -0.15575674156E+04  0.15575674156E+04  0.00000000000E+00 0. -1.
         23    2    1    2    0    0  0.79963463981E+03  0.19254991510E+03 -0.57751355255E+03  0.10089119195E+04  0.88827535104E+02 0.  0.
    5000000    2    1    2    0    0 -0.79963463981E+03 -0.19254991510E+03 -0.42533273958E+03  0.11033766195E+04  0.60003416413E+03 0.  0.
         23    2    4    4    0    0 -0.79720864168E+03 -0.99882078493E+01 -0.27036221781E+03  0.84683943057E+03  0.91651021142E+02 0.  0.
         23    2    4    4    0    0 -0.24259981272E+01 -0.18256170725E+03 -0.15497052177E+03  0.25653718894E+03  0.91982630249E+02 0.  0.
          3    1    3    3  502    0  0.61268024716E+03  0.18466701428E+03 -0.45707860434E+03  0.78638402958E+03  0.00000000000E+00 0. -1.
         -3    1    3    3    0  502  0.18695439264E+03  0.78829008236E+01 -0.12043494821E+03  0.22252788995E+03  0.00000000000E+00 0.  1.
         11    1    5    5    0    0 -0.19992431655E+03 -0.41098333992E+02 -0.79306430227E+02  0.21897103754E+03  0.00000000000E+00 0. -1.
        -11    1    5    5    0    0 -0.59728432513E+03  0.31110126143E+02 -0.19105578758E+03  0.62786839303E+03  0.00000000000E+00 0.  1.
          5    1    6    6  503    0 -0.21460110033E+02 -0.18186252346E+03 -0.14869964308E+03  0.23594106810E+03  0.47000000000E+01 0. -1.
         -5    1    6    6    0  503  0.19034111906E+02 -0.69918378882E+00 -0.62708786916E+01  0.20596120839E+02  0.47000000000E+01 0.  1.
<mgrwt>
<rscale>  0 0.91601385E+03</rscale>
<asrwt>0</asrwt>
<pdfrwt beam="1">  1        2 0.23962576E+00 0.91601385E+03</pdfrwt>
<pdfrwt beam="2">  1       -2 0.85341711E-01 0.91601385E+03</pdfrwt>
<totfact> 0.14143610E+01</totfact>
</mgrwt>
</event>
<event>
12    1  0.3166324E-008  0.5539480E+03  0.7818608E-02  0.1000584E+00
          2   -1    0    0  501    0  0.00000000000E+00  0.00000000000E+00  0.29236109791E+04  0.29236109791E+04  0.00000000000E+00 0. -1.
         -2   -1    0    0    0  501 -0.00000000000E+00 -0.00000000000E+00 -0.26800992965E+03  0.26800992965E+03  0.00000000000E+00 0.  1.
         23    2    1    2    0    0 -0.45146552049E+03  0.10904578769E+03  0.23114564758E+04  0.23593208512E+04  0.88610042883E+02 0.  0.
    5000000    2    1    2    0    0  0.45146552049E+03 -0.10904578769E+03  0.34414457367E+03  0.83230005750E+03  0.59881198897E+03 0.  0.
         23    2    4    4    0    0  0.51472793189E+03 -0.14120459925E+03  0.85177256522E+02  0.54860199484E+03  0.93943605423E+02 0.  0.
         23    2    4    4    0    0 -0.63262411397E+02  0.32158811556E+02  0.25896731714E+03  0.28369806266E+03  0.91565263901E+02 0.  0.
          1    1    3    3  502    0 -0.16835661421E+03  0.32145255466E+02  0.65313349167E+03  0.67524856529E+03  0.00000000000E+00 0. -1.
         -1    1    3    3    0  502 -0.28310890628E+03  0.76900532226E+02  0.16583229841E+04  0.16840722859E+04  0.00000000000E+00 0.  1.
         11    1    5    5    0    0  0.34141696042E+03 -0.12599764220E+03  0.26063143765E+02  0.36485645693E+03  0.00000000000E+00 0. -1.
        -11    1    5    5    0    0  0.17331097147E+03 -0.15206957045E+02  0.59114112757E+02  0.18374553791E+03  0.00000000000E+00 0.  1.
          5    1    6    6  503    0 -0.24182969789E+02 -0.25474366785E+02  0.37950888117E+02  0.51924168744E+02  0.47000000000E+01 0. -1.
         -5    1    6    6    0  503 -0.39079441607E+02  0.57633178341E+02  0.22101642903E+03  0.23177389392E+03  0.47000000000E+01 0.  1.
<mgrwt>
<rscale>  0 0.55394804E+03</rscale>
<asrwt>0</asrwt>
<pdfrwt beam="1">  1        2 0.44978628E+00 0.55394804E+03</pdfrwt>
<pdfrwt beam="2">  1       -2 0.41232299E-01 0.55394804E+03</pdfrwt>
<totfact> 0.11945978E+01</totfact>
</mgrwt>
</event>
<event>
12    1  0.3166324E-008  0.8240411E+03  0.7818608E-02  0.9525856E-01
          1   -1    0    0  501    0  0.00000000000E+00  0.00000000000E+00  0.18675138398E+04  0.18675138398E+04  0.00000000000E+00 0. -1.
         -1   -1    0    0    0  501 -0.00000000000E+00 -0.00000000000E+00 -0.57719828160E+03  0.57719828160E+03  0.00000000000E+00 0.  1.
         23    2    1    2    0    0  0.40637402279E+03  0.61585088662E+03  0.12954938446E+04  0.14936269846E+04  0.90582044739E+02 0.  0.
    5000000    2    1    2    0    0 -0.40637402279E+03 -0.61585088662E+03 -0.51782863708E+01  0.95108513682E+03  0.60010329267E+03 0.  0.
         23    2    4    4    0    0 -0.35044588475E+03 -0.79436689733E+02  0.12110634528E+03  0.38950442390E+03  0.89019343746E+02 0.  0.
         23    2    4    4    0    0 -0.55928138048E+02 -0.53641419689E+03 -0.12628463165E+03  0.56158071292E+03  0.92503738741E+02 0.  0.
          4    1    3    3  502    0  0.75195264828E+02  0.15423460864E+03  0.24126758115E+03  0.29606196660E+03  0.00000000000E+00 0. -1.
         -4    1    3    3    0  502  0.33117875797E+03  0.46161627798E+03  0.10542262635E+04  0.11975650180E+04  0.00000000000E+00 0.  1.
         11    1    5    5    0    0 -0.29810557454E+03 -0.34847050684E+02  0.85514338970E+02  0.31208004211E+03  0.00000000000E+00 0.  1.
        -11    1    5    5    0    0 -0.52340310208E+02 -0.44589639049E+02  0.35592006309E+02  0.77424381795E+02  0.00000000000E+00 0. -1.
          5    1    6    6  503    0 -0.17001451237E+02 -0.20149719492E+03 -0.22274346591E+01  0.20228005431E+03  0.47000000000E+01 0. -1.
         -5    1    6    6    0  503 -0.38926686810E+02 -0.33491700197E+03 -0.12405719699E+03  0.35930065861E+03  0.47000000000E+01 0.  1.
<mgrwt>
<rscale>  0 0.82404115E+03</rscale>
<asrwt>0</asrwt>
<pdfrwt beam="1">  1        1 0.28730982E+00 0.82404115E+03</pdfrwt>
<pdfrwt beam="2">  1       -1 0.88799737E-01 0.82404115E+03</pdfrwt>
<totfact> 0.47210742E+00</totfact>
</mgrwt>
</event>
<event>
12    1  0.3166324E-008  0.1705564E+04  0.7818608E-02  0.8758197E-01
         -2   -1    0    0    0  501 -0.00000000000E+00  0.00000000000E+00  0.16708665414E+04  0.16708665414E+04  0.00000000000E+00 0. -1.
          2   -1    0    0  501    0  0.00000000000E+00 -0.00000000000E+00 -0.17969099786E+04  0.17969099786E+04  0.00000000000E+00 0.  1.
         23    2    1    2    0    0  0.14800180423E+03  0.16641250658E+04 -0.23332221687E+03  0.16893522020E+04  0.90856132131E+02 0.  0.
    5000000    2    1    2    0    0 -0.14800180423E+03 -0.16641250658E+04  0.10727877968E+03  0.17784243181E+04  0.60005628882E+03 0.  0.
         23    2    4    4    0    0 -0.29371707253E+03 -0.69904402110E+03 -0.11739394186E+03  0.77268449893E+03  0.91256425422E+02 0.  0.
         23    2    4    4    0    0  0.14571526830E+03 -0.96508104474E+03  0.22467272153E+03  0.10057398191E+04  0.91762681284E+02 0.  0.
          4    1    3    3  502    0  0.56239834573E+02  0.11125290750E+04 -0.16056611227E+03  0.11254622775E+04  0.00000000000E+00 0. -1.
         -4    1    3    3    0  502  0.91761969658E+02  0.55159599085E+03 -0.72756104602E+02  0.56388992450E+03  0.00000000000E+00 0.  1.
         13    1    5    5    0    0 -0.23516395799E+03 -0.47803085784E+03 -0.54317166707E+02  0.53550531537E+03  0.00000000000E+00 0.  1.
        -13    1    5    5    0    0 -0.58553114540E+02 -0.22101316326E+03 -0.63076775150E+02  0.23717918357E+03  0.00000000000E+00 0. -1.
          5    1    6    6  503    0  0.17496960507E+01 -0.52864576352E+02 -0.71183985527E+01  0.53576921031E+02  0.47000000000E+01 0. -1.
         -5    1    6    6    0  503  0.14396557225E+03 -0.91221646839E+03  0.23179112009E+03  0.95216289811E+03  0.47000000000E+01 0.  1.
<mgrwt>
<rscale>  0 0.17055642E+04</rscale>
<asrwt>0</asrwt>
<pdfrwt beam="1">  1        2 0.27644769E+00 0.17055642E+04</pdfrwt>
<pdfrwt beam="2">  1       -2 0.25705639E+00 0.17055642E+04</pdfrwt>
<totfact> 0.46321650E-01</totfact>
</mgrwt>
</event>
<event>
12    1  0.3166324E-008  0.6334975E+03  0.7818608E-02  0.9838247E-01
          1   -1    0    0  501    0  0.00000000000E+00  0.00000000000E+00  0.13906586160E+04  0.13906586160E+04  0.00000000000E+00 0. -1.
         -1   -1    0    0    0  501 -0.00000000000E+00 -0.00000000000E+00 -0.78668030610E+03  0.78668030610E+03  0.00000000000E+00 0.  1.
         23    2    1    2    0    0 -0.37112074908E+03  0.38066302258E+03 -0.55140021984E+03  0.77105620304E+03  0.88603152610E+02 0.  0.
    5000000    2    1    2    0    0  0.37112074908E+03 -0.38066302258E+03  0.11553785298E+04  0.14062827191E+04  0.60008048779E+03 0.  0.
         23    2    4    4    0    0  0.99817136934E+01  0.10551574891E+03  0.45395944485E+03  0.47471535353E+03  0.89678767991E+02 0.  0.
         23    2    4    4    0    0  0.36113903538E+03 -0.48617877149E+03  0.70141908492E+03  0.93156736557E+03  0.95067466476E+02 0.  0.
          3    1    3    3  502    0 -0.25015282797E+03  0.22307845139E+03 -0.39622000306E+03  0.51897083120E+03  0.00000000000E+00 0. -1.
         -3    1    3    3    0  502 -0.12096792111E+03  0.15758457119E+03 -0.15518021678E+03  0.25208537184E+03  0.00000000000E+00 0.  1.
         13    1    5    5    0    0  0.10343007080E+02 -0.37584862737E+01  0.17153674358E+03  0.17188937842E+03  0.00000000000E+00 0. -1.
        -13    1    5    5    0    0 -0.36129338632E+00  0.10927423518E+03  0.28242270127E+03  0.30282597511E+03  0.00000000000E+00 0.  1.
          5    1    6    6  503    0  0.14237931297E+03 -0.27008883429E+03  0.36032823979E+03  0.47231173769E+03  0.47000000000E+01 0. -1.
         -5    1    6    6    0  503  0.21875972241E+03 -0.21608993720E+03  0.34109084513E+03  0.45925562788E+03  0.47000000000E+01 0.  1.
<mgrwt>
<rscale>  0 0.63349747E+03</rscale>
<asrwt>0</asrwt>
<pdfrwt beam="1">  1        1 0.21394748E+00 0.63349747E+03</pdfrwt>
<pdfrwt beam="2">  1       -1 0.12102774E+00 0.63349747E+03</pdfrwt>
<totfact> 0.50246507E+00</totfact>
</mgrwt>
</event>
<event>
12    1  0.3166324E-008  0.6956240E+03  0.7818608E-02  0.9724745E-01
          2   -1    0    0  501    0  0.00000000000E+00  0.00000000000E+00  0.22474887447E+04  0.22474887447E+04  0.00000000000E+00 0. -1.
         -2   -1    0    0    0  501 -0.00000000000E+00 -0.00000000000E+00 -0.29656085732E+03  0.29656085732E+03  0.00000000000E+00 0.  1.
         23    2    1    2    0    0 -0.62416019136E+03 -0.81723168735E+01  0.34497569315E+03  0.71960354637E+03  0.95803464627E+02 0.  0.
    5000000    2    1    2    0    0  0.62416019136E+03  0.81723168735E+01  0.16059521942E+04  0.18244460557E+04  0.59989851525E+03 0.  0.
         23    2    4    4    0    0  0.91708994328E+02 -0.17101937424E+03  0.86091931426E+03  0.88734281790E+03  0.92396129867E+02 0.  0.
         23    2    4    4    0    0  0.53245119703E+03  0.17919169111E+03  0.74503287999E+03  0.93710323777E+03  0.86455460102E+02 0.  0.
          3    1    3    3  502    0 -0.15733160200E+03  0.12094065424E+02  0.44084510255E+02  0.16383816238E+03  0.00000000000E+00 0. -1.
         -3    1    3    3    0  502 -0.46682858936E+03 -0.20266382298E+02  0.30089118290E+03  0.55576538399E+03  0.00000000000E+00 0.  1.
         13    1    5    5    0    0  0.94006987405E+02 -0.12871239485E+03  0.77874461716E+03  0.79488827708E+03  0.00000000000E+00 0.  1.
        -13    1    5    5    0    0 -0.22979930774E+01 -0.42306979387E+02  0.82174697095E+02  0.92454540828E+02  0.00000000000E+00 0. -1.
          5    1    6    6  503    0  0.32281147222E+03  0.80822937214E+02  0.38389493092E+03  0.50807184705E+03  0.47000000000E+01 0. -1.
         -5    1    6    6    0  503  0.20963972481E+03  0.98368753900E+02  0.36113794907E+03  0.42903139072E+03  0.47000000000E+01 0.  1.
<mgrwt>
<rscale>  0 0.69562400E+03</rscale>
<asrwt>0</asrwt>
<pdfrwt beam="1">  1        2 0.34576749E+00 0.69562400E+03</pdfrwt>
<pdfrwt beam="2">  1       -2 0.45624749E-01 0.69562400E+03</pdfrwt>
<totfact> 0.23166361E+01</totfact>
</mgrwt>
</event>
<event>
12    1  0.3166324E-008  0.6458355E+03  0.7818608E-02  0.9814625E-01
          1   -1    0    0  501    0  0.00000000000E+00  0.00000000000E+00  0.47602404036E+03  0.47602404036E+03  0.00000000000E+00 0. -1.
         -1   -1    0    0    0  501 -0.00000000000E+00 -0.00000000000E+00 -0.10709316923E+04  0.10709316923E+04  0.00000000000E+00 0.  1.
         23    2    1    2    0    0 -0.58308837264E+03 -0.18094252616E+02 -0.22220455532E+03  0.63082550640E+03  0.90810257255E+02 0.  0.
    5000000    2    1    2    0    0  0.58308837264E+03  0.18094252616E+02 -0.37270309662E+03  0.91613022626E+03  0.60005628148E+03 0.  0.
         23    2    4    4    0    0  0.62299186450E+03  0.58760671343E+02 -0.45626578836E+03  0.77963782996E+03  0.89916608882E+02 0.  0.
         23    2    4    4    0    0 -0.39903491852E+02 -0.40666418727E+02  0.83562691735E+02  0.13649239630E+03  0.91659175886E+02 0.  0.
          4    1    3    3  502    0 -0.79245691531E+02  0.27182488851E+02 -0.42837132265E+02  0.94094565343E+02  0.00000000000E+00 0.  1.
         -4    1    3    3    0  502 -0.50384268111E+03 -0.45276741467E+02 -0.17936742306E+03  0.53673094105E+03  0.00000000000E+00 0. -1.
         13    1    5    5    0    0  0.32146419906E+02  0.15326996239E+02 -0.74407489188E+01  0.36382329103E+02  0.00000000000E+00 0.  1.
        -13    1    5    5    0    0  0.59084544459E+03  0.43433675104E+02 -0.44882503944E+03  0.74325550086E+03  0.00000000000E+00 0. -1.
          5    1    6    6  503    0 -0.50177738875E+02 -0.34718349427E+02  0.10219312781E+02  0.62045899294E+02  0.47000000000E+01 0. -1.
         -5    1    6    6    0  503  0.10274247022E+02 -0.59480693003E+01  0.73343378954E+02  0.74446497007E+02  0.47000000000E+01 0.  1.
<mgrwt>
<rscale>  0 0.64583545E+03</rscale>
<asrwt>0</asrwt>
<pdfrwt beam="1">  1        1 0.73234468E-01 0.64583545E+03</pdfrwt>
<pdfrwt beam="2">  1       -1 0.16475872E+00 0.64583545E+03</pdfrwt>
<totfact> 0.13302512E+01</totfact>
</mgrwt>
</event>
<event>
12    1  0.3166324E-008  0.9908214E+03  0.7818608E-02  0.9318669E-01
          2   -1    0    0  501    0  0.00000000000E+00  0.00000000000E+00  0.25616447459E+04  0.25616447459E+04  0.00000000000E+00 0. -1.
         -2   -1    0    0    0  501 -0.00000000000E+00 -0.00000000000E+00 -0.46662747751E+03  0.46662747751E+03  0.00000000000E+00 0.  1.
         23    2    1    2    0    0  0.23989645517E+03 -0.86996278477E+03  0.15949146230E+04  0.18347594555E+04  0.90576205303E+02 0.  0.
    5000000    2    1    2    0    0 -0.23989645517E+03  0.86996278477E+03  0.50010264545E+03  0.11935127679E+04  0.59998709578E+03 0.  0.
         23    2    4    4    0    0  0.18723034252E+03  0.26889434229E+03  0.14643623114E+03  0.37058500279E+03  0.92359655854E+02 0.  0.
         23    2    4    4    0    0 -0.42712679770E+03  0.60106844248E+03  0.35366641431E+03  0.82292776512E+03  0.91703872003E+02 0.  0.
          1    1    3    3  502    0  0.11722468657E+03 -0.27077230629E+03  0.54095947913E+03  0.61619512092E+03  0.00000000000E+00 0. -1.
         -1    1    3    3    0  502  0.12267176861E+03 -0.59919047848E+03  0.10539551438E+04  0.12185643346E+04  0.00000000000E+00 0.  1.
         11    1    5    5    0    0  0.16460206270E+03  0.26112823083E+03  0.11140886479E+03  0.32816722435E+03  0.00000000000E+00 0. -1.
        -11    1    5    5    0    0  0.22628279823E+02  0.77661114551E+01  0.35027366347E+02  0.42417778444E+02  0.00000000000E+00 0.  1.
          5    1    6    6  503    0 -0.26844521113E+03  0.44515633456E+03  0.26377869946E+03  0.58294792723E+03  0.47000000000E+01 0. -1.
         -5    1    6    6    0  503 -0.15868158657E+03  0.15591210793E+03  0.89887714853E+02  0.23997983790E+03  0.47000000000E+01 0.  1.
<mgrwt>
<rscale>  0 0.99082137E+03</rscale>
<asrwt>0</asrwt>
<pdfrwt beam="1">  1        2 0.39409918E+00 0.99082137E+03</pdfrwt>
<pdfrwt beam="2">  1       -2 0.71788844E-01 0.99082137E+03</pdfrwt>
<totfact> 0.57124676E+00</totfact>
</mgrwt>
</event>
<event>
12    1  0.3166324E-008  0.1067823E+04  0.7818608E-02  0.9237134E-01
          1   -1    0    0  501    0  0.00000000000E+00  0.00000000000E+00  0.13285525269E+04  0.13285525269E+04  0.00000000000E+00 0. -1.
         -1   -1    0    0    0  501 -0.00000000000E+00 -0.00000000000E+00 -0.93111002626E+03  0.93111002626E+03  0.00000000000E+00 0.  1.
         23    2    1    2    0    0 -0.87942060775E+03  0.48886374855E+03  0.40393771134E+03  0.10881496898E+04  0.92388866796E+02 0.  0.
    5000000    2    1    2    0    0  0.87942060775E+03 -0.48886374855E+03 -0.64952107366E+01  0.11715128634E+04  0.60002652550E+03 0.  0.
         23    2    4    4    0    0  0.62594877493E+03 -0.57824769669E+03 -0.12064430232E+03  0.86563748050E+03  0.92687282883E+02 0.  0.
         23    2    4    4    0    0  0.25347183282E+03  0.89383948138E+02  0.11414909158E+03  0.30587538287E+03  0.91061926836E+02 0.  0.
          4    1    3    3  502    0 -0.34508781562E+03  0.23912356966E+03  0.18858079142E+03  0.46024819060E+03  0.00000000000E+00 0. -1.
         -4    1    3    3    0  502 -0.53433279213E+03  0.24974017889E+03  0.21535691992E+03  0.62790149917E+03  0.00000000000E+00 0.  1.
         13    1    5    5    0    0  0.91784478815E+02 -0.81676442251E+02 -0.50885991195E+02  0.13298426926E+03  0.00000000000E+00 0. -1.
        -13    1    5    5    0    0  0.53416429611E+03 -0.49657125444E+03 -0.69758311123E+02  0.73265321125E+03  0.00000000000E+00 0.  1.
          5    1    6    6  503    0  0.10812338094E+03  0.65293876119E+02  0.93079845140E+02  0.15697102706E+03  0.47000000000E+01 0. -1.
         -5    1    6    6    0  503  0.14534845188E+03  0.24090072019E+02  0.21069246441E+02  0.14890435581E+03  0.47000000000E+01 0.  1.
<mgrwt>
<rscale>  0 0.10678229E+04</rscale>
<asrwt>0</asrwt>
<pdfrwt beam="1">  1        1 0.20439270E+00 0.10678229E+04</pdfrwt>
<pdfrwt beam="2">  1       -1 0.14324770E+00 0.10678229E+04</pdfrwt>
<totfact> 0.33916148E+00</totfact>
</mgrwt>
</event>
<event>
12    1  0.3166324E-008  0.6153724E+03  0.7818608E-02  0.9874017E-01
         -1   -1    0    0    0  501 -0.00000000000E+00  0.00000000000E+00  0.85913736907E+03  0.85913736907E+03  0.00000000000E+00 0.  1.
          1   -1    0    0  501    0  0.00000000000E+00 -0.00000000000E+00 -0.76786058737E+03  0.76786058737E+03  0.00000000000E+00 0. -1.
         23    2    1    2    0    0 -0.57070906334E+03 -0.19042338090E+02 -0.36235227597E+03  0.68260650790E+03  0.92633833464E+02 0.  0.
    5000000    2    1    2    0    0  0.57070906334E+03  0.19042338090E+02  0.45362905767E+03  0.94439144854E+03  0.60002036673E+03 0.  0.
         23    2    4    4    0    0  0.49401595159E+03  0.12682913763E+03  0.55058237804E+03  0.75614383502E+03  0.92060597685E+02 0.  0.
         23    2    4    4    0    0  0.76693111752E+02 -0.10778679954E+03 -0.96953320374E+02  0.18824761352E+03  0.92397998467E+02 0.  0.
          3    1    3    3  502    0 -0.28149739736E+03 -0.54346961090E+02 -0.16644776423E+03  0.33151053546E+03  0.00000000000E+00 0. -1.
         -3    1    3    3    0  502 -0.28921166598E+03  0.35304623001E+02 -0.19590451174E+03  0.35109597244E+03  0.00000000000E+00 0.  1.
         13    1    5    5    0    0  0.26316641544E+03  0.11465481468E+03  0.31020110283E+03  0.42264289056E+03  0.00000000000E+00 0. -1.
        -13    1    5    5    0    0  0.23084953615E+03  0.12174322945E+02  0.24038127521E+03  0.33350094445E+03  0.00000000000E+00 0.  1.
          5    1    6    6  503    0  0.35905159919E+02 -0.69279738196E+02 -0.10550725745E+03  0.13131159129E+03  0.47000000000E+01 0. -1.
         -5    1    6    6    0  503  0.40787951833E+02 -0.38507061342E+02  0.85539370750E+01  0.56936022230E+02  0.47000000000E+01 0.  1.
<mgrwt>
<rscale>  0 0.61537243E+03</rscale>
<asrwt>0</asrwt>
<pdfrwt beam="1">  1        1 0.11813240E+00 0.61537243E+03</pdfrwt>
<pdfrwt beam="2">  1       -1 0.13217498E+00 0.61537243E+03</pdfrwt>
<totfact> 0.12048604E+01</totfact>
</mgrwt>
</event>
<event>
12    1  0.3166324E-008  0.6789275E+03  0.7818608E-02  0.9753963E-01
         -2   -1    0    0    0  501 -0.00000000000E+00  0.00000000000E+00  0.37039221462E+03  0.37039221462E+03  0.00000000000E+00 0.  1.
          2   -1    0    0  501    0  0.00000000000E+00 -0.00000000000E+00 -0.17449545825E+04  0.17449545825E+04  0.00000000000E+00 0. -1.
         23    2    1    2    0    0 -0.27427547447E+03  0.48026412877E+03 -0.11343081323E+04  0.12647542955E+04  0.84070326700E+02 0.  0.
    5000000    2    1    2    0    0  0.27427547447E+03 -0.48026412877E+03 -0.24025423563E+03  0.85059250162E+03  0.59992069209E+03 0.  0.
         23    2    4    4    0    0  0.38302865574E+03 -0.53364103585E+03 -0.21231565175E+03  0.69625208962E+03  0.90583276988E+02 0.  0.
         23    2    4    4    0    0 -0.10875318127E+03  0.53376907082E+02 -0.27938583874E+02  0.15434041199E+03  0.91455178413E+02 0.  0.
          1    1    3    3  502    0 -0.91401586316E+02  0.22121199286E+03 -0.42431436325E+03  0.48716698844E+03  0.00000000000E+00 0. -1.
         -1    1    3    3    0  502 -0.18287388815E+03  0.25905213590E+03 -0.70999376900E+03  0.77758730706E+03  0.00000000000E+00 0.  1.
         13    1    5    5    0    0  0.17635113500E+03 -0.29523886892E+03 -0.14724531887E+03  0.37409476937E+03  0.00000000000E+00 0.  1.
        -13    1    5    5    0    0  0.20667752074E+03 -0.23840216692E+03 -0.65070332878E+02  0.32215732026E+03  0.00000000000E+00 0. -1.
          5    1    6    6  503    0 -0.62474843194E+02  0.68736135359E+02 -0.43865007002E+02  0.10282991382E+03  0.47000000000E+01 0. -1.
         -5    1    6    6    0  503 -0.46278338080E+02 -0.15359228278E+02  0.15926423128E+02  0.51510498177E+02  0.47000000000E+01 0.  1.
<mgrwt>
<rscale>  0 0.67892752E+03</rscale>
<asrwt>0</asrwt>
<pdfrwt beam="1">  1        2 0.26845455E+00 0.67892752E+03</pdfrwt>
<pdfrwt beam="2">  1       -2 0.56983417E-01 0.67892752E+03</pdfrwt>
<totfact> 0.27731762E+01</totfact>
</mgrwt>
</event>
<event>
12    1  0.3166324E-008  0.8995978E+03  0.7818608E-02  0.9426084E-01
         -1   -1    0    0    0  501 -0.00000000000E+00  0.00000000000E+00  0.90373382537E+03  0.90373382537E+03  0.00000000000E+00 0. -1.
          1   -1    0    0  501    0  0.00000000000E+00 -0.00000000000E+00 -0.10556618115E+04  0.10556618115E+04  0.00000000000E+00 0.  1.
         23    2    1    2    0    0 -0.77343307207E+03  0.23885554476E+03 -0.42124129894E+03  0.91726216429E+03  0.93139453862E+02 0.  0.
    5000000    2    1    2    0    0  0.77343307207E+03 -0.23885554476E+03  0.26931331283E+03  0.10421334726E+04  0.59854976898E+03 0.  0.
         23    2    4    4    0    0  0.21905750802E+03 -0.34238933637E+03  0.21159057833E+03  0.46796613993E+03  0.94895130569E+02 0.  0.
         23    2    4    4    0    0  0.55437556405E+03  0.10353379161E+03  0.57722734499E+02  0.57416733264E+03  0.91020326130E+02 0.  0.
          4    1    3    3  502    0 -0.20166806663E+03  0.10512581740E+03 -0.10859628074E+03  0.25202102843E+03  0.00000000000E+00 0.  1.
         -4    1    3    3    0  502 -0.57176500544E+03  0.13372972736E+03 -0.31264501820E+03  0.66524113585E+03  0.00000000000E+00 0. -1.
         13    1    5    5    0    0  0.21650529667E+03 -0.28209128765E+03  0.16660208385E+03  0.39269109029E+03  0.00000000000E+00 0. -1.
        -13    1    5    5    0    0  0.25522113501E+01 -0.60298048721E+02  0.44988494485E+02  0.75275049641E+02  0.00000000000E+00 0.  1.
          5    1    6    6  503    0  0.46313338697E+03  0.58721390793E+02  0.26050834864E+02  0.46759113749E+03  0.47000000000E+01 0. -1.
         -5    1    6    6    0  503  0.91242177077E+02  0.44812400817E+02  0.31671899635E+02  0.10657619514E+03  0.47000000000E+01 0.  1.
<mgrwt>
<rscale>  0 0.89959785E+03</rscale>
<asrwt>0</asrwt>
<pdfrwt beam="1">  1        1 0.16240951E+00 0.89959785E+03</pdfrwt>
<pdfrwt beam="2">  1       -1 0.13903597E+00 0.89959785E+03</pdfrwt>
<totfact> 0.59336592E+00</totfact>
</mgrwt>
</event>
<event>
12    1  0.3166324E-008  0.1188900E+04  0.7818608E-02  0.9122628E-01
         -2   -1    0    0    0  501 -0.00000000000E+00  0.00000000000E+00  0.38950076646E+03  0.38950076646E+03  0.00000000000E+00 0.  1.
          2   -1    0    0  501    0  0.00000000000E+00 -0.00000000000E+00 -0.36981928776E+04  0.36981928776E+04  0.00000000000E+00 0. -1.
         23    2    1    2    0    0 -0.11112812914E+04 -0.13900812274E+03 -0.14065833831E+04  0.18003019901E+04  0.91329485983E+02 0.  0.
    5000000    2    1    2    0    0  0.11112812914E+04  0.13900812274E+03 -0.19021087280E+04  0.22873916540E+04  0.59989465647E+03 0.  0.
         23    2    4    4    0    0  0.19417627429E+03 -0.18653018661E+03 -0.55262865080E+03  0.62126538797E+03  0.89857223343E+02 0.  0.
         23    2    4    4    0    0  0.91710501707E+03  0.32553830935E+03 -0.13494800772E+04  0.16661262660E+04  0.88450281842E+02 0.  0.
          1    1    3    3  502    0 -0.88839265874E+03 -0.90683256679E+02 -0.11676929327E+04  0.14700244060E+04  0.00000000000E+00 0. -1.
         -1    1    3    3    0  502 -0.22288863262E+03 -0.48324866064E+02 -0.23889045045E+03  0.33027758409E+03  0.00000000000E+00 0.  1.
         11    1    5    5    0    0  0.14730925810E+03 -0.85081921991E+02 -0.29682296584E+03  0.34211522039E+03  0.00000000000E+00 0. -1.
        -11    1    5    5    0    0  0.46867016189E+02 -0.10144826462E+03 -0.25580568496E+03  0.27915016758E+03  0.00000000000E+00 0.  1.
          5    1    6    6  503    0  0.54123402231E+03  0.16247913693E+03 -0.72511755625E+03  0.91932110670E+03  0.47000000000E+01 0. -1.
         -5    1    6    6    0  503  0.37587099477E+03  0.16305917242E+03 -0.62436252097E+03  0.74680515934E+03  0.47000000000E+01 0.  1.
<mgrwt>
<rscale>  0 0.11889002E+04</rscale>
<asrwt>0</asrwt>
<pdfrwt beam="1">  1        2 0.56895271E+00 0.11889002E+04</pdfrwt>
<pdfrwt beam="2">  1       -2 0.59923199E-01 0.11889002E+04</pdfrwt>
<totfact> 0.15402463E+00</totfact>
</mgrwt>
</event>
<event>
12    1  0.3166324E-008  0.1079407E+04  0.7818608E-02  0.9225499E-01
         -1   -1    0    0    0  501 -0.00000000000E+00  0.00000000000E+00  0.84077192072E+03  0.84077192072E+03  0.00000000000E+00 0.  1.
          1   -1    0    0  501    0  0.00000000000E+00 -0.00000000000E+00 -0.24767164633E+04  0.24767164633E+04  0.00000000000E+00 0. -1.
         23    2    1    2    0    0 -0.10202539718E+04  0.29966451646E+03  0.22586507709E+03  0.10909172655E+04  0.91479274629E+02 0.  0.
    5000000    2    1    2    0    0  0.10202539718E+04 -0.29966451646E+03 -0.18618096197E+04  0.22265711185E+04  0.60047222804E+03 0.  0.
         23    2    4    4    0    0  0.53414646993E+03 -0.27440232383E+03 -0.14856825776E+04  0.16048392050E+04  0.87447502537E+02 0.  0.
         23    2    4    4    0    0  0.48610750186E+03 -0.25262192625E+02 -0.37612704202E+03  0.62173191355E+03  0.90223826350E+02 0.  0.
          3    1    3    3  502    0 -0.50147436270E+03  0.15616822962E+03  0.65627237044E+02  0.52931274936E+03  0.00000000000E+00 0. -1.
         -3    1    3    3    0  502 -0.51877960909E+03  0.14349628684E+03  0.16023784005E+03  0.56160451612E+03  0.00000000000E+00 0.  1.
         13    1    5    5    0    0  0.37941643294E+03 -0.23067937498E+03 -0.10306489777E+04  0.11222330947E+04  0.00000000000E+00 0.  1.
        -13    1    5    5    0    0  0.15473003699E+03 -0.43722948853E+02 -0.45503359998E+03  0.48260611031E+03  0.00000000000E+00 0. -1.
          5    1    6    6  503    0  0.35399173047E+03  0.82451192125E+01 -0.30780721598E+03  0.46919665327E+03  0.47000000000E+01 0. -1.
         -5    1    6    6    0  503  0.13211577139E+03 -0.33507311838E+02 -0.68319826039E+02  0.15253526027E+03  0.47000000000E+01 0.  1.
<mgrwt>
<rscale>  0 0.10794069E+04</rscale>
<asrwt>0</asrwt>
<pdfrwt beam="1">  1        1 0.38103330E+00 0.10794069E+04</pdfrwt>
<pdfrwt beam="2">  1       -1 0.12934953E+00 0.10794069E+04</pdfrwt>
<totfact> 0.72590094E-01</totfact>
</mgrwt>
</event>
<event>
12    1  0.3166324E-008  0.7590798E+03  0.7818608E-02  0.9621212E-01
          2   -1    0    0  501    0  0.00000000000E+00  0.00000000000E+00  0.21650664970E+04  0.21650664970E+04  0.00000000000E+00 0. -1.
         -2   -1    0    0    0  501 -0.00000000000E+00 -0.00000000000E+00 -0.31282784702E+03  0.31282784702E+03  0.00000000000E+00 0.  1.
         23    2    1    2    0    0  0.63662946093E+03 -0.12523086973E+03  0.37092382245E+03  0.75293879237E+03  0.91392022319E+02 0.  0.
    5000000    2    1    2    0    0 -0.63662946093E+03  0.12523086973E+03  0.14813148275E+04  0.17249555516E+04  0.60016514032E+03 0.  0.
         23    2    4    4    0    0 -0.17158370212E+03  0.30914517981E+03  0.75073949000E+03  0.83483295241E+03  0.91239068130E+02 0.  0.
         23    2    4    4    0    0 -0.46504575881E+03 -0.18391431008E+03  0.73057533751E+03  0.89012259922E+03  0.92118872245E+02 0.  0.
          1    1    3    3  502    0  0.56823103973E+03 -0.12784108628E+03  0.30311135435E+03  0.65658689523E+03  0.00000000000E+00 0. -1.
         -1    1    3    3    0  502  0.68398421203E+02  0.26102165467E+01  0.67812468107E+02  0.96351897149E+02  0.00000000000E+00 0.  1.
         11    1    5    5    0    0  0.85898371148E+01  0.42206168370E+02  0.85342081836E+02  0.95595067248E+02  0.00000000000E+00 0. -1.
        -11    1    5    5    0    0 -0.18017353923E+03  0.26693901144E+03  0.66539740816E+03  0.73923788516E+03  0.00000000000E+00 0.  1.
          5    1    6    6  503    0 -0.82912776713E+02 -0.51405149289E+02  0.91706332622E+02  0.13397447279E+03  0.47000000000E+01 0. -1.
         -5    1    6    6    0  503 -0.38213298210E+03 -0.13250916079E+03  0.63886900489E+03  0.75614812643E+03  0.47000000000E+01 0.  1.
<mgrwt>
<rscale>  0 0.75907975E+03</rscale>
<asrwt>0</asrwt>
<pdfrwt beam="1">  1        2 0.33308714E+00 0.75907975E+03</pdfrwt>
<pdfrwt beam="2">  1       -2 0.48127363E-01 0.75907975E+03</pdfrwt>
<totfact> 0.22890407E+01</totfact>
</mgrwt>
</event>
<event>
12    1  0.3166324E-008  0.1430739E+04  0.7818608E-02  0.8931864E-01
          1   -1    0    0  501    0  0.00000000000E+00  0.00000000000E+00  0.20093159080E+04  0.20093159080E+04  0.00000000000E+00 0. -1.
         -1   -1    0    0    0  501 -0.00000000000E+00 -0.00000000000E+00 -0.10706341168E+04  0.10706341168E+04  0.00000000000E+00 0.  1.
         23    2    1    2    0    0  0.13244032333E+04 -0.44701129047E+03  0.58657605804E+03  0.15186395108E+04  0.91276905713E+02 0.  0.
    5000000    2    1    2    0    0 -0.13244032333E+04  0.44701129047E+03  0.35210573310E+03  0.15613105141E+04  0.59987420002E+03 0.  0.
         23    2    4    4    0    0 -0.13144030220E+04  0.39732384973E+03  0.41691197552E+03  0.14374510998E+04  0.83237750800E+02 0.  0.
         23    2    4    4    0    0 -0.10000211336E+02  0.49687440742E+02 -0.64806242414E+02  0.12385941430E+03  0.92587577251E+02 0.  0.
          4    1    3    3  502    0  0.26794749270E+03 -0.75435788909E+02  0.80988810455E+02  0.28990619950E+03  0.00000000000E+00 0. -1.
         -4    1    3    3    0  502  0.10564557406E+04 -0.37157550156E+03  0.50558724759E+03  0.12287333113E+04  0.00000000000E+00 0.  1.
         13    1    5    5    0    0 -0.40179247809E+03  0.14659627992E+03  0.98482558244E+02  0.43889233192E+03  0.00000000000E+00 0.  1.
        -13    1    5    5    0    0 -0.91261054390E+03  0.25072756981E+03  0.31842941727E+03  0.99855876786E+03  0.00000000000E+00 0. -1.
          5    1    6    6  503    0 -0.39204020102E+02  0.12174998144E+02 -0.63880345321E+02  0.76078737439E+02  0.47000000000E+01 0. -1.
         -5    1    6    6    0  503  0.29203808766E+02  0.37512442598E+02 -0.92589709286E+00  0.47780676863E+02  0.47000000000E+01 0.  1.
<mgrwt>
<rscale>  0 0.14307386E+04</rscale>
<asrwt>0</asrwt>
<pdfrwt beam="1">  1        1 0.30912552E+00 0.14307386E+04</pdfrwt>
<pdfrwt beam="2">  1       -1 0.16471294E+00 0.14307386E+04</pdfrwt>
<totfact> 0.75567197E-01</totfact>
</mgrwt>
</event>
<event>
12    1  0.3166324E-008  0.1183086E+04  0.7818608E-02  0.9127792E-01
         -2   -1    0    0    0  501 -0.00000000000E+00  0.00000000000E+00  0.71921268178E+03  0.71921268178E+03  0.00000000000E+00 0.  1.
          2   -1    0    0  501    0  0.00000000000E+00 -0.00000000000E+00 -0.21502261527E+04  0.21502261527E+04  0.00000000000E+00 0. -1.
         23    2    1    2    0    0 -0.11263405286E+04 -0.18067745188E+03 -0.97150413446E+03  0.15011139366E+04  0.90749322383E+02 0.  0.
    5000000    2    1    2    0    0  0.11263405286E+04  0.18067745188E+03 -0.45950933646E+03  0.13683248979E+04  0.59989738113E+03 0.  0.
         23    2    4    4    0    0 -0.10635873771E+02  0.70857461480E+02 -0.13478668845E+03  0.17740505749E+03  0.90394697752E+02 0.  0.
         23    2    4    4    0    0  0.11369764023E+04  0.10981999040E+03 -0.32472264801E+03  0.11909198404E+04  0.89830386203E+02 0.  0.
          3    1    3    3  502    0 -0.63580215984E+03 -0.57754674599E+02 -0.55664526876E+03  0.84701472486E+03  0.00000000000E+00 0. -1.
         -3    1    3    3    0  502 -0.49053836873E+03 -0.12292277729E+03 -0.41485886570E+03  0.65409921175E+03  0.00000000000E+00 0.  1.
         13    1    5    5    0    0  0.98989363872E+01  0.36076713091E+02 -0.13168501913E+03  0.13689580868E+03  0.00000000000E+00 0. -1.
        -13    1    5    5    0    0 -0.20534810158E+02  0.34780748388E+02 -0.31016693126E+01  0.40509248811E+02  0.00000000000E+00 0.  1.
          5    1    6    6  503    0  0.27097088083E+03  0.54686322538E+02 -0.10519931514E+03  0.29581209920E+03  0.47000000000E+01 0. -1.
         -5    1    6    6    0  503  0.86600552151E+03  0.55133667866E+02 -0.21952333288E+03  0.89510774117E+03  0.47000000000E+01 0.  1.
<mgrwt>
<rscale>  0 0.11830856E+04</rscale>
<asrwt>0</asrwt>
<pdfrwt beam="1">  1        2 0.33080402E+00 0.11830856E+04</pdfrwt>
<pdfrwt beam="2">  1       -2 0.11064811E+00 0.11830856E+04</pdfrwt>
<totfact> 0.34970290E+00</totfact>
</mgrwt>
</event>
<event>
12    1  0.3166324E-008  0.1259209E+04  0.7818608E-02  0.9062553E-01
          2   -1    0    0  501    0  0.00000000000E+00  0.00000000000E+00  0.18085197738E+04  0.18085197738E+04  0.00000000000E+00 0. -1.
         -2   -1    0    0    0  501 -0.00000000000E+00 -0.00000000000E+00 -0.10055952665E+04  0.10055952665E+04  0.00000000000E+00 0.  1.
         23    2    1    2    0    0 -0.11647366892E+04 -0.46320203123E+03  0.11072755606E+03  0.12615984724E+04  0.90567305460E+02 0.  0.
    5000000    2    1    2    0    0  0.11647366892E+04  0.46320203123E+03  0.69219695132E+03  0.15525165679E+04  0.60000283106E+03 0.  0.
         23    2    4    4    0    0  0.91587045185E+03  0.40314877876E+03  0.77476019800E+03  0.12682834071E+04  0.83317548238E+02 0.  0.
         23    2    4    4    0    0  0.24886623739E+03  0.60053252473E+02 -0.82563246680E+02  0.28423316087E+03  0.91820492198E+02 0.  0.
          1    1    3    3  502    0 -0.37737047694E+03 -0.16136707777E+03  0.77700241256E+02  0.41771418236E+03  0.00000000000E+00 0. -1.
         -1    1    3    3    0  502 -0.78736621230E+03 -0.30183495346E+03  0.33027314804E+02  0.84388429001E+03  0.00000000000E+00 0.  1.
         13    1    5    5    0    0  0.54891137020E+03  0.22085509339E+03  0.41153657962E+03  0.72072395616E+03  0.00000000000E+00 0. -1.
        -13    1    5    5    0    0  0.36695908165E+03  0.18229368537E+03  0.36322361838E+03  0.54755945091E+03  0.00000000000E+00 0.  1.
          5    1    6    6  503    0  0.10699525043E+03 -0.49470032773E+01  0.86654988885E+00  0.10721612455E+03  0.47000000000E+01 0. -1.
         -5    1    6    6    0  503  0.14187098697E+03  0.65000255750E+02 -0.83429796568E+02  0.17701703632E+03  0.47000000000E+01 0.  1.
<mgrwt>
<rscale>  0 0.12592088E+04</rscale>
<asrwt>0</asrwt>
<pdfrwt beam="1">  1        2 0.27823381E+00 0.12592088E+04</pdfrwt>
<pdfrwt beam="2">  1       -2 0.15470696E+00 0.12592088E+04</pdfrwt>
<totfact> 0.22750988E+00</totfact>
</mgrwt>
</event>
<event>
12    1  0.3166324E-008  0.4573079E+03  0.7818608E-02  0.1025565E+00
          2   -1    0    0  501    0  0.00000000000E+00  0.00000000000E+00  0.16786421725E+04  0.16786421725E+04  0.00000000000E+00 0. -1.
         -2   -1    0    0    0  501 -0.00000000000E+00 -0.00000000000E+00 -0.19289121625E+03  0.19289121625E+03  0.00000000000E+00 0.  1.
         23    2    1    2    0    0 -0.25899926306E+03 -0.57277352927E+02  0.10455271683E+04  0.10825679657E+04  0.92005582950E+02 0.  0.
    5000000    2    1    2    0    0  0.25899926306E+03  0.57277352927E+02  0.44022378795E+03  0.78896542305E+03  0.59858845785E+03 0.  0.
         23    2    4    4    0    0  0.41193439907E+03  0.15927831901E+03  0.30905026016E+03  0.54582832793E+03  0.85772770867E+02 0.  0.
         23    2    4    4    0    0 -0.15293513601E+03 -0.10200096609E+03  0.13117352779E+03  0.24313709512E+03  0.90087733472E+02 0.  0.
          1    1    3    3  502    0 -0.15818081372E+03 -0.78100861836E+02  0.60671349689E+03  0.63184031350E+03  0.00000000000E+00 0. -1.
         -1    1    3    3    0  502 -0.10081844933E+03  0.20823508908E+02  0.43881367144E+03  0.45072765224E+03  0.00000000000E+00 0.  1.
         11    1    5    5    0    0  0.21922855349E+02 -0.71802295321E+01  0.31419813020E+02  0.38979121757E+02  0.00000000000E+00 0. -1.
        -11    1    5    5    0    0  0.39001154372E+03  0.16645854855E+03  0.27763044714E+03  0.50684920617E+03  0.00000000000E+00 0.  1.
          5    1    6    6  503    0 -0.18705647083E+02 -0.30221398227E+02  0.70719007997E+02  0.79287465817E+02  0.47000000000E+01 0. -1.
         -5    1    6    6    0  503 -0.13422948893E+03 -0.71779567861E+02  0.60454519793E+02  0.16384962931E+03  0.47000000000E+01 0.  1.
<mgrwt>
<rscale>  0 0.45730789E+03</rscale>
<asrwt>0</asrwt>
<pdfrwt beam="1">  1        2 0.25825263E+00 0.45730789E+03</pdfrwt>
<pdfrwt beam="2">  1       -2 0.29675573E-01 0.45730789E+03</pdfrwt>
<totfact> 0.11141211E+02</totfact>
</mgrwt>
</event>
<event>
12    1  0.3166324E-008  0.6369316E+03  0.7818608E-02  0.9831615E-01
         -2   -1    0    0    0  501 -0.00000000000E+00  0.00000000000E+00  0.12657733716E+03  0.12657733716E+03  0.00000000000E+00 0.  1.
          2   -1    0    0  501    0  0.00000000000E+00 -0.00000000000E+00 -0.41483810535E+04  0.41483810535E+04  0.00000000000E+00 0. -1.
         23    2    1    2    0    0 -0.53612521421E+03 -0.15384646067E+03 -0.10557497476E+04  0.11978552350E+04  0.95659059012E+02 0.  0.
    5000000    2    1    2    0    0  0.53612521421E+03  0.15384646067E+03 -0.29660539687E+04  0.30771031557E+04  0.59999058876E+03 0.  0.
         23    2    4    4    0    0  0.57377072450E+03  0.79836534932E+02 -0.28413555307E+04  0.29012058527E+04  0.90041273953E+02 0.  0.
         23    2    4    4    0    0 -0.37645510297E+02  0.74009925740E+02 -0.12469843796E+03  0.17589730298E+03  0.92171075782E+02 0.  0.
          2    1    3    3  502    0 -0.27438472239E+03 -0.12715866878E+03 -0.54231924587E+03  0.62093998693E+03  0.00000000000E+00 0. -1.
         -2    1    3    3    0  502 -0.26174049182E+03 -0.26687791895E+02 -0.51343050176E+03  0.57691524805E+03  0.00000000000E+00 0.  1.
         11    1    5    5    0    0  0.51423123581E+03  0.98347943137E+02 -0.25066064923E+04  0.25606995507E+04  0.00000000000E+00 0. -1.
        -11    1    5    5    0    0  0.59539488698E+02 -0.18511408205E+02 -0.33474903843E+03  0.34050630197E+03  0.00000000000E+00 0.  1.
          5    1    6    6  503    0 -0.66596500422E+02  0.60722933339E+02 -0.10363022985E+03  0.13741791383E+03  0.47000000000E+01 0. -1.
         -5    1    6    6    0  503  0.28950990125E+02  0.13286992401E+02 -0.21068208111E+02  0.38479389149E+02  0.47000000000E+01 0.  1.
<mgrwt>
<rscale>  0 0.63693157E+03</rscale>
<asrwt>0</asrwt>
<pdfrwt beam="1">  1        2 0.63821253E+00 0.63693157E+03</pdfrwt>
<pdfrwt beam="2">  1       -2 0.19473435E-01 0.63693157E+03</pdfrwt>
<totfact> 0.65689889E+00</totfact>
</mgrwt>
</event>
<event>
12    1  0.3166324E-008  0.9023001E+03  0.7818608E-02  0.9422711E-01
          2   -1    0    0  501    0  0.00000000000E+00  0.00000000000E+00  0.29588305554E+04  0.29588305554E+04  0.00000000000E+00 0. -1.
         -2   -1    0    0    0  501 -0.00000000000E+00 -0.00000000000E+00 -0.49173811205E+03  0.49173811205E+03  0.00000000000E+00 0.  1.
         23    2    1    2    0    0  0.57321606401E+03 -0.59307262989E+03  0.56557446128E+02  0.83313690009E+03  0.10298810235E+03 0.  0.
    5000000    2    1    2    0    0 -0.57321606401E+03  0.59307262989E+03  0.24105349972E+04  0.26174317673E+04  0.59996523526E+03 0.  0.
         23    2    4    4    0    0  0.80161844384E+02  0.98824707086E+02  0.71296227919E+03  0.73033018976E+03  0.94205788098E+02 0.  0.
         23    2    4    4    0    0 -0.65337790840E+03  0.49424792280E+03  0.16975727180E+04  0.18871015776E+04  0.90639564902E+02 0.  0.
          1    1    3    3  502    0  0.43404323189E+03 -0.50766936573E+03  0.46485335185E+02  0.66953909403E+03  0.00000000000E+00 0. -1.
         -1    1    3    3    0  502  0.13917283212E+03 -0.85403264153E+02  0.10072110943E+02  0.16359780606E+03  0.00000000000E+00 0.  1.
         13    1    5    5    0    0  0.97171265218E+02  0.70056325055E+02  0.46752632386E+03  0.48262926451E+03  0.00000000000E+00 0.  1.
        -13    1    5    5    0    0 -0.17009420834E+02  0.28768382030E+02  0.24543595533E+03  0.24770092525E+03  0.00000000000E+00 0. -1.
          5    1    6    6  503    0 -0.12229224617E+03  0.74998849203E+02  0.23101810342E+03  0.27197734274E+03  0.47000000000E+01 0. -1.
         -5    1    6    6    0  503 -0.53108566223E+03  0.41924907360E+03  0.14665546146E+04  0.16151242348E+04  0.47000000000E+01 0.  1.
<mgrwt>
<rscale>  0 0.90230014E+03</rscale>
<asrwt>0</asrwt>
<pdfrwt beam="1">  1        2 0.45520469E+00 0.90230014E+03</pdfrwt>
<pdfrwt beam="2">  1       -2 0.75652019E-01 0.90230014E+03</pdfrwt>
<totfact> 0.29989147E+00</totfact>
</mgrwt>
</event>
<event>
12    1  0.3166324E-008  0.1495686E+04  0.7818608E-02  0.8887327E-01
          2   -1    0    0  501    0  0.00000000000E+00  0.00000000000E+00  0.27589527787E+04  0.27589527787E+04  0.00000000000E+00 0. -1.
         -2   -1    0    0    0  501 -0.00000000000E+00 -0.00000000000E+00 -0.11197837161E+04  0.11197837161E+04  0.00000000000E+00 0.  1.
         23    2    1    2    0    0  0.66096753821E+03  0.12748574474E+04 -0.21829574498E+03  0.14554588186E+04  0.92562102066E+02 0.  0.
    5000000    2    1    2    0    0 -0.66096753821E+03 -0.12748574474E+04  0.18574648075E+04  0.24232776762E+04  0.59996632138E+03 0.  0.
         23    2    4    4    0    0 -0.12438930448E+03 -0.84725158380E+03  0.11095154505E+04  0.14046528179E+04  0.93365188872E+02 0.  0.
         23    2    4    4    0    0 -0.53657823373E+03 -0.42760586359E+03  0.74794935706E+03  0.10186248583E+04  0.86054551100E+02 0.  0.
          3    1    3    3  502    0  0.86342279527E+02  0.24076131072E+03 -0.29673470395E+02  0.25749080142E+03  0.00000000000E+00 0. -1.
         -3    1    3    3    0  502  0.57462525868E+03  0.10340961367E+04 -0.18862227458E+03  0.11979680172E+04  0.00000000000E+00 0.  1.
         13    1    5    5    0    0 -0.13938347910E+03 -0.74256710931E+03  0.98088008152E+03  0.12381273765E+04  0.00000000000E+00 0. -1.
        -13    1    5    5    0    0  0.14994174619E+02 -0.10468447450E+03  0.12863536897E+03  0.16652544137E+03  0.00000000000E+00 0.  1.
          5    1    6    6  503    0 -0.35105761515E+02 -0.59300529404E+02  0.82526100725E+02  0.10761791013E+03  0.47000000000E+01 0. -1.
         -5    1    6    6    0  503 -0.50147247222E+03 -0.36830533418E+03  0.66542325633E+03  0.91100694819E+03  0.47000000000E+01 0.  1.
<mgrwt>
<rscale>  0 0.14956860E+04</rscale>
<asrwt>0</asrwt>
<pdfrwt beam="1">  1        2 0.42445427E+00 0.14956860E+04</pdfrwt>
<pdfrwt beam="2">  1       -2 0.17227442E+00 0.14956860E+04</pdfrwt>
<totfact> 0.47448511E-01</totfact>
</mgrwt>
</event>
<event>
12    1  0.3166324E-008  0.1483135E+04  0.7818608E-02  0.8895746E-01
         -2   -1    0    0    0  501 -0.00000000000E+00  0.00000000000E+00  0.81076892367E+03  0.81076892367E+03  0.00000000000E+00 0.  1.
          2   -1    0    0  501    0  0.00000000000E+00 -0.00000000000E+00 -0.27451761675E+04  0.27451761675E+04  0.00000000000E+00 0. -1.
         23    2    1    2    0    0 -0.42127226515E+03  0.13650521509E+04 -0.10059603961E+04  0.17495849635E+04  0.90848940295E+02 0.  0.
    5000000    2    1    2    0    0  0.42127226515E+03 -0.13650521509E+04 -0.92844684770E+03  0.18063601277E+04  0.60007138398E+03 0.  0.
         23    2    4    4    0    0  0.52454625012E+03 -0.81284682260E+03 -0.67175076006E+03  0.11815070462E+04  0.94027075701E+02 0.  0.
         23    2    4    4    0    0 -0.10327398497E+03 -0.55220532827E+03 -0.25669608764E+03  0.62485308151E+03  0.94616338568E+02 0.  0.
          3    1    3    3  502    0 -0.14896847089E+03  0.63474297545E+03 -0.46562085589E+03  0.80118227117E+03  0.00000000000E+00 0. -1.
         -3    1    3    3    0  502 -0.27230379426E+03  0.73030917542E+03 -0.54033954025E+03  0.94840269233E+03  0.00000000000E+00 0.  1.
         13    1    5    5    0    0  0.46250172090E+03 -0.72602318077E+03 -0.63080308839E+03  0.10672066516E+04  0.00000000000E+00 0. -1.
        -13    1    5    5    0    0  0.62044529222E+02 -0.86823641837E+02 -0.40947671670E+02  0.11430039459E+03  0.00000000000E+00 0.  1.
          5    1    6    6  503    0 -0.49024651329E+00 -0.20828381698E+03 -0.67086358766E+02  0.21887224194E+03  0.47000000000E+01 0. -1.
         -5    1    6    6    0  503 -0.10278373846E+03 -0.34392151129E+03 -0.18960972887E+03  0.40598083957E+03  0.47000000000E+01 0.  1.
<mgrwt>
<rscale>  0 0.14831353E+04</rscale>
<asrwt>0</asrwt>
<pdfrwt beam="1">  1        2 0.42233480E+00 0.14831353E+04</pdfrwt>
<pdfrwt beam="2">  1       -2 0.12473368E+00 0.14831353E+04</pdfrwt>
<totfact> 0.11447391E+00</totfact>
</mgrwt>
</event>
<event>
12    1  0.3166324E-008  0.4973029E+03  0.7818608E-02  0.1014485E+00
          1   -1    0    0  501    0  0.00000000000E+00  0.00000000000E+00  0.92131310175E+03  0.92131310175E+03  0.00000000000E+00 0. -1.
         -1   -1    0    0    0  501 -0.00000000000E+00 -0.00000000000E+00 -0.38248936257E+03  0.38248936257E+03  0.00000000000E+00 0.  1.
         23    2    1    2    0    0 -0.11339209899E+03 -0.41572760558E+03  0.12922643684E+03  0.45909798276E+03  0.91565690288E+02 0.  0.
    5000000    2    1    2    0    0  0.11339209899E+03  0.41572760558E+03  0.40959730234E+03  0.84470448157E+03  0.60005708141E+03 0.  0.
         23    2    4    4    0    0  0.14173849533E+02 -0.29838485946E+02  0.36358655905E+03  0.37752052941E+03  0.96100629263E+02 0.  0.
         23    2    4    4    0    0  0.99218249457E+02  0.44556609152E+03  0.46010743285E+02  0.46718395216E+03  0.88150177083E+02 0.  0.
          2    1    3    3  502    0 -0.53783963058E+02 -0.32670553310E+03  0.11744937145E+03  0.35131691518E+03  0.00000000000E+00 0. -1.
         -2    1    3    3    0  502 -0.59608135932E+02 -0.89022072478E+02  0.11777065393E+02  0.10778106757E+03  0.00000000000E+00 0.  1.
         13    1    5    5    0    0  0.29021923893E+02 -0.55967183283E+02  0.16429404530E+03  0.17597480215E+03  0.00000000000E+00 0. -1.
        -13    1    5    5    0    0 -0.14848074360E+02  0.26128697337E+02  0.19929251375E+03  0.20154572725E+03  0.00000000000E+00 0.  1.
          5    1    6    6  503    0 -0.10522960573E+02  0.10011424160E+03 -0.61158172687E+01  0.10096082058E+03  0.47000000000E+01 0. -1.
         -5    1    6    6    0  503  0.10974121003E+03  0.34545184992E+03  0.52126560554E+02  0.36622313159E+03  0.47000000000E+01 0.  1.
<mgrwt>
<rscale>  0 0.49730292E+03</rscale>
<asrwt>0</asrwt>
<pdfrwt beam="1">  1        1 0.14174048E+00 0.49730292E+03</pdfrwt>
<pdfrwt beam="2">  1       -1 0.58844517E-01 0.49730292E+03</pdfrwt>
<totfact> 0.53916390E+01</totfact>
</mgrwt>
</event>
<event>
12    1  0.3166324E-008  0.1044260E+04  0.7818608E-02  0.9261290E-01
          2   -1    0    0  501    0  0.00000000000E+00  0.00000000000E+00  0.20852256570E+04  0.20852256570E+04  0.00000000000E+00 0. -1.
         -2   -1    0    0    0  501 -0.00000000000E+00 -0.00000000000E+00 -0.13010055731E+04  0.13010055731E+04  0.00000000000E+00 0.  1.
         23    2    1    2    0    0 -0.11910915259E+03 -0.97482589739E+03 -0.90738796797E+03  0.13402501960E+04  0.91897459936E+02 0.  0.
    5000000    2    1    2    0    0  0.11910915259E+03  0.97482589739E+03  0.16916080519E+04  0.20459810340E+04  0.60002339102E+03 0.  0.
         23    2    4    4    0    0 -0.11098314115E+03  0.13602686070E+02  0.13012954648E+03  0.19578955683E+03  0.94326883802E+02 0.  0.
         23    2    4    4    0    0  0.23009229374E+03  0.96122321132E+03  0.15614785054E+04  0.18501914772E+04  0.90004742572E+02 0.  0.
          2    1    3    3  502    0 -0.39062596406E+02 -0.24107263144E+03 -0.17499039477E+03  0.30043890948E+03  0.00000000000E+00 0. -1.
         -2    1    3    3    0  502 -0.80046556184E+02 -0.73375326595E+03 -0.73239757320E+03  0.10398112866E+04  0.00000000000E+00 0.  1.
         13    1    5    5    0    0 -0.73069117131E+02 -0.53067724587E+01  0.13453910706E+03  0.15319278390E+03  0.00000000000E+00 0. -1.
        -13    1    5    5    0    0 -0.37914024020E+02  0.18909458529E+02 -0.44095605753E+01  0.42596772926E+02  0.00000000000E+00 0.  1.
          5    1    6    6  503    0  0.51868168519E+02  0.35065241608E+03  0.61454591401E+03  0.70946190471E+03  0.47000000000E+01 0. -1.
         -5    1    6    6    0  503  0.17822412522E+03  0.61057079523E+03  0.94693259140E+03  0.11407295725E+04  0.47000000000E+01 0.  1.
<mgrwt>
<rscale>  0 0.10442600E+04</rscale>
<asrwt>0</asrwt>
<pdfrwt beam="1">  1        2 0.32080395E+00 0.10442600E+04</pdfrwt>
<pdfrwt beam="2">  1       -2 0.20015470E+00 0.10442600E+04</pdfrwt>
<totfact> 0.78908081E-01</totfact>
</mgrwt>
</event>
<event>
12    1  0.3166324E-008  0.3622029E+03  0.7818608E-02  0.1057715E+00
          2   -1    0    0  501    0  0.00000000000E+00  0.00000000000E+00  0.70167643185E+03  0.70167643185E+03  0.00000000000E+00 0. -1.
         -2   -1    0    0    0  501 -0.00000000000E+00 -0.00000000000E+00 -0.22106244767E+03  0.22106244767E+03  0.00000000000E+00 0.  1.
         23    2    1    2    0    0  0.89796733590E+02  0.10452995514E+03  0.15329386588E+03  0.22548226824E+03  0.91396275031E+02 0.  0.
    5000000    2    1    2    0    0 -0.89796733590E+02 -0.10452995514E+03  0.32732011830E+03  0.69725661127E+03  0.60003196351E+03 0.  0.
         23    2    4    4    0    0  0.15253099739E+03  0.15422434501E+03  0.58325450182E+02  0.24271770403E+03  0.91973756870E+02 0.  0.
         23    2    4    4    0    0 -0.24232773098E+03 -0.25875430015E+03  0.26899466811E+03  0.45453890725E+03  0.92579531665E+02 0.  0.
          1    1    3    3  502    0  0.11437875886E+01  0.17944390681E+02  0.78949224709E+02  0.80970917552E+02  0.00000000000E+00 0. -1.
         -1    1    3    3    0  502  0.88652946001E+02  0.86585564459E+02  0.74344641175E+02  0.14451135069E+03  0.00000000000E+00 0.  1.
         11    1    5    5    0    0  0.36696005683E+02  0.85028917951E+02  0.55077513567E+02  0.10774992446E+03  0.00000000000E+00 0.  1.
        -11    1    5    5    0    0  0.11583499170E+03  0.69195427055E+02  0.32479366156E+01  0.13496777956E+03  0.00000000000E+00 0. -1.
          5    1    6    6  503    0 -0.13998710566E+03 -0.16039787781E+03  0.21498349892E+03  0.30259521438E+03  0.47000000000E+01 0.  1.
         -5    1    6    6    0  503 -0.10234062531E+03 -0.98356422334E+02  0.54011169192E+02  0.15194369286E+03  0.47000000000E+01 0. -1.
<mgrwt>
<rscale>  0 0.36220292E+03</rscale>
<asrwt>0</asrwt>
<pdfrwt beam="1">  1        2 0.10795022E+00 0.36220292E+03</pdfrwt>
<pdfrwt beam="2">  1       -2 0.34009608E-01 0.36220292E+03</pdfrwt>
<totfact> 0.33924876E+02</totfact>
</mgrwt>
</event>
<event>
12    1  0.3166324E-008  0.8788234E+03  0.7818608E-02  0.9452447E-01
          2   -1    0    0  501    0  0.00000000000E+00  0.00000000000E+00  0.32978027246E+04  0.32978027246E+04  0.00000000000E+00 0. -1.
         -2   -1    0    0    0  501 -0.00000000000E+00 -0.00000000000E+00 -0.45352722283E+03  0.45352722283E+03  0.00000000000E+00 0.  1.
         23    2    1    2    0    0  0.60200315848E+03  0.50149490406E+03  0.26241684232E+04  0.27402221685E+04  0.93019770397E+02 0.  0.
    5000000    2    1    2    0    0 -0.60200315848E+03 -0.50149490406E+03  0.22010707860E+03  0.10111077790E+04  0.59998906079E+03 0.  0.
         23    2    4    4    0    0 -0.51218746737E+02 -0.39457493784E+03  0.16279133829E+03  0.43985066767E+03  0.93031437914E+02 0.  0.
         23    2    4    4    0    0 -0.55078441175E+03 -0.10691996622E+03  0.57315740310E+02  0.57125711132E+03  0.90852879682E+02 0.  0.
          2    1    3    3  502    0  0.40400187443E+03  0.38054514995E+03  0.19367001077E+04  0.20146561575E+04  0.00000000000E+00 0. -1.
         -2    1    3    3    0  502  0.19800128405E+03  0.12094975411E+03  0.68746831547E+03  0.72556601098E+03  0.00000000000E+00 0.  1.
         11    1    5    5    0    0 -0.31209723437E+02 -0.51444010400E+02  0.15380146120E+01  0.60190518622E+02  0.00000000000E+00 0.  1.
        -11    1    5    5    0    0 -0.20009023301E+02 -0.34313092744E+03  0.16125332368E+03  0.37966014905E+03  0.00000000000E+00 0. -1.
          5    1    6    6  503    0 -0.10305190707E+03  0.10909074563E+02 -0.62008512272E+01  0.10391941115E+03  0.47000000000E+01 0. -1.
         -5    1    6    6    0  503 -0.44773250468E+03 -0.11782904079E+03  0.63516591538E+02  0.46733770017E+03  0.47000000000E+01 0.  1.
<mgrwt>
<rscale>  0 0.87882339E+03</rscale>
<asrwt>0</asrwt>
<pdfrwt beam="1">  1        2 0.50735425E+00 0.87882339E+03</pdfrwt>
<pdfrwt beam="2">  1       -2 0.69773421E-01 0.87882339E+03</pdfrwt>
<totfact> 0.22000418E+00</totfact>
</mgrwt>
</event>
<event>
12    1  0.3166324E-008  0.1551971E+04  0.7818608E-02  0.8850609E-01
         -3   -1    0    0    0  501 -0.00000000000E+00  0.00000000000E+00  0.15728548154E+04  0.15728548154E+04  0.00000000000E+00 0.  1.
          3   -1    0    0  501    0  0.00000000000E+00 -0.00000000000E+00 -0.23193350781E+04  0.23193350781E+04  0.00000000000E+00 0. -1.
         23    2    1    2    0    0 -0.14677324697E+04  0.39573786712E+03 -0.14581195976E+04  0.21096916050E+04  0.11763862121E+03 0.  0.
    5000000    2    1    2    0    0  0.14677324697E+04 -0.39573786712E+03  0.71163933493E+03  0.17824982884E+04  0.60001878567E+03 0.  0.
         23    2    4    4    0    0  0.12817660275E+04 -0.47481645779E+03  0.45548168744E+03  0.14439165436E+04  0.95166167405E+02 0.  0.
         23    2    4    4    0    0  0.18596644225E+03  0.79078590670E+02  0.25615764749E+03  0.33858174489E+03  0.90465001277E+02 0.  0.
          1    1    3    3  502    0 -0.82663230495E+03  0.25840535258E+03 -0.76433354236E+03  0.11551190665E+04  0.00000000000E+00 0. -1.
         -1    1    3    3    0  502 -0.64110016477E+03  0.13733251454E+03 -0.69378605527E+03  0.95457253852E+03  0.00000000000E+00 0.  1.
         13    1    5    5    0    0  0.32336807826E+03 -0.97339082920E+02  0.15000931415E+03  0.36951942498E+03  0.00000000000E+00 0.  1.
        -13    1    5    5    0    0  0.95839794921E+03 -0.37747737487E+03  0.30547237328E+03  0.10743971186E+04  0.00000000000E+00 0. -1.
          5    1    6    6  503    0  0.50532629885E+02 -0.10751131943E+02  0.29614194202E+02  0.59734613244E+02  0.47000000000E+01 0. -1.
         -5    1    6    6    0  503  0.13543381236E+03  0.89829722613E+02  0.22654345329E+03  0.27884713164E+03  0.47000000000E+01 0. -1.
<mgrwt>
<rscale>  0 0.15519715E+04</rscale>
<asrwt>0</asrwt>
<pdfrwt beam="1">  1        3 0.35682078E+00 0.15519715E+04</pdfrwt>
<pdfrwt beam="2">  1       -3 0.24197766E+00 0.15519715E+04</pdfrwt>
<totfact> 0.36613882E-03</totfact>
</mgrwt>
</event>
<event>
12    1  0.3166324E-008  0.6633052E+03  0.7818608E-02  0.9782128E-01
          1   -1    0    0  501    0  0.00000000000E+00  0.00000000000E+00  0.24230586513E+04  0.24230586513E+04  0.00000000000E+00 0. -1.
         -1   -1    0    0    0  501 -0.00000000000E+00 -0.00000000000E+00 -0.20635229137E+03  0.20635229137E+03  0.00000000000E+00 0.  1.
         23    2    1    2    0    0 -0.83677477216E+02 -0.53699584082E+03  0.12665921273E+04  0.13811998027E+04  0.89949011438E+02 0.  0.
    5000000    2    1    2    0    0  0.83677477216E+02  0.53699584082E+03  0.95011423262E+03  0.12482111400E+04  0.59995628324E+03 0.  0.
         23    2    4    4    0    0  0.28779590071E+03  0.12404144984E+03  0.50078839851E+03  0.59818035700E+03  0.93903981162E+02 0.  0.
         23    2    4    4    0    0 -0.20411842349E+03  0.41295439098E+03  0.44932583411E+03  0.65003078301E+03  0.91927437889E+02 0.  0.
          3    1    3    3  502    0 -0.42370715385E+02 -0.20520352987E+03  0.59838243619E+03  0.63400733918E+03  0.00000000000E+00 0. -1.
         -3    1    3    3    0  502 -0.41306761832E+02 -0.33179231095E+03  0.66820969114E+03  0.74719246350E+03  0.00000000000E+00 0.  1.
         11    1    5    5    0    0  0.23727146091E+02  0.66486185348E+01  0.62906345922E+01  0.25431352178E+02  0.00000000000E+00 0. -1.
        -11    1    5    5    0    0  0.26406875462E+03  0.11739283130E+03  0.49449776392E+03  0.57274900482E+03  0.00000000000E+00 0.  1.
          5    1    6    6  503    0 -0.65806315853E+02  0.57003947086E+02  0.97033848038E+02  0.13045144252E+03  0.47000000000E+01 0. -1.
         -5    1    6    6    0  503 -0.13831210764E+03  0.35595044389E+03  0.35229198607E+03  0.51957934050E+03  0.47000000000E+01 0.  1.
<mgrwt>
<rscale>  0 0.66330523E+03</rscale>
<asrwt>0</asrwt>
<pdfrwt beam="1">  1        1 0.37277823E+00 0.66330523E+03</pdfrwt>
<pdfrwt beam="2">  1       -1 0.31746508E-01 0.66330523E+03</pdfrwt>
<totfact> 0.15047535E+01</totfact>
</mgrwt>
</event>
<event>
12    1  0.3166324E-008  0.7497359E+03  0.7818608E-02  0.9635765E-01
          2   -1    0    0  501    0  0.00000000000E+00  0.00000000000E+00  0.11419682749E+04  0.11419682749E+04  0.00000000000E+00 0. -1.
         -2   -1    0    0    0  501 -0.00000000000E+00 -0.00000000000E+00 -0.60875698715E+03  0.60875698715E+03  0.00000000000E+00 0.  1.
         23    2    1    2    0    0  0.70464362947E+03 -0.65204695291E+02  0.80760206943E+02  0.71848819289E+03  0.94492197883E+02 0.  0.
    5000000    2    1    2    0    0 -0.70464362947E+03  0.65204695291E+02  0.45245108078E+03  0.10322370691E+04  0.60002257421E+03 0.  0.
         23    2    4    4    0    0 -0.30888974053E+03  0.18842276242E+03  0.47826464219E+03  0.60649994995E+03  0.90493713170E+02 0.  0.
         23    2    4    4    0    0 -0.39575388894E+03 -0.12321806712E+03 -0.25813561408E+02  0.42573711919E+03  0.93711909724E+02 0.  0.
          1    1    3    3  502    0  0.50225888002E+03 -0.26775748384E+02  0.95509534973E+02  0.51195995403E+03  0.00000000000E+00 0. -1.
         -1    1    3    3    0  502  0.20238474945E+03 -0.38428946907E+02 -0.14749328029E+02  0.20652823886E+03  0.00000000000E+00 0.  1.
         11    1    5    5    0    0 -0.15775661272E+03  0.51591003642E+02  0.17611857533E+03  0.24200523360E+03  0.00000000000E+00 0.  1.
        -11    1    5    5    0    0 -0.15113312781E+03  0.13683175877E+03  0.30214606686E+03  0.36449471635E+03  0.00000000000E+00 0. -1.
          5    1    6    6  503    0 -0.23582019534E+03 -0.10953809530E+03 -0.45284613053E+02  0.26397451587E+03  0.47000000000E+01 0. -1.
         -5    1    6    6    0  503 -0.15993369360E+03 -0.13679971821E+02  0.19471051645E+02  0.16176260331E+03  0.47000000000E+01 0.  1.
<mgrwt>
<rscale>  0 0.74973592E+03</rscale>
<asrwt>0</asrwt>
<pdfrwt beam="1">  1        2 0.17568743E+00 0.74973592E+03</pdfrwt>
<pdfrwt beam="2">  1       -2 0.93654921E-01 0.74973592E+03</pdfrwt>
<totfact> 0.20146530E+01</totfact>
</mgrwt>
</event>
<event>
12    1  0.3166324E-008  0.1063496E+04  0.7818608E-02  0.9241520E-01
         -1   -1    0    0    0  501 -0.00000000000E+00  0.00000000000E+00  0.14072764306E+04  0.14072764306E+04  0.00000000000E+00 0.  1.
          1   -1    0    0  501    0  0.00000000000E+00 -0.00000000000E+00 -0.17399112247E+04  0.17399112247E+04  0.00000000000E+00 0. -1.
         23    2    1    2    0    0 -0.98590195833E+03  0.76694079772E+02  0.98168021303E+03  0.13963550771E+04  0.90701749634E+02 0.  0.
    5000000    2    1    2    0    0  0.98590195833E+03 -0.76694079772E+02 -0.13143150072E+04  0.17508325782E+04  0.60008843133E+03 0.  0.
         23    2    4    4    0    0  0.10194012842E+04  0.14028515162E+02 -0.11708259898E+04  0.15552715779E+04  0.93061297123E+02 0.  0.
         23    2    4    4    0    0 -0.33499325855E+02 -0.90722594934E+02 -0.14348901740E+03  0.19556100036E+03  0.91116478648E+02 0.  0.
          4    1    3    3  502    0 -0.37279185426E+03  0.11365144719E+02  0.31418705263E+03  0.48766426684E+03  0.00000000000E+00 0.  1.
         -4    1    3    3    0  502 -0.61311010407E+03  0.65328935053E+02  0.66749316040E+03  0.90869081026E+03  0.00000000000E+00 0. -1.
         13    1    5    5    0    0  0.66349604918E+03 -0.24232659944E+02 -0.71557426928E+03  0.97614587227E+03  0.00000000000E+00 0.  1.
        -13    1    5    5    0    0  0.35590523500E+03  0.38261175106E+02 -0.45525172053E+03  0.57912570559E+03  0.00000000000E+00 0. -1.
          5    1    6    6  503    0 -0.49984555879E+02 -0.47750335641E+02 -0.35012967572E+02  0.77630846179E+02  0.47000000000E+01 0. -1.
         -5    1    6    6    0  503  0.16485230024E+02 -0.42972259293E+02 -0.10847604983E+03  0.11793015418E+03  0.47000000000E+01 0.  1.
<mgrwt>
<rscale>  0 0.10634960E+04</rscale>
<asrwt>0</asrwt>
<pdfrwt beam="1">  1        1 0.26767865E+00 0.10634960E+04</pdfrwt>
<pdfrwt beam="2">  1       -1 0.21650407E+00 0.10634960E+04</pdfrwt>
<totfact> 0.52017163E-01</totfact>
</mgrwt>
</event>
<event>
12    1  0.3166324E-008  0.1395753E+04  0.7818608E-02  0.8956898E-01
         -1   -1    0    0    0  501 -0.00000000000E+00  0.00000000000E+00  0.21897541990E+04  0.21897541990E+04  0.00000000000E+00 0.  1.
          1   -1    0    0  501    0  0.00000000000E+00 -0.00000000000E+00 -0.94693122934E+03  0.94693122934E+03  0.00000000000E+00 0. -1.
         23    2    1    2    0    0 -0.81013000557E+03  0.11120886436E+04  0.57780345660E+03  0.14950518548E+04  0.90947441168E+02 0.  0.
    5000000    2    1    2    0    0  0.81013000557E+03 -0.11120886436E+04  0.66501951307E+03  0.16416335735E+04  0.59971498216E+03 0.  0.
         23    2    4    4    0    0  0.78865027786E+03 -0.95793365008E+03  0.36955085257E+03  0.12977611021E+04  0.89498082408E+02 0.  0.
         23    2    4    4    0    0  0.21479727702E+02 -0.15415499351E+03  0.29546866050E+03  0.34387247142E+03  0.81984184683E+02 0.  0.
          3    1    3    3  502    0 -0.27288936871E+03  0.36892681093E+03  0.14676039986E+03  0.48178233088E+03  0.00000000000E+00 0. -1.
         -3    1    3    3    0  502 -0.53724063686E+03  0.74316183266E+03  0.43104305674E+03  0.10132695240E+04  0.00000000000E+00 0.  1.
         13    1    5    5    0    0  0.43623623290E+03 -0.56601952027E+03  0.25201687968E+03  0.75775501045E+03  0.00000000000E+00 0.  1.
        -13    1    5    5    0    0  0.35241404497E+03 -0.39191412981E+03  0.11753397289E+03  0.54000609165E+03  0.00000000000E+00 0. -1.
          5    1    6    6  503    0 -0.87639742763E+01  0.55000892229E+01  0.90138826405E+01  0.14505113127E+02  0.47000000000E+01 0. -1.
         -5    1    6    6    0  503  0.30243701978E+02 -0.15965508273E+03  0.28645477786E+03  0.32936735830E+03  0.47000000000E+01 0.  1.
<mgrwt>
<rscale>  0 0.13957531E+04</rscale>
<asrwt>0</asrwt>
<pdfrwt beam="1">  1        1 0.14568173E+00 0.13957531E+04</pdfrwt>
<pdfrwt beam="2">  1       -1 0.33688526E+00 0.13957531E+04</pdfrwt>
<totfact> 0.30493091E-01</totfact>
</mgrwt>
</event>
<event>
12    1  0.3166324E-008  0.6737830E+03  0.7818608E-02  0.9763148E-01
          1   -1    0    0  501    0  0.00000000000E+00  0.00000000000E+00  0.13951875416E+04  0.13951875416E+04  0.00000000000E+00 0. -1.
         -1   -1    0    0    0  501 -0.00000000000E+00 -0.00000000000E+00 -0.63885282564E+03  0.63885282564E+03  0.00000000000E+00 0.  1.
         23    2    1    2    0    0  0.55432219484E+03 -0.57224896772E+02  0.10268511795E+04  0.11716592437E+04  0.88398268924E+02 0.  0.
    5000000    2    1    2    0    0 -0.55432219484E+03  0.57224896772E+02 -0.27051646356E+03  0.86238112354E+03  0.59997855018E+03 0.  0.
         23    2    4    4    0    0 -0.17474435077E+02 -0.18286930497E+03 -0.15314870721E+03  0.25588004985E+03  0.90958973213E+02 0.  0.
         23    2    4    4    0    0 -0.53684775977E+03  0.24009420174E+03 -0.11736775634E+03  0.60650107369E+03  0.90651085419E+02 0.  0.
          1    1    3    3  502    0  0.44995091689E+03 -0.13962537964E+02  0.79052695209E+03  0.90971624260E+03  0.00000000000E+00 0. -1.
         -1    1    3    3    0  502  0.10437127796E+03 -0.43262358808E+02  0.23632422738E+03  0.26194300105E+03  0.00000000000E+00 0.  1.
         11    1    5    5    0    0 -0.23449103910E+02 -0.34885460256E+02  0.10887573937E+01  0.42048082050E+02  0.00000000000E+00 0. -1.
        -11    1    5    5    0    0  0.59746688333E+01 -0.14798384471E+03 -0.15423746461E+03  0.21383196780E+03  0.00000000000E+00 0.  1.
          5    1    6    6  503    0 -0.21968960451E+03  0.53086485251E+02 -0.29817250390E+02  0.22801941950E+03  0.47000000000E+01 0. -1.
         -5    1    6    6    0  503 -0.31715815525E+03  0.18700771649E+03 -0.87550505954E+02  0.37848165420E+03  0.47000000000E+01 0.  1.
<mgrwt>
<rscale>  0 0.67378299E+03</rscale>
<asrwt>0</asrwt>
<pdfrwt beam="1">  1        1 0.21464424E+00 0.67378299E+03</pdfrwt>
<pdfrwt beam="2">  1       -1 0.98285051E-01 0.67378299E+03</pdfrwt>
<totfact> 0.80690120E+00</totfact>
</mgrwt>
</event>
<event>
12    1  0.3166324E-008  0.1137889E+04  0.7818608E-02  0.9169029E-01
         -2   -1    0    0    0  501 -0.00000000000E+00  0.00000000000E+00  0.13947349311E+04  0.13947349311E+04  0.00000000000E+00 0.  1.
          2   -1    0    0  501    0  0.00000000000E+00 -0.00000000000E+00 -0.17348346242E+04  0.17348346242E+04  0.00000000000E+00 0. -1.
         23    2    1    2    0    0  0.40102533154E+03 -0.10537948774E+04 -0.11533432645E+04  0.16154342637E+04  0.90123327936E+02 0.  0.
    5000000    2    1    2    0    0 -0.40102533154E+03  0.10537948774E+04  0.81324357138E+03  0.15141352916E+04  0.59994634324E+03 0.  0.
         23    2    4    4    0    0 -0.17054043511E+03  0.72573706662E+03  0.20099324351E+03  0.77739389694E+03  0.90358492613E+02 0.  0.
         23    2    4    4    0    0 -0.23048489643E+03  0.32805781078E+03  0.61225032786E+03  0.73674139468E+03  0.84806862762E+02 0.  0.
          3    1    3    3  502    0  0.33735540519E+02 -0.14635252934E+03 -0.12243825078E+03  0.19377377219E+03  0.00000000000E+00 0. -1.
         -3    1    3    3    0  502  0.36728979102E+03 -0.90744234807E+03 -0.10309050137E+04  0.14216604915E+04  0.00000000000E+00 0.  1.
         13    1    5    5    0    0 -0.77804795832E+02  0.30747090165E+03  0.39800328084E+02  0.31964982048E+03  0.00000000000E+00 0.  1.
        -13    1    5    5    0    0 -0.92735639283E+02  0.41826616497E+03  0.16119291543E+03  0.45774407646E+03  0.00000000000E+00 0. -1.
          5    1    6    6  503    0 -0.12262022941E+03  0.17251865157E+03  0.24685816143E+03  0.32520677678E+03  0.47000000000E+01 0. -1.
         -5    1    6    6    0  503 -0.10786466702E+03  0.15553915921E+03  0.36539216643E+03  0.41153461790E+03  0.47000000000E+01 0.  1.
<mgrwt>
<rscale>  0 0.11378894E+04</rscale>
<asrwt>0</asrwt>
<pdfrwt beam="1">  1        2 0.26689763E+00 0.11378894E+04</pdfrwt>
<pdfrwt beam="2">  1       -2 0.21457460E+00 0.11378894E+04</pdfrwt>
<totfact> 0.98159026E-01</totfact>
</mgrwt>
</event>
<event>
12    1  0.3166324E-008  0.2971633E+03  0.7818608E-02  0.1086667E+00
         -1   -1    0    0    0  501 -0.00000000000E+00  0.00000000000E+00  0.46626630075E+03  0.46626630075E+03  0.00000000000E+00 0.  1.
          1   -1    0    0  501    0  0.00000000000E+00 -0.00000000000E+00 -0.36133714970E+03  0.36133714970E+03  0.00000000000E+00 0. -1.
         23    2    1    2    0    0  0.15084519905E+03 -0.85467979720E+02  0.24178358529E+02  0.19770651731E+03  0.91892460674E+02 0.  0.
    5000000    2    1    2    0    0 -0.15084519905E+03  0.85467979720E+02  0.80750792525E+02  0.62989693315E+03  0.60015865091E+03 0.  0.
         23    2    4    4    0    0  0.11035850211E+03  0.41731658800E+02  0.25984022400E+03  0.30002651496E+03  0.92619853916E+02 0.  0.
         23    2    4    4    0    0 -0.26120370117E+03  0.43736320920E+02 -0.17908943147E+03  0.32987041819E+03  0.81247948029E+02 0.  0.
          1    1    3    3  502    0  0.33666092473E+02 -0.17101960059E+01 -0.28698963916E+02  0.44271447713E+02  0.00000000000E+00 0. -1.
         -1    1    3    3    0  502  0.11717910658E+03 -0.83757783714E+02  0.52877322445E+02  0.15343506959E+03  0.00000000000E+00 0.  1.
         13    1    5    5    0    0  0.16642169627E+02 -0.28234055786E+02  0.64585254293E+02  0.72424987318E+02  0.00000000000E+00 0.  1.
        -13    1    5    5    0    0  0.93716332486E+02  0.69965714586E+02  0.19525496970E+03  0.22760152765E+03  0.00000000000E+00 0. -1.
          5    1    6    6  503    0 -0.22614889316E+03  0.27252016732E+02 -0.11593797922E+03  0.25563587252E+03  0.47000000000E+01 0. -1.
         -5    1    6    6    0  503 -0.35054808008E+02  0.16484304187E+02 -0.63151452251E+02  0.74234545667E+02  0.47000000000E+01 0.  1.
<mgrwt>
<rscale>  0 0.29716333E+03</rscale>
<asrwt>0</asrwt>
<pdfrwt beam="1">  1        1 0.55590331E-01 0.29716333E+03</pdfrwt>
<pdfrwt beam="2">  1       -1 0.71733277E-01 0.29716333E+03</pdfrwt>
<totfact> 0.14191016E+02</totfact>
</mgrwt>
</event>
<event>
12    1  0.3166324E-008  0.5316348E+03  0.7818608E-02  0.1005836E+00
          2   -1    0    0  501    0  0.00000000000E+00  0.00000000000E+00  0.28287151448E+04  0.28287151448E+04  0.00000000000E+00 0. -1.
         -2   -1    0    0    0  501 -0.00000000000E+00 -0.00000000000E+00 -0.11316561491E+03  0.11316561491E+03  0.00000000000E+00 0.  1.
         23    2    1    2    0    0 -0.26120238051E+03  0.27322451573E+03  0.64254601645E+03  0.75096022095E+03  0.90540325960E+02 0.  0.
    5000000    2    1    2    0    0  0.26120238051E+03 -0.27322451573E+03  0.20730035134E+04  0.21909205387E+04  0.59992576274E+03 0.  0.
         23    2    4    4    0    0  0.36772111484E+03  0.14043653544E+02  0.12984820100E+04  0.13529965959E+04  0.95541696131E+02 0.  0.
         23    2    4    4    0    0 -0.10651873434E+03 -0.28726816927E+03  0.77452150339E+03  0.83792394281E+03  0.91453446492E+02 0.  0.
          3    1    3    3  502    0 -0.23673291320E+03  0.24500581828E+03  0.61970115116E+03  0.70717737516E+03  0.00000000000E+00 0. -1.
         -3    1    3    3    0  502 -0.24469467307E+02  0.28218697451E+02  0.22844865284E+02  0.43782845796E+02  0.00000000000E+00 0.  1.
         13    1    5    5    0    0  0.10580218064E+03  0.42983272732E+02  0.32502486384E+03  0.34450373768E+03  0.00000000000E+00 0.  1.
        -13    1    5    5    0    0  0.26191893421E+03 -0.28939619188E+02  0.97345714620E+03  0.10084928582E+04  0.00000000000E+00 0. -1.
          5    1    6    6  503    0 -0.53952563261E+02 -0.17994378345E+03  0.35475682757E+03  0.40145378438E+03  0.47000000000E+01 0. -1.
         -5    1    6    6    0  503 -0.52566171076E+02 -0.10732438583E+03  0.41976467582E+03  0.43647015843E+03  0.47000000000E+01 0.  1.
<mgrwt>
<rscale>  0 0.53163484E+03</rscale>
<asrwt>0</asrwt>
<pdfrwt beam="1">  1        2 0.43518689E+00 0.53163484E+03</pdfrwt>
<pdfrwt beam="2">  1       -2 0.17410097E-01 0.53163484E+03</pdfrwt>
<totfact> 0.65581325E+01</totfact>
</mgrwt>
</event>
<event>
12    1  0.3166324E-008  0.1085999E+04  0.7818608E-02  0.9218947E-01
          1   -1    0    0  501    0  0.00000000000E+00  0.00000000000E+00  0.24194096656E+04  0.24194096656E+04  0.00000000000E+00 0. -1.
         -1   -1    0    0    0  501 -0.00000000000E+00 -0.00000000000E+00 -0.53859988235E+03  0.53859988235E+03  0.00000000000E+00 0.  1.
         23    2    1    2    0    0  0.62722014579E+03 -0.78733857894E+03  0.13097646093E+04  0.16543679148E+04  0.90237003023E+02 0.  0.
    5000000    2    1    2    0    0 -0.62722014579E+03  0.78733857894E+03  0.57104517394E+03  0.13036416331E+04  0.60006813587E+03 0.  0.
         23    2    4    4    0    0  0.12629407654E+02  0.41726391520E+03  0.20547103016E+03  0.47392003805E+03  0.90073200050E+02 0.  0.
         23    2    4    4    0    0 -0.63984955345E+03  0.37007466374E+03  0.36557414378E+03  0.82972159504E+03  0.91819185848E+02 0.  0.
          2    1    3    3  502    0  0.15772295396E+02 -0.51735089398E+02  0.67003665585E+02  0.86109093474E+02  0.00000000000E+00 0. -1.
         -2    1    3    3    0  502  0.61144785040E+03 -0.73560348954E+03  0.12427609437E+04  0.15682588214E+04  0.00000000000E+00 0.  1.
         13    1    5    5    0    0 -0.10502036024E+02  0.13659058437E+03  0.24515096136E+02  0.13916993367E+03  0.00000000000E+00 0.  1.
        -13    1    5    5    0    0  0.23131443678E+02  0.28067333083E+03  0.18095593402E+03  0.33475010439E+03  0.00000000000E+00 0. -1.
          5    1    6    6  503    0 -0.46685942786E+03  0.30592693768E+03  0.24729636283E+03  0.61051338859E+03  0.47000000000E+01 0.  1.
         -5    1    6    6    0  503 -0.17299012559E+03  0.64147726059E+02  0.11827778094E+03  0.21920820645E+03  0.47000000000E+01 0. -1.
<mgrwt>
<rscale>  0 0.10859985E+04</rscale>
<asrwt>0</asrwt>
<pdfrwt beam="1">  1        1 0.37221687E+00 0.10859985E+04</pdfrwt>
<pdfrwt beam="2">  1       -1 0.82861522E-01 0.10859985E+04</pdfrwt>
<totfact> 0.22404393E+00</totfact>
</mgrwt>
</event>
<event>
12    1  0.3166324E-008  0.6572628E+03  0.7818608E-02  0.9793246E-01
          1   -1    0    0  501    0  0.00000000000E+00  0.00000000000E+00  0.35956657408E+03  0.35956657408E+03  0.00000000000E+00 0. -1.
         -1   -1    0    0    0  501 -0.00000000000E+00 -0.00000000000E+00 -0.14910969385E+04  0.14910969385E+04  0.00000000000E+00 0.  1.
         23    2    1    2    0    0 -0.48489034971E+03  0.30639978768E+03 -0.22825032515E+03  0.62393897296E+03  0.90565721522E+02 0.  0.
    5000000    2    1    2    0    0  0.48489034971E+03 -0.30639978768E+03 -0.90328003925E+03  0.12267245396E+04  0.59994898583E+03 0.  0.
         23    2    4    4    0    0  0.13633110981E+03 -0.35075274449E+03 -0.20068084194E+03  0.43582052402E+03  0.89738896610E+02 0.  0.
         23    2    4    4    0    0  0.34855923989E+03  0.44352956809E+02 -0.70259919731E+03  0.79090401557E+03  0.91775820847E+02 0.  0.
          1    1    3    3  502    0 -0.11767969927E+03  0.11989092899E+03 -0.81443180921E+02  0.18669584407E+03  0.00000000000E+00 0. -1.
         -1    1    3    3    0  502 -0.36721065043E+03  0.18650885870E+03 -0.14680714423E+03  0.43724312889E+03  0.00000000000E+00 0.  1.
         13    1    5    5    0    0  0.10044168910E+03 -0.29351953263E+03 -0.19836305359E+03  0.36822567805E+03  0.00000000000E+00 0. -1.
        -13    1    5    5    0    0  0.35889420717E+02 -0.57233211860E+02 -0.23177883499E+01  0.67594845972E+02  0.00000000000E+00 0.  1.
          5    1    6    6  503    0  0.20799908919E+03 -0.42203400270E+01 -0.33547970119E+03  0.39477861174E+03  0.47000000000E+01 0. -1.
         -5    1    6    6    0  503  0.14056015070E+03  0.48573296836E+02 -0.36711949612E+03  0.39612540383E+03  0.47000000000E+01 0.  1.
<mgrwt>
<rscale>  0 0.65726284E+03</rscale>
<asrwt>0</asrwt>
<pdfrwt beam="1">  1        1 0.55317934E-01 0.65726284E+03</pdfrwt>
<pdfrwt beam="2">  1       -1 0.22939953E+00 0.65726284E+03</pdfrwt>
<totfact> 0.69092747E+00</totfact>
</mgrwt>
</event>
<event>
12    1  0.3166324E-008  0.1197194E+04  0.7818608E-02  0.9115316E-01
         -2   -1    0    0    0  501 -0.00000000000E+00  0.00000000000E+00  0.16466321887E+04  0.16466321887E+04  0.00000000000E+00 0.  1.
          2   -1    0    0  501    0  0.00000000000E+00 -0.00000000000E+00 -0.14321000577E+04  0.14321000577E+04  0.00000000000E+00 0. -1.
         23    2    1    2    0    0  0.95271911203E+03  0.64203997292E+03 -0.82480253236E+03  0.14173705904E+04  0.93547526789E+02 0.  0.
    5000000    2    1    2    0    0 -0.95271911203E+03 -0.64203997292E+03  0.10393346634E+04  0.16613616560E+04  0.60001414670E+03 0.  0.
         23    2    4    4    0    0  0.18693414145E+02 -0.48234685784E+02 -0.16509962106E+02  0.10586109895E+03  0.90873344697E+02 0.  0.
         23    2    4    4    0    0 -0.97141252618E+03 -0.59380528713E+03  0.10558446255E+04  0.15555005571E+04  0.92342269584E+02 0.  0.
          3    1    3    3  502    0  0.22681042130E+03  0.19826526454E+03 -0.23605766429E+03  0.38272092078E+03  0.00000000000E+00 0. -1.
         -3    1    3    3    0  502  0.72590869073E+03  0.44377470837E+03 -0.58874486807E+03  0.10346496696E+04  0.00000000000E+00 0.  1.
         13    1    5    5    0    0  0.87472226759E+00 -0.72979680625E+02 -0.18532689521E+02  0.75301125516E+02  0.00000000000E+00 0. -1.
        -13    1    5    5    0    0  0.17818691877E+02  0.24744994840E+02  0.20227274154E+01  0.30559973430E+02  0.00000000000E+00 0.  1.
          5    1    6    6  503    0 -0.78329126028E+03 -0.48990330534E+03  0.90173255935E+03  0.12910050912E+04  0.47000000000E+01 0. -1.
         -5    1    6    6    0  503 -0.18812126590E+03 -0.10390198179E+03  0.15411206617E+03  0.26449546582E+03  0.47000000000E+01 0.  1.
<mgrwt>
<rscale>  0 0.11971943E+04</rscale>
<asrwt>0</asrwt>
<pdfrwt beam="1">  1        2 0.22032309E+00 0.11971943E+04</pdfrwt>
<pdfrwt beam="2">  1       -2 0.25332803E+00 0.11971943E+04</pdfrwt>
<totfact> 0.82686932E-01</totfact>
</mgrwt>
</event>
<event>
12    1  0.3166324E-008  0.1103959E+04  0.7818608E-02  0.9201342E-01
         -2   -1    0    0    0  501 -0.00000000000E+00  0.00000000000E+00  0.59243423111E+03  0.59243423111E+03  0.00000000000E+00 0.  1.
          2   -1    0    0  501    0  0.00000000000E+00 -0.00000000000E+00 -0.23016754979E+04  0.23016754979E+04  0.00000000000E+00 0. -1.
         23    2    1    2    0    0 -0.79041214363E+03 -0.74826810544E+03 -0.82052949856E+03  0.13661463811E+04  0.91819181486E+02 0.  0.
    5000000    2    1    2    0    0  0.79041214363E+03  0.74826810544E+03 -0.88871176827E+03  0.15279633480E+04  0.60017236795E+03 0.  0.
         23    2    4    4    0    0  0.44447516356E+03  0.53979555033E+03 -0.86124291212E+03  0.11130912695E+04  0.91079159456E+02 0.  0.
         23    2    4    4    0    0  0.34593698007E+03  0.20847255511E+03 -0.27468856154E+02  0.41487207851E+03  0.90725426729E+02 0.  0.
          2    1    3    3  502    0 -0.41768001833E+03 -0.34064872258E+03 -0.43393222413E+03  0.69195037758E+03  0.00000000000E+00 0.  1.
         -2    1    3    3    0  502 -0.37273212531E+03 -0.40761938286E+03 -0.38659727443E+03  0.67419600349E+03  0.00000000000E+00 0. -1.
         11    1    5    5    0    0  0.24668891724E+03  0.23170606252E+03 -0.43652931123E+03  0.55235944897E+03  0.00000000000E+00 0. -1.
        -11    1    5    5    0    0  0.19778624633E+03  0.30808948781E+03 -0.42471360088E+03  0.56073182049E+03  0.00000000000E+00 0.  1.
          5    1    6    6  503    0  0.19113467094E+03  0.16129544166E+03  0.28508637766E+01  0.25015774896E+03  0.47000000000E+01 0. -1.
         -5    1    6    6    0  503  0.15480230913E+03  0.47177113445E+02 -0.30319719930E+02  0.16471432956E+03  0.47000000000E+01 0.  1.
<mgrwt>
<rscale>  0 0.11039590E+04</rscale>
<asrwt>0</asrwt>
<pdfrwt beam="1">  1        2 0.35410392E+00 0.11039590E+04</pdfrwt>
<pdfrwt beam="2">  1       -2 0.91143728E-01 0.11039590E+04</pdfrwt>
<totfact> 0.46108461E+00</totfact>
</mgrwt>
</event>
<event>
12    1  0.3166324E-008  0.3901146E+03  0.7818608E-02  0.1047257E+00
          1   -1    0    0  501    0  0.00000000000E+00  0.00000000000E+00  0.16449634118E+04  0.16449634118E+04  0.00000000000E+00 0. -1.
         -1   -1    0    0    0  501 -0.00000000000E+00 -0.00000000000E+00 -0.11472386168E+03  0.11472386168E+03  0.00000000000E+00 0.  1.
         23    2    1    2    0    0 -0.10010239418E+02 -0.20122289494E+03  0.26608118164E+03  0.34577100697E+03  0.90374419476E+02 0.  0.
    5000000    2    1    2    0    0  0.10010239418E+02  0.20122289494E+03  0.12641583685E+04  0.14139162665E+04  0.60039317929E+03 0.  0.
         23    2    4    4    0    0  0.25370843202E+03  0.50492486865E+02  0.30967029172E+03  0.41320174399E+03  0.89008606080E+02 0.  0.
         23    2    4    4    0    0 -0.24369819261E+03  0.15073040808E+03  0.95448807677E+03  0.10007145225E+04  0.90959341920E+02 0.  0.
          2    1    3    3  502    0 -0.49766150546E+02 -0.93026870931E+02  0.13053278011E+03  0.16783764518E+03  0.00000000000E+00 0. -1.
         -2    1    3    3    0  502  0.39755911127E+02 -0.10819602401E+03  0.13554840152E+03  0.17793336179E+03  0.00000000000E+00 0.  1.
         13    1    5    5    0    0  0.17499262902E+03  0.52807115737E+02  0.15508307484E+03  0.23971185157E+03  0.00000000000E+00 0.  1.
        -13    1    5    5    0    0  0.78715803006E+02 -0.23146288719E+01  0.15458721688E+03  0.17348989242E+03  0.00000000000E+00 0. -1.
          5    1    6    6  503    0 -0.97390088704E+02  0.10784106307E+03  0.53305779296E+03  0.55252803087E+03  0.47000000000E+01 0. -1.
         -5    1    6    6    0  503 -0.14630810390E+03  0.42889345003E+02  0.42143028381E+03  0.44818649165E+03  0.47000000000E+01 0.  1.
<mgrwt>
<rscale>  0 0.39011460E+03</rscale>
<asrwt>0</asrwt>
<pdfrwt beam="1">  1        1 0.25307128E+00 0.39011460E+03</pdfrwt>
<pdfrwt beam="2">  1       -1 0.17649826E-01 0.39011460E+03</pdfrwt>
<totfact> 0.13965794E+02</totfact>
</mgrwt>
</event>
<event>
12    1  0.3166324E-008  0.4258455E+03  0.7818608E-02  0.1035180E+00
          2   -1    0    0  501    0  0.00000000000E+00  0.00000000000E+00  0.37406014783E+03  0.37406014783E+03  0.00000000000E+00 0. -1.
         -2   -1    0    0    0  501 -0.00000000000E+00 -0.00000000000E+00 -0.72273724253E+03  0.72273724253E+03  0.00000000000E+00 0.  1.
         23    2    1    2    0    0  0.29573205338E+03  0.93924058950E+02 -0.26112403489E+03  0.41563476941E+03  0.91034738967E+02 0.  0.
    5000000    2    1    2    0    0 -0.29573205338E+03 -0.93924058950E+02 -0.87553059808E+02  0.68116262096E+03  0.60003150056E+03 0.  0.
         23    2    4    4    0    0 -0.37395831993E+03  0.15469680571E+02  0.13186021442E+03  0.40854126184E+03  0.97132437516E+02 0.  0.
         23    2    4    4    0    0  0.78226266549E+02 -0.10939373952E+03 -0.21941327423E+03  0.27262135912E+03  0.89966002008E+02 0.  0.
          1    1    3    3  502    0  0.19603350727E+03  0.26899215891E+02 -0.19801519648E+03  0.27993342391E+03  0.00000000000E+00 0. -1.
         -1    1    3    3    0  502  0.99698546109E+02  0.67024843059E+02 -0.63108838414E+02  0.13570134550E+03  0.00000000000E+00 0.  1.
         11    1    5    5    0    0 -0.35134839511E+03  0.28435607939E+02  0.14273554450E+03  0.38029950592E+03  0.00000000000E+00 0. -1.
        -11    1    5    5    0    0 -0.22609924817E+02 -0.12965927368E+02 -0.10875330075E+02  0.28241755912E+02  0.00000000000E+00 0.  1.
          5    1    6    6  503    0  0.70509741053E+02 -0.32636649945E+02 -0.14881970272E+03  0.16794692144E+03  0.47000000000E+01 0. -1.
         -5    1    6    6    0  503  0.77165254960E+01 -0.76757089576E+02 -0.70593571505E+02  0.10467443768E+03  0.47000000000E+01 0.  1.
<mgrwt>
<rscale>  0 0.42584551E+03</rscale>
<asrwt>0</asrwt>
<pdfrwt beam="1">  1        2 0.57547715E-01 0.42584551E+03</pdfrwt>
<pdfrwt beam="2">  1       -2 0.11119034E+00 0.42584551E+03</pdfrwt>
<totfact> 0.56881162E+01</totfact>
</mgrwt>
</event>
<event>
12    1  0.3166324E-008  0.1809221E+04  0.7818608E-02  0.8701411E-01
          2   -1    0    0  501    0  0.00000000000E+00  0.00000000000E+00  0.30252661937E+04  0.30252661937E+04  0.00000000000E+00 0. -1.
         -2   -1    0    0    0  501 -0.00000000000E+00 -0.00000000000E+00 -0.15902802867E+04  0.15902802867E+04  0.00000000000E+00 0.  1.
         23    2    1    2    0    0 -0.12757590049E+04  0.12394547523E+04  0.19777717870E+04  0.26615235652E+04  0.91199368303E+02 0.  0.
    5000000    2    1    2    0    0  0.12757590049E+04 -0.12394547523E+04 -0.54278588004E+03  0.19540229152E+04  0.59981657196E+03 0.  0.
         23    2    4    4    0    0  0.12079836758E+04 -0.95088075082E+03 -0.57420645680E+03  0.16436559737E+04  0.92158241913E+02 0.  0.
         23    2    4    4    0    0  0.67775329023E+02 -0.28857400151E+03  0.31420576764E+02  0.31036694148E+03  0.86440361779E+02 0.  0.
          4    1    3    3  502    0 -0.56178813659E+02  0.83604684262E+02  0.10815345328E+03  0.14779367981E+03  0.00000000000E+00 0. -1.
         -4    1    3    3    0  502 -0.12195801912E+04  0.11558500681E+04  0.18696183337E+04  0.25137298853E+04  0.00000000000E+00 0.  1.
         13    1    5    5    0    0  0.36597342447E+03 -0.24192800351E+03 -0.18547749092E+03  0.47630621027E+03  0.00000000000E+00 0. -1.
        -13    1    5    5    0    0  0.84201025137E+03 -0.70895274731E+03 -0.38872896589E+03  0.11673497635E+04  0.00000000000E+00 0.  1.
          5    1    6    6  503    0 -0.21014588217E+00 -0.38994466799E+02  0.33529263243E+02  0.51642173616E+02  0.47000000000E+01 0. -1.
         -5    1    6    6    0  503  0.67985474905E+02 -0.24957953471E+03 -0.21086864783E+01  0.25872476786E+03  0.47000000000E+01 0.  1.
<mgrwt>
<rscale>  0 0.18092205E+04</rscale>
<asrwt>0</asrwt>
<pdfrwt beam="1">  1        2 0.46542557E+00 0.18092205E+04</pdfrwt>
<pdfrwt beam="2">  1       -2 0.24465851E+00 0.18092205E+04</pdfrwt>
<totfact> 0.10546470E-01</totfact>
</mgrwt>
</event>
<event>
12    1  0.3166324E-008  0.7271922E+03  0.7818608E-02  0.9671828E-01
          1   -1    0    0  501    0  0.00000000000E+00  0.00000000000E+00  0.11014523593E+04  0.11014523593E+04  0.00000000000E+00 0. -1.
         -1   -1    0    0    0  501 -0.00000000000E+00 -0.00000000000E+00 -0.51848221616E+03  0.51848221616E+03  0.00000000000E+00 0.  1.
         23    2    1    2    0    0  0.13075548196E+03  0.60148276796E+03  0.40398317639E+03  0.74189569507E+03  0.91259516453E+02 0.  0.
    5000000    2    1    2    0    0 -0.13075548196E+03 -0.60148276796E+03  0.17898696675E+03  0.87803888039E+03  0.60003118669E+03 0.  0.
         23    2    4    4    0    0  0.19225921694E+02 -0.65910540307E+03  0.80828026009E+02  0.67035542662E+03  0.89742185166E+02 0.  0.
         23    2    4    4    0    0 -0.14998140366E+03  0.57622635112E+02  0.98158940738E+02  0.20768345376E+03  0.87649585288E+02 0.  0.
          1    1    3    3  502    0  0.11783395600E+03  0.56746659729E+03  0.35084232273E+03  0.67749060189E+03  0.00000000000E+00 0. -1.
         -1    1    3    3    0  502  0.12921525960E+02  0.34016170666E+02  0.53140853660E+02  0.64405093180E+02  0.00000000000E+00 0.  1.
         11    1    5    5    0    0 -0.43171043959E+01 -0.32282014580E+03  0.82577811320E+02  0.33324252257E+03  0.00000000000E+00 0. -1.
        -11    1    5    5    0    0  0.23543026090E+02 -0.33628525727E+03 -0.17497853113E+01  0.33711290406E+03  0.00000000000E+00 0.  1.
          5    1    6    6  503    0 -0.37972203855E+02  0.54153140086E+02  0.14801208624E+02  0.67938329561E+02  0.47000000000E+01 0. -1.
         -5    1    6    6    0  503 -0.11200919980E+03  0.34694950260E+01  0.83357732114E+02  0.13974512420E+03  0.47000000000E+01 0.  1.
<mgrwt>
<rscale>  0 0.72719225E+03</rscale>
<asrwt>0</asrwt>
<pdfrwt beam="1">  1        1 0.16945421E+00 0.72719225E+03</pdfrwt>
<pdfrwt beam="2">  1       -1 0.79766495E-01 0.72719225E+03</pdfrwt>
<totfact> 0.20504404E+01</totfact>
</mgrwt>
</event>
<event>
12    1  0.3166324E-008  0.7184015E+03  0.7818608E-02  0.9686271E-01
          2   -1    0    0  501    0  0.00000000000E+00  0.00000000000E+00  0.20706188988E+04  0.20706188988E+04  0.00000000000E+00 0.  1.
         -2   -1    0    0    0  501 -0.00000000000E+00 -0.00000000000E+00 -0.32245990561E+03  0.32245990561E+03  0.00000000000E+00 0. -1.
         23    2    1    2    0    0 -0.33369462381E+03 -0.52446989280E+03  0.27544325910E+03  0.68562245671E+03  0.88251876730E+02 0.  0.
    5000000    2    1    2    0    0  0.33369462381E+03  0.52446989280E+03  0.14727157341E+04  0.17074563477E+04  0.60007897437E+03 0.  0.
         23    2    4    4    0    0 -0.12472221412E+03  0.22219225230E+02  0.44681208463E+03  0.47328939644E+03  0.91172853147E+02 0.  0.
         23    2    4    4    0    0  0.45841683793E+03  0.50225066757E+03  0.10259036495E+04  0.12341669513E+04  0.91038647025E+02 0.  0.
          4    1    3    3  502    0 -0.49595718361E+02 -0.58742857031E+02  0.65780036844E+02  0.10118039227E+03  0.00000000000E+00 0. -1.
         -4    1    3    3    0  502 -0.28409890545E+03 -0.46572703577E+03  0.20966322226E+03  0.58444206445E+03  0.00000000000E+00 0.  1.
         11    1    5    5    0    0 -0.67458336350E+02  0.34323597049E+02  0.12446523054E+03  0.14567199480E+03  0.00000000000E+00 0. -1.
        -11    1    5    5    0    0 -0.57263877769E+02 -0.12104371819E+02  0.32234685409E+03  0.32761740164E+03  0.00000000000E+00 0.  1.
          5    1    6    6  503    0  0.27531550576E+03  0.29324640389E+03  0.52569678937E+03  0.66194507738E+03  0.47000000000E+01 0. -1.
         -5    1    6    6    0  503  0.18310133217E+03  0.20900426368E+03  0.50020686011E+03  0.57222187391E+03  0.47000000000E+01 0.  1.
<mgrwt>
<rscale>  0 0.71840151E+03</rscale>
<asrwt>0</asrwt>
<pdfrwt beam="1">  1        2 0.31855675E+00 0.71840151E+03</pdfrwt>
<pdfrwt beam="2">  1       -2 0.49609218E-01 0.71840151E+03</pdfrwt>
<totfact> 0.24390547E+01</totfact>
</mgrwt>
</event>
<event>
12    1  0.3166324E-008  0.6015982E+03  0.7818608E-02  0.9902096E-01
         -2   -1    0    0    0  501 -0.00000000000E+00  0.00000000000E+00  0.34909291751E+03  0.34909291751E+03  0.00000000000E+00 0. -1.
          2   -1    0    0  501    0  0.00000000000E+00 -0.00000000000E+00 -0.11112812821E+04  0.11112812821E+04  0.00000000000E+00 0.  1.
         23    2    1    2    0    0  0.22658315344E+03 -0.41349969247E+03 -0.25696408963E+03  0.54518518134E+03  0.94204126709E+02 0.  0.
    5000000    2    1    2    0    0 -0.22658315344E+03  0.41349969247E+03 -0.50522427501E+03  0.91518901832E+03  0.59999787507E+03 0.  0.
         23    2    4    4    0    0 -0.30661810850E+03  0.49391271549E+03 -0.49941975757E+03  0.77197257697E+03  0.92504758648E+02 0.  0.
         23    2    4    4    0    0  0.80034955054E+02 -0.80413023011E+02 -0.58045174434E+01  0.14321644134E+03  0.87208992359E+02 0.  0.
          1    1    3    3  502    0  0.87790052432E+02 -0.25663524955E+03 -0.15154670718E+03  0.31070106063E+03  0.00000000000E+00 0. -1.
         -1    1    3    3    0  502  0.13879310101E+03 -0.15686444292E+03 -0.10541738245E+03  0.23448412071E+03  0.00000000000E+00 0.  1.
         11    1    5    5    0    0 -0.14884510974E+03  0.24377281033E+03 -0.30605428675E+03  0.41862784927E+03  0.00000000000E+00 0. -1.
        -11    1    5    5    0    0 -0.15777299876E+03  0.25013990515E+03 -0.19336547082E+03  0.35334472770E+03  0.00000000000E+00 0.  1.
          5    1    6    6  503    0  0.97626120224E+02 -0.69317510316E+02  0.36773552594E+01  0.11988073043E+03  0.47000000000E+01 0. -1.
         -5    1    6    6    0  503 -0.17591165170E+02 -0.11095512696E+02 -0.94818727028E+01  0.23335710916E+02  0.47000000000E+01 0.  1.
<mgrwt>
<rscale>  0 0.60159824E+03</rscale>
<asrwt>0</asrwt>
<pdfrwt beam="1">  1        2 0.17096635E+00 0.60159824E+03</pdfrwt>
<pdfrwt beam="2">  1       -2 0.53706602E-01 0.60159824E+03</pdfrwt>
<totfact> 0.72128758E+01</totfact>
</mgrwt>
</event>
<event>
12    1  0.3166324E-008  0.6746258E+03  0.7818608E-02  0.9761637E-01
          2   -1    0    0  501    0  0.00000000000E+00  0.00000000000E+00  0.96972655775E+03  0.96972655775E+03  0.00000000000E+00 0.  1.
         -2   -1    0    0    0  501 -0.00000000000E+00 -0.00000000000E+00 -0.61347877201E+03  0.61347877201E+03  0.00000000000E+00 0. -1.
         23    2    1    2    0    0  0.56777359831E+03 -0.30062451330E+03  0.44062536006E+02  0.65035087173E+03  0.90954891781E+02 0.  0.
    5000000    2    1    2    0    0 -0.56777359831E+03  0.30062451330E+03  0.31218524974E+03  0.93285445804E+03  0.60001321051E+03 0.  0.
         23    2    4    4    0    0 -0.16669511776E+03 -0.35508946369E+02 -0.13376130883E+03  0.23915660173E+03  0.10127015776E+03 0.  0.
         23    2    4    4    0    0 -0.40107848055E+03  0.33613345967E+03  0.44594655857E+03  0.69369785631E+03  0.92188570207E+02 0.  0.
          4    1    3    3  502    0  0.31766039494E+03 -0.21070614314E+03  0.15854420905E+01  0.38119249586E+03  0.00000000000E+00 0. -1.
         -4    1    3    3    0  502  0.25011320337E+03 -0.89918370158E+02  0.42477093915E+02  0.26915837587E+03  0.00000000000E+00 0.  1.
         13    1    5    5    0    0 -0.16280434482E+03 -0.44345764786E+02 -0.84039181225E+02  0.18850566445E+03  0.00000000000E+00 0. -1.
        -13    1    5    5    0    0 -0.38907729360E+01  0.88368184170E+01 -0.49722127604E+02  0.50650937279E+02  0.00000000000E+00 0.  1.
          5    1    6    6  503    0 -0.31451365072E+03  0.25151139358E+03  0.38864990257E+03  0.55968531726E+03  0.47000000000E+01 0. -1.
         -5    1    6    6    0  503 -0.86564829835E+02  0.84622066093E+02  0.57296655997E+02  0.13401253905E+03  0.47000000000E+01 0.  1.
<mgrwt>
<rscale>  0 0.67462585E+03</rscale>
<asrwt>0</asrwt>
<pdfrwt beam="1">  1        2 0.14918870E+00 0.67462585E+03</pdfrwt>
<pdfrwt beam="2">  1       -2 0.94381350E-01 0.67462585E+03</pdfrwt>
<totfact> 0.25536851E+01</totfact>
</mgrwt>
</event>
<event>
12    1  0.3166324E-008  0.6264906E+03  0.7818608E-02  0.9851921E-01
          2   -1    0    0  501    0  0.00000000000E+00  0.00000000000E+00  0.20207193764E+04  0.20207193764E+04  0.00000000000E+00 0. -1.
         -2   -1    0    0    0  501 -0.00000000000E+00 -0.00000000000E+00 -0.21479047779E+03  0.21479047779E+03  0.00000000000E+00 0.  1.
         23    2    1    2    0    0 -0.48314802945E+03 -0.43653521926E+02  0.10250124771E+04  0.11377095361E+04  0.91622933772E+02 0.  0.
    5000000    2    1    2    0    0  0.48314802945E+03  0.43653521926E+02  0.78091642152E+03  0.10978003181E+04  0.59999786056E+03 0.  0.
         23    2    4    4    0    0  0.13750000042E+03  0.29290150817E+03  0.31100818742E+03  0.45771245523E+03  0.89872439749E+02 0.  0.
         23    2    4    4    0    0  0.34564802903E+03 -0.24924798624E+03  0.46990823411E+03  0.64008786288E+03  0.85449430073E+02 0.  0.
          1    1    3    3  502    0 -0.21077296304E+03 -0.62540886890E+02  0.48973247347E+03  0.53681887081E+03  0.00000000000E+00 0. -1.
         -1    1    3    3    0  502 -0.27237506641E+03  0.18887364963E+02  0.53528000365E+03  0.60089066532E+03  0.00000000000E+00 0.  1.
         11    1    5    5    0    0  0.12981838748E+03  0.19261596955E+03  0.18805868731E+03  0.29886417538E+03  0.00000000000E+00 0. -1.
        -11    1    5    5    0    0  0.76816129408E+01  0.10028553862E+03  0.12294950011E+03  0.15884827984E+03  0.00000000000E+00 0.  1.
          5    1    6    6  503    0  0.10187005533E+03 -0.90027066148E+02  0.97609254408E+02  0.16742770785E+03  0.47000000000E+01 0. -1.
         -5    1    6    6    0  503  0.24377797371E+03 -0.15922092010E+03  0.37229897970E+03  0.47266015502E+03  0.47000000000E+01 0.  1.
<mgrwt>
<rscale>  0 0.62649057E+03</rscale>
<asrwt>0</asrwt>
<pdfrwt beam="1">  1        2 0.31087989E+00 0.62649057E+03</pdfrwt>
<pdfrwt beam="2">  1       -2 0.33044690E-01 0.62649057E+03</pdfrwt>
<totfact> 0.58168337E+01</totfact>
</mgrwt>
</event>
<event>
12    1  0.3406047E-008  0.1664911E+04  0.7818608E-02  0.8781634E-01
          1   -1    0    0  501    0  0.00000000000E+00  0.00000000000E+00  0.17377875708E+04  0.17377875708E+04  0.00000000000E+00 0. -1.
         -1   -1    0    0    0  501 -0.00000000000E+00 -0.00000000000E+00 -0.17334622489E+04  0.17334622489E+04  0.00000000000E+00 0.  1.
         23    2    1    2    0    0  0.79161844387E+03 -0.14113964902E+04 -0.45827318442E+03  0.16844208202E+04  0.92516887791E+02 0.  0.
    5000000    2    1    2    0    0 -0.79161844387E+03  0.14113964902E+04  0.46259850630E+03  0.17868289995E+04  0.60005056638E+03 0.  0.
         23    2    4    4    0    0 -0.50136274955E+03  0.35528352770E+03  0.98896498056E+02  0.62912760453E+03  0.91815215327E+02 0.  0.
         23    2    4    4    0    0 -0.29025569432E+03  0.10561129625E+04  0.36370200824E+03  0.11577013950E+04  0.91489952802E+02 0.  0.
          1    1    3    3  502    0  0.46564726344E+03 -0.84160209609E+03 -0.31909269104E+03  0.10133812745E+04  0.00000000000E+00 0. -1.
         -1    1    3    3    0  502  0.32597118044E+03 -0.56979439413E+03 -0.13918049338E+03  0.67103954563E+03  0.00000000000E+00 0.  1.
         11    1    5    5    0    0 -0.32868562729E+03  0.24467690456E+03  0.10836793148E+03  0.42384506342E+03  0.00000000000E+00 0. -1.
        -11    1    5    5    0    0 -0.17267712226E+03  0.11060662313E+03 -0.94714334231E+01  0.20528254111E+03  0.00000000000E+00 0.  1.
          5    1    6    6  503    0 -0.10472497212E+03  0.28739043533E+03  0.13586296267E+03  0.33472588297E+03  0.47000000000E+01 0. -1.
         -5    1    6    6    0  503 -0.18553072220E+03  0.76872252719E+03  0.22783904557E+03  0.82297551201E+03  0.47000000000E+01 0.  1.
<mgrwt>
<rscale>  0 0.16649110E+04</rscale>
<asrwt>0</asrwt>
<pdfrwt beam="1">  1        1 0.26735193E+00 0.16649110E+04</pdfrwt>
<pdfrwt beam="2">  1       -1 0.26668650E+00 0.16649110E+04</pdfrwt>
<totfact> 0.22604470E-01</totfact>
</mgrwt>
</event>
<event>
12    1  0.3166324E-008  0.1957456E+04  0.7818608E-02  0.8626774E-01
         -2   -1    0    0    0  501 -0.00000000000E+00  0.00000000000E+00  0.22382969796E+04  0.22382969796E+04  0.00000000000E+00 0.  1.
          2   -1    0    0  501    0  0.00000000000E+00 -0.00000000000E+00 -0.18051542465E+04  0.18051542465E+04  0.00000000000E+00 0. -1.
         23    2    1    2    0    0 -0.19512087054E+04 -0.12250187446E+03  0.21061253467E+02  0.19573091695E+04  0.91615978019E+02 0.  0.
    5000000    2    1    2    0    0  0.19512087054E+04  0.12250187446E+03  0.41208147962E+03  0.20861420565E+04  0.59996284297E+03 0.  0.
         23    2    4    4    0    0  0.13021922233E+04  0.76107060423E+02  0.54333875125E+03  0.14158893206E+04  0.89603006238E+02 0.  0.
         23    2    4    4    0    0  0.64901648211E+03  0.46394814036E+02 -0.13125727162E+03  0.67025273587E+03  0.92926776411E+02 0.  0.
          4    1    3    3  502    0 -0.14873058578E+04 -0.92948410043E+02  0.55059904696E+02  0.14912242335E+04  0.00000000000E+00 0.  1.
         -4    1    3    3    0  502 -0.46390284761E+03 -0.29553464416E+02 -0.33998651230E+02  0.46608493600E+03  0.00000000000E+00 0. -1.
         13    1    5    5    0    0  0.69271978022E+03  0.20201582436E+02  0.24529199017E+03  0.73514417517E+03  0.00000000000E+00 0.  1.
        -13    1    5    5    0    0  0.60947244304E+03  0.55905477987E+02  0.29804676108E+03  0.68074514547E+03  0.00000000000E+00 0. -1.
          5    1    6    6  503    0  0.68509614129E+02  0.27530470990E+02 -0.33647882915E+02  0.81275851800E+02  0.47000000000E+01 0. -1.
         -5    1    6    6    0  503  0.58050686798E+03  0.18864343046E+02 -0.97609388709E+02  0.58897688407E+03  0.47000000000E+01 0.  1.
<mgrwt>
<rscale>  0 0.19574560E+04</rscale>
<asrwt>0</asrwt>
<pdfrwt beam="1">  1        2 0.27771604E+00 0.19574560E+04</pdfrwt>
<pdfrwt beam="2">  1       -2 0.34435338E+00 0.19574560E+04</pdfrwt>
<totfact> 0.12953544E-01</totfact>
</mgrwt>
</event>
<event>
12    1  0.3166324E-008  0.4441518E+03  0.7818608E-02  0.1029481E+00
          2   -1    0    0  501    0  0.00000000000E+00  0.00000000000E+00  0.17455091097E+04  0.17455091097E+04  0.00000000000E+00 0. -1.
         -2   -1    0    0    0  501 -0.00000000000E+00 -0.00000000000E+00 -0.17224704512E+03  0.17224704512E+03  0.00000000000E+00 0.  1.
         23    2    1    2    0    0 -0.14112180717E+03 -0.34525811856E+03  0.65159021044E+03  0.75650648527E+03  0.92810166598E+02 0.  0.
    5000000    2    1    2    0    0  0.14112180717E+03  0.34525811856E+03  0.92167185418E+03  0.11612496696E+04  0.59991937413E+03 0.  0.
         23    2    4    4    0    0  0.24592227426E+03  0.29330416382E+03  0.93254876937E+03  0.10121061430E+04  0.90589955455E+02 0.  0.
         23    2    4    4    0    0 -0.10480046709E+03  0.51953954738E+02 -0.10876915193E+02  0.14914352655E+03  0.91886521941E+02 0.  0.
          3    1    3    3  502    0 -0.18310155784E+02 -0.27896184243E+02  0.19535770032E+02  0.38666590371E+02  0.00000000000E+00 0. -1.
         -3    1    3    3    0  502 -0.12281165139E+03 -0.31736193431E+03  0.63205444041E+03  0.71783989490E+03  0.00000000000E+00 0.  1.
         13    1    5    5    0    0  0.12624817316E+03  0.17767483116E+03  0.41949857817E+03  0.47274306335E+03  0.00000000000E+00 0.  1.
        -13    1    5    5    0    0  0.11967410111E+03  0.11562933266E+03  0.51305019120E+03  0.53936307969E+03  0.00000000000E+00 0. -1.
          5    1    6    6  503    0 -0.13056689927E+02 -0.11991596298E+02 -0.30420430710E+02  0.35521375793E+02  0.47000000000E+01 0. -1.
         -5    1    6    6    0  503 -0.91743777160E+02  0.63945551036E+02  0.19543515517E+02  0.11362215076E+03  0.47000000000E+01 0.  1.
<mgrwt>
<rscale>  0 0.44415178E+03</rscale>
<asrwt>0</asrwt>
<pdfrwt beam="1">  1        2 0.26853985E+00 0.44415178E+03</pdfrwt>
<pdfrwt beam="2">  1       -2 0.26499547E-01 0.44415178E+03</pdfrwt>
<totfact> 0.12629702E+02</totfact>
</mgrwt>
</event>
<event>
12    1  0.3166324E-008  0.5017492E+03  0.7818608E-02  0.1013323E+00
          1   -1    0    0  501    0  0.00000000000E+00  0.00000000000E+00  0.19586292093E+04  0.19586292093E+04  0.00000000000E+00 0. -1.
         -1   -1    0    0    0  501 -0.00000000000E+00 -0.00000000000E+00 -0.19641739465E+03  0.19641739465E+03  0.00000000000E+00 0.  1.
         23    2    1    2    0    0 -0.31255180409E+03 -0.34744141012E+03  0.59725584782E+03  0.76384255427E+03  0.91305729581E+02 0.  0.
    5000000    2    1    2    0    0  0.31255180409E+03  0.34744141012E+03  0.11649559668E+04  0.13912040497E+04  0.59993511276E+03 0.  0.
         23    2    4    4    0    0  0.44537798516E+02  0.19999732560E+03  0.10106670815E+04  0.10354076617E+04  0.92943696183E+02 0.  0.
         23    2    4    4    0    0  0.26801400558E+03  0.14744408451E+03  0.15428888536E+03  0.35579638796E+03  0.95993459654E+02 0.  0.
          2    1    3    3  502    0 -0.74568413992E+02 -0.14655000907E+03  0.19349114958E+03  0.25392159910E+03  0.00000000000E+00 0. -1.
         -2    1    3    3    0  502 -0.23798339010E+03 -0.20089140105E+03  0.40376469824E+03  0.50992095517E+03  0.00000000000E+00 0.  1.
         11    1    5    5    0    0  0.47670125811E+02  0.15981318430E+03  0.93419045668E+03  0.94895969573E+03  0.00000000000E+00 0.  1.
        -11    1    5    5    0    0 -0.31323272948E+01  0.40184141298E+02  0.76476624792E+02  0.86447966001E+02  0.00000000000E+00 0. -1.
          5    1    6    6  503    0  0.30543788880E+02  0.59926339506E+02  0.29914361497E+02  0.73763461344E+02  0.47000000000E+01 0. -1.
         -5    1    6    6    0  503  0.23747021670E+03  0.87517745009E+02  0.12437452387E+03  0.28203292662E+03  0.47000000000E+01 0.  1.
<mgrwt>
<rscale>  0 0.50174921E+03</rscale>
<asrwt>0</asrwt>
<pdfrwt beam="1">  1        1 0.30132756E+00 0.50174921E+03</pdfrwt>
<pdfrwt beam="2">  1       -1 0.30218062E-01 0.50174921E+03</pdfrwt>
<totfact> 0.34488963E+01</totfact>
</mgrwt>
</event>
<event>
12    1  0.3166324E-008  0.8385060E+03  0.7818608E-02  0.9505895E-01
         -2   -1    0    0    0  501 -0.00000000000E+00  0.00000000000E+00  0.35651984134E+03  0.35651984134E+03  0.00000000000E+00 0.  1.
          2   -1    0    0  501    0  0.00000000000E+00 -0.00000000000E+00 -0.21493762337E+04  0.21493762337E+04  0.00000000000E+00 0. -1.
         23    2    1    2    0    0 -0.73395163952E+03 -0.15929546820E+03 -0.10359708799E+04  0.12824465964E+04  0.85869397120E+02 0.  0.
    5000000    2    1    2    0    0  0.73395163952E+03  0.15929546820E+03 -0.75688551252E+03  0.12234494787E+04  0.59991073704E+03 0.  0.
         23    2    4    4    0    0  0.30586042779E+03  0.33916665950E+03 -0.24451427542E+03  0.52609328019E+03  0.91663975312E+02 0.  0.
         23    2    4    4    0    0  0.42809121173E+03 -0.17987119130E+03 -0.51237123710E+03  0.69735619847E+03  0.90363996781E+02 0.  0.
          3    1    3    3  502    0 -0.31348550003E+03 -0.26404190631E+02 -0.45120678052E+03  0.55005263276E+03  0.00000000000E+00 0. -1.
         -3    1    3    3    0  502 -0.42046613949E+03 -0.13289127757E+03 -0.58476409936E+03  0.73239396366E+03  0.00000000000E+00 0.  1.
         13    1    5    5    0    0  0.13385152309E+03  0.14872208851E+03 -0.56329130097E+02  0.20786404389E+03  0.00000000000E+00 0. -1.
        -13    1    5    5    0    0  0.17200890471E+03  0.19044457099E+03 -0.18818514532E+03  0.31822923630E+03  0.00000000000E+00 0.  1.
          5    1    6    6  503    0  0.21355477380E+03 -0.80690268494E+02 -0.31698188463E+03  0.39066119084E+03  0.47000000000E+01 0. -1.
         -5    1    6    6    0  503  0.21453643792E+03 -0.99180922804E+02 -0.19538935247E+03  0.30669500763E+03  0.47000000000E+01 0.  1.
<mgrwt>
<rscale>  0 0.83850597E+03</rscale>
<asrwt>0</asrwt>
<pdfrwt beam="1">  1        2 0.33067327E+00 0.83850597E+03</pdfrwt>
<pdfrwt beam="2">  1       -2 0.54849207E-01 0.83850597E+03</pdfrwt>
<totfact> 0.17674809E+01</totfact>
</mgrwt>
</event>
<event>
12    1  0.3166324E-008  0.5328152E+03  0.7818608E-02  0.1005552E+00
         -1   -1    0    0    0  501 -0.00000000000E+00  0.00000000000E+00  0.22984553966E+03  0.22984553966E+03  0.00000000000E+00 0.  1.
          1   -1    0    0  501    0  0.00000000000E+00 -0.00000000000E+00 -0.13534692650E+04  0.13534692650E+04  0.00000000000E+00 0. -1.
         23    2    1    2    0    0  0.30161855108E+03 -0.24052547106E+03 -0.47506368191E+03  0.61919771774E+03  0.94308319877E+02 0.  0.
    5000000    2    1    2    0    0 -0.30161855108E+03  0.24052547106E+03 -0.64856004346E+03  0.96411708695E+03  0.60005447653E+03 0.  0.
         23    2    4    4    0    0 -0.44793014062E+03  0.11887070486E+03 -0.56944743294E+03  0.73901212582E+03  0.84243028657E+02 0.  0.
         23    2    4    4    0    0  0.14631158954E+03  0.12165476619E+03 -0.79112610511E+02  0.22510496113E+03  0.90589596594E+02 0.  0.
          3    1    3    3  502    0  0.22209866571E+01 -0.16142408933E+02 -0.51661162242E+02  0.54169971682E+02  0.00000000000E+00 0. -1.
         -3    1    3    3    0  502  0.29939756442E+03 -0.22438306212E+03 -0.42340251967E+03  0.56502774606E+03  0.00000000000E+00 0.  1.
         13    1    5    5    0    0 -0.21796331931E+03  0.15071551907E+02 -0.27600572267E+03  0.35201465763E+03  0.00000000000E+00 0.  1.
        -13    1    5    5    0    0 -0.22996682131E+03  0.10379915296E+03 -0.29344171027E+03  0.38699746819E+03  0.00000000000E+00 0. -1.
          5    1    6    6  503    0  0.42701850228E+02  0.83466911931E+02 -0.63856525369E+02  0.11353378014E+03  0.47000000000E+01 0. -1.
         -5    1    6    6    0  503  0.10360973931E+03  0.38187854264E+02 -0.15256085142E+02  0.11157118099E+03  0.47000000000E+01 0.  1.
<mgrwt>
<rscale>  0 0.53281520E+03</rscale>
<asrwt>0</asrwt>
<pdfrwt beam="1">  1        1 0.20822604E+00 0.53281520E+03</pdfrwt>
<pdfrwt beam="2">  1       -1 0.35360852E-01 0.53281520E+03</pdfrwt>
<totfact> 0.66361617E+01</totfact>
</mgrwt>
</event>
<event>
12    1  0.3166324E-008  0.4588396E+03  0.7818608E-02  0.1025118E+00
         -1   -1    0    0    0  501 -0.00000000000E+00  0.00000000000E+00  0.64539456366E+03  0.64539456366E+03  0.00000000000E+00 0.  1.
          1   -1    0    0  501    0  0.00000000000E+00 -0.00000000000E+00 -0.58564782285E+03  0.58564782285E+03  0.00000000000E+00 0. -1.
         23    2    1    2    0    0 -0.23456749906E+03 -0.35690423474E+03 -0.15589268287E+03  0.46359763854E+03  0.90651516795E+02 0.  0.
    5000000    2    1    2    0    0  0.23456749906E+03  0.35690423474E+03  0.21563942369E+03  0.76744474797E+03  0.60005711041E+03 0.  0.
         23    2    4    4    0    0  0.94746623760E+02  0.31018543598E+03 -0.14571101595E+03  0.36679233848E+03  0.90072148817E+02 0.  0.
         23    2    4    4    0    0  0.13982087530E+03  0.46718798759E+02  0.36135043964E+03  0.40065240949E+03  0.90640441731E+02 0.  0.
          1    1    3    3  502    0 -0.16934838193E+03 -0.17926031301E+03 -0.10172177499E+03  0.26675916815E+03  0.00000000000E+00 0. -1.
         -1    1    3    3    0  502 -0.65219117128E+02 -0.17764392173E+03 -0.54170907881E+02  0.19683847039E+03  0.00000000000E+00 0.  1.
         11    1    5    5    0    0  0.93965138966E+02  0.19370759080E+03 -0.12353523556E+03  0.24821972625E+03  0.00000000000E+00 0. -1.
        -11    1    5    5    0    0  0.78148479443E+00  0.11647784518E+03 -0.22175780393E+02  0.11857261223E+03  0.00000000000E+00 0.  1.
          5    1    6    6  503    0  0.86835764155E+02  0.15344891599E+02  0.30330714865E+03  0.31590066802E+03  0.47000000000E+01 0. -1.
         -5    1    6    6    0  503  0.52985111141E+02  0.31373907160E+02  0.58043290989E+02  0.84751741469E+02  0.47000000000E+01 0.  1.
<mgrwt>
<rscale>  0 0.45883961E+03</rscale>
<asrwt>0</asrwt>
<pdfrwt beam="1">  1        1 0.90099665E-01 0.45883961E+03</pdfrwt>
<pdfrwt beam="2">  1       -1 0.99291471E-01 0.45883961E+03</pdfrwt>
<totfact> 0.36427144E+01</totfact>
</mgrwt>
</event>
<event>
12    1  0.3166324E-008  0.3905506E+03  0.7818608E-02  0.1047102E+00
          2   -1    0    0  501    0  0.00000000000E+00  0.00000000000E+00  0.12771142788E+04  0.12771142788E+04  0.00000000000E+00 0.  1.
         -2   -1    0    0    0  501 -0.00000000000E+00 -0.00000000000E+00 -0.16522400440E+03  0.16522400440E+03  0.00000000000E+00 0. -1.
         23    2    1    2    0    0  0.95629234558E+02 -0.23007694768E+03  0.26352714125E+03  0.37389754239E+03  0.90953096031E+02 0.  0.
    5000000    2    1    2    0    0 -0.95629234558E+02  0.23007694768E+03  0.84836313319E+03  0.10684407408E+04  0.59980435026E+03 0.  0.
         23    2    4    4    0    0 -0.16158010770E+03  0.34727760744E+03  0.81036418489E+03  0.90093513683E+03  0.91017255495E+02 0.  0.
         23    2    4    4    0    0  0.65950873144E+02 -0.11720065975E+03  0.37998948303E+02  0.16750560402E+03  0.92350933886E+02 0.  0.
          1    1    3    3  502    0  0.55349305920E+02 -0.18858585469E+03  0.24300372129E+03  0.31253636399E+03  0.00000000000E+00 0. -1.
         -1    1    3    3    0  502  0.40279928638E+02 -0.41491092989E+02  0.20523419962E+02  0.61361178407E+02  0.00000000000E+00 0.  1.
         11    1    5    5    0    0 -0.82946809481E+02  0.26080409401E+03  0.61732196764E+03  0.67526688086E+03  0.00000000000E+00 0. -1.
        -11    1    5    5    0    0 -0.78633298222E+02  0.86473513422E+02  0.19304221725E+03  0.22566825597E+03  0.00000000000E+00 0.  1.
          5    1    6    6  503    0  0.42604015602E+02 -0.92050035621E+02 -0.16558894539E+02  0.10288147643E+03  0.47000000000E+01 0.  1.
         -5    1    6    6    0  503  0.23346857543E+02 -0.25150624133E+02  0.54557842841E+02  0.64624127591E+02  0.47000000000E+01 0. -1.
<mgrwt>
<rscale>  0 0.39055061E+03</rscale>
<asrwt>0</asrwt>
<pdfrwt beam="1">  1        2 0.19647911E+00 0.39055061E+03</pdfrwt>
<pdfrwt beam="2">  1       -2 0.25419078E-01 0.39055061E+03</pdfrwt>
<totfact> 0.24732095E+02</totfact>
</mgrwt>
</event>
<event>
12    1  0.3166324E-008  0.1167288E+04  0.7818608E-02  0.9141981E-01
         -3   -1    0    0    0  501 -0.00000000000E+00  0.00000000000E+00  0.13770925335E+04  0.13770925335E+04  0.00000000000E+00 0.  1.
          3   -1    0    0  501    0  0.00000000000E+00 -0.00000000000E+00 -0.10571720177E+04  0.10571720177E+04  0.00000000000E+00 0. -1.
         23    2    1    2    0    0 -0.11115792680E+04 -0.41144002787E+02 -0.51166592153E+02  0.11171667649E+04  0.90234485814E+02 0.  0.
    5000000    2    1    2    0    0  0.11115792680E+04  0.41144002787E+02  0.37108710798E+03  0.13170977863E+04  0.59978299319E+03 0.  0.
         23    2    4    4    0    0  0.98168158300E+03 -0.13164302657E+03  0.41759878153E+03  0.10790203285E+04  0.94167457617E+02 0.  0.
         23    2    4    4    0    0  0.12989768503E+03  0.17278702936E+03 -0.46511673544E+02  0.23807745784E+03  0.88254031443E+02 0.  0.
          2    1    3    3  502    0 -0.93644113993E+03 -0.15776792826E+01 -0.42734184212E+02  0.93741704067E+03  0.00000000000E+00 0.  1.
         -2    1    3    3    0  502 -0.17513812810E+03 -0.39566323504E+02 -0.84324079416E+01  0.17974972427E+03  0.00000000000E+00 0. -1.
         11    1    5    5    0    0  0.33103318701E+03 -0.81573188644E+01  0.11113148767E+03  0.34928458355E+03  0.00000000000E+00 0. -1.
        -11    1    5    5    0    0  0.65064839599E+03 -0.12348570771E+03  0.30646729386E+03  0.72973574492E+03  0.00000000000E+00 0.  1.
          5    1    6    6  503    0  0.53214199957E+02  0.25787092076E+02  0.14977189332E+02  0.61181135941E+02  0.47000000000E+01 0. -1.
         -5    1    6    6    0  503  0.76683485072E+02  0.14699993728E+03 -0.61488862876E+02  0.17689632190E+03  0.47000000000E+01 0.  1.
<mgrwt>
<rscale>  0 0.11672880E+04</rscale>
<asrwt>0</asrwt>
<pdfrwt beam="1">  1        3 0.16264185E+00 0.11672880E+04</pdfrwt>
<pdfrwt beam="2">  1       -3 0.21186039E+00 0.11672880E+04</pdfrwt>
<totfact> 0.80617684E-02</totfact>
</mgrwt>
</event>
<event>
12    1  0.3166324E-008  0.7175011E+03  0.7818608E-02  0.9687762E-01
          2   -1    0    0  501    0  0.00000000000E+00  0.00000000000E+00  0.27962684265E+04  0.27962684265E+04  0.00000000000E+00 0. -1.
         -2   -1    0    0    0  501 -0.00000000000E+00 -0.00000000000E+00 -0.25051237049E+03  0.25051237049E+03  0.00000000000E+00 0.  1.
         23    2    1    2    0    0  0.58983527157E+03  0.31558678725E+03  0.16267649417E+04  0.17614048337E+04  0.93178027227E+02 0.  0.
    5000000    2    1    2    0    0 -0.58983527157E+03 -0.31558678725E+03  0.91899111434E+03  0.12853759633E+04  0.60012168015E+03 0.  0.
         23    2    4    4    0    0 -0.39631282394E+03 -0.34684835985E+02  0.82004609497E+03  0.91597126428E+03  0.90889310920E+02 0.  0.
         23    2    4    4    0    0 -0.19352244763E+03 -0.28090195127E+03  0.98945019365E+02  0.36940469905E+03  0.10155230602E+03 0.  0.
          1    1    3    3  502    0  0.14603466772E+03  0.34954373014E+02  0.34559350837E+03  0.37680605806E+03  0.00000000000E+00 0. -1.
         -1    1    3    3    0  502  0.44380060385E+03  0.28063241424E+03  0.12811714334E+04  0.13845987757E+04  0.00000000000E+00 0.  1.
         11    1    5    5    0    0 -0.19853931379E+03  0.22900665373E+02  0.35602528629E+03  0.40828458711E+03  0.00000000000E+00 0. -1.
        -11    1    5    5    0    0 -0.19777351015E+03 -0.57585501358E+02  0.46402080868E+03  0.50768667717E+03  0.00000000000E+00 0.  1.
          5    1    6    6  503    0 -0.55406881714E+01 -0.73903383750E+02  0.37013773279E+02  0.82973000232E+02  0.47000000000E+01 0. -1.
         -5    1    6    6    0  503 -0.18798175946E+03 -0.20699856752E+03  0.61931246085E+02  0.28643169882E+03  0.47000000000E+01 0.  1.
<mgrwt>
<rscale>  0 0.71750109E+03</rscale>
<asrwt>0</asrwt>
<pdfrwt beam="1">  1        2 0.43019512E+00 0.71750109E+03</pdfrwt>
<pdfrwt beam="2">  1       -2 0.38540367E-01 0.71750109E+03</pdfrwt>
<totfact> 0.15679315E+01</totfact>
</mgrwt>
</event>
<event>
12    1  0.3166324E-008  0.1033206E+04  0.7818608E-02  0.9272857E-01
          1   -1    0    0  501    0  0.00000000000E+00  0.00000000000E+00  0.26873600767E+04  0.26873600767E+04  0.00000000000E+00 0. -1.
         -1   -1    0    0    0  501 -0.00000000000E+00 -0.00000000000E+00 -0.49339587785E+03  0.49339587785E+03  0.00000000000E+00 0.  1.
         23    2    1    2    0    0  0.87092044003E+03 -0.40234428828E+03  0.16826872004E+04  0.19391182093E+04  0.91432358266E+02 0.  0.
    5000000    2    1    2    0    0 -0.87092044003E+03  0.40234428828E+03  0.51127699844E+03  0.12416377452E+04  0.59989730960E+03 0.  0.
         23    2    4    4    0    0 -0.14250981055E+03  0.32885020103E+03  0.29336171473E+03  0.47240889305E+03  0.93046040975E+02 0.  0.
         23    2    4    4    0    0 -0.72841062948E+03  0.73494087245E+02  0.21791528372E+03  0.76922885218E+03  0.90788381141E+02 0.  0.
          3    1    3    3  502    0  0.37450832200E+03 -0.21519483483E+03  0.70603305180E+03  0.82767624734E+03  0.00000000000E+00 0. -1.
         -3    1    3    3    0  502  0.49641211803E+03 -0.18714945345E+03  0.97665414858E+03  0.11114419620E+04  0.00000000000E+00 0.  1.
         13    1    5    5    0    0 -0.84128598622E+02  0.10201551948E+03  0.13924811173E+03  0.19202818528E+03  0.00000000000E+00 0. -1.
        -13    1    5    5    0    0 -0.58381211928E+02  0.22683468155E+03  0.15411360300E+03  0.28038070777E+03  0.00000000000E+00 0.  1.
          5    1    6    6  503    0 -0.70170426931E+03  0.87204273329E+02  0.21256085779E+03  0.73837502336E+03  0.47000000000E+01 0. -1.
         -5    1    6    6    0  503 -0.26706360172E+02 -0.13710186084E+02  0.53544259254E+01  0.30853828824E+02  0.47000000000E+01 0.  1.
<mgrwt>
<rscale>  0 0.10332056E+04</rscale>
<asrwt>0</asrwt>
<pdfrwt beam="1">  1        1 0.41344000E+00 0.10332056E+04</pdfrwt>
<pdfrwt beam="2">  1       -1 0.75907060E-01 0.10332056E+04</pdfrwt>
<totfact> 0.17761562E+00</totfact>
</mgrwt>
</event>
<event>
12    1  0.3166324E-008  0.7255336E+03  0.7818608E-02  0.9674536E-01
         -2   -1    0    0    0  501 -0.00000000000E+00  0.00000000000E+00  0.14841354723E+04  0.14841354723E+04  0.00000000000E+00 0. -1.
          2   -1    0    0  501    0  0.00000000000E+00 -0.00000000000E+00 -0.16206341238E+04  0.16206341238E+04  0.00000000000E+00 0.  1.
         23    2    1    2    0    0  0.31707347954E+03 -0.56467379359E+03  0.12791064577E+04  0.14364916252E+04  0.89458227866E+02 0.  0.
    5000000    2    1    2    0    0 -0.31707347954E+03  0.56467379359E+03 -0.14156051092E+04  0.16682779710E+04  0.59985121382E+03 0.  0.
         23    2    4    4    0    0 -0.40492392374E+03  0.52711531615E+03 -0.13743568354E+04  0.15294371240E+04  0.92234834113E+02 0.  0.
         23    2    4    4    0    0  0.87850444197E+02  0.37558477440E+02 -0.41248273738E+02  0.13884084697E+03  0.91907676114E+02 0.  0.
          2    1    3    3  502    0  0.15635018849E+03 -0.24746806611E+03  0.67052750915E+03  0.73163718174E+03  0.00000000000E+00 0. -1.
         -2    1    3    3    0  502  0.16072329105E+03 -0.31720572748E+03  0.60857894851E+03  0.70485444342E+03  0.00000000000E+00 0.  1.
         11    1    5    5    0    0 -0.28058178772E+03  0.29119201613E+03 -0.82881690926E+03  0.92220192959E+03  0.00000000000E+00 0. -1.
        -11    1    5    5    0    0 -0.12434213602E+03  0.23592330002E+03 -0.54553992618E+03  0.60723519442E+03  0.00000000000E+00 0.  1.
          5    1    6    6  503    0  0.67624296518E+02 -0.19852935909E+02 -0.30096714671E+02  0.76779468465E+02  0.47000000000E+01 0. -1.
         -5    1    6    6    0  503  0.20226147680E+02  0.57411413350E+02 -0.11151559067E+02  0.62061378509E+02  0.47000000000E+01 0.  1.
<mgrwt>
<rscale>  0 0.72553356E+03</rscale>
<asrwt>0</asrwt>
<pdfrwt beam="1">  1        2 0.24932833E+00 0.72553356E+03</pdfrwt>
<pdfrwt beam="2">  1       -2 0.22832853E+00 0.72553356E+03</pdfrwt>
<totfact> 0.99409589E-01</totfact>
</mgrwt>
</event>
<event>
12    1  0.3166324E-008  0.1000410E+04  0.7818608E-02  0.9308095E-01
          2   -1    0    0  501    0  0.00000000000E+00  0.00000000000E+00  0.22355530914E+04  0.22355530914E+04  0.00000000000E+00 0. -1.
         -2   -1    0    0    0  501 -0.00000000000E+00 -0.00000000000E+00 -0.52984581120E+03  0.52984581120E+03  0.00000000000E+00 0.  1.
         23    2    1    2    0    0 -0.89075582282E+03  0.24583575692E+03  0.12850916297E+04  0.15870445734E+04  0.11562363924E+03 0.  0.
    5000000    2    1    2    0    0  0.89075582282E+03 -0.24583575692E+03  0.42061565051E+03  0.11783543292E+04  0.59809718647E+03 0.  0.
         23    2    4    4    0    0  0.32800055015E+03 -0.36211804000E+03  0.31198539336E+03  0.58678807569E+03  0.90947920818E+02 0.  0.
         23    2    4    4    0    0  0.56275527267E+03  0.11628228308E+03  0.10863025715E+03  0.59156625353E+03  0.89078803721E+02 0.  0.
          3    1    3    3  502    0 -0.66479059234E+03  0.13307075659E+03  0.90762526728E+03  0.11328892195E+04  0.00000000000E+00 0. -1.
         -3    1    3    3    0  502 -0.22596523048E+03  0.11276500033E+03  0.37746636246E+03  0.45415535389E+03  0.00000000000E+00 0.  1.
         13    1    5    5    0    0  0.22474081569E+03 -0.22955659324E+03  0.15443901542E+03  0.35644925757E+03  0.00000000000E+00 0.  1.
        -13    1    5    5    0    0  0.10325973446E+03 -0.13256144677E+03  0.15754637794E+03  0.23033881812E+03  0.00000000000E+00 0. -1.
          5    1    6    6  503    0  0.61887648764E+01 -0.75326086397E+01  0.54379515277E+01  0.12112073333E+02  0.47000000000E+01 0. -1.
         -5    1    6    6    0  503  0.55656650780E+03  0.12381489172E+03  0.10319230562E+03  0.57945418020E+03  0.47000000000E+01 0.  1.
<mgrwt>
<rscale>  0 0.10004100E+04</rscale>
<asrwt>0</asrwt>
<pdfrwt beam="1">  1        2 0.34393124E+00 0.10004100E+04</pdfrwt>
<pdfrwt beam="2">  1       -2 0.81514741E-01 0.10004100E+04</pdfrwt>
<totfact> 0.65690925E+00</totfact>
</mgrwt>
</event>
<event>
12    1  0.3166324E-008  0.1329851E+04  0.7818608E-02  0.9006222E-01
         -1   -1    0    0    0  501 -0.00000000000E+00  0.00000000000E+00  0.18308212866E+04  0.18308212866E+04  0.00000000000E+00 0. -1.
          1   -1    0    0  501    0  0.00000000000E+00 -0.00000000000E+00 -0.10105256216E+04  0.10105256216E+04  0.00000000000E+00 0.  1.
         23    2    1    2    0    0 -0.10013119852E+04  0.77615524192E+03  0.65669407640E+03  0.14300001389E+04  0.92793512428E+02 0.  0.
    5000000    2    1    2    0    0  0.10013119852E+04 -0.77615524192E+03  0.16360158851E+03  0.14113467693E+04  0.60007630544E+03 0.  0.
         23    2    4    4    0    0  0.49275650337E+03 -0.72494096943E+03  0.74998531243E+02  0.88433397122E+03  0.89852168584E+02 0.  0.
         23    2    4    4    0    0  0.50855548181E+03 -0.51214272487E+02  0.88603057265E+02  0.52701279812E+03  0.92953794117E+02 0.  0.
          4    1    3    3  502    0 -0.17252470907E+03  0.11061176018E+03  0.13952688403E+03  0.24792637636E+03  0.00000000000E+00 0. -1.
         -4    1    3    3    0  502 -0.82878727611E+03  0.66554348174E+03  0.51716719237E+03  0.11820737625E+04  0.00000000000E+00 0.  1.
         13    1    5    5    0    0  0.27368984884E+02 -0.17141608694E+02 -0.77461276017E+01  0.33209916817E+02  0.00000000000E+00 0. -1.
        -13    1    5    5    0    0  0.46538751848E+03 -0.70779936073E+03  0.82744658844E+02  0.85112405440E+03  0.00000000000E+00 0.  1.
          5    1    6    6  503    0  0.78690947373E+01 -0.88295744845E+00 -0.10658053119E+02  0.14084969369E+02  0.47000000000E+01 0. -1.
         -5    1    6    6    0  503  0.50068638707E+03 -0.50331315039E+02  0.99261110383E+02  0.51292782875E+03  0.47000000000E+01 0.  1.
<mgrwt>
<rscale>  0 0.13298512E+04</rscale>
<asrwt>0</asrwt>
<pdfrwt beam="1">  1        1 0.15546548E+00 0.13298512E+04</pdfrwt>
<pdfrwt beam="2">  1       -1 0.28166481E+00 0.13298512E+04</pdfrwt>
<totfact> 0.62444609E-01</totfact>
</mgrwt>
</event>
<event>
12    1  0.3166324E-008  0.5117136E+03  0.7818608E-02  0.1010766E+00
          2   -1    0    0  501    0  0.00000000000E+00  0.00000000000E+00  0.81822680537E+03  0.81822680537E+03  0.00000000000E+00 0.  1.
         -2   -1    0    0    0  501 -0.00000000000E+00 -0.00000000000E+00 -0.63568261533E+03  0.63568261533E+03  0.00000000000E+00 0. -1.
         23    2    1    2    0    0 -0.58163602037E+02 -0.34435597727E+03 -0.40663039490E+03  0.54336736698E+03  0.89082959996E+02 0.  0.
    5000000    2    1    2    0    0  0.58163602037E+02  0.34435597727E+03  0.58917458494E+03  0.91054205372E+03  0.59999674695E+03 0.  0.
         23    2    4    4    0    0 -0.24701449116E+03  0.12512497652E+03  0.16555621238E+03  0.33498570242E+03  0.90189482601E+02 0.  0.
         23    2    4    4    0    0  0.30517809320E+03  0.21923100075E+03  0.42361837256E+03  0.57555635130E+03  0.10303731212E+03 0.  0.
          4    1    3    3  502    0 -0.59430050755E+02 -0.25543813350E+03 -0.35215008118E+03  0.43907886610E+03  0.00000000000E+00 0. -1.
         -4    1    3    3    0  502  0.12664487179E+01 -0.88917843778E+02 -0.54480313715E+02  0.10428850089E+03  0.00000000000E+00 0.  1.
         11    1    5    5    0    0 -0.22770126134E+03  0.80103909681E+02  0.14688652736E+03  0.28255999837E+03  0.00000000000E+00 0. -1.
        -11    1    5    5    0    0 -0.19313229827E+02  0.45021066843E+02  0.18669685027E+02  0.52425704049E+02  0.00000000000E+00 0.  1.
          5    1    6    6  503    0  0.25267927703E+03  0.14671584697E+03  0.27091987156E+03  0.39848716867E+03  0.47000000000E+01 0. -1.
         -5    1    6    6    0  503  0.52498816175E+02  0.72515153783E+02  0.15269850100E+03  0.17706918263E+03  0.47000000000E+01 0.  1.
<mgrwt>
<rscale>  0 0.51171362E+03</rscale>
<asrwt>0</asrwt>
<pdfrwt beam="1">  1        2 0.12588105E+00 0.51171362E+03</pdfrwt>
<pdfrwt beam="2">  1       -2 0.97797326E-01 0.51171362E+03</pdfrwt>
<totfact> 0.30287800E+01</totfact>
</mgrwt>
</event>
<event>
12    1  0.3166324E-008  0.8514508E+03  0.7818608E-02  0.9488392E-01
          2   -1    0    0  501    0  0.00000000000E+00  0.00000000000E+00  0.19965854751E+04  0.19965854751E+04  0.00000000000E+00 0. -1.
         -2   -1    0    0    0  501 -0.00000000000E+00 -0.00000000000E+00 -0.44634530639E+03  0.44634530639E+03  0.00000000000E+00 0.  1.
         23    2    1    2    0    0  0.31408574414E+02  0.83965507564E+03  0.57022138970E+03  0.10196663953E+04  0.92520158706E+02 0.  0.
    5000000    2    1    2    0    0 -0.31408574414E+02 -0.83965507564E+03  0.98001877900E+03  0.14232643862E+04  0.59936429765E+03 0.  0.
         23    2    4    4    0    0 -0.25876351096E+02 -0.68716579470E+03  0.36448933163E+03  0.78274124711E+03  0.83456408408E+02 0.  0.
         23    2    4    4    0    0 -0.55322233177E+01 -0.15248928094E+03  0.61552944737E+03  0.64052313911E+03  0.90054454980E+02 0.  0.
          3    1    3    3  502    0 -0.11007722822E+02  0.29477739132E+03  0.15448141550E+03  0.33298556745E+03  0.00000000000E+00 0. -1.
         -3    1    3    3    0  502  0.42416297236E+02  0.54487768433E+03  0.41573997420E+03  0.68668082782E+03  0.00000000000E+00 0.  1.
         11    1    5    5    0    0 -0.25131021625E+02 -0.77778113548E+02  0.60817356491E+02  0.10188107796E+03  0.00000000000E+00 0.  1.
        -11    1    5    5    0    0 -0.74532947150E+00 -0.60938768115E+03  0.30367197514E+03  0.68086016915E+03  0.00000000000E+00 0. -1.
          5    1    6    6  503    0  0.33311961890E+02 -0.47360547505E+02  0.13312288650E+03  0.14524634651E+03  0.47000000000E+01 0. -1.
         -5    1    6    6    0  503 -0.38844185208E+02 -0.10512873344E+03  0.48240656087E+03  0.49527679260E+03  0.47000000000E+01 0.  1.
<mgrwt>
<rscale>  0 0.85145079E+03</rscale>
<asrwt>0</asrwt>
<pdfrwt beam="1">  1        2 0.30716699E+00 0.85145079E+03</pdfrwt>
<pdfrwt beam="2">  1       -2 0.68668510E-01 0.85145079E+03</pdfrwt>
<totfact> 0.13276559E+01</totfact>
</mgrwt>
</event>
<event>
12    1  0.3166324E-008  0.1442442E+04  0.7818608E-02  0.8923657E-01
         -2   -1    0    0    0  501 -0.00000000000E+00  0.00000000000E+00  0.75326075205E+03  0.75326075205E+03  0.00000000000E+00 0.  1.
          2   -1    0    0  501    0  0.00000000000E+00 -0.00000000000E+00 -0.30082821156E+04  0.30082821156E+04  0.00000000000E+00 0. -1.
         23    2    1    2    0    0 -0.14255603835E+04 -0.18858612645E+03 -0.12491026220E+04  0.19069180193E+04  0.91059530915E+02 0.  0.
    5000000    2    1    2    0    0  0.14255603835E+04  0.18858612645E+03 -0.10059187416E+04  0.18546248483E+04  0.59997806571E+03 0.  0.
         23    2    4    4    0    0  0.50671576610E+03  0.84004784317E+02 -0.70657929499E+03  0.87835391082E+03  0.91834749127E+02 0.  0.
         23    2    4    4    0    0  0.91884461737E+03  0.10458134213E+03 -0.29933944657E+03  0.97627093748E+03  0.91039283377E+02 0.  0.
          2    1    3    3  502    0 -0.58453133059E+03 -0.89042273215E+02 -0.57122930521E+03  0.82213643758E+03  0.00000000000E+00 0. -1.
         -2    1    3    3    0  502 -0.84102905287E+03 -0.99543853233E+02 -0.67787331674E+03  0.10847815817E+04  0.00000000000E+00 0.  1.
         11    1    5    5    0    0  0.22377500707E+03  0.82157819660E+02 -0.30497145137E+03  0.38708235206E+03  0.00000000000E+00 0. -1.
        -11    1    5    5    0    0  0.28294075903E+03  0.18469646561E+01 -0.40160784361E+03  0.49127155877E+03  0.00000000000E+00 0.  1.
          5    1    6    6  503    0  0.72796670113E+03  0.69996080490E+02 -0.27213813793E+03  0.78033084352E+03  0.47000000000E+01 0. -1.
         -5    1    6    6    0  503  0.19087791624E+03  0.34585261641E+02 -0.27201308641E+02  0.19594009396E+03  0.47000000000E+01 0.  1.
<mgrwt>
<rscale>  0 0.14424415E+04</rscale>
<asrwt>0</asrwt>
<pdfrwt beam="1">  1        2 0.46281264E+00 0.14424415E+04</pdfrwt>
<pdfrwt beam="2">  1       -2 0.11588627E+00 0.14424415E+04</pdfrwt>
<totfact> 0.95531207E-01</totfact>
</mgrwt>
</event>
<event>
12    1  0.3166324E-008  0.1077311E+04  0.7818608E-02  0.9227593E-01
         -1   -1    0    0    0  501 -0.00000000000E+00  0.00000000000E+00  0.96793456709E+03  0.96793456709E+03  0.00000000000E+00 0.  1.
          1   -1    0    0  501    0  0.00000000000E+00 -0.00000000000E+00 -0.13342927389E+04  0.13342927389E+04  0.00000000000E+00 0. -1.
         23    2    1    2    0    0 -0.28331618661E+03  0.97373269734E+03 -0.46460469411E+03  0.11198325169E+04  0.98711279118E+02 0.  0.
    5000000    2    1    2    0    0  0.28331618661E+03 -0.97373269734E+03  0.98246522279E+02  0.11823947891E+04  0.59998469209E+03 0.  0.
         23    2    4    4    0    0  0.42726780165E+03 -0.66402090871E+03  0.19124115898E+03  0.81733680071E+03  0.89357279371E+02 0.  0.
         23    2    4    4    0    0 -0.14395161504E+03 -0.30971178862E+03 -0.92994636700E+02  0.36505798841E+03  0.89307743007E+02 0.  0.
          4    1    3    3  502    0 -0.18385917239E+03  0.68897960123E+03 -0.37214922862E+03  0.80435821283E+03  0.00000000000E+00 0. -1.
         -4    1    3    3    0  502 -0.99457014224E+02  0.28475309611E+03 -0.92455465489E+02  0.31547430406E+03  0.00000000000E+00 0.  1.
         11    1    5    5    0    0  0.10040836364E+03 -0.14040374908E+03  0.79509407416E+02  0.19004420042E+03  0.00000000000E+00 0. -1.
        -11    1    5    5    0    0  0.32685943801E+03 -0.52361715963E+03  0.11173175156E+03  0.62729260029E+03  0.00000000000E+00 0.  1.
          5    1    6    6  503    0 -0.45891877866E+02 -0.33829313387E+02  0.18962910868E+01  0.57237861754E+02  0.47000000000E+01 0. -1.
         -5    1    6    6    0  503 -0.98059737171E+02 -0.27588247524E+03 -0.94890927787E+02  0.30782012665E+03  0.47000000000E+01 0.  1.
<mgrwt>
<rscale>  0 0.10773110E+04</rscale>
<asrwt>0</asrwt>
<pdfrwt beam="1">  1        1 0.20527581E+00 0.10773110E+04</pdfrwt>
<pdfrwt beam="2">  1       -1 0.14891301E+00 0.10773110E+04</pdfrwt>
<totfact> 0.30260157E+00</totfact>
</mgrwt>
</event>
<event>
12    1  0.3166324E-008  0.4741408E+03  0.7818608E-02  0.1020758E+00
         -1   -1    0    0    0  501 -0.00000000000E+00  0.00000000000E+00  0.10570604660E+03  0.10570604660E+03  0.00000000000E+00 0.  1.
          1   -1    0    0  501    0  0.00000000000E+00 -0.00000000000E+00 -0.30382713928E+04  0.30382713928E+04  0.00000000000E+00 0. -1.
         23    2    1    2    0    0  0.21741334729E+03  0.27939654756E+03 -0.15857630669E+04  0.16273709869E+04  0.91437576209E+02 0.  0.
    5000000    2    1    2    0    0 -0.21741334729E+03 -0.27939654756E+03 -0.13468022793E+04  0.15166064525E+04  0.60073934264E+03 0.  0.
         23    2    4    4    0    0 -0.24388624418E+03 -0.37557485883E+03 -0.58316506772E+03  0.74103398748E+03  0.92265376494E+02 0.  0.
         23    2    4    4    0    0  0.26472896889E+02  0.96178311265E+02 -0.76363721156E+03  0.77557246499E+03  0.91759335970E+02 0.  0.
          2    1    3    3  502    0  0.20445627361E+03  0.20351609838E+03 -0.12305067213E+04  0.12638702312E+04  0.00000000000E+00 0. -1.
         -2    1    3    3    0  502  0.12957073682E+02  0.75880449179E+02 -0.35525634554E+03  0.36350075567E+03  0.00000000000E+00 0.  1.
         13    1    5    5    0    0 -0.17826733131E+03 -0.27658353007E+03 -0.48930058708E+03  0.58965477615E+03  0.00000000000E+00 0. -1.
        -13    1    5    5    0    0 -0.65618912873E+02 -0.98991328759E+02 -0.93864480640E+02  0.15137921133E+03  0.00000000000E+00 0.  1.
          5    1    6    6  503    0 -0.28102482883E+02  0.67288575573E+02 -0.37869220424E+03  0.38567781567E+03  0.47000000000E+01 0. -1.
         -5    1    6    6    0  503  0.54575379772E+02  0.28889735691E+02 -0.38494500732E+03  0.38989464931E+03  0.47000000000E+01 0.  1.
<mgrwt>
<rscale>  0 0.47414082E+03</rscale>
<asrwt>0</asrwt>
<pdfrwt beam="1">  1        1 0.46742628E+00 0.47414082E+03</pdfrwt>
<pdfrwt beam="2">  1       -1 0.16262472E-01 0.47414082E+03</pdfrwt>
<totfact> 0.18062679E+01</totfact>
</mgrwt>
</event>
<event>
12    1  0.3166324E-008  0.1355250E+04  0.7818608E-02  0.8986863E-01
         -1   -1    0    0    0  501 -0.00000000000E+00  0.00000000000E+00  0.21213315584E+04  0.21213315584E+04  0.00000000000E+00 0.  1.
          1   -1    0    0  501    0  0.00000000000E+00 -0.00000000000E+00 -0.14803282610E+04  0.14803282610E+04  0.00000000000E+00 0. -1.
         23    2    1    2    0    0 -0.85313244894E+03  0.97448639455E+03  0.14617244484E+04  0.19550926760E+04  0.91051083492E+02 0.  0.
    5000000    2    1    2    0    0  0.85313244894E+03 -0.97448639455E+03 -0.82072115106E+03  0.16465671434E+04  0.60011785612E+03 0.  0.
         23    2    4    4    0    0  0.17230277990E+03 -0.62049619022E+03 -0.31857590952E+03  0.72492936348E+03  0.96582616822E+02 0.  0.
         23    2    4    4    0    0  0.68082966904E+03 -0.35399020433E+03 -0.50214524154E+03  0.92163777989E+03  0.91805504840E+02 0.  0.
          4    1    3    3  502    0 -0.60679174642E+03  0.71592214820E+03  0.11143755786E+04  0.14569055137E+04  0.00000000000E+00 0. -1.
         -4    1    3    3    0  502 -0.24634070252E+03  0.25856424635E+03  0.34734886984E+03  0.49818716220E+03  0.00000000000E+00 0.  1.
         11    1    5    5    0    0  0.12761908853E+03 -0.46164762642E+03 -0.18813953019E+03  0.51458881212E+03  0.00000000000E+00 0. -1.
        -11    1    5    5    0    0  0.44683691373E+02 -0.15884856379E+03 -0.13043637932E+03  0.21034055136E+03  0.00000000000E+00 0.  1.
          5    1    6    6  503    0  0.50868696494E+03 -0.22756568318E+03 -0.33344080960E+03  0.64942546298E+03  0.47000000000E+01 0. -1.
         -5    1    6    6    0  503  0.17214270410E+03 -0.12642452115E+03 -0.16870443193E+03  0.27221231691E+03  0.47000000000E+01 0.  1.
<mgrwt>
<rscale>  0 0.13552502E+04</rscale>
<asrwt>0</asrwt>
<pdfrwt beam="1">  1        1 0.22774281E+00 0.13552502E+04</pdfrwt>
<pdfrwt beam="2">  1       -1 0.32635870E+00 0.13552502E+04</pdfrwt>
<totfact> 0.14475374E-01</totfact>
</mgrwt>
</event>
<event>
12    1  0.3166324E-008  0.9276402E+03  0.7818608E-02  0.9391674E-01
         -1   -1    0    0    0  501 -0.00000000000E+00  0.00000000000E+00  0.95931285611E+03  0.95931285611E+03  0.00000000000E+00 0.  1.
          1   -1    0    0  501    0  0.00000000000E+00 -0.00000000000E+00 -0.10846221293E+04  0.10846221293E+04  0.00000000000E+00 0. -1.
         23    2    1    2    0    0 -0.34592685946E+01 -0.91137846006E+03  0.12638092785E+03  0.92408908940E+03  0.85707888973E+02 0.  0.
    5000000    2    1    2    0    0  0.34592685946E+01  0.91137846006E+03 -0.25169020107E+03  0.11198458960E+04  0.60007017052E+03 0.  0.
         23    2    4    4    0    0 -0.59902149216E+02  0.83351033901E+03 -0.46209355392E+01  0.84009052772E+03  0.86040624163E+02 0.  0.
         23    2    4    4    0    0  0.63361417811E+02  0.77868121045E+02 -0.24706926553E+03  0.27975536831E+03  0.84508760405E+02 0.  0.
          1    1    3    3  502    0 -0.23358231227E+02 -0.72440362686E+02  0.64082308004E+01  0.76382449124E+02  0.00000000000E+00 0. -1.
         -1    1    3    3    0  502  0.19898962632E+02 -0.83893809737E+03  0.11997269705E+03  0.84770664028E+03  0.00000000000E+00 0.  1.
         11    1    5    5    0    0  0.14141006754E+02  0.30686875710E+03 -0.22041392846E+02  0.30798413134E+03  0.00000000000E+00 0. -1.
        -11    1    5    5    0    0 -0.74043155970E+02  0.52664158191E+03  0.17420457307E+02  0.53210639639E+03  0.00000000000E+00 0.  1.
          5    1    6    6  503    0  0.19933279833E+02  0.21951266161E+02 -0.17875520528E+03  0.18125867467E+03  0.47000000000E+01 0. -1.
         -5    1    6    6    0  503  0.43428137978E+02  0.55916854885E+02 -0.68314060251E+02  0.98496693632E+02  0.47000000000E+01 0.  1.
<mgrwt>
<rscale>  0 0.92764020E+03</rscale>
<asrwt>0</asrwt>
<pdfrwt beam="1">  1        1 0.16686494E+00 0.92764020E+03</pdfrwt>
<pdfrwt beam="2">  1       -1 0.14758659E+00 0.92764020E+03</pdfrwt>
<totfact> 0.48018310E+00</totfact>
</mgrwt>
</event>
<event>
12    1  0.3166324E-008  0.1565764E+04  0.7818608E-02  0.8841861E-01
          1   -1    0    0  501    0  0.00000000000E+00  0.00000000000E+00  0.18532317430E+04  0.18532317430E+04  0.00000000000E+00 0. -1.
         -1   -1    0    0    0  501 -0.00000000000E+00 -0.00000000000E+00 -0.16361866406E+04  0.16361866406E+04  0.00000000000E+00 0.  1.
         23    2    1    2    0    0 -0.59017414478E+03 -0.13927126681E+04 -0.64615649850E+03  0.16473292052E+04  0.90670794600E+02 0.  0.
    5000000    2    1    2    0    0  0.59017414478E+03  0.13927126681E+04  0.86320160086E+03  0.18420891783E+04  0.60018450521E+03 0.  0.
         23    2    4    4    0    0  0.63864698633E+03  0.85461981169E+03  0.65784595968E+03  0.12568269777E+04  0.92777958417E+02 0.  0.
         23    2    4    4    0    0 -0.48472841548E+02  0.53809285636E+03  0.20535564119E+03  0.58526220063E+03  0.92018289898E+02 0.  0.
          1    1    3    3  502    0 -0.22997357068E+03 -0.58443028658E+03 -0.22316726508E+03  0.66652099088E+03  0.00000000000E+00 0. -1.
         -1    1    3    3    0  502 -0.36020057409E+03 -0.80828238147E+03 -0.42298923342E+03  0.98080821436E+03  0.00000000000E+00 0.  1.
         13    1    5    5    0    0  0.21542472227E+03  0.22030449632E+03  0.17728870340E+03  0.35549003702E+03  0.00000000000E+00 0.  1.
        -13    1    5    5    0    0  0.42322226405E+03  0.63431531537E+03  0.48055725627E+03  0.90133694069E+03  0.00000000000E+00 0. -1.
          5    1    6    6  503    0 -0.70747610158E+02  0.28131688380E+03  0.10180602722E+03  0.30745889259E+03  0.47000000000E+01 0. -1.
         -5    1    6    6    0  503  0.22274768611E+02  0.25677597257E+03  0.10354961397E+03  0.27780330804E+03  0.47000000000E+01 0.  1.
<mgrwt>
<rscale>  0 0.15657637E+04</rscale>
<asrwt>0</asrwt>
<pdfrwt beam="1">  1        1 0.28511258E+00 0.15657637E+04</pdfrwt>
<pdfrwt beam="2">  1       -1 0.25172102E+00 0.15657637E+04</pdfrwt>
<totfact> 0.23853658E-01</totfact>
</mgrwt>
</event>
<event>
12    1  0.3166324E-008  0.1243903E+04  0.7818608E-02  0.9075273E-01
         -2   -1    0    0    0  501 -0.00000000000E+00  0.00000000000E+00  0.21332151769E+04  0.21332151769E+04  0.00000000000E+00 0.  1.
          2   -1    0    0  501    0  0.00000000000E+00 -0.00000000000E+00 -0.10994337004E+04  0.10994337004E+04  0.00000000000E+00 0. -1.
         23    2    1    2    0    0 -0.68167510865E+03 -0.10265934206E+04 -0.35072222138E+03  0.12845612160E+04  0.92284538571E+02 0.  0.
    5000000    2    1    2    0    0  0.68167510865E+03  0.10265934206E+04  0.13845036979E+04  0.19480876613E+04  0.59968328451E+03 0.  0.
         23    2    4    4    0    0  0.35718980595E+03  0.67708553479E+03  0.12046104026E+04  0.14301673809E+04  0.90901795808E+02 0.  0.
         23    2    4    4    0    0  0.32448530269E+03  0.34950788584E+03  0.17989329527E+03  0.51792028039E+03  0.91833246891E+02 0.  0.
          1    1    3    3  502    0 -0.51239854308E+03 -0.69519860300E+03 -0.24397096064E+03  0.89742698545E+03  0.00000000000E+00 0. -1.
         -1    1    3    3    0  502 -0.16927656556E+03 -0.33139481763E+03 -0.10675126074E+03  0.38713423056E+03  0.00000000000E+00 0.  1.
         11    1    5    5    0    0  0.10841706758E+03  0.28459787059E+03  0.52343621819E+03  0.60558705650E+03  0.00000000000E+00 0. -1.
        -11    1    5    5    0    0  0.24877273837E+03  0.39248766421E+03  0.68117418443E+03  0.82458032443E+03  0.00000000000E+00 0.  1.
          5    1    6    6  503    0  0.92060011209E+02  0.15201787910E+03  0.39446386359E+02  0.18210598185E+03  0.47000000000E+01 0. -1.
         -5    1    6    6    0  503  0.23242529148E+03  0.19749000674E+03  0.14044690891E+03  0.33581429854E+03  0.47000000000E+01 0.  1.
<mgrwt>
<rscale>  0 0.12439032E+04</rscale>
<asrwt>0</asrwt>
<pdfrwt beam="1">  1        2 0.16914365E+00 0.12439032E+04</pdfrwt>
<pdfrwt beam="2">  1       -2 0.32818695E+00 0.12439032E+04</pdfrwt>
<totfact> 0.45265065E-01</totfact>
</mgrwt>
</event>
<event>
12    1  0.3166324E-008  0.8630668E+03  0.7818608E-02  0.9472965E-01
         -1   -1    0    0    0  501 -0.00000000000E+00  0.00000000000E+00  0.10486463102E+04  0.10486463102E+04  0.00000000000E+00 0.  1.
          1   -1    0    0  501    0  0.00000000000E+00 -0.00000000000E+00 -0.73758790702E+03  0.73758790702E+03  0.00000000000E+00 0. -1.
         23    2    1    2    0    0 -0.43990740291E+03  0.63156913957E+03  0.22051977519E+03  0.80595873951E+03  0.92425198609E+02 0.  0.
    5000000    2    1    2    0    0  0.43990740291E+03 -0.63156913957E+03  0.90538627990E+02  0.98027547773E+03  0.60028715451E+03 0.  0.
         23    2    4    4    0    0 -0.10980869407E+03 -0.22854847005E+03 -0.59095300096E+02  0.27644978543E+03  0.92950938203E+02 0.  0.
         23    2    4    4    0    0  0.54971609698E+03 -0.40302066952E+03  0.14963392809E+03  0.70382569230E+03  0.91470461676E+02 0.  0.
          3    1    3    3  502    0 -0.30575987459E+03  0.49239446748E+03  0.19192597981E+03  0.61055466114E+03  0.00000000000E+00 0. -1.
         -3    1    3    3    0  502 -0.13414752833E+03  0.13917467209E+03  0.28593795378E+02  0.19540407836E+03  0.00000000000E+00 0.  1.
         13    1    5    5    0    0 -0.95684999425E+02 -0.99024271022E+02 -0.47415533120E+02  0.14563536022E+03  0.00000000000E+00 0.  1.
        -13    1    5    5    0    0 -0.14123694648E+02 -0.12952419903E+03 -0.11679766976E+02  0.13081442521E+03  0.00000000000E+00 0. -1.
          5    1    6    6  503    0  0.12060635681E+03 -0.12584679562E+03  0.12200465458E+02  0.17479774206E+03  0.47000000000E+01 0. -1.
         -5    1    6    6    0  503  0.42910974017E+03 -0.27717387390E+03  0.13743346263E+03  0.52902795024E+03  0.47000000000E+01 0.  1.
<mgrwt>
<rscale>  0 0.86306684E+03</rscale>
<asrwt>0</asrwt>
<pdfrwt beam="1">  1        1 0.11347506E+00 0.86306684E+03</pdfrwt>
<pdfrwt beam="2">  1       -1 0.16133020E+00 0.86306684E+03</pdfrwt>
<totfact> 0.73062521E+00</totfact>
</mgrwt>
</event>
<event>
12    1  0.3166324E-008  0.4336926E+03  0.7818608E-02  0.1032700E+00
         -1   -1    0    0    0  501 -0.00000000000E+00  0.00000000000E+00  0.10925825811E+03  0.10925825811E+03  0.00000000000E+00 0.  1.
          1   -1    0    0  501    0  0.00000000000E+00 -0.00000000000E+00 -0.19795171975E+04  0.19795171975E+04  0.00000000000E+00 0. -1.
         23    2    1    2    0    0 -0.15237259917E+03  0.18659565100E+03 -0.32704979240E+03  0.41556163975E+03  0.87718662594E+02 0.  0.
    5000000    2    1    2    0    0  0.15237259917E+03 -0.18659565100E+03 -0.15432091470E+04  0.16732138159E+04  0.60009553934E+03 0.  0.
         23    2    4    4    0    0 -0.19262613668E+03 -0.15787605474E+03 -0.88360554062E+03  0.92247779591E+03  0.90425966047E+02 0.  0.
         23    2    4    4    0    0  0.34499873585E+03 -0.28719596258E+02 -0.65960360639E+03  0.75073601999E+03  0.93159600680E+02 0.  0.
          3    1    3    3  502    0 -0.14124170569E+03  0.11330256120E+03 -0.24947159353E+03  0.30825762891E+03  0.00000000000E+00 0. -1.
         -3    1    3    3    0  502 -0.11130893480E+02  0.73293089796E+02 -0.77578198875E+02  0.10730401084E+03  0.00000000000E+00 0.  1.
         11    1    5    5    0    0 -0.75444473849E+02 -0.11364960574E+03 -0.38763627666E+03  0.41093793266E+03  0.00000000000E+00 0. -1.
        -11    1    5    5    0    0 -0.11718166283E+03 -0.44226449004E+02 -0.49596926396E+03  0.51153986324E+03  0.00000000000E+00 0.  1.
          5    1    6    6  503    0  0.15562622215E+03 -0.39998943120E+02 -0.38224574489E+03  0.41467256475E+03  0.47000000000E+01 0. -1.
         -5    1    6    6    0  503  0.18937251369E+03  0.11279346862E+02 -0.27735786150E+03  0.33606345524E+03  0.47000000000E+01 0.  1.
<mgrwt>
<rscale>  0 0.43369256E+03</rscale>
<asrwt>0</asrwt>
<pdfrwt beam="1">  1        1 0.30454111E+00 0.43369256E+03</pdfrwt>
<pdfrwt beam="2">  1       -1 0.16808963E-01 0.43369256E+03</pdfrwt>
<totfact> 0.90286399E+01</totfact>
</mgrwt>
</event>
<event>
12    1  0.3166324E-008  0.4970568E+03  0.7818608E-02  0.1014550E+00
         -1   -1    0    0    0  501 -0.00000000000E+00  0.00000000000E+00  0.42898516366E+03  0.42898516366E+03  0.00000000000E+00 0.  1.
          1   -1    0    0  501    0  0.00000000000E+00 -0.00000000000E+00 -0.91116435843E+03  0.91116435843E+03  0.00000000000E+00 0. -1.
         23    2    1    2    0    0  0.32209827537E+03 -0.33978494879E+03 -0.98436027888E+02  0.48777700007E+03  0.95055982428E+02 0.  0.
    5000000    2    1    2    0    0 -0.32209827537E+03  0.33978494879E+03 -0.38374316688E+03  0.85237252201E+03  0.60006581950E+03 0.  0.
         23    2    4    4    0    0 -0.23130633534E+03  0.88404185485E+02  0.10708173628E+03  0.28603562544E+03  0.95036624480E+02 0.  0.
         23    2    4    4    0    0 -0.90791940031E+02  0.25138076330E+03 -0.49082490316E+03  0.56633689658E+03  0.91612937551E+02 0.  0.
          3    1    3    3  502    0  0.40381787338E+02 -0.52517911015E+02  0.18490413494E+02  0.68780194222E+02  0.00000000000E+00 0.  1.
         -3    1    3    3    0  502  0.28171648804E+03 -0.28726703777E+03 -0.11692644138E+03  0.41899680585E+03  0.00000000000E+00 0. -1.
         11    1    5    5    0    0 -0.22582550498E+03  0.77983017192E+02  0.12099995390E+03  0.26780496357E+03  0.00000000000E+00 0.  1.
        -11    1    5    5    0    0 -0.54808303622E+01  0.10421168293E+02 -0.13918217625E+02  0.18230661861E+02  0.00000000000E+00 0. -1.
          5    1    6    6  503    0 -0.14228837817E+02  0.35521504685E+01 -0.72350287856E+02  0.73971154861E+02  0.47000000000E+01 0. -1.
         -5    1    6    6    0  503 -0.76563102215E+02  0.24782861283E+03 -0.41847461531E+03  0.49236574172E+03  0.47000000000E+01 0.  1.
<mgrwt>
<rscale>  0 0.49705679E+03</rscale>
<asrwt>0</asrwt>
<pdfrwt beam="1">  1        1 0.14017913E+00 0.49705679E+03</pdfrwt>
<pdfrwt beam="2">  1       -1 0.65997718E-01 0.49705679E+03</pdfrwt>
<totfact> 0.43804915E+01</totfact>
</mgrwt>
</event>
<event>
12    1  0.3166324E-008  0.6651946E+03  0.7818608E-02  0.9778678E-01
          2   -1    0    0  501    0  0.00000000000E+00  0.00000000000E+00  0.10850007397E+04  0.10850007397E+04  0.00000000000E+00 0.  1.
         -2   -1    0    0    0  501 -0.00000000000E+00 -0.00000000000E+00 -0.43422776326E+03  0.43422776326E+03  0.00000000000E+00 0. -1.
         23    2    1    2    0    0 -0.51495868273E+03 -0.19251132052E+03  0.30987817399E+03  0.63682050042E+03  0.85280792694E+02 0.  0.
    5000000    2    1    2    0    0  0.51495868273E+03  0.19251132052E+03  0.34089480242E+03  0.88240800250E+03  0.60015961470E+03 0.  0.
         23    2    4    4    0    0  0.27246630931E+03  0.37331354014E+03  0.89963407482E+02  0.47925880602E+03  0.89413083530E+02 0.  0.
         23    2    4    4    0    0  0.24249237342E+03 -0.18080221963E+03  0.25093139494E+03  0.40314919648E+03  0.89837163063E+02 0.  0.
          2    1    3    3  502    0 -0.43689984627E+03 -0.16583831929E+03  0.22570904944E+03  0.51896859135E+03  0.00000000000E+00 0. -1.
         -2    1    3    3    0  502 -0.78058836458E+02 -0.26673001231E+02  0.84169124551E+02  0.11785190907E+03  0.00000000000E+00 0.  1.
         11    1    5    5    0    0  0.34189189527E+02  0.98573875983E+02  0.41859094513E+02  0.11241838595E+03  0.00000000000E+00 0.  1.
        -11    1    5    5    0    0  0.23827711978E+03  0.27473966416E+03  0.48104312970E+02  0.36684042007E+03  0.00000000000E+00 0. -1.
          5    1    6    6  503    0  0.49822773393E+01 -0.30962957698E+02  0.44225091078E+02  0.54419449811E+02  0.47000000000E+01 0. -1.
         -5    1    6    6    0  503  0.23751009608E+03 -0.14983926193E+03  0.20670630386E+03  0.34872974667E+03  0.47000000000E+01 0.  1.
<mgrwt>
<rscale>  0 0.66519460E+03</rscale>
<asrwt>0</asrwt>
<pdfrwt beam="1">  1        2 0.16692319E+00 0.66519460E+03</pdfrwt>
<pdfrwt beam="2">  1       -2 0.66804272E-01 0.66519460E+03</pdfrwt>
<totfact> 0.46944158E+01</totfact>
</mgrwt>
</event>
<event>
12    1  0.3166324E-008  0.4345108E+03  0.7818608E-02  0.1032444E+00
         -1   -1    0    0    0  501 -0.00000000000E+00  0.00000000000E+00  0.17335825166E+03  0.17335825166E+03  0.00000000000E+00 0.  1.
          1   -1    0    0  501    0  0.00000000000E+00 -0.00000000000E+00 -0.14378000781E+04  0.14378000781E+04  0.00000000000E+00 0. -1.
         23    2    1    2    0    0 -0.24289531221E+03 -0.18549402476E+03 -0.32622205907E+03  0.45629937547E+03  0.91553931141E+02 0.  0.
    5000000    2    1    2    0    0  0.24289531221E+03  0.18549402476E+03 -0.93821976740E+03  0.11548589543E+04  0.60003058798E+03 0.  0.
         23    2    4    4    0    0 -0.98144506031E+02  0.15303785246E+03 -0.69684247180E+03  0.72565071247E+03  0.89031441865E+02 0.  0.
         23    2    4    4    0    0  0.34103981825E+03  0.32456172297E+02 -0.24137729559E+03  0.42920824185E+03  0.92710060392E+02 0.  0.
          2    1    3    3  502    0 -0.14567505789E+03 -0.53820634507E+02 -0.15412226613E+03  0.21879569490E+03  0.00000000000E+00 0. -1.
         -2    1    3    3    0  502 -0.97220254328E+02 -0.13167339025E+03 -0.17209979294E+03  0.23750368057E+03  0.00000000000E+00 0.  1.
         13    1    5    5    0    0 -0.12430403484E+02  0.96050123705E+02 -0.39662056229E+03  0.40827443175E+03  0.00000000000E+00 0. -1.
        -13    1    5    5    0    0 -0.85714102548E+02  0.56987728758E+02 -0.30022190952E+03  0.31737628071E+03  0.00000000000E+00 0.  1.
          5    1    6    6  503    0  0.62292875423E+02 -0.21962117451E+02 -0.74881776913E+02  0.99960529435E+02  0.47000000000E+01 0.  1.
         -5    1    6    6    0  503  0.27874694282E+03  0.54418289747E+02 -0.16649551868E+03  0.32924771242E+03  0.47000000000E+01 0. -1.
<mgrwt>
<rscale>  0 0.43451082E+03</rscale>
<asrwt>0</asrwt>
<pdfrwt beam="1">  1        1 0.22120002E+00 0.43451082E+03</pdfrwt>
<pdfrwt beam="2">  1       -1 0.26670499E-01 0.43451082E+03</pdfrwt>
<totfact> 0.96151029E+01</totfact>
</mgrwt>
</event>
<event>
12    1  0.3166324E-008  0.6301877E+03  0.7818608E-02  0.9844683E-01
         -2   -1    0    0    0  501 -0.00000000000E+00  0.00000000000E+00  0.56771627923E+03  0.56771627923E+03  0.00000000000E+00 0.  1.
          2   -1    0    0  501    0  0.00000000000E+00 -0.00000000000E+00 -0.83758459918E+03  0.83758459918E+03  0.00000000000E+00 0. -1.
         23    2    1    2    0    0  0.50738208657E+03 -0.42597613134E+02  0.11287348576E+03  0.53049317627E+03  0.97115641719E+02 0.  0.
    5000000    2    1    2    0    0 -0.50738208657E+03  0.42597613134E+02 -0.38274180570E+03  0.87480770214E+03  0.59962162025E+03 0.  0.
         23    2    4    4    0    0  0.99055005098E+02 -0.37431975734E+02  0.15473192516E+02  0.13932347115E+03  0.89210778978E+02 0.  0.
         23    2    4    4    0    0 -0.60643709167E+03  0.80029588868E+02 -0.39821499822E+03  0.73548423098E+03  0.90505182005E+02 0.  0.
          2    1    3    3  502    0  0.33643913765E+03 -0.74149231181E+02  0.74264434803E+02  0.35242674147E+03  0.00000000000E+00 0. -1.
         -2    1    3    3    0  502  0.17094294892E+03  0.31551618047E+02  0.38609050952E+02  0.17806643480E+03  0.00000000000E+00 0.  1.
         13    1    5    5    0    0  0.32358371643E+02  0.18008307757E+02 -0.23900146884E+02  0.44074713666E+02  0.00000000000E+00 0. -1.
        -13    1    5    5    0    0  0.66696633455E+02 -0.55440283491E+02  0.39373339400E+02  0.95248757489E+02  0.00000000000E+00 0.  1.
          5    1    6    6  503    0 -0.56241750812E+03  0.97223731368E+02 -0.37081287288E+03  0.68065423239E+03  0.47000000000E+01 0. -1.
         -5    1    6    6    0  503 -0.44019583549E+02 -0.17194142500E+02 -0.27402125342E+02  0.54829998591E+02  0.47000000000E+01 0.  1.
<mgrwt>
<rscale>  0 0.63018772E+03</rscale>
<asrwt>0</asrwt>
<pdfrwt beam="1">  1        2 0.12885917E+00 0.63018772E+03</pdfrwt>
<pdfrwt beam="2">  1       -2 0.87340966E-01 0.63018772E+03</pdfrwt>
<totfact> 0.37612451E+01</totfact>
</mgrwt>
</event>
<event>
12    1  0.3166324E-008  0.8402892E+03  0.7818608E-02  0.9503464E-01
          2   -1    0    0  501    0  0.00000000000E+00  0.00000000000E+00  0.17887334647E+04  0.17887334647E+04  0.00000000000E+00 0. -1.
         -2   -1    0    0    0  501 -0.00000000000E+00 -0.00000000000E+00 -0.48394321959E+03  0.48394321959E+03  0.00000000000E+00 0.  1.
         23    2    1    2    0    0 -0.41323327862E+03  0.71919660394E+03  0.52479300651E+03  0.98564478769E+03  0.89902447904E+02 0.  0.
    5000000    2    1    2    0    0  0.41323327862E+03 -0.71919660394E+03  0.77999723859E+03  0.12870318966E+04  0.60004159268E+03 0.  0.
         23    2    4    4    0    0  0.27747048372E+03 -0.44991031465E+03  0.80936037073E+03  0.97103046226E+03  0.91797540042E+02 0.  0.
         23    2    4    4    0    0  0.13576279490E+03 -0.26928628929E+03 -0.29363132139E+02  0.31600143433E+03  0.89711041089E+02 0.  0.
          3    1    3    3  502    0 -0.35698185202E+03  0.62880644731E+03  0.49070588154E+03  0.87385688361E+03  0.00000000000E+00 0. -1.
         -3    1    3    3    0  502 -0.56251426599E+02  0.90390156632E+02  0.34087124968E+02  0.11178790408E+03  0.00000000000E+00 0.  1.
         13    1    5    5    0    0  0.15216722969E+03 -0.32815778603E+03  0.55302708485E+03  0.66081870048E+03  0.00000000000E+00 0. -1.
        -13    1    5    5    0    0  0.12530325403E+03 -0.12175252862E+03  0.25633328589E+03  0.31021176178E+03  0.00000000000E+00 0.  1.
          5    1    6    6  503    0  0.23705813269E+02 -0.14580743208E+03 -0.11742445937E+02  0.14826242905E+03  0.47000000000E+01 0. -1.
         -5    1    6    6    0  503  0.11205698163E+03 -0.12347885721E+03 -0.17620686202E+02  0.16773900527E+03  0.47000000000E+01 0.  1.
<mgrwt>
<rscale>  0 0.84028917E+03</rscale>
<asrwt>0</asrwt>
<pdfrwt beam="1">  1        2 0.27518976E+00 0.84028917E+03</pdfrwt>
<pdfrwt beam="2">  1       -2 0.74452804E-01 0.84028917E+03</pdfrwt>
<totfact> 0.14464060E+01</totfact>
</mgrwt>
</event>
<event>
12    1  0.3166324E-008  0.9073210E+03  0.7818608E-02  0.9416476E-01
          1   -1    0    0  501    0  0.00000000000E+00  0.00000000000E+00  0.24995913832E+04  0.24995913832E+04  0.00000000000E+00 0. -1.
         -1   -1    0    0    0  501 -0.00000000000E+00 -0.00000000000E+00 -0.10496137067E+04  0.10496137067E+04  0.00000000000E+00 0.  1.
         23    2    1    2    0    0  0.36452335232E+03 -0.73940672079E+03 -0.75385203392E+03  0.11207020176E+04  0.89891880194E+02 0.  0.
    5000000    2    1    2    0    0 -0.36452335232E+03  0.73940672079E+03  0.22038297104E+04  0.24285030723E+04  0.60096772504E+03 0.  0.
         23    2    4    4    0    0 -0.13847218384E+03  0.74358368995E+03  0.18361582153E+04  0.19879550851E+04  0.91636122140E+02 0.  0.
         23    2    4    4    0    0 -0.22605116848E+03 -0.41769691595E+01  0.36767149510E+03  0.44054798725E+03  0.88224842958E+02 0.  0.
          3    1    3    3  502    0  0.17791167817E+03 -0.30180140487E+03 -0.27158524548E+03  0.44327778963E+03  0.00000000000E+00 0. -1.
         -3    1    3    3    0  502  0.18661167415E+03 -0.43760531591E+03 -0.48226678843E+03  0.67742422799E+03  0.00000000000E+00 0.  1.
         13    1    5    5    0    0 -0.47360106815E+02  0.22988827641E+03  0.46460807170E+03  0.52053074802E+03  0.00000000000E+00 0.  1.
        -13    1    5    5    0    0 -0.91112077027E+02  0.51369541354E+03  0.13715501436E+04  0.14674243371E+04  0.00000000000E+00 0. -1.
          5    1    6    6  503    0 -0.35024227541E+02 -0.19645573660E+02  0.23990420312E+02  0.47013565553E+02  0.47000000000E+01 0. -1.
         -5    1    6    6    0  503 -0.19102694094E+03  0.15468604500E+02  0.34368107479E+03  0.39353442170E+03  0.47000000000E+01 0.  1.
<mgrwt>
<rscale>  0 0.90732100E+03</rscale>
<asrwt>0</asrwt>
<pdfrwt beam="1">  1        1 0.38455252E+00 0.90732100E+03</pdfrwt>
<pdfrwt beam="2">  1       -1 0.16147903E+00 0.90732100E+03</pdfrwt>
<totfact> 0.40022579E-01</totfact>
</mgrwt>
</event>
<event>
12    1  0.3166324E-008  0.6402110E+03  0.7818608E-02  0.9825323E-01
         -2   -1    0    0    0  501 -0.00000000000E+00  0.00000000000E+00  0.26901651856E+03  0.26901651856E+03  0.00000000000E+00 0.  1.
          2   -1    0    0  501    0  0.00000000000E+00 -0.00000000000E+00 -0.23070902233E+04  0.23070902233E+04  0.00000000000E+00 0. -1.
         23    2    1    2    0    0 -0.21886907198E+03  0.45655857592E+03 -0.15922243693E+04  0.16732648114E+04  0.91034514943E+02 0.  0.
    5000000    2    1    2    0    0  0.21886907198E+03 -0.45655857592E+03 -0.44584933546E+03  0.90284193050E+03  0.59999376465E+03 0.  0.
         23    2    4    4    0    0  0.52666291182E+02  0.12782110701E+03 -0.12235263972E+03  0.20854177877E+03  0.96992429720E+02 0.  0.
         23    2    4    4    0    0  0.16620278080E+03 -0.58437968293E+03 -0.32349669575E+03  0.69430015173E+03  0.90992364301E+02 0.  0.
          3    1    3    3  502    0 -0.93177271685E+02  0.11744066587E+03 -0.55041457973E+03  0.57046518171E+03  0.00000000000E+00 0. -1.
         -3    1    3    3    0  502 -0.12569180030E+03  0.33911791005E+03 -0.10418097896E+04  0.11027996297E+04  0.00000000000E+00 0.  1.
         13    1    5    5    0    0  0.53055245336E+01  0.11054252694E+03 -0.11124591341E+03  0.15691861618E+03  0.00000000000E+00 0. -1.
        -13    1    5    5    0    0  0.47360766648E+02  0.17278580068E+02 -0.11106726309E+02  0.51623162592E+02  0.00000000000E+00 0.  1.
          5    1    6    6  503    0  0.12727511231E+03 -0.42860009902E+03 -0.28116064412E+03  0.52817648271E+03  0.47000000000E+01 0. -1.
         -5    1    6    6    0  503  0.38927668493E+02 -0.15577958392E+03 -0.42336051625E+02  0.16612366902E+03  0.47000000000E+01 0.  1.
<mgrwt>
<rscale>  0 0.64021097E+03</rscale>
<asrwt>0</asrwt>
<pdfrwt beam="1">  1        2 0.35493695E+00 0.64021097E+03</pdfrwt>
<pdfrwt beam="2">  1       -2 0.41387158E-01 0.64021097E+03</pdfrwt>
<totfact> 0.26273658E+01</totfact>
</mgrwt>
</event>
<event>
12    1  0.3166324E-008  0.7818727E+03  0.7818608E-02  0.9586633E-01
          1   -1    0    0  501    0  0.00000000000E+00  0.00000000000E+00  0.10812631519E+04  0.10812631519E+04  0.00000000000E+00 0. -1.
         -1   -1    0    0    0  501 -0.00000000000E+00 -0.00000000000E+00 -0.68045157078E+03  0.68045157078E+03  0.00000000000E+00 0.  1.
         23    2    1    2    0    0  0.33372864003E+03 -0.62700820880E+03  0.42290899411E+03  0.83166694238E+03  0.91125115460E+02 0.  0.
    5000000    2    1    2    0    0 -0.33372864003E+03  0.62700820880E+03 -0.22097412969E+02  0.93004778033E+03  0.59998873236E+03 0.  0.
         23    2    4    4    0    0 -0.43260579575E+03  0.35486635022E+03  0.14430545130E+03  0.58493904977E+03  0.90839020460E+02 0.  0.
         23    2    4    4    0    0  0.98877155720E+02  0.27214185859E+03 -0.16640286427E+03  0.34510873056E+03  0.87018616128E+02 0.  0.
          3    1    3    3  502    0  0.20342431951E+03 -0.38997087532E+03  0.20981770965E+03  0.48732146336E+03  0.00000000000E+00 0. -1.
         -3    1    3    3    0  502  0.13030432052E+03 -0.23703733348E+03  0.21309128446E+03  0.34434547902E+03  0.00000000000E+00 0.  1.
         13    1    5    5    0    0 -0.16132235066E+03  0.13255963698E+03  0.99694652358E+02  0.23137843869E+03  0.00000000000E+00 0. -1.
        -13    1    5    5    0    0 -0.27128344509E+03  0.22230671323E+03  0.44610798944E+02  0.35356061109E+03  0.00000000000E+00 0.  1.
          5    1    6    6  503    0  0.10367727704E+02  0.96225443021E+02 -0.18178670358E+02  0.98586914539E+02  0.47000000000E+01 0.  1.
         -5    1    6    6    0  503  0.88509428016E+02  0.17591641557E+03 -0.14822419391E+03  0.24652181602E+03  0.47000000000E+01 0. -1.
<mgrwt>
<rscale>  0 0.78187268E+03</rscale>
<asrwt>0</asrwt>
<pdfrwt beam="1">  1        1 0.16634818E+00 0.78187268E+03</pdfrwt>
<pdfrwt beam="2">  1       -1 0.10468486E+00 0.78187268E+03</pdfrwt>
<totfact> 0.11548221E+01</totfact>
</mgrwt>
</event>
<event>
12    1  0.3166324E-008  0.7418242E+03  0.7818608E-02  0.9648265E-01
         -1   -1    0    0    0  501 -0.00000000000E+00  0.00000000000E+00  0.18306032027E+04  0.18306032027E+04  0.00000000000E+00 0.  1.
          1   -1    0    0  501    0  0.00000000000E+00 -0.00000000000E+00 -0.49588760614E+03  0.49588760614E+03  0.00000000000E+00 0. -1.
         23    2    1    2    0    0  0.47654363062E+03 -0.39953729450E+03  0.13204940007E+04  0.14622276695E+04  0.87643996519E+02 0.  0.
    5000000    2    1    2    0    0 -0.47654363062E+03  0.39953729450E+03  0.14221595919E+02  0.86426313935E+03  0.60002053187E+03 0.  0.
         23    2    4    4    0    0  0.51486708538E+02  0.29930274713E+03  0.40384163065E+02  0.31872665869E+03  0.87879387445E+02 0.  0.
         23    2    4    4    0    0 -0.52803033916E+03  0.10023454736E+03 -0.26162567146E+02  0.54553648065E+03  0.89791805007E+02 0.  0.
          4    1    3    3  502    0  0.10953063900E+03 -0.53290146057E+02  0.30083591631E+03  0.32455977737E+03  0.00000000000E+00 0. -1.
         -4    1    3    3    0  502  0.36701299162E+03 -0.34624714844E+03  0.10196580843E+04  0.11376678921E+04  0.00000000000E+00 0.  1.
         11    1    5    5    0    0 -0.10890183913E+02  0.18067780125E+03  0.98873888425E+01  0.18127554834E+03  0.00000000000E+00 0. -1.
        -11    1    5    5    0    0  0.62376892451E+02  0.11862494589E+03  0.30496774223E+02  0.13745111035E+03  0.00000000000E+00 0.  1.
          5    1    6    6  503    0 -0.33624198441E+03  0.98457722758E+02 -0.42634681089E+02  0.35297648828E+03  0.47000000000E+01 0. -1.
         -5    1    6    6    0  503 -0.19178835475E+03  0.17768246055E+01  0.16472113943E+02  0.19255999237E+03  0.47000000000E+01 0.  1.
<mgrwt>
<rscale>  0 0.74182422E+03</rscale>
<asrwt>0</asrwt>
<pdfrwt beam="1">  1        1 0.76290402E-01 0.74182422E+03</pdfrwt>
<pdfrwt beam="2">  1       -1 0.28163126E+00 0.74182422E+03</pdfrwt>
<totfact> 0.20459158E+00</totfact>
</mgrwt>
</event>
<event>
12    1  0.3166324E-008  0.8056141E+03  0.7818608E-02  0.9551926E-01
          1   -1    0    0  501    0  0.00000000000E+00  0.00000000000E+00  0.37932298472E+03  0.37932298472E+03  0.00000000000E+00 0. -1.
         -1   -1    0    0    0  501 -0.00000000000E+00 -0.00000000000E+00 -0.20102364554E+04  0.20102364554E+04  0.00000000000E+00 0.  1.
         23    2    1    2    0    0 -0.72860032933E+03 -0.21562520681E+03 -0.57729228280E+03  0.95861299452E+03  0.91213068017E+02 0.  0.
    5000000    2    1    2    0    0  0.72860032933E+03  0.21562520681E+03 -0.10536211879E+04  0.14309464456E+04  0.60011453317E+03 0.  0.
         23    2    4    4    0    0  0.59821052332E+03  0.30184521489E+03 -0.10519689384E+04  0.12505151029E+04  0.90459997892E+02 0.  0.
         23    2    4    4    0    0  0.13038980601E+03 -0.86220008085E+02 -0.16522494885E+01  0.18043134272E+03  0.90096327355E+02 0.  0.
          1    1    3    3  502    0 -0.53725957918E+03 -0.12881087157E+03 -0.45325260291E+03  0.71461739281E+03  0.00000000000E+00 0. -1.
         -1    1    3    3    0  502 -0.19134075014E+03 -0.86814335236E+02 -0.12403967989E+03  0.24399560171E+03  0.00000000000E+00 0.  1.
         13    1    5    5    0    0  0.31050911831E+03  0.19456199401E+03 -0.62704024579E+03  0.72625735928E+03  0.00000000000E+00 0.  1.
        -13    1    5    5    0    0  0.28770140501E+03  0.10728322088E+03 -0.42492869263E+03  0.52425774362E+03  0.00000000000E+00 0. -1.
          5    1    6    6  503    0  0.88570309554E+02 -0.11563427271E+02 -0.22499052503E+02  0.92231827198E+02  0.47000000000E+01 0. -1.
         -5    1    6    6    0  503  0.41819496452E+02 -0.74656580814E+02  0.20846803014E+02  0.88199515522E+02  0.47000000000E+01 0.  1.
<mgrwt>
<rscale>  0 0.80561406E+03</rscale>
<asrwt>0</asrwt>
<pdfrwt beam="1">  1        1 0.58357382E-01 0.80561406E+03</pdfrwt>
<pdfrwt beam="2">  1       -1 0.30926715E+00 0.80561406E+03</pdfrwt>
<totfact> 0.19316370E+00</totfact>
</mgrwt>
</event>
<event>
12    1  0.3166324E-008  0.5979163E+03  0.7818608E-02  0.9909738E-01
         -2   -1    0    0    0  501 -0.00000000000E+00  0.00000000000E+00  0.93842507236E+03  0.93842507236E+03  0.00000000000E+00 0.  1.
          2   -1    0    0  501    0  0.00000000000E+00 -0.00000000000E+00 -0.99103116885E+03  0.99103116885E+03  0.00000000000E+00 0. -1.
         23    2    1    2    0    0 -0.45003693564E+03  0.86000597108E+02 -0.76124093251E+03  0.89349941460E+03  0.94467456971E+02 0.  0.
    5000000    2    1    2    0    0  0.45003693564E+03 -0.86000597108E+02  0.70863483603E+03  0.10359568266E+04  0.60092750779E+03 0.  0.
         23    2    4    4    0    0  0.14670883368E+03 -0.31336202127E+03  0.26057202290E+03  0.44264944369E+03  0.91222325266E+02 0.  0.
         23    2    4    4    0    0  0.30332810195E+03  0.22736142416E+03  0.44806281313E+03  0.59330738292E+03  0.86903460704E+02 0.  0.
          3    1    3    3  502    0 -0.57896458918E+02  0.19568434385E+01 -0.16550083911E+03  0.17534639129E+03  0.00000000000E+00 0. -1.
         -3    1    3    3    0  502 -0.39214047672E+03  0.84043753669E+02 -0.59574009340E+03  0.71815302331E+03  0.00000000000E+00 0.  1.
         11    1    5    5    0    0 -0.12612542502E+02 -0.30672102707E+02  0.28210383154E+02  0.43539405491E+02  0.00000000000E+00 0.  1.
        -11    1    5    5    0    0  0.15932137618E+03 -0.28268991856E+03  0.23236163974E+03  0.39911003820E+03  0.00000000000E+00 0. -1.
          5    1    6    6  503    0  0.13061284124E+03  0.98330640575E+02  0.12948129611E+03  0.20860518981E+03  0.47000000000E+01 0. -1.
         -5    1    6    6    0  503  0.17271526072E+03  0.12903078359E+03  0.31858151702E+03  0.38470219311E+03  0.47000000000E+01 0.  1.
<mgrwt>
<rscale>  0 0.59791633E+03</rscale>
<asrwt>0</asrwt>
<pdfrwt beam="1">  1        2 0.15246633E+00 0.59791633E+03</pdfrwt>
<pdfrwt beam="2">  1       -2 0.14437309E+00 0.59791633E+03</pdfrwt>
<totfact> 0.87939221E+00</totfact>
</mgrwt>
</event>
<event>
12    1  0.3166324E-008  0.7920606E+03  0.7818608E-02  0.9571581E-01
          2   -1    0    0  501    0  0.00000000000E+00  0.00000000000E+00  0.88491952466E+03  0.88491952466E+03  0.00000000000E+00 0. -1.
         -2   -1    0    0    0  501 -0.00000000000E+00 -0.00000000000E+00 -0.10247998375E+04  0.10247998375E+04  0.00000000000E+00 0.  1.
         23    2    1    2    0    0  0.77863263168E+03 -0.98060153633E+01  0.29111683898E+03  0.83629138017E+03  0.90935832123E+02 0.  0.
    5000000    2    1    2    0    0 -0.77863263168E+03  0.98060153633E+01 -0.43099715185E+03  0.10734279820E+04  0.60010345329E+03 0.  0.
         23    2    4    4    0    0 -0.43199217728E+03 -0.26122287152E+02  0.78018529828E+02  0.44962936914E+03  0.93701992951E+02 0.  0.
         23    2    4    4    0    0 -0.34664045440E+03  0.35928302515E+02 -0.50901568168E+03  0.62379861289E+03  0.92613701441E+02 0.  0.
          3    1    3    3  502    0  0.68115680632E+03 -0.28865105553E+02  0.22926156964E+03  0.71928343262E+03  0.00000000000E+00 0. -1.
         -3    1    3    3    0  502  0.97475825356E+02  0.19059090190E+02  0.61855269331E+02  0.11700794756E+03  0.00000000000E+00 0.  1.
         13    1    5    5    0    0 -0.24342840574E+03 -0.61211052774E+02  0.44858445273E+02  0.25498325791E+03  0.00000000000E+00 0.  1.
        -13    1    5    5    0    0 -0.18856377154E+03  0.35088765622E+02  0.33160084554E+02  0.19464611123E+03  0.00000000000E+00 0. -1.
          5    1    6    6  503    0 -0.14465661684E+03  0.60159478972E+02 -0.20755424393E+03  0.26008758886E+03  0.47000000000E+01 0. -1.
         -5    1    6    6    0  503 -0.20198383757E+03 -0.24231176457E+02 -0.30146143775E+03  0.36371102403E+03  0.47000000000E+01 0.  1.
<mgrwt>
<rscale>  0 0.79206059E+03</rscale>
<asrwt>0</asrwt>
<pdfrwt beam="1">  1        2 0.13614147E+00 0.79206059E+03</pdfrwt>
<pdfrwt beam="2">  1       -2 0.15766151E+00 0.79206059E+03</pdfrwt>
<totfact> 0.79708414E+00</totfact>
</mgrwt>
</event>
<event>
12    1  0.3166324E-008  0.5071342E+03  0.7818608E-02  0.1011933E+00
         -1   -1    0    0    0  501 -0.00000000000E+00  0.00000000000E+00  0.63676829908E+03  0.63676829908E+03  0.00000000000E+00 0.  1.
          1   -1    0    0  501    0  0.00000000000E+00 -0.00000000000E+00 -0.67302733649E+03  0.67302733649E+03  0.00000000000E+00 0. -1.
         23    2    1    2    0    0 -0.14831343424E+02  0.39140235648E+03  0.31612749381E+03  0.51164254155E+03  0.91791745646E+02 0.  0.
    5000000    2    1    2    0    0  0.14831343424E+02 -0.39140235648E+03 -0.35238653123E+03  0.79815309402E+03  0.59954676273E+03 0.  0.
         23    2    4    4    0    0  0.10528118978E+03 -0.47457833202E+03 -0.10091008774E+03  0.50437563327E+03  0.88900008357E+02 0.  0.
         23    2    4    4    0    0 -0.90449846353E+02  0.83175975536E+02 -0.25147644349E+03  0.29377746075E+03  0.89248961931E+02 0.  0.
          1    1    3    3  502    0 -0.53169140042E+02  0.20736115963E+03  0.17701387287E+03  0.27777602338E+03  0.00000000000E+00 0. -1.
         -1    1    3    3    0  502  0.38337796618E+02  0.18404119685E+03  0.13911362095E+03  0.23386651817E+03  0.00000000000E+00 0.  1.
         11    1    5    5    0    0  0.47243358793E+02 -0.26647150208E+03 -0.99452775131E+02  0.28832247719E+03  0.00000000000E+00 0. -1.
        -11    1    5    5    0    0  0.58037830984E+02 -0.20810682993E+03 -0.14573126078E+01  0.21605315608E+03  0.00000000000E+00 0.  1.
          5    1    6    6  503    0 -0.12379807195E+02  0.24167118509E+02 -0.42987214459E+01  0.27890468789E+02  0.47000000000E+01 0.  1.
         -5    1    6    6    0  503 -0.78070039157E+02  0.59008857027E+02 -0.24717772204E+03  0.26588699197E+03  0.47000000000E+01 0. -1.
<mgrwt>
<rscale>  0 0.50713418E+03</rscale>
<asrwt>0</asrwt>
<pdfrwt beam="1">  1        1 0.10354267E+00 0.50713418E+03</pdfrwt>
<pdfrwt beam="2">  1       -1 0.97964354E-01 0.50713418E+03</pdfrwt>
<totfact> 0.30502431E+01</totfact>
</mgrwt>
</event>
<event>
12    1  0.3166324E-008  0.1441287E+04  0.7818608E-02  0.8924464E-01
         -2   -1    0    0    0  501 -0.00000000000E+00  0.00000000000E+00  0.12288510832E+04  0.12288510832E+04  0.00000000000E+00 0.  1.
          2   -1    0    0  501    0  0.00000000000E+00 -0.00000000000E+00 -0.30871346235E+04  0.30871346235E+04  0.00000000000E+00 0. -1.
         23    2    1    2    0    0 -0.12436296247E+03  0.13817232385E+04 -0.23465673945E+04  0.27275782245E+04  0.93162114725E+02 0.  0.
    5000000    2    1    2    0    0  0.12436296247E+03 -0.13817232385E+04  0.48828385424E+03  0.15884074823E+04  0.59999329435E+03 0.  0.
         23    2    4    4    0    0  0.31190143079E+03 -0.51804309033E+03  0.29487582492E+03  0.67902085131E+03  0.92013142662E+02 0.  0.
         23    2    4    4    0    0 -0.18753846832E+03 -0.86368014812E+03  0.19340802932E+03  0.90938663095E+03  0.91996213974E+02 0.  0.
          1    1    3    3  502    0 -0.10598267110E+03  0.11018567835E+04 -0.19414324131E+04  0.22348334418E+04  0.00000000000E+00 0. -1.
         -1    1    3    3    0  502 -0.18380291373E+02  0.27986645491E+03 -0.40513498145E+03  0.49274478272E+03  0.00000000000E+00 0.  1.
         13    1    5    5    0    0  0.83110760703E+02 -0.20591555733E+03  0.77755597780E+02  0.23527547318E+03  0.00000000000E+00 0.  1.
        -13    1    5    5    0    0  0.22879067009E+03 -0.31212753300E+03  0.21712022714E+03  0.44374537813E+03  0.00000000000E+00 0. -1.
          5    1    6    6  503    0 -0.17282022528E+03 -0.67475964275E+03  0.17957834329E+03  0.71933154882E+03  0.47000000000E+01 0. -1.
         -5    1    6    6    0  503 -0.14718243042E+02 -0.18892050537E+03  0.13829686038E+02  0.19005508213E+03  0.47000000000E+01 0.  1.
<mgrwt>
<rscale>  0 0.14412866E+04</rscale>
<asrwt>0</asrwt>
<pdfrwt beam="1">  1        2 0.47494379E+00 0.14412866E+04</pdfrwt>
<pdfrwt beam="2">  1       -2 0.18905401E+00 0.14412866E+04</pdfrwt>
<totfact> 0.22945790E-01</totfact>
</mgrwt>
</event>
<event>
12    1  0.4968584E-008  0.1155902E+04  0.7818608E-02  0.9152356E-01
         -2   -1    0    0    0  501 -0.00000000000E+00  0.00000000000E+00  0.15952459170E+04  0.15952459170E+04  0.00000000000E+00 0.  1.
          2   -1    0    0  501    0  0.00000000000E+00 -0.00000000000E+00 -0.89645219378E+03  0.89645219378E+03  0.00000000000E+00 0. -1.
         23    2    1    2    0    0 -0.41278238546E+03  0.10343513789E+04  0.43809510153E+03  0.12002558712E+04  0.91732030484E+02 0.  0.
    5000000    2    1    2    0    0  0.41278238546E+03 -0.10343513789E+04  0.26069862174E+03  0.12914422397E+04  0.59965591310E+03 0.  0.
         23    2    4    4    0    0  0.45304157248E+03 -0.62078666373E+03 -0.33042263621E+02  0.77439395209E+03  0.89282997195E+02 0.  0.
         23    2    4    4    0    0 -0.40259187016E+02 -0.41356471522E+03  0.29374088536E+03  0.51704828757E+03  0.91644138573E+02 0.  0.
          3    1    3    3  502    0 -0.27010347794E+03  0.55771048796E+03  0.25519201128E+03  0.67016403947E+03  0.00000000000E+00 0.  1.
         -3    1    3    3    0  502 -0.14267890752E+03  0.47664089099E+03  0.18290309024E+03  0.53009183170E+03  0.00000000000E+00 0. -1.
         13    1    5    5    0    0  0.32854222964E+03 -0.39015730750E+03 -0.44931475996E+02  0.51203667719E+03  0.00000000000E+00 0. -1.
        -13    1    5    5    0    0  0.12449934284E+03 -0.23062935622E+03  0.11889212375E+02  0.26235727490E+03  0.00000000000E+00 0.  1.
          5    1    6    6  503    0 -0.44839819735E+02 -0.11099648512E+03  0.11217443024E+03  0.16412197276E+03  0.47000000000E+01 0. -1.
         -5    1    6    6    0  503  0.45806327186E+01 -0.30256823010E+03  0.18156645512E+03  0.35292631481E+03  0.47000000000E+01 0.  1.
<mgrwt>
<rscale>  0 0.11559024E+04</rscale>
<asrwt>0</asrwt>
<pdfrwt beam="1">  1        2 0.13791572E+00 0.11559024E+04</pdfrwt>
<pdfrwt beam="2">  1       -2 0.24542245E+00 0.11559024E+04</pdfrwt>
<totfact> 0.19803425E+00</totfact>
</mgrwt>
</event>
<event>
12    1  0.3166324E-008  0.1794754E+04  0.7818608E-02  0.8709094E-01
         -2   -1    0    0    0  501 -0.00000000000E+00  0.00000000000E+00  0.16450509188E+04  0.16450509188E+04  0.00000000000E+00 0.  1.
          2   -1    0    0  501    0  0.00000000000E+00 -0.00000000000E+00 -0.28218773505E+04  0.28218773505E+04  0.00000000000E+00 0. -1.
         23    2    1    2    0    0  0.21409649847E+03  0.17662392227E+04 -0.17570753571E+04  0.25021714219E+04  0.90053937125E+02 0.  0.
    5000000    2    1    2    0    0 -0.21409649847E+03 -0.17662392227E+04  0.58024892550E+03  0.19647568474E+04  0.59844995735E+03 0.  0.
         23    2    4    4    0    0 -0.28898839881E+03 -0.14972483761E+04  0.65505942209E+03  0.16622961407E+04  0.94120233228E+02 0.  0.
         23    2    4    4    0    0  0.74891900340E+02 -0.26899084655E+03 -0.74810496595E+02  0.30246070674E+03  0.88999980083E+02 0.  0.
          2    1    3    3  502    0  0.18960640544E+02  0.44985854264E+03 -0.42072961219E+03  0.61623503702E+03  0.00000000000E+00 0.  1.
         -2    1    3    3    0  502  0.19513585793E+03  0.13163806801E+04 -0.13363457449E+04  0.18859363849E+04  0.00000000000E+00 0. -1.
         11    1    5    5    0    0 -0.28015108357E+03 -0.13674431117E+04  0.57576201781E+03  0.15099295330E+04  0.00000000000E+00 0. -1.
        -11    1    5    5    0    0 -0.88373152376E+01 -0.12980526443E+03  0.79297404283E+02  0.15236660770E+03  0.00000000000E+00 0.  1.
          5    1    6    6  503    0  0.42407332071E+02 -0.21619955640E+03 -0.23054344942E+02  0.22157216165E+03  0.47000000000E+01 0. -1.
         -5    1    6    6    0  503  0.32484568270E+02 -0.52791290153E+02 -0.51756151652E+02  0.80888545082E+02  0.47000000000E+01 0.  1.
<mgrwt>
<rscale>  0 0.17947537E+04</rscale>
<asrwt>0</asrwt>
<pdfrwt beam="1">  1        2 0.43413497E+00 0.17947537E+04</pdfrwt>
<pdfrwt beam="2">  1       -2 0.25308476E+00 0.17947537E+04</pdfrwt>
<totfact> 0.12514204E-01</totfact>
</mgrwt>
</event>
<event>
12    1  0.3166324E-008  0.9509782E+03  0.7818608E-02  0.9364008E-01
         -2   -1    0    0    0  501 -0.00000000000E+00  0.00000000000E+00  0.83379391943E+03  0.83379391943E+03  0.00000000000E+00 0.  1.
          2   -1    0    0  501    0  0.00000000000E+00 -0.00000000000E+00 -0.15993674777E+04  0.15993674777E+04  0.00000000000E+00 0. -1.
         23    2    1    2    0    0  0.90069637667E+03  0.28163846643E+03  0.18433386928E+03  0.96588302324E+03  0.91525135935E+02 0.  0.
    5000000    2    1    2    0    0 -0.90069637667E+03 -0.28163846643E+03 -0.94990742753E+03  0.14672783739E+04  0.60000626399E+03 0.  0.
         23    2    4    4    0    0 -0.41230960247E+03 -0.57172749038E+02 -0.79241003930E+03  0.89989911150E+03  0.92934433714E+02 0.  0.
         23    2    4    4    0    0 -0.48838677420E+03 -0.22446571739E+03 -0.15749738822E+03  0.56737926236E+03  0.90594153059E+02 0.  0.
          4    1    3    3  502    0  0.74319023150E+03  0.21426154083E+03  0.18186522108E+03  0.79455313650E+03  0.00000000000E+00 0. -1.
         -4    1    3    3    0  502  0.15750614516E+03  0.67376925597E+02  0.24686482001E+01  0.17132988674E+03  0.00000000000E+00 0.  1.
         11    1    5    5    0    0 -0.63243952607E+02 -0.83237791337E+01 -0.20664270591E+03  0.21626440009E+03  0.00000000000E+00 0. -1.
        -11    1    5    5    0    0 -0.34906564986E+03 -0.48848969905E+02 -0.58576733339E+03  0.68363471141E+03  0.00000000000E+00 0.  1.
          5    1    6    6  503    0 -0.46196815713E+03 -0.22547167937E+03 -0.16427381736E+03  0.53968512437E+03  0.47000000000E+01 0. -1.
         -5    1    6    6    0  503 -0.26418617068E+02  0.10059619759E+01  0.67764291364E+01  0.27694137992E+02  0.47000000000E+01 0.  1.
<mgrwt>
<rscale>  0 0.95097822E+03</rscale>
<asrwt>0</asrwt>
<pdfrwt beam="1">  1        2 0.24605653E+00 0.95097822E+03</pdfrwt>
<pdfrwt beam="2">  1       -2 0.12827599E+00 0.95097822E+03</pdfrwt>
<totfact> 0.50136629E+00</totfact>
</mgrwt>
</event>
<event>
12    1  0.3166324E-008  0.3923818E+03  0.7818608E-02  0.1046450E+00
          4   -1    0    0  501    0  0.00000000000E+00  0.00000000000E+00  0.43297040924E+03  0.43297040924E+03  0.00000000000E+00 0. -1.
         -4   -1    0    0    0  501 -0.00000000000E+00 -0.00000000000E+00 -0.39696386457E+03  0.39696386457E+03  0.00000000000E+00 0.  1.
         23    2    1    2    0    0  0.91872677025E+02  0.14378690972E+03  0.70419006348E+02  0.20535278816E+03  0.89975924318E+02 0.  0.
    5000000    2    1    2    0    0 -0.91872677025E+02 -0.14378690972E+03 -0.34412461677E+02  0.62458148565E+03  0.59983543619E+03 0.  0.
         23    2    4    4    0    0  0.23729306856E+03 -0.58627594915E+02  0.39412812836E+02  0.26530949178E+03  0.95344435282E+02 0.  0.
         23    2    4    4    0    0 -0.32916574559E+03 -0.85159314809E+02 -0.73825274512E+02  0.35927199387E+03  0.89576768511E+02 0.  0.
          4    1    3    3  502    0  0.74772802763E+02  0.34805315601E+02  0.26703240689E+02  0.86691666788E+02  0.00000000000E+00 0. -1.
         -4    1    3    3    0  502  0.17099874262E+02  0.10898159412E+03  0.43715765658E+02  0.11866112137E+03  0.00000000000E+00 0.  1.
         11    1    5    5    0    0  0.15380301398E+03 -0.61327609514E+02 -0.13982563491E+02  0.16616845332E+03  0.00000000000E+00 0.  1.
        -11    1    5    5    0    0  0.83490054582E+02  0.27000145993E+01  0.53395376327E+02  0.99141038455E+02  0.00000000000E+00 0. -1.
          5    1    6    6  503    0 -0.77376263644E+02 -0.39199388605E+02  0.15309045119E+02  0.88205074145E+02  0.47000000000E+01 0. -1.
         -5    1    6    6    0  503 -0.25178948194E+03 -0.45959926204E+02 -0.89134319631E+02  0.27106691973E+03  0.47000000000E+01 0.  1.
<mgrwt>
<rscale>  0 0.39238180E+03</rscale>
<asrwt>0</asrwt>
<pdfrwt beam="1">  1        4 0.66610832E-01 0.39238180E+03</pdfrwt>
<pdfrwt beam="2">  1       -4 0.61071364E-01 0.39238180E+03</pdfrwt>
<totfact> 0.10111918E+01</totfact>
</mgrwt>
</event>
<event>
12    1  0.3166324E-008  0.2913497E+04  0.7818608E-02  0.8268873E-01
         -2   -1    0    0    0  501 -0.00000000000E+00  0.00000000000E+00  0.25682500304E+04  0.25682500304E+04  0.00000000000E+00 0.  1.
          2   -1    0    0  501    0  0.00000000000E+00 -0.00000000000E+00 -0.38163948377E+04  0.38163948377E+04  0.00000000000E+00 0. -1.
         23    2    1    2    0    0  0.18914383567E+04 -0.22045972134E+04 -0.17262093386E+04  0.33802412365E+04  0.91892358620E+02 0.  0.
    5000000    2    1    2    0    0 -0.18914383567E+04  0.22045972134E+04  0.47806453130E+03  0.30044036316E+04  0.60008962252E+03 0.  0.
         23    2    4    4    0    0 -0.11228688982E+04  0.11038041654E+04  0.51192366612E+03  0.16581707078E+04  0.90807808760E+02 0.  0.
         23    2    4    4    0    0 -0.76856945846E+03  0.11007930481E+04 -0.33859134821E+02  0.13462329238E+04  0.93553712373E+02 0.  0.
          2    1    3    3  502    0  0.58842081085E+03 -0.73932304497E+03 -0.59087137068E+03  0.11144355487E+04  0.00000000000E+00 0. -1.
         -2    1    3    3    0  502  0.13030175458E+04 -0.14652741685E+04 -0.11353379679E+04  0.22658056878E+04  0.00000000000E+00 0.  1.
         13    1    5    5    0    0 -0.90030168661E+03  0.85323362463E+03  0.37174976455E+03  0.12948932900E+04  0.00000000000E+00 0.  1.
        -13    1    5    5    0    0 -0.22256721163E+03  0.25057054075E+03  0.14017390156E+03  0.36327741777E+03  0.00000000000E+00 0. -1.
          5    1    6    6  503    0 -0.14471688438E+03  0.27471303473E+03 -0.16451023016E+01  0.31053989186E+03  0.47000000000E+01 0. -1.
         -5    1    6    6    0  503 -0.62385257408E+03  0.82608001333E+03 -0.32214032519E+02  0.10356930320E+04  0.47000000000E+01 0.  1.
<mgrwt>
<rscale>  0 0.29134967E+04</rscale>
<asrwt>0</asrwt>
<pdfrwt beam="1">  1        2 0.58713767E+00 0.29134967E+04</pdfrwt>
<pdfrwt beam="2">  1       -2 0.39511539E+00 0.29134967E+04</pdfrwt>
<totfact> 0.30417219E-03</totfact>
</mgrwt>
</event>
<event>
12    1  0.3166324E-008  0.4211729E+03  0.7818608E-02  0.1036685E+00
         -1   -1    0    0    0  501 -0.00000000000E+00  0.00000000000E+00  0.27690086514E+03  0.27690086514E+03  0.00000000000E+00 0.  1.
          1   -1    0    0  501    0  0.00000000000E+00 -0.00000000000E+00 -0.28348012485E+04  0.28348012485E+04  0.00000000000E+00 0. -1.
         23    2    1    2    0    0 -0.27693807814E+03 -0.26626038758E+03  0.58691143282E+02  0.39983305425E+03  0.93981529304E+02 0.  0.
    5000000    2    1    2    0    0  0.27693807814E+03  0.26626038758E+03 -0.26165915267E+04  0.27118690594E+04  0.60007773237E+03 0.  0.
         23    2    4    4    0    0  0.63863262324E+02  0.15317208543E+02 -0.47877904687E+02  0.12062421808E+03  0.89133467774E+02 0.  0.
         23    2    4    4    0    0  0.21307481582E+03  0.25094317903E+03 -0.25687136220E+04  0.25912448414E+04  0.88807656109E+02 0.  0.
          3    1    3    3  502    0 -0.24185297582E+03 -0.17753881527E+03  0.47824550193E+02  0.30380928301E+03  0.00000000000E+00 0. -1.
         -3    1    3    3    0  502 -0.35085102322E+02 -0.88721572306E+02  0.10866593089E+02  0.96023771238E+02  0.00000000000E+00 0.  1.
         11    1    5    5    0    0  0.85188163343E+02  0.13107590413E+02 -0.26079934152E+02  0.90049958721E+02  0.00000000000E+00 0. -1.
        -11    1    5    5    0    0 -0.21324901019E+02  0.22096181299E+01 -0.21797970535E+02  0.30574259357E+02  0.00000000000E+00 0.  1.
          5    1    6    6  503    0  0.63820126092E+02  0.13780868995E+03 -0.10238287389E+04  0.10350418446E+04  0.47000000000E+01 0. -1.
         -5    1    6    6    0  503  0.14925468973E+03  0.11313448909E+03 -0.15448848831E+04  0.15562029967E+04  0.47000000000E+01 0.  1.
<mgrwt>
<rscale>  0 0.42117294E+03</rscale>
<asrwt>0</asrwt>
<pdfrwt beam="1">  1        1 0.43612322E+00 0.42117294E+03</pdfrwt>
<pdfrwt beam="2">  1       -1 0.42600137E-01 0.42117294E+03</pdfrwt>
<totfact> 0.49364394E+00</totfact>
</mgrwt>
</event>
<event>
12    1  0.3166324E-008  0.7920953E+03  0.7818608E-02  0.9571530E-01
         -2   -1    0    0    0  501 -0.00000000000E+00  0.00000000000E+00  0.15207830861E+04  0.15207830861E+04  0.00000000000E+00 0.  1.
          2   -1    0    0  501    0  0.00000000000E+00 -0.00000000000E+00 -0.52927145630E+03  0.52927145630E+03  0.00000000000E+00 0. -1.
         23    2    1    2    0    0 -0.56069874429E+03 -0.46451155384E+03  0.79781730682E+02  0.73802185274E+03  0.90316471775E+02 0.  0.
    5000000    2    1    2    0    0  0.56069874429E+03  0.46451155384E+03  0.91172989907E+03  0.13120326896E+04  0.60002025320E+03 0.  0.
         23    2    4    4    0    0 -0.58369438729E+02  0.16181173506E+02 -0.11079725610E+02  0.11029285236E+03  0.91503722373E+02 0.  0.
         23    2    4    4    0    0  0.61906818302E+03  0.44833038034E+03  0.92280962468E+03  0.12017398373E+04  0.91408357819E+02 0.  0.
          1    1    3    3  502    0 -0.29015328793E+03 -0.23666017140E+03  0.86323691245E+02  0.38425089056E+03  0.00000000000E+00 0. -1.
         -1    1    3    3    0  502 -0.27054545636E+03 -0.22785138244E+03 -0.65419605634E+01  0.35377096218E+03  0.00000000000E+00 0.  1.
         11    1    5    5    0    0 -0.28109695905E+02 -0.26186520137E+02  0.25987599541E+02  0.46381506775E+02  0.00000000000E+00 0.  1.
        -11    1    5    5    0    0 -0.30259742823E+02  0.42367693643E+02 -0.37067325152E+02  0.63911345583E+02  0.00000000000E+00 0. -1.
          5    1    6    6  503    0  0.58634924030E+03  0.43416677373E+03  0.84757421609E+03  0.11183516266E+04  0.47000000000E+01 0. -1.
         -5    1    6    6    0  503  0.32718942720E+02  0.14163606610E+02  0.75235408594E+02  0.83388210624E+02  0.47000000000E+01 0.  1.
<mgrwt>
<rscale>  0 0.79209527E+03</rscale>
<asrwt>0</asrwt>
<pdfrwt beam="1">  1        2 0.81426379E-01 0.79209527E+03</pdfrwt>
<pdfrwt beam="2">  1       -2 0.23396663E+00 0.79209527E+03</pdfrwt>
<totfact> 0.47476896E+00</totfact>
</mgrwt>
</event>
<event>
12    1  0.3166324E-008  0.3190348E+03  0.7818608E-02  0.1076094E+00
          1   -1    0    0  501    0  0.00000000000E+00  0.00000000000E+00  0.12255012383E+04  0.12255012383E+04  0.00000000000E+00 0. -1.
         -1   -1    0    0    0  501 -0.00000000000E+00 -0.00000000000E+00 -0.24209031260E+03  0.24209031260E+03  0.00000000000E+00 0.  1.
         23    2    1    2    0    0 -0.12492481615E+03 -0.18886856869E+03 -0.52378954524E+02  0.24938606645E+03  0.90400825949E+02 0.  0.
    5000000    2    1    2    0    0  0.12492481615E+03  0.18886856869E+03  0.10357898802E+04  0.12182054844E+04  0.59990530955E+03 0.  0.
         23    2    4    4    0    0  0.19531747594E+03  0.34356919730E+02  0.99838389149E+03  0.10220144362E+04  0.91726760949E+02 0.  0.
         23    2    4    4    0    0 -0.70392659788E+02  0.15451164896E+03  0.37405988727E+02  0.19619104824E+03  0.90899632560E+02 0.  0.
          1    1    3    3  502    0 -0.11012240513E+03 -0.13567006114E+03 -0.21678089509E+01  0.17475127753E+03  0.00000000000E+00 0. -1.
         -1    1    3    3    0  502 -0.14802411019E+02 -0.53198507551E+02 -0.50211145573E+02  0.74634788922E+02  0.00000000000E+00 0.  1.
         11    1    5    5    0    0  0.80886361983E+01  0.27060270680E+02  0.19719679449E+03  0.19920908624E+03  0.00000000000E+00 0.  1.
        -11    1    5    5    0    0  0.18722883974E+03  0.72966490500E+01  0.80118709701E+03  0.82280534996E+03  0.00000000000E+00 0. -1.
          5    1    6    6  503    0 -0.49569991582E+02  0.15924808979E+02  0.12893184447E+02  0.53843363673E+02  0.47000000000E+01 0. -1.
         -5    1    6    6    0  503 -0.20822668206E+02  0.13858683998E+03  0.24512804280E+02  0.14234768457E+03  0.47000000000E+01 0.  1.
<mgrwt>
<rscale>  0 0.31903485E+03</rscale>
<asrwt>0</asrwt>
<pdfrwt beam="1">  1        1 0.18853865E+00 0.31903485E+03</pdfrwt>
<pdfrwt beam="2">  1       -1 0.37244664E-01 0.31903485E+03</pdfrwt>
<totfact> 0.77164084E+01</totfact>
</mgrwt>
</event>
<event>
12    1  0.3166324E-008  0.1300716E+04  0.7818608E-02  0.9028997E-01
          2   -1    0    0  501    0  0.00000000000E+00  0.00000000000E+00  0.23214005019E+04  0.23214005019E+04  0.00000000000E+00 0. -1.
         -2   -1    0    0    0  501 -0.00000000000E+00 -0.00000000000E+00 -0.77085249183E+03  0.77085249183E+03  0.00000000000E+00 0.  1.
         23    2    1    2    0    0  0.11813338601E+04  0.41754421261E+03  0.96738058474E+03  0.15855990421E+04  0.91685702240E+02 0.  0.
    5000000    2    1    2    0    0 -0.11813338601E+04 -0.41754421261E+03  0.58316742538E+03  0.15066539517E+04  0.60002418736E+03 0.  0.
         23    2    4    4    0    0 -0.72549740117E+03 -0.30230881779E+01  0.14601125604E+03  0.74548762644E+03  0.89871553442E+02 0.  0.
         23    2    4    4    0    0 -0.45583645898E+03 -0.41452112443E+03  0.43715616933E+03  0.76116632522E+03  0.93026976344E+02 0.  0.
          1    1    3    3  502    0  0.29466595044E+03  0.12532018168E+03  0.20425855607E+03  0.37980880455E+03  0.00000000000E+00 0. -1.
         -1    1    3    3    0  502  0.88666790971E+03  0.29222403094E+03  0.76312202867E+03  0.12057902376E+04  0.00000000000E+00 0.  1.
         11    1    5    5    0    0 -0.40606722338E+03 -0.45810515220E+02  0.88409414579E+02  0.41809737836E+03  0.00000000000E+00 0.  1.
        -11    1    5    5    0    0 -0.31943017779E+03  0.42787427042E+02  0.57601841465E+02  0.32739024808E+03  0.00000000000E+00 0. -1.
          5    1    6    6  503    0 -0.61678745370E+02 -0.45892965982E+02  0.94377183369E+02  0.12181779303E+03  0.47000000000E+01 0. -1.
         -5    1    6    6    0  503 -0.39415771361E+03 -0.36862815845E+03  0.34277898597E+03  0.63934853220E+03  0.47000000000E+01 0.  1.
<mgrwt>
<rscale>  0 0.13007162E+04</rscale>
<asrwt>0</asrwt>
<pdfrwt beam="1">  1        2 0.35713854E+00 0.13007162E+04</pdfrwt>
<pdfrwt beam="2">  1       -2 0.11859269E+00 0.13007162E+04</pdfrwt>
<totfact> 0.23338520E+00</totfact>
</mgrwt>
</event>
<event>
12    1  0.3166324E-008  0.8206886E+03  0.7818608E-02  0.9530545E-01
         -3   -1    0    0    0  501 -0.00000000000E+00  0.00000000000E+00  0.83995104129E+03  0.83995104129E+03  0.00000000000E+00 0.  1.
          3   -1    0    0  501    0  0.00000000000E+00 -0.00000000000E+00 -0.12385046064E+04  0.12385046064E+04  0.00000000000E+00 0. -1.
         23    2    1    2    0    0 -0.23886845564E+03  0.74730953611E+03 -0.68979331536E+03  0.10486681511E+04  0.91435175649E+02 0.  0.
    5000000    2    1    2    0    0  0.23886845564E+03 -0.74730953611E+03  0.29123975026E+03  0.10297874966E+04  0.60009333785E+03 0.  0.
         23    2    4    4    0    0  0.95313813700E+02 -0.42712773311E+02  0.27140230080E+03  0.30471643196E+03  0.91015333532E+02 0.  0.
         23    2    4    4    0    0  0.14355464194E+03 -0.70459676280E+03  0.19837449453E+02  0.72507106463E+03  0.90939490821E+02 0.  0.
          2    1    3    3  502    0 -0.17371027719E+03  0.44713070237E+03 -0.46456298456E+03  0.66777233548E+03  0.00000000000E+00 0. -1.
         -2    1    3    3    0  502 -0.65158178451E+02  0.30017883373E+03 -0.22523033079E+03  0.38089581561E+03  0.00000000000E+00 0.  1.
         13    1    5    5    0    0  0.11074178467E+03 -0.45462750584E+02  0.21393319646E+03  0.24514896922E+03  0.00000000000E+00 0.  1.
        -13    1    5    5    0    0 -0.15427970965E+02  0.27499772735E+01  0.57469104344E+02  0.59567462740E+02  0.00000000000E+00 0. -1.
          5    1    6    6  503    0  0.58065128797E+02 -0.28945071140E+03 -0.36335893052E+02  0.29748220221E+03  0.47000000000E+01 0. -1.
         -5    1    6    6    0  503  0.85489513147E+02 -0.41514605140E+03  0.56173342505E+02  0.42758886241E+03  0.47000000000E+01 0.  1.
<mgrwt>
<rscale>  0 0.82068858E+03</rscale>
<asrwt>0</asrwt>
<pdfrwt beam="1">  1        3 0.19053917E+00 0.82068858E+03</pdfrwt>
<pdfrwt beam="2">  1       -3 0.12922324E+00 0.82068858E+03</pdfrwt>
<totfact> 0.20535712E-01</totfact>
</mgrwt>
</event>
<event>
12    1  0.3166324E-008  0.5280468E+03  0.7818608E-02  0.1006707E+00
          1   -1    0    0  501    0  0.00000000000E+00  0.00000000000E+00  0.15788638493E+04  0.15788638493E+04  0.00000000000E+00 0. -1.
         -1   -1    0    0    0  501 -0.00000000000E+00 -0.00000000000E+00 -0.22141125063E+03  0.22141125063E+03  0.00000000000E+00 0.  1.
         23    2    1    2    0    0 -0.38979571954E+03  0.19607547933E+03  0.52949375750E+03  0.68857782130E+03  0.58219242337E+02 0.  0.
    5000000    2    1    2    0    0  0.38979571954E+03 -0.19607547933E+03  0.82795884114E+03  0.11116972786E+04  0.59997391616E+03 0.  0.
         23    2    4    4    0    0 -0.10973648862E+02 -0.19102830621E+03  0.30383067769E+02  0.21442951419E+03  0.91894782277E+02 0.  0.
         23    2    4    4    0    0  0.40076936840E+03 -0.50471731226E+01  0.79757577337E+03  0.89726776441E+03  0.91218233796E+02 0.  0.
          3    1    3    3  502    0 -0.30239853725E+03  0.15296451471E+03  0.44673249697E+03  0.56072537122E+03  0.00000000000E+00 0. -1.
         -3    1    3    3    0  502 -0.87397182297E+02  0.43110964620E+02  0.82761260539E+02  0.12785245007E+03  0.00000000000E+00 0.  1.
         11    1    5    5    0    0  0.37093396169E+02 -0.99732308318E+02  0.32409014335E+02  0.11123307769E+03  0.00000000000E+00 0. -1.
        -11    1    5    5    0    0 -0.48067045031E+02 -0.91295997887E+02 -0.20259465653E+01  0.10319643651E+03  0.00000000000E+00 0.  1.
          5    1    6    6  503    0  0.19247990012E+03 -0.45736045098E+02  0.35559304918E+03  0.40695061666E+03  0.47000000000E+01 0. -1.
         -5    1    6    6    0  503  0.20828946829E+03  0.40688871975E+02  0.44198272419E+03  0.49031714775E+03  0.47000000000E+01 0.  1.
<mgrwt>
<rscale>  0 0.52804680E+03</rscale>
<asrwt>0</asrwt>
<pdfrwt beam="1">  1        1 0.24290212E+00 0.52804680E+03</pdfrwt>
<pdfrwt beam="2">  1       -1 0.34063270E-01 0.52804680E+03</pdfrwt>
<totfact> 0.49810825E+01</totfact>
</mgrwt>
</event>
<event>
12    1  0.3166324E-008  0.4793130E+03  0.7818608E-02  0.1019324E+00
         -2   -1    0    0    0  501 -0.00000000000E+00  0.00000000000E+00  0.11424444039E+03  0.11424444039E+03  0.00000000000E+00 0. -1.
          2   -1    0    0  501    0  0.00000000000E+00 -0.00000000000E+00 -0.24973292491E+04  0.24973292491E+04  0.00000000000E+00 0.  1.
         23    2    1    2    0    0  0.42410903910E+01  0.28491092992E+03 -0.13588064775E+04  0.13907567965E+04  0.81591659674E+02 0.  0.
    5000000    2    1    2    0    0 -0.42410903910E+01 -0.28491092992E+03 -0.10242783312E+04  0.12208168930E+04  0.60004629951E+03 0.  0.
         23    2    4    4    0    0 -0.14834950235E+03  0.12876282463E+03 -0.32891251284E+03  0.39424585112E+03  0.93053265215E+02 0.  0.
         23    2    4    4    0    0  0.14410841196E+03 -0.41367375455E+03 -0.69536581836E+03  0.82657104185E+03  0.88277156049E+02 0.  0.
          3    1    3    3  502    0  0.35143311198E+02  0.22899547212E+03 -0.11058342525E+04  0.11298421892E+04  0.00000000000E+00 0. -1.
         -3    1    3    3    0  502 -0.30902220807E+02  0.55915457804E+02 -0.25297222497E+03  0.26091460726E+03  0.00000000000E+00 0.  1.
         13    1    5    5    0    0  0.85189794639E+01 -0.58650980743E+01 -0.20532945863E+02  0.22990742753E+02  0.00000000000E+00 0. -1.
        -13    1    5    5    0    0 -0.15686848181E+03  0.13462792271E+03 -0.30837956698E+03  0.37125510837E+03  0.00000000000E+00 0.  1.
          5    1    6    6  503    0  0.63125262156E+02 -0.76926110406E+02 -0.13469133265E+03  0.16752990860E+03  0.47000000000E+01 0. -1.
         -5    1    6    6    0  503  0.80983149803E+02 -0.33674764415E+03 -0.56067448572E+03  0.65904113326E+03  0.47000000000E+01 0.  1.
<mgrwt>
<rscale>  0 0.47931303E+03</rscale>
<asrwt>0</asrwt>
<pdfrwt beam="1">  1        2 0.38420448E+00 0.47931303E+03</pdfrwt>
<pdfrwt beam="2">  1       -2 0.17576069E-01 0.47931303E+03</pdfrwt>
<totfact> 0.10086471E+02</totfact>
</mgrwt>
</event>
<event>
12    1  0.3166324E-008  0.9585968E+03  0.7818608E-02  0.9355158E-01
          2   -1    0    0  501    0  0.00000000000E+00  0.00000000000E+00  0.95322028477E+03  0.95322028477E+03  0.00000000000E+00 0. -1.
         -2   -1    0    0    0  501 -0.00000000000E+00 -0.00000000000E+00 -0.11648270881E+04  0.11648270881E+04  0.00000000000E+00 0.  1.
         23    2    1    2    0    0 -0.59503225716E+03  0.73885458897E+03 -0.27715792590E+03  0.99353506449E+03  0.10161652321E+03 0.  0.
    5000000    2    1    2    0    0  0.59503225716E+03 -0.73885458897E+03  0.65551122587E+02  0.11245123084E+04  0.60021786984E+03 0.  0.
         23    2    4    4    0    0  0.46793338127E+03 -0.62222147149E+03  0.28201646193E+03  0.83304822373E+03  0.91185795870E+02 0.  0.
         23    2    4    4    0    0  0.12709887589E+03 -0.11663311748E+03 -0.21646533934E+03  0.29146408463E+03  0.91305318295E+02 0.  0.
          1    1    3    3  502    0 -0.13168196108E+03  0.18332226171E+03 -0.10990589841E+03  0.25105078574E+03  0.00000000000E+00 0. -1.
         -1    1    3    3    0  502 -0.46335029608E+03  0.55553232726E+03 -0.16725202749E+03  0.74248427876E+03  0.00000000000E+00 0.  1.
         13    1    5    5    0    0  0.38945078430E+03 -0.48097474286E+03  0.25437216547E+03  0.66911420193E+03  0.00000000000E+00 0. -1.
        -13    1    5    5    0    0  0.78482596968E+02 -0.14124672863E+03  0.27644296461E+02  0.16393402180E+03  0.00000000000E+00 0.  1.
          5    1    6    6  503    0  0.19467567349E+02  0.91346162839E+01 -0.58903034722E+02  0.62881514713E+02  0.47000000000E+01 0. -1.
         -5    1    6    6    0  503  0.10763130854E+03 -0.12576773376E+03 -0.15756230462E+03  0.22858256992E+03  0.47000000000E+01 0.  1.
<mgrwt>
<rscale>  0 0.95859680E+03</rscale>
<asrwt>0</asrwt>
<pdfrwt beam="1">  1        2 0.14664927E+00 0.95859680E+03</pdfrwt>
<pdfrwt beam="2">  1       -2 0.17920417E+00 0.95859680E+03</pdfrwt>
<totfact> 0.49400658E+00</totfact>
</mgrwt>
</event>
<event>
12    1  0.3166324E-008  0.1374489E+04  0.7818608E-02  0.8972494E-01
          2   -1    0    0  501    0  0.00000000000E+00  0.00000000000E+00  0.28199313898E+04  0.28199313898E+04  0.00000000000E+00 0. -1.
         -2   -1    0    0    0  501 -0.00000000000E+00 -0.00000000000E+00 -0.77429501924E+03  0.77429501924E+03  0.00000000000E+00 0.  1.
         23    2    1    2    0    0 -0.72926135788E+03  0.10882020711E+04  0.16331445061E+04  0.20955079457E+04  0.89368322450E+02 0.  0.
    5000000    2    1    2    0    0  0.72926135788E+03 -0.10882020711E+04  0.41249186450E+03  0.14987184634E+04  0.60000134868E+03 0.  0.
         23    2    4    4    0    0 -0.53572775478E+02 -0.33503936656E+03  0.97867204101E+02  0.36432355642E+03  0.89622791223E+02 0.  0.
         23    2    4    4    0    0  0.78283413336E+03 -0.75316270458E+03  0.31462466040E+03  0.11343949069E+04  0.88203106803E+02 0.  0.
          4    1    3    3  502    0 -0.33204196390E+03  0.43616006485E+03  0.72938682095E+03  0.91241032575E+03  0.00000000000E+00 0. -1.
         -4    1    3    3    0  502 -0.39721939398E+03  0.65204200629E+03  0.90375768515E+03  0.11830976200E+04  0.00000000000E+00 0.  1.
         13    1    5    5    0    0 -0.43857866549E+02 -0.54089754914E+02  0.14820881194E+02  0.71196015087E+02  0.00000000000E+00 0. -1.
        -13    1    5    5    0    0 -0.97149089286E+01 -0.28094961165E+03  0.83046322907E+02  0.29312754134E+03  0.00000000000E+00 0.  1.
          5    1    6    6  503    0  0.66406430047E+03 -0.62951582450E+03  0.29674543716E+03  0.96195192860E+03  0.47000000000E+01 0. -1.
         -5    1    6    6    0  503  0.11876983288E+03 -0.12364688008E+03  0.17879223236E+02  0.17244297835E+03  0.47000000000E+01 0.  1.
<mgrwt>
<rscale>  0 0.13744894E+04</rscale>
<asrwt>0</asrwt>
<pdfrwt beam="1">  1        2 0.43383559E+00 0.13744894E+04</pdfrwt>
<pdfrwt beam="2">  1       -2 0.11912231E+00 0.13744894E+04</pdfrwt>
<totfact> 0.11730073E+00</totfact>
</mgrwt>
</event>
<event>
12    1  0.3166324E-008  0.6862935E+03  0.7818608E-02  0.9740964E-01
          2   -1    0    0  501    0  0.00000000000E+00  0.00000000000E+00  0.22523534538E+04  0.22523534538E+04  0.00000000000E+00 0. -1.
         -2   -1    0    0    0  501 -0.00000000000E+00 -0.00000000000E+00 -0.29491660822E+03  0.29491660822E+03  0.00000000000E+00 0.  1.
         23    2    1    2    0    0 -0.17607478280E+03 -0.64195481846E+03  0.11933923126E+04  0.13695170442E+04  0.91013210576E+02 0.  0.
    5000000    2    1    2    0    0  0.17607478280E+03  0.64195481846E+03  0.76404453303E+03  0.11777530179E+04  0.60019147324E+03 0.  0.
         23    2    4    4    0    0  0.18146332080E+03  0.40117728843E+03  0.93324727094E+02  0.45925774495E+03  0.91301796568E+02 0.  0.
         23    2    4    4    0    0 -0.53885379929E+01  0.24077753003E+03  0.67071980594E+03  0.71849527292E+03  0.91474279575E+02 0.  0.
          3    1    3    3  502    0 -0.71494336354E+02 -0.34998069417E+03  0.55920762056E+03  0.66355940903E+03  0.00000000000E+00 0. -1.
         -3    1    3    3    0  502 -0.10458044645E+03 -0.29197412429E+03  0.63418469203E+03  0.70595763516E+03  0.00000000000E+00 0.  1.
         13    1    5    5    0    0  0.10437339862E+03  0.32078097433E+03  0.57109959132E+02  0.34213416559E+03  0.00000000000E+00 0.  1.
        -13    1    5    5    0    0  0.77089922180E+02  0.80396314105E+02  0.36214767962E+02  0.11712357936E+03  0.00000000000E+00 0. -1.
          5    1    6    6  503    0  0.27264798984E+02  0.20863748921E+03  0.52289219055E+03  0.56365885437E+03  0.47000000000E+01 0. -1.
         -5    1    6    6    0  503 -0.32653336977E+02  0.32140040820E+02  0.14782761539E+03  0.15483641855E+03  0.47000000000E+01 0.  1.
<mgrwt>
<rscale>  0 0.68629345E+03</rscale>
<asrwt>0</asrwt>
<pdfrwt beam="1">  1        2 0.34651590E+00 0.68629345E+03</pdfrwt>
<pdfrwt beam="2">  1       -2 0.45371787E-01 0.68629345E+03</pdfrwt>
<totfact> 0.23314575E+01</totfact>
</mgrwt>
</event>
<event>
12    1  0.3166324E-008  0.6394316E+03  0.7818608E-02  0.9826815E-01
          2   -1    0    0  501    0  0.00000000000E+00  0.00000000000E+00  0.75273083388E+03  0.75273083388E+03  0.00000000000E+00 0. -1.
         -2   -1    0    0    0  501 -0.00000000000E+00 -0.00000000000E+00 -0.60868883845E+03  0.60868883845E+03  0.00000000000E+00 0.  1.
         23    2    1    2    0    0  0.21258078911E+03 -0.49384468212E+03  0.18536453889E+02  0.54609604286E+03  0.93830303994E+02 0.  0.
    5000000    2    1    2    0    0 -0.21258078911E+03  0.49384468212E+03  0.12550554153E+03  0.81532362946E+03  0.59993984519E+03 0.  0.
         23    2    4    4    0    0 -0.11762531969E+03 -0.64151011967E+02  0.17665858136E+03  0.23985945455E+03  0.91505384553E+02 0.  0.
         23    2    4    4    0    0 -0.94955469422E+02  0.55799569409E+03 -0.51153039822E+02  0.57546417491E+03  0.90369504420E+02 0.  0.
          4    1    3    3  502    0  0.11894322155E+03 -0.16207107791E+03  0.49791919622E+01  0.20109529234E+03  0.00000000000E+00 0. -1.
         -4    1    3    3    0  502  0.93637567558E+02 -0.33177360422E+03  0.13557261927E+02  0.34500075053E+03  0.00000000000E+00 0.  1.
         11    1    5    5    0    0 -0.32388445088E+02 -0.67509143722E+02  0.63677174328E+02  0.98291802261E+02  0.00000000000E+00 0. -1.
        -11    1    5    5    0    0 -0.85236874601E+02  0.33581317551E+01  0.11298140703E+03  0.14156765229E+03  0.00000000000E+00 0.  1.
          5    1    6    6  503    0 -0.24454189073E+02  0.38829715533E+03 -0.42983884529E+02  0.39146186600E+03  0.47000000000E+01 0. -1.
         -5    1    6    6    0  503 -0.70501280349E+02  0.16969853876E+03 -0.81691552931E+01  0.18400230891E+03  0.47000000000E+01 0.  1.
<mgrwt>
<rscale>  0 0.63943157E+03</rscale>
<asrwt>0</asrwt>
<pdfrwt beam="1">  1        2 0.11580474E+00 0.63943157E+03</pdfrwt>
<pdfrwt beam="2">  1       -2 0.93644436E-01 0.63943157E+03</pdfrwt>
<totfact> 0.36827404E+01</totfact>
</mgrwt>
</event>
<event>
12    1  0.3166324E-008  0.4580835E+03  0.7818608E-02  0.1025339E+00
         -1   -1    0    0    0  501 -0.00000000000E+00  0.00000000000E+00  0.93657853781E+02  0.93657853781E+02  0.00000000000E+00 0.  1.
          1   -1    0    0  501    0  0.00000000000E+00 -0.00000000000E+00 -0.29164374490E+04  0.29164374490E+04  0.00000000000E+00 0. -1.
         23    2    1    2    0    0  0.20829882081E+03  0.16335905590E+03 -0.33119960411E+03  0.43366957717E+03  0.91112811937E+02 0.  0.
    5000000    2    1    2    0    0 -0.20829882081E+03 -0.16335905590E+03 -0.24915799912E+04  0.25764257257E+04  0.59993673636E+03 0.  0.
         23    2    4    4    0    0  0.41866628168E+02  0.18784289538E+03 -0.71169739189E+03  0.74276274011E+03  0.90252659675E+02 0.  0.
         23    2    4    4    0    0 -0.25016544898E+03 -0.35120195128E+03 -0.17798825993E+04  0.18336629855E+04  0.91718672930E+02 0.  0.
          2    1    3    3  502    0  0.26791846534E+02  0.56788042178E+02 -0.12034165810E+03  0.13573798087E+03  0.00000000000E+00 0.  1.
         -2    1    3    3    0  502  0.18150697428E+03  0.10657101372E+03 -0.21085794601E+03  0.29793159630E+03  0.00000000000E+00 0. -1.
         13    1    5    5    0    0  0.35222753770E+02  0.22375471702E+02 -0.87022386496E+02  0.96510102417E+02  0.00000000000E+00 0. -1.
        -13    1    5    5    0    0  0.66438743982E+01  0.16546742368E+03 -0.62467500539E+03  0.64625263770E+03  0.00000000000E+00 0.  1.
          5    1    6    6  503    0 -0.12466420604E+03 -0.22649022087E+03 -0.91374420917E+03  0.94962600754E+03  0.47000000000E+01 0. -1.
         -5    1    6    6    0  503 -0.12550124294E+03 -0.12471173041E+03 -0.86613839009E+03  0.88403697800E+03  0.47000000000E+01 0.  1.
<mgrwt>
<rscale>  0 0.45808348E+03</rscale>
<asrwt>0</asrwt>
<pdfrwt beam="1">  1        1 0.44868266E+00 0.45808348E+03</pdfrwt>
<pdfrwt beam="2">  1       -1 0.14408901E-01 0.45808348E+03</pdfrwt>
<totfact> 0.26887206E+01</totfact>
</mgrwt>
</event>
<event>
12    1  0.3166324E-008  0.1194778E+04  0.7818608E-02  0.9117440E-01
          1   -1    0    0  501    0  0.00000000000E+00  0.00000000000E+00  0.23897607597E+04  0.23897607597E+04  0.00000000000E+00 0. -1.
         -1   -1    0    0    0  501 -0.00000000000E+00 -0.00000000000E+00 -0.17471770937E+04  0.17471770937E+04  0.00000000000E+00 0.  1.
         23    2    1    2    0    0 -0.83768784080E+03 -0.83843205205E+03 -0.13140038166E+04  0.17720059872E+04  0.93327187781E+02 0.  0.
    5000000    2    1    2    0    0  0.83768784080E+03  0.83843205205E+03  0.19565874826E+04  0.23649318662E+04  0.59998244158E+03 0.  0.
         23    2    4    4    0    0  0.62952572084E+03  0.72384016599E+03  0.10599167000E+04  0.14326254896E+04  0.93515578057E+02 0.  0.
         23    2    4    4    0    0  0.20816211997E+03  0.11459188606E+03  0.89667078259E+03  0.93230637663E+03  0.93348374422E+02 0.  0.
          1    1    3    3  502    0 -0.77317949211E+03 -0.80508437453E+03 -0.12314256234E+04  0.16620398440E+04  0.00000000000E+00 0. -1.
         -1    1    3    3    0  502 -0.64508348692E+02 -0.33347677520E+02 -0.82578193199E+02  0.10996614315E+03  0.00000000000E+00 0.  1.
         13    1    5    5    0    0  0.50478953640E+03  0.61301248351E+03  0.83177907412E+03  0.11499796560E+04  0.00000000000E+00 0. -1.
        -13    1    5    5    0    0  0.12473618443E+03  0.11082768248E+03  0.22813762588E+03  0.28264583360E+03  0.00000000000E+00 0.  1.
          5    1    6    6  503    0  0.11311592166E+02  0.68450266224E+00  0.17959083696E+03  0.18000938693E+03  0.47000000000E+01 0. -1.
         -5    1    6    6    0  503  0.19685052780E+03  0.11390738340E+03  0.71707994563E+03  0.75229698970E+03  0.47000000000E+01 0.  1.
<mgrwt>
<rscale>  0 0.11947778E+04</rscale>
<asrwt>0</asrwt>
<pdfrwt beam="1">  1        1 0.36765550E+00 0.11947778E+04</pdfrwt>
<pdfrwt beam="2">  1       -1 0.26879648E+00 0.11947778E+04</pdfrwt>
<totfact> 0.83896719E-02</totfact>
</mgrwt>
</event>
<event>
12    1  0.3166324E-008  0.5561156E+03  0.7818608E-02  0.1000088E+00
         -2   -1    0    0    0  501 -0.00000000000E+00  0.00000000000E+00  0.30951995109E+03  0.30951995109E+03  0.00000000000E+00 0.  1.
          2   -1    0    0  501    0  0.00000000000E+00 -0.00000000000E+00 -0.12795834908E+04  0.12795834908E+04  0.00000000000E+00 0. -1.
         23    2    1    2    0    0 -0.12312603721E+03 -0.46483801702E+03 -0.39455064624E+03  0.62860642591E+03  0.90782284307E+02 0.  0.
    5000000    2    1    2    0    0  0.12312603721E+03  0.46483801702E+03 -0.57551289345E+03  0.96049701597E+03  0.60008751367E+03 0.  0.
         23    2    4    4    0    0  0.23120230074E+03  0.15704428300E+03 -0.20938234695E+01  0.29398196221E+03  0.91124087456E+02 0.  0.
         23    2    4    4    0    0 -0.10807626353E+03  0.30779373401E+03 -0.57341906998E+03  0.66651505376E+03  0.94949595243E+02 0.  0.
          1    1    3    3  502    0 -0.20305775464E+02 -0.21184959557E+03 -0.13614016365E+03  0.25263950566E+03  0.00000000000E+00 0. -1.
         -1    1    3    3    0  502 -0.10282026174E+03 -0.25298842145E+03 -0.25841048260E+03  0.37596692026E+03  0.00000000000E+00 0.  1.
         11    1    5    5    0    0  0.14972997735E+03  0.13978542586E+03  0.25107225833E+02  0.20637200437E+03  0.00000000000E+00 0.  1.
        -11    1    5    5    0    0  0.81472323393E+02  0.17258857145E+02 -0.27201049302E+02  0.87609957836E+02  0.00000000000E+00 0. -1.
          5    1    6    6  503    0 -0.77206710751E+02  0.92133649375E+02 -0.17428270510E+03  0.21176882875E+03  0.47000000000E+01 0. -1.
         -5    1    6    6    0  503 -0.30869552784E+02  0.21566008464E+03 -0.39913636488E+03  0.45474622501E+03  0.47000000000E+01 0.  1.
<mgrwt>
<rscale>  0 0.55611557E+03</rscale>
<asrwt>0</asrwt>
<pdfrwt beam="1">  1        2 0.19685900E+00 0.55611557E+03</pdfrwt>
<pdfrwt beam="2">  1       -2 0.47618454E-01 0.55611557E+03</pdfrwt>
<totfact> 0.73719245E+01</totfact>
</mgrwt>
</event>
<event>
12    1  0.3166324E-008  0.4873406E+03  0.7818608E-02  0.1017137E+00
          2   -1    0    0  501    0  0.00000000000E+00  0.00000000000E+00  0.14422516383E+04  0.14422516383E+04  0.00000000000E+00 0.  1.
         -2   -1    0    0    0  501 -0.00000000000E+00 -0.00000000000E+00 -0.19002691107E+03  0.19002691107E+03  0.00000000000E+00 0. -1.
         23    2    1    2    0    0  0.36359793760E+02 -0.31266734935E+03  0.63890041973E+03  0.71813083048E+03  0.91843548461E+02 0.  0.
    5000000    2    1    2    0    0 -0.36359793760E+02  0.31266734935E+03  0.61332430745E+03  0.91414771884E+03  0.60034693287E+03 0.  0.
         23    2    4    4    0    0 -0.74113207434E+02  0.47295621025E+03  0.46566507550E+03  0.67438383963E+03  0.93644307281E+02 0.  0.
         23    2    4    4    0    0  0.37753413674E+02 -0.16028886090E+03  0.14765923195E+03  0.23976387921E+03  0.92550687843E+02 0.  0.
          2    1    3    3  502    0  0.35458443620E+02 -0.21818536061E+03  0.34799340481E+03  0.41226394773E+03  0.00000000000E+00 0. -1.
         -2    1    3    3    0  502  0.90135013996E+00 -0.94481988741E+02  0.29090701492E+03  0.30586688275E+03  0.00000000000E+00 0.  1.
         11    1    5    5    0    0 -0.28632545504E+02  0.14851132631E+03  0.90287272847E+02  0.17614547494E+03  0.00000000000E+00 0.  1.
        -11    1    5    5    0    0 -0.45480661929E+02  0.32444488394E+03  0.37537780265E+03  0.49823836469E+03  0.00000000000E+00 0. -1.
          5    1    6    6  503    0  0.43583447400E+02 -0.38731020972E+02  0.16494784185E+02  0.60776449206E+02  0.47000000000E+01 0. -1.
         -5    1    6    6    0  503 -0.58300337258E+01 -0.12155783993E+03  0.13116444777E+03  0.17898743000E+03  0.47000000000E+01 0.  1.
<mgrwt>
<rscale>  0 0.48734056E+03</rscale>
<asrwt>0</asrwt>
<pdfrwt beam="1">  1        2 0.22188486E+00 0.48734056E+03</pdfrwt>
<pdfrwt beam="2">  1       -2 0.29234910E-01 0.48734056E+03</pdfrwt>
<totfact> 0.15340179E+02</totfact>
</mgrwt>
</event>
<event>
12    1  0.3166324E-008  0.7272336E+03  0.7818608E-02  0.9671760E-01
         -1   -1    0    0    0  501 -0.00000000000E+00  0.00000000000E+00  0.60478535929E+03  0.60478535929E+03  0.00000000000E+00 0.  1.
          1   -1    0    0  501    0  0.00000000000E+00 -0.00000000000E+00 -0.99120159335E+03  0.99120159335E+03  0.00000000000E+00 0. -1.
         23    2    1    2    0    0 -0.51286240234E+03 -0.32287162543E+03  0.89463599450E+02  0.61947703020E+03  0.92055011136E+02 0.  0.
    5000000    2    1    2    0    0  0.51286240234E+03  0.32287162543E+03 -0.47587983351E+03  0.97650992244E+03  0.59986338649E+03 0.  0.
         23    2    4    4    0    0  0.27643698758E+03  0.47554448673E+03 -0.30010424163E+03  0.63283375794E+03  0.88634318283E+02 0.  0.
         23    2    4    4    0    0  0.23642541476E+03 -0.15267286131E+03 -0.17577559188E+03  0.34367616451E+03  0.89500100699E+02 0.  0.
          2    1    3    3  502    0 -0.16869870618E+03 -0.76509105453E+02  0.61984170415E+02  0.19533288015E+03  0.00000000000E+00 0. -1.
         -2    1    3    3    0  502 -0.34416369616E+03 -0.24636251997E+03  0.27479429035E+02  0.42414415005E+03  0.00000000000E+00 0.  1.
         13    1    5    5    0    0  0.12411339797E+03  0.24899126729E+03 -0.10536060441E+03  0.29749225822E+03  0.00000000000E+00 0.  1.
        -13    1    5    5    0    0  0.15232358961E+03  0.22655321945E+03 -0.19474363723E+03  0.33534149972E+03  0.00000000000E+00 0. -1.
          5    1    6    6  503    0  0.23070984756E+03 -0.11774074249E+03 -0.16113206549E+03  0.30508285552E+03  0.47000000000E+01 0. -1.
         -5    1    6    6    0  503  0.57155672051E+01 -0.34932118821E+02 -0.14643526391E+02  0.38593308992E+02  0.47000000000E+01 0.  1.
<mgrwt>
<rscale>  0 0.72723363E+03</rscale>
<asrwt>0</asrwt>
<pdfrwt beam="1">  1        1 0.15249255E+00 0.72723363E+03</pdfrwt>
<pdfrwt beam="2">  1       -1 0.93043902E-01 0.72723363E+03</pdfrwt>
<totfact> 0.17808890E+01</totfact>
</mgrwt>
</event>
<event>
12    1  0.3166324E-008  0.6616255E+03  0.7818608E-02  0.9785206E-01
         -1   -1    0    0    0  501 -0.00000000000E+00  0.00000000000E+00  0.70149693476E+03  0.70149693476E+03  0.00000000000E+00 0.  1.
          1   -1    0    0  501    0  0.00000000000E+00 -0.00000000000E+00 -0.11708695801E+04  0.11708695801E+04  0.00000000000E+00 0. -1.
         23    2    1    2    0    0 -0.36697387026E+03 -0.53878741829E+03 -0.69535456620E+03  0.95758520939E+03  0.92139877051E+02 0.  0.
    5000000    2    1    2    0    0  0.36697387026E+03  0.53878741829E+03  0.22598192087E+03  0.91478130545E+03  0.60066238827E+03 0.  0.
         23    2    4    4    0    0  0.24643035513E+03  0.34529969246E+03 -0.15569254981E+03  0.46099778831E+03  0.91208515073E+02 0.  0.
         23    2    4    4    0    0  0.12054351513E+03  0.19348772583E+03  0.38167447068E+03  0.45378351714E+03  0.90971642704E+02 0.  0.
          4    1    3    3  502    0 -0.14066518065E+03 -0.15416526941E+03 -0.26828162334E+03  0.33989506140E+03  0.00000000000E+00 0. -1.
         -4    1    3    3    0  502 -0.22630868961E+03 -0.38462214889E+03 -0.42707294286E+03  0.61769014799E+03  0.00000000000E+00 0.  1.
         11    1    5    5    0    0  0.22272323054E+03  0.31763081220E+03 -0.16770218591E+03  0.42263340313E+03  0.00000000000E+00 0.  1.
        -11    1    5    5    0    0  0.23707124586E+02  0.27668880261E+02  0.12009636106E+02  0.38364385182E+02  0.00000000000E+00 0. -1.
          5    1    6    6  503    0  0.80634278703E+02  0.50188786779E+02  0.17396580893E+03  0.19825991500E+03  0.47000000000E+01 0. -1.
         -5    1    6    6    0  503  0.39909236425E+02  0.14329893905E+03  0.20770866175E+03  0.25552360214E+03  0.47000000000E+01 0.  1.
<mgrwt>
<rscale>  0 0.66162551E+03</rscale>
<asrwt>0</asrwt>
<pdfrwt beam="1">  1        1 0.18013378E+00 0.66162551E+03</pdfrwt>
<pdfrwt beam="2">  1       -1 0.10792261E+00 0.66162551E+03</pdfrwt>
<totfact> 0.93997674E+00</totfact>
</mgrwt>
</event>
<event>
12    1  0.3166324E-008  0.1036808E+04  0.7818608E-02  0.9269071E-01
         -2   -1    0    0    0  501 -0.00000000000E+00  0.00000000000E+00  0.45332920823E+03  0.45332920823E+03  0.00000000000E+00 0.  1.
          2   -1    0    0  501    0  0.00000000000E+00 -0.00000000000E+00 -0.27374275102E+04  0.27374275102E+04  0.00000000000E+00 0. -1.
         23    2    1    2    0    0  0.89484300500E+03  0.46025080663E+03 -0.73972149201E+03  0.12521476578E+04  0.90061437627E+02 0.  0.
    5000000    2    1    2    0    0 -0.89484300500E+03 -0.46025080663E+03 -0.15443768099E+04  0.19386090606E+04  0.60044196241E+03 0.  0.
         23    2    4    4    0    0 -0.19269278336E+03  0.26421443626E+02 -0.71048960026E+03  0.74129844342E+03  0.83062077377E+02 0.  0.
         23    2    4    4    0    0 -0.70215022165E+03 -0.48667225026E+03 -0.83388720966E+03  0.11973106172E+04  0.91214158165E+02 0.  0.
          1    1    3    3  502    0  0.61416363168E+03  0.35127654787E+03 -0.55137700481E+03  0.89699987792E+03  0.00000000000E+00 0. -1.
         -1    1    3    3    0  502  0.28067937333E+03  0.10897425876E+03 -0.18834448720E+03  0.35514777987E+03  0.00000000000E+00 0.  1.
         13    1    5    5    0    0 -0.67027328247E+02  0.45434152389E+02 -0.21424434164E+03  0.22903616060E+03  0.00000000000E+00 0. -1.
        -13    1    5    5    0    0 -0.12566545511E+03 -0.19012708763E+02 -0.49624525862E+03  0.51226228283E+03  0.00000000000E+00 0.  1.
          5    1    6    6  503    0 -0.43973189000E+01 -0.43131523334E+00 -0.33128735943E+00  0.64592722232E+01  0.47000000000E+01 0. -1.
         -5    1    6    6    0  503 -0.69775290275E+03 -0.48624093503E+03 -0.83355592230E+03  0.11908513450E+04  0.47000000000E+01 0.  1.
<mgrwt>
<rscale>  0 0.10368078E+04</rscale>
<asrwt>0</asrwt>
<pdfrwt beam="1">  1        2 0.42114270E+00 0.10368078E+04</pdfrwt>
<pdfrwt beam="2">  1       -2 0.69742954E-01 0.10368078E+04</pdfrwt>
<totfact> 0.47777469E+00</totfact>
</mgrwt>
</event>
<event>
12    1  0.3166324E-008  0.7554258E+03  0.7818608E-02  0.9626876E-01
         -3   -1    0    0    0  501 -0.00000000000E+00  0.00000000000E+00  0.11763560604E+04  0.11763560604E+04  0.00000000000E+00 0.  1.
          3   -1    0    0  501    0  0.00000000000E+00 -0.00000000000E+00 -0.61563793703E+03  0.61563793703E+03  0.00000000000E+00 0. -1.
         23    2    1    2    0    0  0.18889162605E+03  0.71189037948E+03  0.34227634998E+03  0.81723845937E+03  0.90871562861E+02 0.  0.
    5000000    2    1    2    0    0 -0.18889162605E+03 -0.71189037948E+03  0.21844177341E+03  0.97475553808E+03  0.59996965911E+03 0.  0.
         23    2    4    4    0    0 -0.12742160597E+03 -0.59146476450E+03 -0.96327361893E+02  0.61986426968E+03  0.94265151938E+02 0.  0.
         23    2    4    4    0    0 -0.61470020088E+02 -0.12042561498E+03  0.31476913530E+03  0.35489126839E+03  0.92667749144E+02 0.  0.
          4    1    3    3  502    0  0.13275710727E+03  0.37941792808E+03  0.22232749613E+03  0.45936034789E+03  0.00000000000E+00 0. -1.
         -4    1    3    3    0  502  0.56134518787E+02  0.33247245140E+03  0.11994885384E+03  0.35787811148E+03  0.00000000000E+00 0.  1.
         11    1    5    5    0    0 -0.47521838805E+02 -0.35723724818E+03 -0.93716502275E+02  0.37237019141E+03  0.00000000000E+00 0.  1.
        -11    1    5    5    0    0 -0.79899767160E+02 -0.23422751632E+03 -0.26108596180E+01  0.24749407827E+03  0.00000000000E+00 0. -1.
          5    1    6    6  503    0 -0.63190530581E+02 -0.24746309655E+02  0.13615870078E+03  0.15220612601E+03  0.47000000000E+01 0. -1.
         -5    1    6    6    0  503  0.17205104931E+01 -0.95679305325E+02  0.17861043452E+03  0.20268514239E+03  0.47000000000E+01 0.  1.
<mgrwt>
<rscale>  0 0.75542581E+03</rscale>
<asrwt>0</asrwt>
<pdfrwt beam="1">  1        3 0.94713529E-01 0.75542581E+03</pdfrwt>
<pdfrwt beam="2">  1       -3 0.18097785E+00 0.75542581E+03</pdfrwt>
<totfact> 0.50153912E-01</totfact>
</mgrwt>
</event>
<event>
12    1  0.3166324E-008  0.5048113E+03  0.7818608E-02  0.1012531E+00
         -1   -1    0    0    0  501 -0.00000000000E+00  0.00000000000E+00  0.43171761404E+03  0.43171761404E+03  0.00000000000E+00 0.  1.
          1   -1    0    0  501    0  0.00000000000E+00 -0.00000000000E+00 -0.91010946709E+03  0.91010946709E+03  0.00000000000E+00 0. -1.
         23    2    1    2    0    0 -0.35707591602E+03 -0.29878316852E+03 -0.70658298026E+02  0.47992367310E+03  0.92517810855E+02 0.  0.
    5000000    2    1    2    0    0  0.35707591602E+03  0.29878316852E+03 -0.40773355503E+03  0.86190340804E+03  0.59988018912E+03 0.  0.
         23    2    4    4    0    0  0.13831021859E+03  0.27163101494E+03  0.71836619052E+02  0.32624333672E+03  0.91438996470E+02 0.  0.
         23    2    4    4    0    0  0.21876569743E+03  0.27152153579E+02 -0.47957017408E+03  0.53566007131E+03  0.91370073394E+02 0.  0.
          3    1    3    3  502    0 -0.18936141801E+03 -0.13660218974E+03 -0.78936053681E+02  0.24647272759E+03  0.00000000000E+00 0. -1.
         -3    1    3    3    0  502 -0.16771449801E+03 -0.16218097878E+03  0.82777556553E+01  0.23345094551E+03  0.00000000000E+00 0.  1.
         11    1    5    5    0    0  0.30940524769E+02  0.13619671708E+03  0.62910499566E+02  0.15318156799E+03  0.00000000000E+00 0.  1.
        -11    1    5    5    0    0  0.10736969382E+03  0.13543429786E+03  0.89261194860E+01  0.17306176873E+03  0.00000000000E+00 0. -1.
          5    1    6    6  503    0  0.10911565882E+03  0.46821605973E+02 -0.17690354876E+03  0.21310899875E+03  0.47000000000E+01 0. -1.
         -5    1    6    6    0  503  0.10965003862E+03 -0.19669452394E+02 -0.30266662533E+03  0.32255107256E+03  0.47000000000E+01 0.  1.
<mgrwt>
<rscale>  0 0.50481132E+03</rscale>
<asrwt>0</asrwt>
<pdfrwt beam="1">  1        1 0.14001684E+00 0.50481132E+03</pdfrwt>
<pdfrwt beam="2">  1       -1 0.66418094E-01 0.50481132E+03</pdfrwt>
<totfact> 0.43285256E+01</totfact>
</mgrwt>
</event>
<event>
12    1  0.3166324E-008  0.5927210E+03  0.7818608E-02  0.9920624E-01
          2   -1    0    0  501    0  0.00000000000E+00  0.00000000000E+00  0.76300808377E+03  0.76300808377E+03  0.00000000000E+00 0. -1.
         -2   -1    0    0    0  501 -0.00000000000E+00 -0.00000000000E+00 -0.72758760190E+03  0.72758760190E+03  0.00000000000E+00 0.  1.
         23    2    1    2    0    0 -0.45266698170E+03 -0.66907522330E+02 -0.40455164401E+03  0.61730685882E+03  0.89564012917E+02 0.  0.
    5000000    2    1    2    0    0  0.45266698170E+03  0.66907522330E+02  0.43997212587E+03  0.87328882685E+03  0.59972818067E+03 0.  0.
         23    2    4    4    0    0  0.45331991174E+03  0.25483670562E+03  0.22327927378E+03  0.57311173826E+03  0.90347891647E+02 0.  0.
         23    2    4    4    0    0 -0.65293003571E+00 -0.18792918329E+03  0.21669285209E+03  0.30017708859E+03  0.88502475177E+02 0.  0.
          1    1    3    3  502    0 -0.31821378303E+03 -0.29423163073E+02 -0.22961245743E+03  0.39350681677E+03  0.00000000000E+00 0. -1.
         -1    1    3    3    0  502 -0.13445319867E+03 -0.37484359257E+02 -0.17493918658E+03  0.22380004205E+03  0.00000000000E+00 0.  1.
         13    1    5    5    0    0  0.16774730548E+03  0.12801192399E+03  0.54334497428E+02  0.21789549971E+03  0.00000000000E+00 0. -1.
        -13    1    5    5    0    0  0.28557260625E+03  0.12682478163E+03  0.16894477635E+03  0.35521623856E+03  0.00000000000E+00 0.  1.
          5    1    6    6  503    0 -0.37656925346E+02 -0.11113908605E+03  0.92603570884E+02  0.14955752009E+03  0.47000000000E+01 0. -1.
         -5    1    6    6    0  503  0.37003995310E+02 -0.76790097247E+02  0.12408928121E+03  0.15061956850E+03  0.47000000000E+01 0.  1.
<mgrwt>
<rscale>  0 0.59272098E+03</rscale>
<asrwt>0</asrwt>
<pdfrwt beam="1">  1        2 0.11738586E+00 0.59272098E+03</pdfrwt>
<pdfrwt beam="2">  1       -2 0.11193655E+00 0.59272098E+03</pdfrwt>
<totfact> 0.23804980E+01</totfact>
</mgrwt>
</event>
<event>
12    1  0.3166324E-008  0.8158556E+03  0.7818608E-02  0.9537346E-01
          2   -1    0    0  501    0  0.00000000000E+00  0.00000000000E+00  0.22735087826E+04  0.22735087826E+04  0.00000000000E+00 0.  1.
         -2   -1    0    0    0  501 -0.00000000000E+00 -0.00000000000E+00 -0.34028194956E+03  0.34028194956E+03  0.00000000000E+00 0. -1.
         23    2    1    2    0    0 -0.24626815082E+03 -0.72396174127E+03  0.10381169624E+04  0.12924646000E+04  0.89494746640E+02 0.  0.
    5000000    2    1    2    0    0  0.24626815082E+03  0.72396174127E+03  0.89510987056E+03  0.13213261321E+04  0.59992704726E+03 0.  0.
         23    2    4    4    0    0  0.11530301417E+03  0.68117528718E+03  0.41300233103E+03  0.80993602603E+03  0.90171413819E+02 0.  0.
         23    2    4    4    0    0  0.13096513665E+03  0.42786454089E+02  0.48210753953E+03  0.51139010607E+03  0.10054657248E+03 0.  0.
          4    1    3    3  502    0 -0.47744678398E+01 -0.10361418825E+03  0.12450336196E+03  0.16204870468E+03  0.00000000000E+00 0.  1.
         -4    1    3    3    0  502 -0.24149368298E+03 -0.62034755302E+03  0.91361360049E+03  0.11304158953E+04  0.00000000000E+00 0. -1.
         11    1    5    5    0    0  0.54260662742E+02  0.42581377707E+03  0.20895368438E+03  0.47741306484E+03  0.00000000000E+00 0.  1.
        -11    1    5    5    0    0  0.61042351429E+02  0.25536151011E+03  0.20404864665E+03  0.33252296118E+03  0.00000000000E+00 0. -1.
          5    1    6    6  503    0  0.77631781667E+02  0.74958075764E+02  0.29759270738E+03  0.31658950730E+03  0.47000000000E+01 0. -1.
         -5    1    6    6    0  503  0.53333354987E+02 -0.32171621675E+02  0.18451483215E+03  0.19480059877E+03  0.47000000000E+01 0.  1.
<mgrwt>
<rscale>  0 0.81585555E+03</rscale>
<asrwt>0</asrwt>
<pdfrwt beam="1">  1        2 0.34977057E+00 0.81585555E+03</pdfrwt>
<pdfrwt beam="2">  1       -2 0.52351071E-01 0.81585555E+03</pdfrwt>
<totfact> 0.16665597E+01</totfact>
</mgrwt>
</event>
<event>
12    1  0.3166324E-008  0.6333936E+03  0.7818608E-02  0.9838449E-01
         -1   -1    0    0    0  501 -0.00000000000E+00  0.00000000000E+00  0.78837166348E+03  0.78837166348E+03  0.00000000000E+00 0.  1.
          1   -1    0    0  501    0  0.00000000000E+00 -0.00000000000E+00 -0.56746239400E+03  0.56746239400E+03  0.00000000000E+00 0. -1.
         23    2    1    2    0    0 -0.12319472376E+03  0.50602383352E+03 -0.91666536883E+01  0.52890428881E+03  0.91753251359E+02 0.  0.
    5000000    2    1    2    0    0  0.12319472376E+03 -0.50602383352E+03  0.23007592316E+03  0.82692976866E+03  0.59970063517E+03 0.  0.
         23    2    4    4    0    0  0.13811940981E+03  0.75912842006E+02 -0.27907324368E+02  0.18436858045E+03  0.91505320928E+02 0.  0.
         23    2    4    4    0    0 -0.14924686045E+02 -0.58193667552E+03  0.25798324753E+03  0.64256118821E+03  0.86350935185E+02 0.  0.
          3    1    3    3  502    0 -0.19457387485E+02  0.11461150644E+03 -0.39663490575E+02  0.12283150988E+03  0.00000000000E+00 0. -1.
         -3    1    3    3    0  502 -0.10373733628E+03  0.39141232708E+03  0.30496836887E+02  0.40607277893E+03  0.00000000000E+00 0.  1.
         13    1    5    5    0    0  0.45774825541E+02  0.34816385842E+01  0.28625432746E+02  0.54100571720E+02  0.00000000000E+00 0. -1.
        -13    1    5    5    0    0  0.92344584268E+02  0.72431203421E+02 -0.56532757114E+02  0.13026800873E+03  0.00000000000E+00 0.  1.
          5    1    6    6  503    0  0.71461428528E+00 -0.19826067106E+03  0.13269586854E+03  0.23861703185E+03  0.47000000000E+01 0. -1.
         -5    1    6    6    0  503 -0.15639300331E+02 -0.38367600446E+03  0.12528737899E+03  0.40394415635E+03  0.47000000000E+01 0.  1.
<mgrwt>
<rscale>  0 0.63339365E+03</rscale>
<asrwt>0</asrwt>
<pdfrwt beam="1">  1        1 0.87301906E-01 0.63339365E+03</pdfrwt>
<pdfrwt beam="2">  1       -1 0.12128795E+00 0.63339365E+03</pdfrwt>
<totfact> 0.23256895E+01</totfact>
</mgrwt>
</event>
<event>
12    1  0.3166324E-008  0.5300601E+03  0.7818608E-02  0.1006218E+00
         -2   -1    0    0    0  501 -0.00000000000E+00  0.00000000000E+00  0.41690846687E+03  0.41690846687E+03  0.00000000000E+00 0.  1.
          2   -1    0    0  501    0  0.00000000000E+00 -0.00000000000E+00 -0.12732479698E+04  0.12732479698E+04  0.00000000000E+00 0. -1.
         23    2    1    2    0    0  0.13100156012E+03 -0.46182325018E+03  0.62668009704E+02  0.49222630998E+03  0.88979422562E+02 0.  0.
    5000000    2    1    2    0    0 -0.13100156012E+03  0.46182325018E+03 -0.91900751260E+03  0.11979301267E+04  0.60001638059E+03 0.  0.
         23    2    4    4    0    0 -0.85327109825E+02  0.46871453185E+01  0.39518004511E+02  0.13113012856E+03  0.91272958388E+02 0.  0.
         23    2    4    4    0    0 -0.45674450295E+02  0.45713610486E+03 -0.95852551711E+03  0.10667999981E+04  0.90727587941E+02 0.  0.
          4    1    3    3  502    0  0.64601130405E+02 -0.13243791317E+03  0.51280962623E+02  0.15602193443E+03  0.00000000000E+00 0. -1.
         -4    1    3    3    0  502  0.66400429716E+02 -0.32938533700E+03  0.11387047081E+02  0.33620437555E+03  0.00000000000E+00 0.  1.
         13    1    5    5    0    0 -0.95363777396E+02  0.12958707982E+02  0.74536116701E+01  0.96528412805E+02  0.00000000000E+00 0. -1.
        -13    1    5    5    0    0  0.10036667571E+02 -0.82715626637E+01  0.32064392841E+02  0.34601715753E+02  0.00000000000E+00 0.  1.
          5    1    6    6  503    0 -0.69875316690E+02  0.38387390465E+03 -0.82181950216E+03  0.90975332848E+03  0.47000000000E+01 0. -1.
         -5    1    6    6    0  503  0.24200866395E+02  0.73262200203E+02 -0.13670601495E+03  0.15704666961E+03  0.47000000000E+01 0.  1.
<mgrwt>
<rscale>  0 0.53006008E+03</rscale>
<asrwt>0</asrwt>
<pdfrwt beam="1">  1        2 0.19588430E+00 0.53006008E+03</pdfrwt>
<pdfrwt beam="2">  1       -2 0.64139764E-01 0.53006008E+03</pdfrwt>
<totfact> 0.40297384E+01</totfact>
</mgrwt>
</event>
<event>
12    1  0.3166324E-008  0.6798644E+03  0.7818608E-02  0.9752300E-01
          1   -1    0    0  501    0  0.00000000000E+00  0.00000000000E+00  0.15332357221E+04  0.15332357221E+04  0.00000000000E+00 0. -1.
         -1   -1    0    0    0  501 -0.00000000000E+00 -0.00000000000E+00 -0.33938985745E+03  0.33938985745E+03  0.00000000000E+00 0.  1.
         23    2    1    2    0    0 -0.49858133667E+03  0.28689886677E+03  0.68407529668E+03  0.89763654379E+03  0.83054465204E+02 0.  0.
    5000000    2    1    2    0    0  0.49858133667E+03 -0.28689886677E+03  0.50977056800E+03  0.97498903579E+03  0.59986938485E+03 0.  0.
         23    2    4    4    0    0 -0.68927075834E+02  0.47026775184E+02  0.21375390861E+03  0.24646144172E+03  0.89944702125E+02 0.  0.
         23    2    4    4    0    0  0.56750841251E+03 -0.33392564195E+03  0.29601665938E+03  0.72852759407E+03  0.97746918448E+02 0.  0.
          3    1    3    3  502    0 -0.26941274356E+03  0.20168603274E+03  0.40654652853E+03  0.52776942129E+03  0.00000000000E+00 0. -1.
         -3    1    3    3    0  502 -0.22916859311E+03  0.85212834028E+02  0.27752876815E+03  0.36986712250E+03  0.00000000000E+00 0.  1.
         13    1    5    5    0    0 -0.10376233078E+02  0.53761866215E+02  0.57205520068E+02  0.79186337193E+02  0.00000000000E+00 0. -1.
        -13    1    5    5    0    0 -0.58550842756E+02 -0.67350910304E+01  0.15654838854E+03  0.16727510453E+03  0.00000000000E+00 0.  1.
          5    1    6    6  503    0  0.19900539064E+03 -0.67305024634E+02  0.10895789889E+03  0.23670028638E+03  0.47000000000E+01 0. -1.
         -5    1    6    6    0  503  0.36850302187E+03 -0.26662061732E+03  0.18705876049E+03  0.49182730768E+03  0.47000000000E+01 0.  1.
<mgrwt>
<rscale>  0 0.67986438E+03</rscale>
<asrwt>0</asrwt>
<pdfrwt beam="1">  1        1 0.23588241E+00 0.67986438E+03</pdfrwt>
<pdfrwt beam="2">  1       -1 0.52213825E-01 0.67986438E+03</pdfrwt>
<totfact> 0.23921490E+01</totfact>
</mgrwt>
</event>
<event>
12    1  0.3166324E-008  0.1296032E+04  0.7818608E-02  0.9032718E-01
          2   -1    0    0  501    0  0.00000000000E+00  0.00000000000E+00  0.12754140306E+04  0.12754140306E+04  0.00000000000E+00 0. -1.
         -2   -1    0    0    0  501 -0.00000000000E+00 -0.00000000000E+00 -0.13718154761E+04  0.13718154761E+04  0.00000000000E+00 0.  1.
         23    2    1    2    0    0  0.11273940740E+04 -0.53598012986E+03  0.59700000552E+02  0.12531874070E+04  0.92857359878E+02 0.  0.
    5000000    2    1    2    0    0 -0.11273940740E+04  0.53598012986E+03 -0.15610144598E+03  0.13940420997E+04  0.60057773576E+03 0.  0.
         23    2    4    4    0    0 -0.11381530278E+04  0.50254442138E+03 -0.49723491907E+02  0.12490928063E+04  0.99081799454E+02 0.  0.
         23    2    4    4    0    0  0.10758953844E+02  0.33435708483E+02 -0.10637795407E+03  0.14494929338E+03  0.91980035062E+02 0.  0.
          1    1    3    3  502    0  0.62206196572E+03 -0.34636953617E+03  0.29094982322E+02  0.71258645987E+03  0.00000000000E+00 0. -1.
         -1    1    3    3    0  502  0.50533210826E+03 -0.18961059369E+03  0.30605018230E+02  0.54060094711E+03  0.00000000000E+00 0.  1.
         13    1    5    5    0    0 -0.52643291560E+03  0.21976088747E+03 -0.70832935300E+02  0.57484238450E+03  0.00000000000E+00 0. -1.
        -13    1    5    5    0    0 -0.61172011223E+03  0.28278353391E+03  0.21109443393E+02  0.67425042184E+03  0.00000000000E+00 0.  1.
          5    1    6    6  503    0 -0.36050305950E+02  0.32711181865E+02 -0.37931807032E+02  0.61891501540E+02  0.47000000000E+01 0. -1.
         -5    1    6    6    0  503  0.46809259794E+02  0.72452661726E+00 -0.68446147036E+02  0.83057791840E+02  0.47000000000E+01 0.  1.
<mgrwt>
<rscale>  0 0.12960316E+04</rscale>
<asrwt>0</asrwt>
<pdfrwt beam="1">  1        2 0.19621754E+00 0.12960316E+04</pdfrwt>
<pdfrwt beam="2">  1       -2 0.21104854E+00 0.12960316E+04</pdfrwt>
<totfact> 0.18523836E+00</totfact>
</mgrwt>
</event>
<event>
12    1  0.3166324E-008  0.2000109E+04  0.7818608E-02  0.8606570E-01
         -3   -1    0    0    0  501 -0.00000000000E+00  0.00000000000E+00  0.22112606193E+04  0.22112606193E+04  0.00000000000E+00 0.  1.
          3   -1    0    0  501    0  0.00000000000E+00 -0.00000000000E+00 -0.22628169279E+04  0.22628169279E+04  0.00000000000E+00 0. -1.
         23    2    1    2    0    0  0.19172603856E+04  0.40140709207E+03  0.96670031199E+03  0.21862841830E+04  0.91181117235E+02 0.  0.
    5000000    2    1    2    0    0 -0.19172603856E+04 -0.40140709207E+03 -0.10182566206E+04  0.22877933641E+04  0.60011406559E+03 0.  0.
         23    2    4    4    0    0 -0.47606928053E+03 -0.35987263226E+03 -0.30117370072E+03  0.67445413304E+03  0.89624261541E+02 0.  0.
         23    2    4    4    0    0 -0.14411911050E+04 -0.41534459810E+02 -0.71708291988E+03  0.16133392310E+04  0.99491948660E+02 0.  0.
          2    1    3    3  502    0  0.12586063312E+04  0.30212443031E+03  0.61488579744E+03  0.14329876525E+04  0.00000000000E+00 0. -1.
         -2    1    3    3    0  502  0.65865405435E+03  0.99282661759E+02  0.35181451454E+03  0.75329653051E+03  0.00000000000E+00 0.  1.
         11    1    5    5    0    0 -0.16656661351E+03 -0.11661332161E+03 -0.56807970655E+02  0.21111667164E+03  0.00000000000E+00 0. -1.
        -11    1    5    5    0    0 -0.30950266702E+03 -0.24325931065E+03 -0.24436573006E+03  0.46333746141E+03  0.00000000000E+00 0.  1.
          5    1    6    6  503    0 -0.10741037183E+04 -0.53686496697E+02 -0.49303962179E+03  0.11830854560E+04  0.47000000000E+01 0. -1.
         -5    1    6    6    0  503 -0.36708738675E+03  0.12152036888E+02 -0.22404329809E+03  0.43025377504E+03  0.47000000000E+01 0.  1.
<mgrwt>
<rscale>  0 0.20001086E+04</rscale>
<asrwt>0</asrwt>
<pdfrwt beam="1">  1        3 0.34812568E+00 0.20001086E+04</pdfrwt>
<pdfrwt beam="2">  1       -3 0.34019394E+00 0.20001086E+04</pdfrwt>
<totfact> 0.10776553E-03</totfact>
</mgrwt>
</event>
<event>
12    1  0.3166324E-008  0.6634746E+03  0.7818608E-02  0.9781818E-01
          2   -1    0    0  501    0  0.00000000000E+00  0.00000000000E+00  0.25759082896E+04  0.25759082896E+04  0.00000000000E+00 0. -1.
         -2   -1    0    0    0  501 -0.00000000000E+00 -0.00000000000E+00 -0.28453725398E+03  0.28453725398E+03  0.00000000000E+00 0.  1.
         23    2    1    2    0    0 -0.61225815513E+02 -0.56404290955E+03  0.19446196659E+03  0.60683864534E+03  0.92437442294E+02 0.  0.
    5000000    2    1    2    0    0  0.61225815513E+02  0.56404290955E+03  0.20969090690E+04  0.22536068982E+04  0.59985281836E+03 0.  0.
         23    2    4    4    0    0 -0.19658453380E+03  0.39746210235E+03  0.16019425123E+04  0.16645986478E+04  0.89706432700E+02 0.  0.
         23    2    4    4    0    0  0.25781034931E+03  0.16658080719E+03  0.49496655673E+03  0.58900825036E+03  0.87883361167E+02 0.  0.
          4    1    3    3  502    0 -0.18229386882E+02 -0.18175931113E+03  0.10915598314E+03  0.21279987402E+03  0.00000000000E+00 0. -1.
         -4    1    3    3    0  502 -0.42996428631E+02 -0.38228359841E+03  0.85305983452E+02  0.39403877132E+03  0.00000000000E+00 0.  1.
         11    1    5    5    0    0 -0.11704593531E+03  0.14401174502E+03  0.60027979680E+03  0.62831120325E+03  0.00000000000E+00 0. -1.
        -11    1    5    5    0    0 -0.79538598485E+02  0.25345035733E+03  0.10016627155E+04  0.10362874446E+04  0.00000000000E+00 0.  1.
          5    1    6    6  503    0  0.12985741234E+03  0.67226145396E+02  0.31191886632E+03  0.34452542915E+03  0.47000000000E+01 0. -1.
         -5    1    6    6    0  503  0.12795293697E+03  0.99354661798E+02  0.18304769041E+03  0.24448282121E+03  0.47000000000E+01 0.  1.
<mgrwt>
<rscale>  0 0.66347462E+03</rscale>
<asrwt>0</asrwt>
<pdfrwt beam="1">  1        2 0.39629357E+00 0.66347462E+03</pdfrwt>
<pdfrwt beam="2">  1       -2 0.43774964E-01 0.66347462E+03</pdfrwt>
<totfact> 0.16557127E+01</totfact>
</mgrwt>
</event>
<event>
12    1  0.3166324E-008  0.4537397E+03  0.7818608E-02  0.1026613E+00
         -1   -1    0    0    0  501 -0.00000000000E+00  0.00000000000E+00  0.15991166062E+03  0.15991166062E+03  0.00000000000E+00 0.  1.
          1   -1    0    0  501    0  0.00000000000E+00 -0.00000000000E+00 -0.18406617305E+04  0.18406617305E+04  0.00000000000E+00 0. -1.
         23    2    1    2    0    0  0.12173655194E+03  0.28860587579E+03 -0.23008578138E+03  0.39987723656E+03  0.94070175437E+02 0.  0.
    5000000    2    1    2    0    0 -0.12173655194E+03 -0.28860587579E+03 -0.14506642886E+04  0.16006961546E+04  0.59974007844E+03 0.  0.
         23    2    4    4    0    0  0.18607501349E+03 -0.47610015412E+02 -0.21418455335E+03  0.30047409714E+03  0.86712374816E+02 0.  0.
         23    2    4    4    0    0 -0.30781156543E+03 -0.24099586038E+03 -0.12364797352E+04  0.13002220575E+04  0.94171644530E+02 0.  0.
          4    1    3    3  502    0  0.43713138681E+02  0.20473047979E+03 -0.17456498231E+03  0.27257722006E+03  0.00000000000E+00 0.  1.
         -4    1    3    3    0  502  0.78023413259E+02  0.83875395998E+02 -0.55520799070E+02  0.12730001650E+03  0.00000000000E+00 0. -1.
         11    1    5    5    0    0  0.53982812769E+01 -0.37799066875E+01  0.82594611904E+01  0.10566353887E+02  0.00000000000E+00 0. -1.
        -11    1    5    5    0    0  0.18067673221E+03 -0.43830108725E+02 -0.22244401454E+03  0.28990774325E+03  0.00000000000E+00 0.  1.
          5    1    6    6  503    0 -0.12241719244E+03 -0.93197393983E+02 -0.64183090092E+03  0.66003084672E+03  0.47000000000E+01 0. -1.
         -5    1    6    6    0  503 -0.18539437299E+03 -0.14779846639E+03 -0.59464883429E+03  0.64019121075E+03  0.47000000000E+01 0.  1.
<mgrwt>
<rscale>  0 0.45373969E+03</rscale>
<asrwt>0</asrwt>
<pdfrwt beam="1">  1        1 0.28317873E+00 0.45373969E+03</pdfrwt>
<pdfrwt beam="2">  1       -1 0.24601794E-01 0.45373969E+03</pdfrwt>
<totfact> 0.59170522E+01</totfact>
</mgrwt>
</event>
<event>
12    1  0.3166324E-008  0.1025584E+04  0.7818608E-02  0.9280922E-01
          2   -1    0    0  501    0  0.00000000000E+00  0.00000000000E+00  0.32590512124E+04  0.32590512124E+04  0.00000000000E+00 0. -1.
         -2   -1    0    0    0  501 -0.00000000000E+00 -0.00000000000E+00 -0.34337121132E+03  0.34337121132E+03  0.00000000000E+00 0.  1.
         23    2    1    2    0    0  0.48101455385E+03 -0.84269572620E+03  0.13797997806E+04  0.16892902491E+04  0.91340151167E+02 0.  0.
    5000000    2    1    2    0    0 -0.48101455385E+03  0.84269572620E+03  0.15358802205E+04  0.19131321746E+04  0.59969623804E+03 0.  0.
         23    2    4    4    0    0 -0.48891224119E+03  0.86778529379E+03  0.15155509014E+04  0.18158666719E+04  0.91600980668E+02 0.  0.
         23    2    4    4    0    0  0.78976873398E+01 -0.25089567596E+02  0.20329319094E+02  0.97265502731E+02  0.91408079179E+02 0.  0.
          2    1    3    3  502    0  0.19590751165E+03 -0.36790560553E+03  0.66876268755E+03  0.78802145907E+03  0.00000000000E+00 0.  1.
         -2    1    3    3    0  502  0.28510704220E+03 -0.47479012067E+03  0.71103709309E+03  0.90126879007E+03  0.00000000000E+00 0. -1.
         11    1    5    5    0    0 -0.29064649364E+03  0.55590451417E+03  0.88039254174E+03  0.10810162999E+04  0.00000000000E+00 0. -1.
        -11    1    5    5    0    0 -0.19826574755E+03  0.31188077963E+03  0.63515835964E+03  0.73485037196E+03  0.00000000000E+00 0.  1.
          5    1    6    6  503    0 -0.35441438884E+02 -0.67796879432E+01 -0.13836735216E+02  0.38930771894E+02  0.47000000000E+01 0. -1.
         -5    1    6    6    0  503  0.43339126224E+02 -0.18309879653E+02  0.34166054310E+02  0.58334730838E+02  0.47000000000E+01 0.  1.
<mgrwt>
<rscale>  0 0.10255835E+04</rscale>
<asrwt>0</asrwt>
<pdfrwt beam="1">  1        2 0.50139247E+00 0.10255835E+04</pdfrwt>
<pdfrwt beam="2">  1       -2 0.52826342E-01 0.10255835E+04</pdfrwt>
<totfact> 0.41125942E+00</totfact>
</mgrwt>
</event>
<event>
12    1  0.3166324E-008  0.8814127E+03  0.7818608E-02  0.9449119E-01
         -2   -1    0    0    0  501 -0.00000000000E+00  0.00000000000E+00  0.29794196349E+03  0.29794196349E+03  0.00000000000E+00 0.  1.
          2   -1    0    0  501    0  0.00000000000E+00 -0.00000000000E+00 -0.28495702942E+04  0.28495702942E+04  0.00000000000E+00 0. -1.
         23    2    1    2    0    0 -0.40937427905E+02 -0.79050498923E+03 -0.76891049444E+03  0.11066461094E+04  0.82874917731E+02 0.  0.
    5000000    2    1    2    0    0  0.40937427905E+02  0.79050498923E+03 -0.17827178362E+04  0.20408661483E+04  0.60039798503E+03 0.  0.
         23    2    4    4    0    0  0.63006223438E+02  0.86523339102E+03 -0.15727471686E+04  0.17984500278E+04  0.91050761335E+02 0.  0.
         23    2    4    4    0    0 -0.22068795533E+02 -0.74728401782E+02 -0.20997066767E+03  0.24241612044E+03  0.92771377065E+02 0.  0.
          2    1    3    3  502    0  0.22339602658E+02 -0.10344350718E+03 -0.96560198551E+02  0.14326021419E+03  0.00000000000E+00 0. -1.
         -2    1    3    3    0  502 -0.63277030563E+02 -0.68706148205E+03 -0.67235029589E+03  0.96338589521E+03  0.00000000000E+00 0.  1.
         13    1    5    5    0    0  0.53923487269E+02  0.64835074196E+03 -0.12553858786E+04  0.14139519551E+04  0.00000000000E+00 0. -1.
        -13    1    5    5    0    0  0.90827361696E+01  0.21688264905E+03 -0.31736128995E+03  0.38449807271E+03  0.00000000000E+00 0.  1.
          5    1    6    6  503    0 -0.20687782785E+02 -0.85201966016E+02 -0.21306413104E+03  0.23044689910E+03  0.47000000000E+01 0. -1.
         -5    1    6    6    0  503 -0.13810127486E+01  0.10473564234E+02  0.30934633732E+01  0.11969221345E+02  0.47000000000E+01 0.  1.
<mgrwt>
<rscale>  0 0.88141275E+03</rscale>
<asrwt>0</asrwt>
<pdfrwt beam="1">  1        2 0.43839542E+00 0.88141275E+03</pdfrwt>
<pdfrwt beam="2">  1       -2 0.45837227E-01 0.88141275E+03</pdfrwt>
<totfact> 0.10090501E+01</totfact>
</mgrwt>
</event>
<event>
12    1  0.3166324E-008  0.6620845E+03  0.7818608E-02  0.9784364E-01
          1   -1    0    0  501    0  0.00000000000E+00  0.00000000000E+00  0.17801375552E+04  0.17801375552E+04  0.00000000000E+00 0. -1.
         -1   -1    0    0    0  501 -0.00000000000E+00 -0.00000000000E+00 -0.40755289353E+03  0.40755289353E+03  0.00000000000E+00 0.  1.
         23    2    1    2    0    0  0.11714520669E+03  0.53032843475E+03  0.12542134425E+04  0.13697561377E+04  0.90605018805E+02 0.  0.
    5000000    2    1    2    0    0 -0.11714520669E+03 -0.53032843475E+03  0.11837121922E+03  0.81793431102E+03  0.60002795222E+03 0.  0.
         23    2    4    4    0    0 -0.32540513669E+03 -0.37673904266E+03  0.17751709023E+03  0.53673424002E+03  0.93544202590E+02 0.  0.
         23    2    4    4    0    0  0.20825993000E+03 -0.15358939210E+03 -0.59145871012E+02  0.28120007100E+03  0.92808114209E+02 0.  0.
          2    1    3    3  502    0  0.54867188433E+01  0.21612977751E+03  0.45410926121E+03  0.50294871103E+03  0.00000000000E+00 0. -1.
         -2    1    3    3    0  502  0.11165848784E+03  0.31419865725E+03  0.80010418127E+03  0.86680742671E+03  0.00000000000E+00 0.  1.
         13    1    5    5    0    0 -0.24568387077E+03 -0.22394845795E+03  0.95539599903E+02  0.34589202264E+03  0.00000000000E+00 0. -1.
        -13    1    5    5    0    0 -0.79721265923E+02 -0.15279058470E+03  0.81977490327E+02  0.19084221738E+03  0.00000000000E+00 0.  1.
          5    1    6    6  503    0  0.29664164469E+02 -0.62198997371E+02  0.81299762311E+01  0.69547569627E+02  0.47000000000E+01 0. -1.
         -5    1    6    6    0  503  0.17859576554E+03 -0.91390394726E+02 -0.67275847243E+02  0.21165250137E+03  0.47000000000E+01 0.  1.
<mgrwt>
<rscale>  0 0.66208449E+03</rscale>
<asrwt>0</asrwt>
<pdfrwt beam="1">  1        1 0.27386731E+00 0.66208449E+03</pdfrwt>
<pdfrwt beam="2">  1       -1 0.62700446E-01 0.66208449E+03</pdfrwt>
<totfact> 0.11458031E+01</totfact>
</mgrwt>
</event>
<event>
12    1  0.3166324E-008  0.8287158E+03  0.7818608E-02  0.9519358E-01
          1   -1    0    0  501    0  0.00000000000E+00  0.00000000000E+00  0.21053446331E+04  0.21053446331E+04  0.00000000000E+00 0. -1.
         -1   -1    0    0    0  501 -0.00000000000E+00 -0.00000000000E+00 -0.38892212011E+03  0.38892212011E+03  0.00000000000E+00 0.  1.
         23    2    1    2    0    0 -0.75472576066E+02  0.76337622327E+03  0.10912933354E+04  0.13370310124E+04  0.91057213431E+02 0.  0.
    5000000    2    1    2    0    0  0.75472576066E+02 -0.76337622327E+03  0.62512917757E+03  0.11572357409E+04  0.59997391882E+03 0.  0.
         23    2    4    4    0    0  0.23647111612E+03 -0.26991927596E+03  0.48647234652E+03  0.61157948901E+03  0.92731457219E+02 0.  0.
         23    2    4    4    0    0 -0.16099854005E+03 -0.49345694730E+03  0.13865683105E+03  0.54565625184E+03  0.95366344356E+02 0.  0.
          2    1    3    3  502    0  0.35100250305E+01  0.17337394473E+03  0.19359357407E+03  0.25990251424E+03  0.00000000000E+00 0.  1.
         -2    1    3    3    0  502 -0.78982601096E+02  0.59000227854E+03  0.89769976136E+03  0.10771284981E+04  0.00000000000E+00 0. -1.
         13    1    5    5    0    0  0.11337100433E+03 -0.19473032625E+03  0.31890174505E+03  0.39047561713E+03  0.00000000000E+00 0. -1.
        -13    1    5    5    0    0  0.12310011179E+03 -0.75188949717E+02  0.16757060147E+03  0.22110387188E+03  0.00000000000E+00 0.  1.
          5    1    6    6  503    0 -0.68190305459E+02 -0.21912063295E+03  0.11019019671E+03  0.25461291993E+03  0.47000000000E+01 0. -1.
         -5    1    6    6    0  503 -0.92808234591E+02 -0.27433631435E+03  0.28466634342E+02  0.29104333191E+03  0.47000000000E+01 0.  1.
<mgrwt>
<rscale>  0 0.82871576E+03</rscale>
<asrwt>0</asrwt>
<pdfrwt beam="1">  1        1 0.32389917E+00 0.82871576E+03</pdfrwt>
<pdfrwt beam="2">  1       -1 0.59834174E-01 0.82871576E+03</pdfrwt>
<totfact> 0.74178106E+00</totfact>
</mgrwt>
</event>
<event>
12    1  0.3166324E-008  0.6475838E+03  0.7818608E-02  0.9811324E-01
          2   -1    0    0  501    0  0.00000000000E+00  0.00000000000E+00  0.64415401669E+03  0.64415401669E+03  0.00000000000E+00 0. -1.
         -2   -1    0    0    0  501 -0.00000000000E+00 -0.00000000000E+00 -0.97473217459E+03  0.97473217459E+03  0.00000000000E+00 0.  1.
         23    2    1    2    0    0 -0.21641702633E+03  0.56353877522E+03  0.16787366659E+03  0.63313521726E+03  0.90919497022E+02 0.  0.
    5000000    2    1    2    0    0  0.21641702633E+03 -0.56353877522E+03 -0.49845182449E+03  0.98575097402E+03  0.59903128547E+03 0.  0.
         23    2    4    4    0    0 -0.14300952033E+02 -0.35589024896E+03  0.26944512989E+02  0.36905542190E+03  0.92809003410E+02 0.  0.
         23    2    4    4    0    0  0.23071797837E+03 -0.20764852626E+03 -0.52539633748E+03  0.61669555212E+03  0.89013462870E+02 0.  0.
          3    1    3    3  502    0 -0.13599710312E+03  0.43380202644E+03  0.15343294007E+03  0.47981358599E+03  0.00000000000E+00 0. -1.
         -3    1    3    3    0  502 -0.80419923214E+02  0.12973674878E+03  0.14440726518E+02  0.15332163127E+03  0.00000000000E+00 0.  1.
         13    1    5    5    0    0  0.32032110863E+02 -0.20675622750E+03  0.37403557298E+02  0.21253992527E+03  0.00000000000E+00 0.  1.
        -13    1    5    5    0    0 -0.46333062896E+02 -0.14913402146E+03 -0.10459044309E+02  0.15651549662E+03  0.00000000000E+00 0. -1.
          5    1    6    6  503    0  0.79835223264E+02 -0.13033833450E+03 -0.26432963060E+03  0.30537515931E+03  0.47000000000E+01 0. -1.
         -5    1    6    6    0  503  0.15088275510E+03 -0.77310191762E+02 -0.26106670688E+03  0.31132039281E+03  0.47000000000E+01 0.  1.
<mgrwt>
<rscale>  0 0.64758377E+03</rscale>
<asrwt>0</asrwt>
<pdfrwt beam="1">  1        2 0.99100618E-01 0.64758377E+03</pdfrwt>
<pdfrwt beam="2">  1       -2 0.14995880E+00 0.64758377E+03</pdfrwt>
<totfact> 0.13988508E+01</totfact>
</mgrwt>
</event>
<event>
12    1  0.3166324E-008  0.8503673E+03  0.7818608E-02  0.9489844E-01
          2   -1    0    0  501    0  0.00000000000E+00  0.00000000000E+00  0.21040753848E+04  0.21040753848E+04  0.00000000000E+00 0. -1.
         -2   -1    0    0    0  501 -0.00000000000E+00 -0.00000000000E+00 -0.49420435636E+03  0.49420435636E+03  0.00000000000E+00 0.  1.
         23    2    1    2    0    0 -0.70215417997E+03  0.42625583388E+03  0.12899142001E+04  0.15320303360E+04  0.92324312025E+02 0.  0.
    5000000    2    1    2    0    0  0.70215417997E+03 -0.42625583388E+03  0.31995682835E+03  0.10662494051E+04  0.59983405499E+03 0.  0.
         23    2    4    4    0    0  0.46483463191E+02  0.50384551273E+01  0.25414017750E+03  0.27355198361E+03  0.89762795961E+02 0.  0.
         23    2    4    4    0    0  0.65567071678E+03 -0.43129428901E+03  0.65816650848E+02  0.79269742150E+03  0.90102818777E+02 0.  0.
          2    1    3    3  502    0 -0.34486880680E+03  0.24248974500E+03  0.72789031944E+03  0.84116590960E+03  0.00000000000E+00 0.  1.
         -2    1    3    3    0  502 -0.35728537317E+03  0.18376608888E+03  0.56202388062E+03  0.69086442642E+03  0.00000000000E+00 0. -1.
         11    1    5    5    0    0  0.67212007613E+02 -0.25163599413E+01  0.11960076155E+03  0.13721562665E+03  0.00000000000E+00 0. -1.
        -11    1    5    5    0    0 -0.20728544422E+02  0.75548150686E+01  0.13453941595E+03  0.13633635696E+03  0.00000000000E+00 0.  1.
          5    1    6    6  503    0  0.35808635943E+03 -0.27744901915E+03  0.65040681236E+02  0.45766382777E+03  0.47000000000E+01 0. -1.
         -5    1    6    6    0  503  0.29758435735E+03 -0.15384526986E+03  0.77596961182E+00  0.33503359372E+03  0.47000000000E+01 0.  1.
<mgrwt>
<rscale>  0 0.85036729E+03</rscale>
<asrwt>0</asrwt>
<pdfrwt beam="1">  1        2 0.32370390E+00 0.85036729E+03</pdfrwt>
<pdfrwt beam="2">  1       -2 0.76031440E-01 0.85036729E+03</pdfrwt>
<totfact> 0.92620379E+00</totfact>
</mgrwt>
</event>
<event>
12    1  0.3166324E-008  0.9403421E+03  0.7818608E-02  0.9376511E-01
          2   -1    0    0  501    0  0.00000000000E+00  0.00000000000E+00  0.12850170916E+04  0.12850170916E+04  0.00000000000E+00 0. -1.
         -2   -1    0    0    0  501 -0.00000000000E+00 -0.00000000000E+00 -0.79957066906E+03  0.79957066906E+03  0.00000000000E+00 0.  1.
         23    2    1    2    0    0 -0.87821327955E+03  0.25289226228E+03  0.96162993176E+02  0.92403594130E+03  0.96860925351E+02 0.  0.
    5000000    2    1    2    0    0  0.87821327955E+03 -0.25289226228E+03  0.38928342940E+03  0.11605518194E+04  0.60010488780E+03 0.  0.
         23    2    4    4    0    0  0.10886615128E+03 -0.15272329332E+03 -0.10856009307E+03  0.23424747158E+03  0.88940097342E+02 0.  0.
         23    2    4    4    0    0  0.76934712828E+03 -0.10016896895E+03  0.49784352247E+03  0.92630434781E+03  0.90899646679E+02 0.  0.
          4    1    3    3  502    0 -0.21619052682E+03  0.79734506232E+02  0.63261726918E+02  0.23895183922E+03  0.00000000000E+00 0. -1.
         -4    1    3    3    0  502 -0.66202275273E+03  0.17315775605E+03  0.32901266258E+02  0.68508410209E+03  0.00000000000E+00 0.  1.
         13    1    5    5    0    0  0.16639339236E+02 -0.46285452759E+02 -0.74632480911E+02  0.89382425310E+02  0.00000000000E+00 0. -1.
        -13    1    5    5    0    0  0.92226812039E+02 -0.10643784056E+03 -0.33927612161E+02  0.14486504627E+03  0.00000000000E+00 0.  1.
          5    1    6    6  503    0  0.20281169337E+03 -0.29416639398E+02  0.18023172001E+03  0.27295326439E+03  0.47000000000E+01 0. -1.
         -5    1    6    6    0  503  0.56653543491E+03 -0.70752329557E+02  0.31761180246E+03  0.65335108342E+03  0.47000000000E+01 0.  1.
<mgrwt>
<rscale>  0 0.94034210E+03</rscale>
<asrwt>0</asrwt>
<pdfrwt beam="1">  1        2 0.19769494E+00 0.94034210E+03</pdfrwt>
<pdfrwt beam="2">  1       -2 0.12301087E+00 0.94034210E+03</pdfrwt>
<totfact> 0.84095831E+00</totfact>
</mgrwt>
</event>
<event>
12    1  0.3166324E-008  0.6244020E+03  0.7818608E-02  0.9856034E-01
          1   -1    0    0  501    0  0.00000000000E+00  0.00000000000E+00  0.18896319546E+04  0.18896319546E+04  0.00000000000E+00 0. -1.
         -1   -1    0    0    0  501 -0.00000000000E+00 -0.00000000000E+00 -0.26448037728E+03  0.26448037728E+03  0.00000000000E+00 0.  1.
         23    2    1    2    0    0  0.36762117584E+03  0.44188711797E+03  0.64713113696E+03  0.87078660771E+03  0.95294563229E+02 0.  0.
    5000000    2    1    2    0    0 -0.36762117584E+03 -0.44188711797E+03  0.97802044031E+03  0.12833257241E+04  0.59999281545E+03 0.  0.
         23    2    4    4    0    0 -0.20068766662E+03 -0.20253710613E+02  0.72113001744E+03  0.75400280425E+03  0.88351425802E+02 0.  0.
         23    2    4    4    0    0 -0.16693350922E+03 -0.42163340736E+03  0.25689042287E+03  0.52932291988E+03  0.92458301113E+02 0.  0.
          4    1    3    3  502    0  0.52663955542E+02  0.77124419889E+02  0.16187972336E+03  0.18688689947E+03  0.00000000000E+00 0. -1.
         -4    1    3    3    0  502  0.31495722030E+03  0.36476269808E+03  0.48525141360E+03  0.68389970824E+03  0.00000000000E+00 0.  1.
         11    1    5    5    0    0 -0.92023391388E+02  0.34202717146E+02  0.34733436991E+03  0.36094223214E+03  0.00000000000E+00 0. -1.
        -11    1    5    5    0    0 -0.10866427523E+03 -0.54456427759E+02  0.37379564752E+03  0.39306057211E+03  0.00000000000E+00 0.  1.
          5    1    6    6  503    0 -0.73037340169E+02 -0.16687471861E+03  0.53072499784E+02  0.18979042390E+03  0.47000000000E+01 0. -1.
         -5    1    6    6    0  503 -0.93896169055E+02 -0.25475868875E+03  0.20381792309E+03  0.33953249598E+03  0.47000000000E+01 0.  1.
<mgrwt>
<rscale>  0 0.62440198E+03</rscale>
<asrwt>0</asrwt>
<pdfrwt beam="1">  1        1 0.29071260E+00 0.62440198E+03</pdfrwt>
<pdfrwt beam="2">  1       -1 0.40689290E-01 0.62440198E+03</pdfrwt>
<totfact> 0.22126178E+01</totfact>
</mgrwt>
</event>
<event>
12    1  0.3166324E-008  0.2108310E+04  0.7818608E-02  0.8557592E-01
          2   -1    0    0  501    0  0.00000000000E+00  0.00000000000E+00  0.29801243004E+04  0.29801243004E+04  0.00000000000E+00 0. -1.
         -2   -1    0    0    0  501 -0.00000000000E+00 -0.00000000000E+00 -0.15136084284E+04  0.15136084284E+04  0.00000000000E+00 0.  1.
         23    2    1    2    0    0 -0.20528049679E+04 -0.27925721748E+03  0.92068793776E+03  0.22689788100E+04  0.92767083086E+02 0.  0.
    5000000    2    1    2    0    0  0.20528049679E+04  0.27925721748E+03  0.54582793422E+03  0.22247539188E+04  0.59967410810E+03 0.  0.
         23    2    4    4    0    0  0.17777932824E+04  0.49104403966E+02  0.39206987133E+03  0.18235502915E+04  0.93041302714E+02 0.  0.
         23    2    4    4    0    0  0.27501168547E+03  0.23015281351E+03  0.15375806288E+03  0.40120362737E+03  0.93386637167E+02 0.  0.
          3    1    3    3  502    0 -0.43561894692E+03 -0.39406453617E+02  0.23011690664E+03  0.49423731772E+03  0.00000000000E+00 0. -1.
         -3    1    3    3    0  502 -0.16171860210E+04 -0.23985076386E+03  0.69057103111E+03  0.17747414923E+04  0.00000000000E+00 0.  1.
         11    1    5    5    0    0  0.43956696362E+03  0.36868022421E+02  0.12979680630E+03  0.45981037125E+03  0.00000000000E+00 0. -1.
        -11    1    5    5    0    0  0.13382263188E+04  0.12236381545E+02  0.26227306503E+03  0.13637399202E+04  0.00000000000E+00 0.  1.
          5    1    6    6  503    0  0.22555337112E+03  0.15090468628E+03  0.14375032752E+03  0.30713644237E+03  0.47000000000E+01 0. -1.
         -5    1    6    6    0  503  0.49458314342E+02  0.79248127231E+02  0.10007735363E+02  0.94067185003E+02  0.47000000000E+01 0.  1.
<mgrwt>
<rscale>  0 0.21083096E+04</rscale>
<asrwt>0</asrwt>
<pdfrwt beam="1">  1        2 0.45848066E+00 0.21083096E+04</pdfrwt>
<pdfrwt beam="2">  1       -2 0.23286284E+00 0.21083096E+04</pdfrwt>
<totfact> 0.12949713E-01</totfact>
</mgrwt>
</event>
<event>
12    1  0.3166324E-008  0.5050497E+03  0.7818608E-02  0.1012469E+00
         -2   -1    0    0    0  501 -0.00000000000E+00  0.00000000000E+00  0.37241056090E+03  0.37241056090E+03  0.00000000000E+00 0.  1.
          2   -1    0    0  501    0  0.00000000000E+00 -0.00000000000E+00 -0.13642448700E+04  0.13642448700E+04  0.00000000000E+00 0. -1.
         23    2    1    2    0    0 -0.34215267338E+03 -0.17508761977E+03 -0.94309918055E+03  0.10223967069E+04  0.90193321982E+02 0.  0.
    5000000    2    1    2    0    0  0.34215267338E+03  0.17508761977E+03 -0.48735128516E+02  0.71425872401E+03  0.60005523543E+03 0.  0.
         23    2    4    4    0    0  0.21917857765E+03 -0.15534855482E+03  0.12813880983E+03  0.30902019340E+03  0.83075284857E+02 0.  0.
         23    2    4    4    0    0  0.12297409572E+03  0.33043617460E+03 -0.17687393835E+03  0.40523853061E+03  0.92861094778E+02 0.  0.
          1    1    3    3  502    0 -0.18153713983E+03 -0.90842031442E+02 -0.38018525591E+03  0.43098588912E+03  0.00000000000E+00 0. -1.
         -1    1    3    3    0  502 -0.16061553355E+03 -0.84245588333E+02 -0.56291392465E+03  0.59141081774E+03  0.00000000000E+00 0.  1.
         13    1    5    5    0    0  0.36444337096E+02 -0.70881620644E+01  0.47465218743E+02  0.60260922148E+02  0.00000000000E+00 0.  1.
        -13    1    5    5    0    0  0.18273424056E+03 -0.14826039276E+03  0.80673591090E+02  0.24875927125E+03  0.00000000000E+00 0. -1.
          5    1    6    6  503    0  0.11513852800E+03  0.29532873708E+03 -0.18637066317E+03  0.36773911631E+03  0.47000000000E+01 0. -1.
         -5    1    6    6    0  503  0.78355677263E+01  0.35107437517E+02  0.94967248197E+01  0.37499414301E+02  0.47000000000E+01 0.  1.
<mgrwt>
<rscale>  0 0.50504973E+03</rscale>
<asrwt>0</asrwt>
<pdfrwt beam="1">  1        2 0.20988383E+00 0.50504973E+03</pdfrwt>
<pdfrwt beam="2">  1       -2 0.57293932E-01 0.50504973E+03</pdfrwt>
<totfact> 0.45548214E+01</totfact>
</mgrwt>
</event>
<event>
12    1  0.3166324E-008  0.7511629E+03  0.7818608E-02  0.9633528E-01
          1   -1    0    0  501    0  0.00000000000E+00  0.00000000000E+00  0.12249924000E+04  0.12249924000E+04  0.00000000000E+00 0. -1.
         -1   -1    0    0    0  501 -0.00000000000E+00 -0.00000000000E+00 -0.47266596716E+03  0.47266596716E+03  0.00000000000E+00 0.  1.
         23    2    1    2    0    0 -0.35270381884E+01 -0.63115292321E+03  0.20854068056E+03  0.67095172414E+03  0.91217039010E+02 0.  0.
    5000000    2    1    2    0    0  0.35270381884E+01  0.63115292321E+03  0.54378575233E+03  0.10267066431E+04  0.60004760978E+03 0.  0.
         23    2    4    4    0    0  0.19808310969E+03  0.61277799623E+03  0.45097960745E+03  0.79166504554E+03  0.92828589291E+02 0.  0.
         23    2    4    4    0    0 -0.19455607150E+03  0.18374926981E+02  0.92806144874E+02  0.23504159752E+03  0.91879644861E+02 0.  0.
          3    1    3    3  502    0 -0.42155018062E+02 -0.46776113938E+03  0.14682251976E+03  0.49207152058E+03  0.00000000000E+00 0. -1.
         -3    1    3    3    0  502  0.38627979874E+02 -0.16339178384E+03  0.61718160798E+02  0.17888020356E+03  0.00000000000E+00 0.  1.
         13    1    5    5    0    0  0.29947506538E+02  0.26838806495E+02  0.38245245361E+02  0.55496607776E+02  0.00000000000E+00 0. -1.
        -13    1    5    5    0    0  0.16813560315E+03  0.58593918974E+03  0.41273436209E+03  0.73616843777E+03  0.00000000000E+00 0.  1.
          5    1    6    6  503    0 -0.72355553021E+00 -0.17202014763E+02  0.14253181746E+02  0.22840228423E+02  0.47000000000E+01 0. -1.
         -5    1    6    6    0  503 -0.19383251597E+03  0.35576941744E+02  0.78552963129E+02  0.21220136910E+03  0.47000000000E+01 0.  1.
<mgrwt>
<rscale>  0 0.75116289E+03</rscale>
<asrwt>0</asrwt>
<pdfrwt beam="1">  1        1 0.18846037E+00 0.75116289E+03</pdfrwt>
<pdfrwt beam="2">  1       -1 0.72717842E-01 0.75116289E+03</pdfrwt>
<totfact> 0.20148809E+01</totfact>
</mgrwt>
</event>
<event>
12    1  0.3166324E-008  0.5314259E+03  0.7818608E-02  0.1005887E+00
          1   -1    0    0  501    0  0.00000000000E+00  0.00000000000E+00  0.72210415748E+03  0.72210415748E+03  0.00000000000E+00 0. -1.
         -1   -1    0    0    0  501 -0.00000000000E+00 -0.00000000000E+00 -0.57512582011E+03  0.57512582011E+03  0.00000000000E+00 0.  1.
         23    2    1    2    0    0  0.28938347800E+03 -0.27211149652E+03 -0.24729752963E+03  0.47675832439E+03  0.91405513194E+02 0.  0.
    5000000    2    1    2    0    0 -0.28938347800E+03  0.27211149652E+03  0.39427586699E+03  0.82047165320E+03  0.59994400616E+03 0.  0.
         23    2    4    4    0    0  0.15177750154E+03  0.74203983926E+02  0.40356099757E+01  0.19236088625E+03  0.91890060437E+02 0.  0.
         23    2    4    4    0    0 -0.44116097954E+03  0.19790751259E+03  0.39024025701E+03  0.62811076695E+03  0.91898226041E+02 0.  0.
          1    1    3    3  502    0  0.21085301496E+03 -0.23259851912E+03 -0.15804584085E+03  0.35148193812E+03  0.00000000000E+00 0. -1.
         -1    1    3    3    0  502  0.78530463045E+02 -0.39512977400E+02 -0.89251688781E+02  0.12527638628E+03  0.00000000000E+00 0.  1.
         11    1    5    5    0    0  0.36577079202E+02  0.26371826269E+02 -0.39801836595E+02  0.60146006851E+02  0.00000000000E+00 0. -1.
        -11    1    5    5    0    0  0.11520042234E+03  0.47832157657E+02  0.43837446571E+02  0.13221487940E+03  0.00000000000E+00 0.  1.
          5    1    6    6  503    0 -0.34224538921E+03  0.19084940261E+03  0.32702784312E+03  0.51041620379E+03  0.47000000000E+01 0. -1.
         -5    1    6    6    0  503 -0.98915590331E+02  0.70581099823E+01  0.63212413894E+02  0.11769456316E+03  0.47000000000E+01 0.  1.
<mgrwt>
<rscale>  0 0.53142594E+03</rscale>
<asrwt>0</asrwt>
<pdfrwt beam="1">  1        1 0.11109295E+00 0.53142594E+03</pdfrwt>
<pdfrwt beam="2">  1       -1 0.88480895E-01 0.53142594E+03</pdfrwt>
<totfact> 0.34259092E+01</totfact>
</mgrwt>
</event>
<event>
12    1  0.3166324E-008  0.1064123E+04  0.7818608E-02  0.9240883E-01
         -1   -1    0    0    0  501 -0.00000000000E+00  0.00000000000E+00  0.65290383724E+03  0.65290383724E+03  0.00000000000E+00 0.  1.
          1   -1    0    0  501    0  0.00000000000E+00 -0.00000000000E+00 -0.18731763397E+04  0.18731763397E+04  0.00000000000E+00 0. -1.
         23    2    1    2    0    0 -0.23857173232E+03 -0.96444639476E+03 -0.84283598272E+03  0.13055811514E+04  0.84239712950E+02 0.  0.
    5000000    2    1    2    0    0  0.23857173232E+03  0.96444639476E+03 -0.37743651971E+03  0.12204990255E+04  0.60007184994E+03 0.  0.
         23    2    4    4    0    0  0.35957253842E+03  0.93478578464E+03 -0.31271706139E+03  0.10531727109E+04  0.90906132249E+02 0.  0.
         23    2    4    4    0    0 -0.12100080610E+03  0.29660610117E+02 -0.64719458315E+02  0.16732631466E+03  0.91041421483E+02 0.  0.
          1    1    3    3  502    0 -0.89106959302E+02 -0.29877284527E+03 -0.21790446883E+03  0.38037826017E+03  0.00000000000E+00 0. -1.
         -1    1    3    3    0  502 -0.14946477302E+03 -0.66567354948E+03 -0.62493151388E+03  0.92520289121E+03  0.00000000000E+00 0.  1.
         11    1    5    5    0    0  0.68728383510E+02  0.11907858353E+03 -0.19459450300E+02  0.13885953321E+03  0.00000000000E+00 0. -1.
        -11    1    5    5    0    0  0.29084415491E+03  0.81570720111E+03 -0.29325761109E+03  0.91431317766E+03  0.00000000000E+00 0.  1.
          5    1    6    6  503    0 -0.93912263678E+02  0.56103960708E+01 -0.83833444652E+02  0.12609966794E+03  0.47000000000E+01 0. -1.
         -5    1    6    6    0  503 -0.27088542419E+02  0.24050214046E+02  0.19113986338E+02  0.41226646720E+02  0.47000000000E+01 0.  1.
<mgrwt>
<rscale>  0 0.10641231E+04</rscale>
<asrwt>0</asrwt>
<pdfrwt beam="1">  1        1 0.28818098E+00 0.10641231E+04</pdfrwt>
<pdfrwt beam="2">  1       -1 0.10044674E+00 0.10641231E+04</pdfrwt>
<totfact> 0.34318266E+00</totfact>
</mgrwt>
</event>
<event>
12    1  0.3166324E-008  0.1276346E+04  0.7818608E-02  0.9048536E-01
         -3   -1    0    0    0  501 -0.00000000000E+00  0.00000000000E+00  0.90813591424E+03  0.90813591424E+03  0.00000000000E+00 0.  1.
          3   -1    0    0  501    0  0.00000000000E+00 -0.00000000000E+00 -0.19282222014E+04  0.19282222014E+04  0.00000000000E+00 0. -1.
         23    2    1    2    0    0 -0.12134304191E+04 -0.29674580642E+03 -0.37304422386E+03  0.13069378911E+04  0.91941299460E+02 0.  0.
    5000000    2    1    2    0    0  0.12134304191E+04  0.29674580642E+03 -0.64704206328E+03  0.15294202245E+04  0.59999277987E+03 0.  0.
         23    2    4    4    0    0  0.82473833311E+02 -0.56063649053E+02 -0.23940942083E+03  0.27324919736E+03  0.86041775604E+02 0.  0.
         23    2    4    4    0    0  0.11309565858E+04  0.35280945547E+03 -0.40763264245E+03  0.12561710272E+04  0.90906366539E+02 0.  0.
          4    1    3    3  502    0 -0.27428995767E+03 -0.61068818836E+02 -0.12408648466E+03  0.30718371895E+03  0.00000000000E+00 0. -1.
         -4    1    3    3    0  502 -0.93914046144E+03 -0.23567698758E+03 -0.24895773919E+03  0.99975417213E+03  0.00000000000E+00 0.  1.
         13    1    5    5    0    0 -0.90879162216E+01 -0.73009516507E+01  0.71057752081E+00  0.11678999815E+02  0.00000000000E+00 0.  1.
        -13    1    5    5    0    0  0.91561749533E+02 -0.48762697402E+02 -0.24011999835E+03  0.26157019754E+03  0.00000000000E+00 0. -1.
          5    1    6    6  503    0  0.51073652438E+03  0.20543207111E+03 -0.17855727426E+03  0.57875635925E+03  0.47000000000E+01 0. -1.
         -5    1    6    6    0  503  0.62022006142E+03  0.14737738436E+03 -0.22907536818E+03  0.67741466792E+03  0.47000000000E+01 0.  1.
<mgrwt>
<rscale>  0 0.12763457E+04</rscale>
<asrwt>0</asrwt>
<pdfrwt beam="1">  1        3 0.29664957E+00 0.12763457E+04</pdfrwt>
<pdfrwt beam="2">  1       -3 0.13971322E+00 0.12763457E+04</pdfrwt>
<totfact> 0.38750014E-02</totfact>
</mgrwt>
</event>
<event>
12    1  0.3166324E-008  0.1290597E+04  0.7818608E-02  0.9037055E-01
          2   -1    0    0  501    0  0.00000000000E+00  0.00000000000E+00  0.35540003249E+04  0.35540003249E+04  0.00000000000E+00 0. -1.
         -2   -1    0    0    0  501 -0.00000000000E+00 -0.00000000000E+00 -0.50641666930E+03  0.50641666930E+03  0.00000000000E+00 0.  1.
         23    2    1    2    0    0 -0.51146715514E+03 -0.11540080579E+04  0.12029514932E+04  0.17461251039E+04  0.92343570432E+02 0.  0.
    5000000    2    1    2    0    0  0.51146715514E+03  0.11540080579E+04  0.18446321624E+04  0.23142918903E+04  0.59995490696E+03 0.  0.
         23    2    4    4    0    0  0.20839603141E+03  0.16007819314E+03  0.76295915371E+03  0.81166109709E+03  0.87367799967E+02 0.  0.
         23    2    4    4    0    0  0.30307112373E+03  0.99392986477E+03  0.10816730087E+04  0.15026307932E+04  0.90189360931E+02 0.  0.
          4    1    3    3  502    0 -0.19014924487E+03 -0.46718394313E+03  0.42246581647E+03  0.65794751928E+03  0.00000000000E+00 0.  1.
         -4    1    3    3    0  502 -0.32131791027E+03 -0.68682411478E+03  0.78048567673E+03  0.10881775846E+04  0.00000000000E+00 0. -1.
         13    1    5    5    0    0  0.22806483345E+02 -0.89395401315E+01  0.47496094799E+02  0.53440902701E+02  0.00000000000E+00 0.  1.
        -13    1    5    5    0    0  0.18558954807E+03  0.16901773327E+03  0.71546305891E+03  0.75822019439E+03  0.00000000000E+00 0. -1.
          5    1    6    6  503    0  0.17260544037E+03  0.41391731037E+03  0.46304324333E+03  0.64463269624E+03  0.47000000000E+01 0. -1.
         -5    1    6    6    0  503  0.13046568336E+03  0.58001255440E+03  0.61862976536E+03  0.85799809696E+03  0.47000000000E+01 0.  1.
<mgrwt>
<rscale>  0 0.12905973E+04</rscale>
<asrwt>0</asrwt>
<pdfrwt beam="1">  1        2 0.54676926E+00 0.12905973E+04</pdfrwt>
<pdfrwt beam="2">  1       -2 0.77910259E-01 0.12905973E+04</pdfrwt>
<totfact> 0.10842928E+00</totfact>
</mgrwt>
</event>
<event>
12    1  0.3166324E-008  0.7355934E+03  0.7818608E-02  0.9658227E-01
          2   -1    0    0  501    0  0.00000000000E+00  0.00000000000E+00  0.16438341320E+04  0.16438341320E+04  0.00000000000E+00 0. -1.
         -2   -1    0    0    0  501 -0.00000000000E+00 -0.00000000000E+00 -0.52083897585E+03  0.52083897585E+03  0.00000000000E+00 0.  1.
         23    2    1    2    0    0 -0.60968253194E+03  0.13727802283E+03  0.11345412527E+04  0.12982415052E+04  0.87687550304E+02 0.  0.
    5000000    2    1    2    0    0  0.60968253194E+03 -0.13727802283E+03 -0.11546096593E+02  0.86643160259E+03  0.60001030350E+03 0.  0.
         23    2    4    4    0    0  0.30937522143E+03 -0.34795690398E+03 -0.81866865737E+02  0.48171095965E+03  0.92499893425E+02 0.  0.
         23    2    4    4    0    0  0.30030731051E+03  0.21067888115E+03  0.70320769144E+02  0.38472064293E+03  0.92167731967E+02 0.  0.
          2    1    3    3  502    0 -0.44586284066E+03  0.73936819524E+02  0.87546454099E+03  0.98524032017E+03  0.00000000000E+00 0. -1.
         -2    1    3    3    0  502 -0.16381969129E+03  0.63341203311E+02  0.25907671173E+03  0.31300118507E+03  0.00000000000E+00 0.  1.
         11    1    5    5    0    0  0.55994101255E+02 -0.66386425941E+02  0.20694494103E+02  0.89279107358E+02  0.00000000000E+00 0.  1.
        -11    1    5    5    0    0  0.25338112018E+03 -0.28157047804E+03 -0.10256135984E+03  0.39243185230E+03  0.00000000000E+00 0. -1.
          5    1    6    6  503    0  0.11713158075E+03  0.13739673004E+03  0.26170521595E+02  0.18249562963E+03  0.47000000000E+01 0. -1.
         -5    1    6    6    0  503  0.18317572976E+03  0.73282151106E+02  0.44150247549E+02  0.20222501330E+03  0.47000000000E+01 0.  1.
<mgrwt>
<rscale>  0 0.73559344E+03</rscale>
<asrwt>0</asrwt>
<pdfrwt beam="1">  1        2 0.25289756E+00 0.73559344E+03</pdfrwt>
<pdfrwt beam="2">  1       -2 0.80129074E-01 0.73559344E+03</pdfrwt>
<totfact> 0.14938012E+01</totfact>
</mgrwt>
</event>
<event>
12    1  0.3166324E-008  0.8865585E+03  0.7818608E-02  0.9442542E-01
          1   -1    0    0  501    0  0.00000000000E+00  0.00000000000E+00  0.22919930398E+04  0.22919930398E+04  0.00000000000E+00 0. -1.
         -1   -1    0    0    0  501 -0.00000000000E+00 -0.00000000000E+00 -0.43816334881E+03  0.43816334881E+03  0.00000000000E+00 0.  1.
         23    2    1    2    0    0  0.76316322497E+03  0.19908353873E+03  0.22640008816E+03  0.82474963640E+03  0.83081884222E+02 0.  0.
    5000000    2    1    2    0    0 -0.76316322497E+03 -0.19908353873E+03  0.16274296028E+04  0.19054067522E+04  0.59999617989E+03 0.  0.
         23    2    4    4    0    0 -0.67343542555E+03  0.76157125633E+02  0.10609448737E+04  0.12629786963E+04  0.10097515617E+03 0.  0.
         23    2    4    4    0    0 -0.89727799420E+02 -0.27524066437E+03  0.56648472914E+03  0.64242805590E+03  0.89444716740E+02 0.  0.
          1    1    3    3  502    0  0.18803158787E+03  0.85561006196E+02  0.68214291510E+02  0.21755402406E+03  0.00000000000E+00 0. -1.
         -1    1    3    3    0  502  0.57513163710E+03  0.11352253254E+03  0.15818579665E+03  0.60719561234E+03  0.00000000000E+00 0.  1.
         11    1    5    5    0    0 -0.37299565489E+03  0.28687741125E+01  0.52131196821E+03  0.64101494260E+03  0.00000000000E+00 0. -1.
        -11    1    5    5    0    0 -0.30043977066E+03  0.73288351520E+02  0.53963290548E+03  0.62196375372E+03  0.00000000000E+00 0.  1.
          5    1    6    6  503    0 -0.92836773130E+02 -0.17948230915E+03  0.32673856454E+03  0.38420404124E+03  0.47000000000E+01 0. -1.
         -5    1    6    6    0  503  0.31089737092E+01 -0.95758355213E+02  0.23974616460E+03  0.25822401466E+03  0.47000000000E+01 0.  1.
<mgrwt>
<rscale>  0 0.88655851E+03</rscale>
<asrwt>0</asrwt>
<pdfrwt beam="1">  1        1 0.35261431E+00 0.88655851E+03</pdfrwt>
<pdfrwt beam="2">  1       -1 0.67409748E-01 0.88655851E+03</pdfrwt>
<totfact> 0.43355446E+00</totfact>
</mgrwt>
</event>
<event>
12    1  0.3166324E-008  0.6969242E+03  0.7818608E-02  0.9722507E-01
         -2   -1    0    0    0  501 -0.00000000000E+00  0.00000000000E+00  0.12281130331E+04  0.12281130331E+04  0.00000000000E+00 0.  1.
          2   -1    0    0  501    0  0.00000000000E+00 -0.00000000000E+00 -0.11980995770E+04  0.11980995770E+04  0.00000000000E+00 0. -1.
         23    2    1    2    0    0  0.40699984971E+03 -0.49511637807E+03 -0.92497611701E+03  0.11289846960E+04  0.90755281961E+02 0.  0.
    5000000    2    1    2    0    0 -0.40699984971E+03  0.49511637807E+03  0.95498957314E+03  0.12972279141E+04  0.60000505901E+03 0.  0.
         23    2    4    4    0    0 -0.23655202808E+03  0.36774271792E+02  0.68516829222E+03  0.73116928773E+03  0.88564832762E+02 0.  0.
         23    2    4    4    0    0 -0.17044782163E+03  0.45834210628E+03  0.26982128092E+03  0.56605862638E+03  0.92135218964E+02 0.  0.
          2    1    3    3  502    0  0.33230463838E+03 -0.34990155394E+03 -0.72313333280E+03  0.86935567355E+03  0.00000000000E+00 0. -1.
         -2    1    3    3    0  502  0.74695211334E+02 -0.14521482414E+03 -0.20184278421E+03  0.25962902242E+03  0.00000000000E+00 0.  1.
         13    1    5    5    0    0 -0.10809854862E+03  0.60999869979E+02  0.31302044226E+03  0.33673146218E+03  0.00000000000E+00 0.  1.
        -13    1    5    5    0    0 -0.12845347947E+03 -0.24225598187E+02  0.37214784996E+03  0.39443782555E+03  0.00000000000E+00 0. -1.
          5    1    6    6  503    0 -0.61520613985E+02  0.25576846050E+03  0.18150553004E+03  0.31963829365E+03  0.47000000000E+01 0. -1.
         -5    1    6    6    0  503 -0.10892720764E+03  0.20257364578E+03  0.88315750884E+02  0.24642033273E+03  0.47000000000E+01 0.  1.
<mgrwt>
<rscale>  0 0.69692422E+03</rscale>
<asrwt>0</asrwt>
<pdfrwt beam="1">  1        2 0.18432301E+00 0.69692422E+03</pdfrwt>
<pdfrwt beam="2">  1       -2 0.18894047E+00 0.69692422E+03</pdfrwt>
<totfact> 0.30946166E+00</totfact>
</mgrwt>
</event>
<event>
12    1  0.3166324E-008  0.5802623E+03  0.7818608E-02  0.9947223E-01
         -2   -1    0    0    0  501 -0.00000000000E+00  0.00000000000E+00  0.97158517820E+03  0.97158517820E+03  0.00000000000E+00 0.  1.
          2   -1    0    0  501    0  0.00000000000E+00 -0.00000000000E+00 -0.46968916636E+03  0.46968916636E+03  0.00000000000E+00 0. -1.
         23    2    1    2    0    0 -0.42361491961E+03 -0.31633021405E+03  0.30784925904E+03  0.61818306542E+03  0.88683322223E+02 0.  0.
    5000000    2    1    2    0    0  0.42361491961E+03  0.31633021405E+03  0.19404675280E+03  0.82309127914E+03  0.60025886673E+03 0.  0.
         23    2    4    4    0    0  0.22979682664E+03 -0.20957324082E+02 -0.15484828205E+03  0.29274089285E+03  0.92051338537E+02 0.  0.
         23    2    4    4    0    0  0.19381809297E+03  0.33728753813E+03  0.34889503485E+03  0.53035038628E+03  0.90639121526E+02 0.  0.
          4    1    3    3  502    0 -0.32679864634E+03 -0.24179702478E+03  0.19114850831E+03  0.44922256029E+03  0.00000000000E+00 0. -1.
         -4    1    3    3    0  502 -0.96816273267E+02 -0.74533189269E+02  0.11670075073E+03  0.16896050513E+03  0.00000000000E+00 0.  1.
         11    1    5    5    0    0  0.16123992143E+03  0.76741060303E+01 -0.59895646900E+02  0.17217634182E+03  0.00000000000E+00 0.  1.
        -11    1    5    5    0    0  0.68556905212E+02 -0.28631430112E+02 -0.94952635154E+02  0.12056455103E+03  0.00000000000E+00 0. -1.
          5    1    6    6  503    0  0.13167972967E+03  0.15491005359E+03  0.21321734431E+03  0.29465301937E+03  0.47000000000E+01 0. -1.
         -5    1    6    6    0  503  0.62138363295E+02  0.18237748454E+03  0.13567769054E+03  0.23569736691E+03  0.47000000000E+01 0.  1.
<mgrwt>
<rscale>  0 0.58026230E+03</rscale>
<asrwt>0</asrwt>
<pdfrwt beam="1">  1        2 0.72259872E-01 0.58026230E+03</pdfrwt>
<pdfrwt beam="2">  1       -2 0.14947464E+00 0.58026230E+03</pdfrwt>
<totfact> 0.20627114E+01</totfact>
</mgrwt>
</event>
<event>
12    1  0.3166324E-008  0.1256144E+04  0.7818608E-02  0.9065085E-01
          4   -1    0    0  501    0  0.00000000000E+00  0.00000000000E+00  0.10475646893E+04  0.10475646893E+04  0.00000000000E+00 0. -1.
         -4   -1    0    0    0  501 -0.00000000000E+00 -0.00000000000E+00 -0.15281804166E+04  0.15281804166E+04  0.00000000000E+00 0.  1.
         23    2    1    2    0    0  0.45491018365E+03  0.10978961756E+04 -0.32460349184E+03  0.12352974335E+04  0.90956223529E+02 0.  0.
    5000000    2    1    2    0    0 -0.45491018365E+03 -0.10978961756E+04 -0.15601223543E+03  0.13404476724E+04  0.60011736950E+03 0.  0.
         23    2    4    4    0    0 -0.28464322038E+03 -0.10314051114E+03 -0.16867831905E+02  0.31686698457E+03  0.91980618659E+02 0.  0.
         23    2    4    4    0    0 -0.17026696327E+03 -0.99475566449E+03 -0.13914440352E+03  0.10235806878E+04  0.99129151346E+02 0.  0.
          1    1    3    3  502    0  0.20609430351E+03  0.60625605556E+03 -0.15591396040E+03  0.65903750264E+03  0.00000000000E+00 0. -1.
         -1    1    3    3    0  502  0.24881588013E+03  0.49164012007E+03 -0.16868953145E+03  0.57625993084E+03  0.00000000000E+00 0.  1.
         11    1    5    5    0    0 -0.15804473447E+03 -0.93023959369E+02 -0.40189737364E+02  0.18774133828E+03  0.00000000000E+00 0. -1.
        -11    1    5    5    0    0 -0.12659848591E+03 -0.10116551772E+02  0.23321905460E+02  0.12912564628E+03  0.00000000000E+00 0.  1.
          5    1    6    6  503    0 -0.31173624588E+02 -0.94974764513E+02  0.11474012919E+02  0.10072608270E+03  0.47000000000E+01 0. -1.
         -5    1    6    6    0  503 -0.13909333868E+03 -0.89978089998E+03 -0.15061841644E+03  0.92285460513E+03  0.47000000000E+01 0.  1.
<mgrwt>
<rscale>  0 0.12561439E+04</rscale>
<asrwt>0</asrwt>
<pdfrwt beam="1">  1        4 0.16116380E+00 0.12561439E+04</pdfrwt>
<pdfrwt beam="2">  1       -4 0.23510468E+00 0.12561439E+04</pdfrwt>
<totfact> 0.36163676E-02</totfact>
</mgrwt>
</event>
<event>
12    1  0.3166324E-008  0.5588491E+03  0.7818608E-02  0.9994662E-01
          1   -1    0    0  501    0  0.00000000000E+00  0.00000000000E+00  0.77150140878E+03  0.77150140878E+03  0.00000000000E+00 0. -1.
         -1   -1    0    0    0  501 -0.00000000000E+00 -0.00000000000E+00 -0.55330144887E+03  0.55330144887E+03  0.00000000000E+00 0.  1.
         23    2    1    2    0    0  0.43496035894E+03  0.19116406301E+03  0.27691147602E+03  0.55725158789E+03  0.90084148564E+02 0.  0.
    5000000    2    1    2    0    0 -0.43496035894E+03 -0.19116406301E+03 -0.58711516112E+02  0.76755126976E+03  0.59996141272E+03 0.  0.
         23    2    4    4    0    0  0.35010019792E+02  0.40319929911E+02  0.16063509134E+03  0.19215347391E+03  0.90928140486E+02 0.  0.
         23    2    4    4    0    0 -0.46997037873E+03 -0.23148399292E+03 -0.21934660745E+03  0.57539779586E+03  0.92264258596E+02 0.  0.
          1    1    3    3  502    0  0.16407150383E+03  0.11845381956E+03  0.10092475003E+03  0.22613396672E+03  0.00000000000E+00 0. -1.
         -1    1    3    3    0  502  0.27088885510E+03  0.72710243455E+02  0.17598672600E+03  0.33111762117E+03  0.00000000000E+00 0.  1.
         13    1    5    5    0    0 -0.26439637222E+02 -0.75755602352E+01  0.39785797644E+02  0.48366860798E+02  0.00000000000E+00 0. -1.
        -13    1    5    5    0    0  0.61449657014E+02  0.47895490146E+02  0.12084929369E+03  0.14378661311E+03  0.00000000000E+00 0.  1.
          5    1    6    6  503    0 -0.33189725013E+03 -0.12374385248E+03 -0.17267492848E+03  0.39409015034E+03  0.47000000000E+01 0. -1.
         -5    1    6    6    0  503 -0.13807312860E+03 -0.10774014045E+03 -0.46671678964E+02  0.18130764552E+03  0.47000000000E+01 0.  1.
<mgrwt>
<rscale>  0 0.55884910E+03</rscale>
<asrwt>0</asrwt>
<pdfrwt beam="1">  1        1 0.11869252E+00 0.55884910E+03</pdfrwt>
<pdfrwt beam="2">  1       -1 0.85123300E-01 0.55884910E+03</pdfrwt>
<totfact> 0.33521266E+01</totfact>
</mgrwt>
</event>
<event>
12    1  0.3166324E-008  0.6144154E+03  0.7818608E-02  0.9875942E-01
          2   -1    0    0  501    0  0.00000000000E+00  0.00000000000E+00  0.84529057412E+03  0.84529057412E+03  0.00000000000E+00 0. -1.
         -2   -1    0    0    0  501 -0.00000000000E+00 -0.00000000000E+00 -0.47462118782E+03  0.47462118782E+03  0.00000000000E+00 0.  1.
         23    2    1    2    0    0 -0.44295034416E+03  0.19581204807E+03  0.10854206765E+03  0.50548422097E+03  0.95841283547E+02 0.  0.
    5000000    2    1    2    0    0  0.44295034416E+03 -0.19581204807E+03  0.26212731865E+03  0.81442754097E+03  0.60002843494E+03 0.  0.
         23    2    4    4    0    0  0.39284005450E+03 -0.37788169117E+03  0.14594111364E+03  0.57174333443E+03  0.92052978650E+02 0.  0.
         23    2    4    4    0    0  0.50110289668E+02  0.18206964310E+03  0.11618620501E+03  0.24268420654E+03  0.98671139646E+02 0.  0.
          3    1    3    3  502    0 -0.61779244695E+02  0.26000578261E+02  0.51054711342E+02  0.84257276809E+02  0.00000000000E+00 0. -1.
         -3    1    3    3    0  502 -0.38117109947E+03  0.16981146981E+03  0.57487356307E+02  0.42122694416E+03  0.00000000000E+00 0.  1.
         11    1    5    5    0    0  0.25524876661E+03 -0.24863170018E+03  0.49474324715E+02  0.35974624946E+03  0.00000000000E+00 0.  1.
        -11    1    5    5    0    0  0.13759128788E+03 -0.12924999099E+03  0.96466788928E+02  0.21199708498E+03  0.00000000000E+00 0. -1.
          5    1    6    6  503    0  0.17169117132E+02  0.15633931781E+03  0.12345274216E+03  0.19999857605E+03  0.47000000000E+01 0. -1.
         -5    1    6    6    0  503  0.32941172536E+02  0.25730325288E+02 -0.72665371517E+01  0.42685630482E+02  0.47000000000E+01 0.  1.
<mgrwt>
<rscale>  0 0.61441541E+03</rscale>
<asrwt>0</asrwt>
<pdfrwt beam="1">  1        2 0.13004470E+00 0.61441541E+03</pdfrwt>
<pdfrwt beam="2">  1       -2 0.73018644E-01 0.61441541E+03</pdfrwt>
<totfact> 0.55590125E+01</totfact>
</mgrwt>
</event>
<event>
12    1  0.3166324E-008  0.8779177E+03  0.7818608E-02  0.9453614E-01
         -2   -1    0    0    0  501 -0.00000000000E+00  0.00000000000E+00  0.48142209425E+03  0.48142209425E+03  0.00000000000E+00 0.  1.
          2   -1    0    0  501    0  0.00000000000E+00 -0.00000000000E+00 -0.27888450852E+04  0.27888450852E+04  0.00000000000E+00 0. -1.
         23    2    1    2    0    0  0.29112283480E+03  0.72432795490E+03 -0.21293338210E+04  0.22697235511E+04  0.90437744878E+02 0.  0.
    5000000    2    1    2    0    0 -0.29112283480E+03 -0.72432795490E+03 -0.17808916991E+03  0.10005436284E+04  0.59997358996E+03 0.  0.
         23    2    4    4    0    0  0.14450282348E+03 -0.37549590457E+03 -0.21121071008E+02  0.41364848866E+03  0.93705561165E+02 0.  0.
         23    2    4    4    0    0 -0.43562565827E+03 -0.34883205034E+03 -0.15696809890E+03  0.58689513971E+03  0.91396977281E+02 0.  0.
          3    1    3    3  502    0  0.75272062204E+02  0.24419974380E+03 -0.80564821288E+03  0.84520319517E+03  0.00000000000E+00 0. -1.
         -3    1    3    3    0  502  0.21585077259E+03  0.48012821111E+03 -0.13236856082E+04  0.14245203559E+04  0.00000000000E+00 0.  1.
         11    1    5    5    0    0  0.39628517735E+02 -0.27118210728E+02  0.79311242596E+01  0.48669492529E+02  0.00000000000E+00 0. -1.
        -11    1    5    5    0    0  0.10487430574E+03 -0.34837769384E+03 -0.29052195267E+02  0.36497899613E+03  0.00000000000E+00 0.  1.
          5    1    6    6  503    0 -0.37029308699E+03 -0.26365519493E+03 -0.10072981830E+03  0.46561745927E+03  0.47000000000E+01 0. -1.
         -5    1    6    6    0  503 -0.65332571287E+02 -0.85176855405E+02 -0.56238280603E+02  0.12127768044E+03  0.47000000000E+01 0.  1.
<mgrwt>
<rscale>  0 0.87791769E+03</rscale>
<asrwt>0</asrwt>
<pdfrwt beam="1">  1        2 0.42905308E+00 0.87791769E+03</pdfrwt>
<pdfrwt beam="2">  1       -2 0.74064939E-01 0.87791769E+03</pdfrwt>
<totfact> 0.39935042E+00</totfact>
</mgrwt>
</event>
<event>
12    1  0.3166324E-008  0.1613480E+04  0.7818608E-02  0.8812310E-01
          1   -1    0    0  501    0  0.00000000000E+00  0.00000000000E+00  0.26686540296E+04  0.26686540296E+04  0.00000000000E+00 0. -1.
         -1   -1    0    0    0  501 -0.00000000000E+00 -0.00000000000E+00 -0.11850938525E+04  0.11850938525E+04  0.00000000000E+00 0.  1.
         23    2    1    2    0    0 -0.13235226945E+04 -0.91557474058E+03  0.43532560920E+02  0.16124525499E+04  0.90103903487E+02 0.  0.
    5000000    2    1    2    0    0  0.13235226945E+04  0.91557474058E+03  0.14400276162E+04  0.22412953323E+04  0.59977979522E+03 0.  0.
         23    2    4    4    0    0  0.84336568970E+03  0.66568214698E+03  0.58851915815E+03  0.12284184491E+04  0.90877276170E+02 0.  0.
         23    2    4    4    0    0  0.48015700476E+03  0.24989259360E+03  0.85150845806E+03  0.10128768831E+04  0.88633338542E+02 0.  0.
          1    1    3    3  502    0 -0.42750497722E+02 -0.35011911754E+02  0.17491309224E+02  0.57960201160E+02  0.00000000000E+00 0. -1.
         -1    1    3    3    0  502 -0.12807721967E+04 -0.88056282882E+03  0.26041251697E+02  0.15544923487E+04  0.00000000000E+00 0.  1.
         11    1    5    5    0    0  0.60982211596E+03  0.47640934196E+03  0.37664857684E+03  0.86064686408E+03  0.00000000000E+00 0.  1.
        -11    1    5    5    0    0  0.23354357374E+03  0.18927280502E+03  0.21187058131E+03  0.36777158506E+03  0.00000000000E+00 0. -1.
          5    1    6    6  503    0  0.17633958163E+03  0.11453686344E+03  0.40174571425E+03  0.45347111270E+03  0.47000000000E+01 0.  1.
         -5    1    6    6    0  503  0.30381742313E+03  0.13535573016E+03  0.44976274381E+03  0.55940577044E+03  0.47000000000E+01 0. -1.
<mgrwt>
<rscale>  0 0.16134795E+04</rscale>
<asrwt>0</asrwt>
<pdfrwt beam="1">  1        1 0.41056216E+00 0.16134795E+04</pdfrwt>
<pdfrwt beam="2">  1       -1 0.18232213E+00 0.16134795E+04</pdfrwt>
<totfact> 0.19331359E-01</totfact>
</mgrwt>
</event>
<event>
12    1  0.3166324E-008  0.4912195E+03  0.7818608E-02  0.1016097E+00
         -1   -1    0    0    0  501 -0.00000000000E+00  0.00000000000E+00  0.14174272083E+03  0.14174272083E+03  0.00000000000E+00 0.  1.
          1   -1    0    0  501    0  0.00000000000E+00 -0.00000000000E+00 -0.20184208074E+04  0.20184208074E+04  0.00000000000E+00 0. -1.
         23    2    1    2    0    0 -0.32472690580E+03  0.10969003108E+03 -0.86577569276E+03  0.93569118623E+03  0.92037924487E+02 0.  0.
    5000000    2    1    2    0    0  0.32472690580E+03 -0.10969003108E+03 -0.10109023938E+04  0.12244723420E+04  0.59994116400E+03 0.  0.
         23    2    4    4    0    0 -0.50465183519E+02 -0.21505514962E+03 -0.62362391706E+03  0.66675102334E+03  0.82793025462E+02 0.  0.
         23    2    4    4    0    0  0.37519208932E+03  0.10536511854E+03 -0.38727847675E+03  0.55772131867E+03  0.95903798931E+02 0.  0.
          1    1    3    3  502    0 -0.23286459181E+03  0.35377337752E+02 -0.53927897279E+03  0.58847199138E+03  0.00000000000E+00 0. -1.
         -1    1    3    3    0  502 -0.91862313996E+02  0.74312693324E+02 -0.32649671996E+03  0.34721919485E+03  0.00000000000E+00 0.  1.
         13    1    5    5    0    0 -0.58738163497E+02 -0.92365857238E+02 -0.35113248829E+03  0.36779837923E+03  0.00000000000E+00 0.  1.
        -13    1    5    5    0    0  0.82729799778E+01 -0.12268929238E+03 -0.27249142878E+03  0.29895264411E+03  0.00000000000E+00 0. -1.
          5    1    6    6  503    0  0.27429125415E+03  0.43205218336E+02 -0.30979884665E+03  0.41605263895E+03  0.47000000000E+01 0. -1.
         -5    1    6    6    0  503  0.10090083518E+03  0.62159900207E+02 -0.77479630104E+02  0.14166867972E+03  0.47000000000E+01 0.  1.
<mgrwt>
<rscale>  0 0.49121950E+03</rscale>
<asrwt>0</asrwt>
<pdfrwt beam="1">  1        1 0.31052627E+00 0.49121950E+03</pdfrwt>
<pdfrwt beam="2">  1       -1 0.21806573E-01 0.49121950E+03</pdfrwt>
<totfact> 0.54893291E+01</totfact>
</mgrwt>
</event>
<event>
12    1  0.3166324E-008  0.9618902E+03  0.7818608E-02  0.9351360E-01
          1   -1    0    0  501    0  0.00000000000E+00  0.00000000000E+00  0.89199695508E+03  0.89199695508E+03  0.00000000000E+00 0. -1.
         -1   -1    0    0    0  501 -0.00000000000E+00 -0.00000000000E+00 -0.10689145094E+04  0.10689145094E+04  0.00000000000E+00 0.  1.
         23    2    1    2    0    0  0.86829375411E+03  0.10856125822E+03 -0.18890757302E+03  0.89991525358E+03  0.91879280956E+02 0.  0.
    5000000    2    1    2    0    0 -0.86829375411E+03 -0.10856125822E+03  0.11990018655E+02  0.10609962109E+04  0.59987466098E+03 0.  0.
         23    2    4    4    0    0 -0.74623957821E+03  0.13439703287E+03 -0.46288241642E+02  0.76491746482E+03  0.89554766210E+02 0.  0.
         23    2    4    4    0    0 -0.12205417590E+03 -0.24295829110E+03  0.58278260297E+02  0.29607874612E+03  0.10168734049E+03 0.  0.
          1    1    3    3  502    0  0.41641446289E+03  0.11158121894E+02 -0.67684668180E+02  0.42202692201E+03  0.00000000000E+00 0. -1.
         -1    1    3    3    0  502  0.45187929121E+03  0.97403136330E+02 -0.12122290484E+03  0.47788833157E+03  0.00000000000E+00 0.  1.
         13    1    5    5    0    0 -0.25680247873E+03  0.21036516502E+02 -0.50206901172E+02  0.26250863039E+03  0.00000000000E+00 0. -1.
        -13    1    5    5    0    0 -0.48943709948E+03  0.11336051637E+03  0.39186595302E+01  0.50240883443E+03  0.00000000000E+00 0.  1.
          5    1    6    6  503    0 -0.51729483395E+02 -0.28688948474E+02 -0.10503475558E+02  0.60261166730E+02  0.47000000000E+01 0. -1.
         -5    1    6    6    0  503 -0.70324692507E+02 -0.21426934262E+03  0.68781735855E+02  0.23581757939E+03  0.47000000000E+01 0.  1.
<mgrwt>
<rscale>  0 0.96189021E+03</rscale>
<asrwt>0</asrwt>
<pdfrwt beam="1">  1        1 0.13723030E+00 0.96189021E+03</pdfrwt>
<pdfrwt beam="2">  1       -1 0.16444839E+00 0.96189021E+03</pdfrwt>
<totfact> 0.50335296E+00</totfact>
</mgrwt>
</event>
<event>
12    1  0.3166324E-008  0.1043402E+04  0.7818608E-02  0.9262182E-01
          2   -1    0    0  501    0  0.00000000000E+00  0.00000000000E+00  0.88777907344E+03  0.88777907344E+03  0.00000000000E+00 0.  1.
         -2   -1    0    0    0  501 -0.00000000000E+00 -0.00000000000E+00 -0.17051931351E+04  0.17051931351E+04  0.00000000000E+00 0. -1.
         23    2    1    2    0    0  0.95457542499E+03 -0.23419299745E+03 -0.10246720744E+04  0.14229435028E+04  0.93566822256E+02 0.  0.
    5000000    2    1    2    0    0 -0.95457542499E+03  0.23419299745E+03  0.20725801273E+03  0.11700287057E+04  0.59995890376E+03 0.  0.
         23    2    4    4    0    0 -0.82085806723E+03 -0.10160358695E+02  0.27063810886E+02  0.82656449796E+03  0.92548473796E+02 0.  0.
         23    2    4    4    0    0 -0.13371735776E+03  0.24435335614E+03  0.18019420185E+03  0.34346420771E+03  0.88931530835E+02 0.  0.
          3    1    3    3  502    0  0.35504704361E+03 -0.53173652621E+02 -0.41816576325E+03  0.55113378237E+03  0.00000000000E+00 0. -1.
         -3    1    3    3    0  502  0.59952838138E+03 -0.18101934483E+03 -0.60650631110E+03  0.87180972046E+03  0.00000000000E+00 0.  1.
         11    1    5    5    0    0 -0.64292137116E+03 -0.11542812701E+02  0.59198071734E+02  0.64574417358E+03  0.00000000000E+00 0.  1.
        -11    1    5    5    0    0 -0.17793669607E+03  0.13824540061E+01 -0.32134260848E+02  0.18082032437E+03  0.00000000000E+00 0. -1.
          5    1    6    6  503    0 -0.81119349583E+02  0.17876682288E+03  0.78606049226E+02  0.21151578384E+03  0.47000000000E+01 0. -1.
         -5    1    6    6    0  503 -0.52598008180E+02  0.65586533266E+02  0.10158815262E+03  0.13194842387E+03  0.47000000000E+01 0.  1.
<mgrwt>
<rscale>  0 0.10434025E+04</rscale>
<asrwt>0</asrwt>
<pdfrwt beam="1">  1        2 0.13658140E+00 0.10434025E+04</pdfrwt>
<pdfrwt beam="2">  1       -2 0.26233740E+00 0.10434025E+04</pdfrwt>
<totfact> 0.16028300E+00</totfact>
</mgrwt>
</event>
<event>
12    1  0.3166324E-008  0.7592366E+03  0.7818608E-02  0.9620970E-01
          3   -1    0    0  501    0  0.00000000000E+00  0.00000000000E+00  0.15164389007E+04  0.15164389007E+04  0.00000000000E+00 0. -1.
         -3   -1    0    0    0  501 -0.00000000000E+00 -0.00000000000E+00 -0.45118566218E+03  0.45118566218E+03  0.00000000000E+00 0.  1.
         23    2    1    2    0    0  0.67766125849E+03 -0.11440998567E+03  0.22875674859E+03  0.72990394963E+03  0.90087177673E+02 0.  0.
    5000000    2    1    2    0    0 -0.67766125849E+03  0.11440998567E+03  0.83649648988E+03  0.12377206132E+04  0.59992625605E+03 0.  0.
         23    2    4    4    0    0 -0.20182400984E+03 -0.16900346146E+03  0.52461406955E+03  0.59485752256E+03  0.96645999599E+02 0.  0.
         23    2    4    4    0    0 -0.47583724865E+03  0.28341344713E+03  0.31188242033E+03  0.64286309065E+03  0.96218709176E+02 0.  0.
          4    1    3    3  502    0  0.55212739249E+03 -0.58227384699E+02  0.17325690465E+03  0.58159525521E+03  0.00000000000E+00 0.  1.
         -4    1    3    3    0  502  0.12553386600E+03 -0.56182600974E+02  0.55499843942E+02  0.14830869442E+03  0.00000000000E+00 0. -1.
         11    1    5    5    0    0 -0.67064960947E+02 -0.82216557649E+02  0.12299751418E+03  0.16243663329E+03  0.00000000000E+00 0.  1.
        -11    1    5    5    0    0 -0.13475904890E+03 -0.86786903811E+02  0.40161655537E+03  0.43242088927E+03  0.00000000000E+00 0. -1.
          5    1    6    6  503    0 -0.19618209784E+03  0.73066263771E+02  0.14803653239E+03  0.25644297483E+03  0.47000000000E+01 0. -1.
         -5    1    6    6    0  503 -0.27965515080E+03  0.21034718336E+03  0.16384588794E+03  0.38642011582E+03  0.47000000000E+01 0.  1.
<mgrwt>
<rscale>  0 0.75923662E+03</rscale>
<asrwt>0</asrwt>
<pdfrwt beam="1">  1        3 0.23329829E+00 0.75923662E+03</pdfrwt>
<pdfrwt beam="2">  1       -3 0.69413179E-01 0.75923662E+03</pdfrwt>
<totfact> 0.48065401E-01</totfact>
</mgrwt>
</event>
<event>
12    1  0.3166324E-008  0.8133803E+03  0.7818608E-02  0.9540849E-01
          2   -1    0    0  501    0  0.00000000000E+00  0.00000000000E+00  0.91082310858E+03  0.91082310858E+03  0.00000000000E+00 0. -1.
         -2   -1    0    0    0  501 -0.00000000000E+00 -0.00000000000E+00 -0.94401736498E+03  0.94401736498E+03  0.00000000000E+00 0.  1.
         23    2    1    2    0    0 -0.42712607773E+03  0.64616995483E+03  0.27603348199E+03  0.82741268996E+03  0.91896569721E+02 0.  0.
    5000000    2    1    2    0    0  0.42712607773E+03 -0.64616995483E+03 -0.30922773839E+03  0.10274277836E+04  0.60001146616E+03 0.  0.
         23    2    4    4    0    0  0.11462192953E+03 -0.45076470615E+03 -0.41873565531E+03  0.63252864545E+03  0.91792871444E+02 0.  0.
         23    2    4    4    0    0  0.31250414820E+03 -0.19540524869E+03  0.10950791691E+03  0.39489913815E+03  0.90062709233E+02 0.  0.
          3    1    3    3  502    0 -0.27928780819E+03  0.44748977472E+03  0.14414236652E+03  0.54683251559E+03  0.00000000000E+00 0. -1.
         -3    1    3    3    0  502 -0.14783826954E+03  0.19868018011E+03  0.13189111547E+03  0.28058017437E+03  0.00000000000E+00 0.  1.
         13    1    5    5    0    0  0.58497438049E+02 -0.86273614658E+02 -0.75266701320E+02  0.12856968216E+03  0.00000000000E+00 0. -1.
        -13    1    5    5    0    0  0.56124491482E+02 -0.36449109149E+03 -0.34346895399E+03  0.50395896328E+03  0.00000000000E+00 0.  1.
          5    1    6    6  503    0  0.54655060240E+02 -0.77699220662E+02  0.16396606450E+02  0.96515714805E+02  0.47000000000E+01 0. -1.
         -5    1    6    6    0  503  0.25784908796E+03 -0.11770602802E+03  0.93111310465E+02  0.29838342335E+03  0.47000000000E+01 0.  1.
<mgrwt>
<rscale>  0 0.81338034E+03</rscale>
<asrwt>0</asrwt>
<pdfrwt beam="1">  1        2 0.14012663E+00 0.81338034E+03</pdfrwt>
<pdfrwt beam="2">  1       -2 0.14523344E+00 0.81338034E+03</pdfrwt>
<totfact> 0.94998690E+00</totfact>
</mgrwt>
</event>
<event>
12    1  0.3166324E-008  0.6061004E+03  0.7818608E-02  0.9892830E-01
         -2   -1    0    0    0  501 -0.00000000000E+00  0.00000000000E+00  0.10219574994E+04  0.10219574994E+04  0.00000000000E+00 0.  1.
          2   -1    0    0  501    0  0.00000000000E+00 -0.00000000000E+00 -0.85300327322E+03  0.85300327322E+03  0.00000000000E+00 0. -1.
         23    2    1    2    0    0  0.33361345913E+03 -0.47392741338E+03  0.67881357938E+03  0.89732751944E+03  0.92215336670E+02 0.  0.
    5000000    2    1    2    0    0 -0.33361345913E+03  0.47392741338E+03 -0.50985935318E+03  0.97763325321E+03  0.59992089852E+03 0.  0.
         23    2    4    4    0    0 -0.31545170596E+03  0.29683274205E+03 -0.61083246174E+03  0.75434403551E+03  0.91099791741E+02 0.  0.
         23    2    4    4    0    0 -0.18161753175E+02  0.17709467133E+03  0.10097310855E+03  0.22328921769E+03  0.89275608077E+02 0.  0.
          3    1    3    3  502    0  0.68399703801E+02 -0.89186834097E+02  0.19236389473E+03  0.22279290575E+03  0.00000000000E+00 0. -1.
         -3    1    3    3    0  502  0.26521375533E+03 -0.38474057928E+03  0.48644968465E+03  0.67453461368E+03  0.00000000000E+00 0.  1.
         11    1    5    5    0    0 -0.72514490399E+02  0.10042504830E+03 -0.23482179714E+03  0.26548977015E+03  0.00000000000E+00 0. -1.
        -11    1    5    5    0    0 -0.24293721556E+03  0.19640769375E+03 -0.37601066459E+03  0.48885426536E+03  0.00000000000E+00 0.  1.
          5    1    6    6  503    0  0.31839867961E+02  0.48710222068E+02  0.13187086808E+02  0.59853589568E+02  0.47000000000E+01 0. -1.
         -5    1    6    6    0  503 -0.50001621136E+02  0.12838444926E+03  0.87786021743E+02  0.16343562813E+03  0.47000000000E+01 0.  1.
<mgrwt>
<rscale>  0 0.60610036E+03</rscale>
<asrwt>0</asrwt>
<pdfrwt beam="1">  1        2 0.13123127E+00 0.60610036E+03</pdfrwt>
<pdfrwt beam="2">  1       -2 0.15722423E+00 0.60610036E+03</pdfrwt>
<totfact> 0.86511171E+00</totfact>
</mgrwt>
</event>
<event>
12    1  0.3166324E-008  0.4731834E+03  0.7818608E-02  0.1021026E+00
         -1   -1    0    0    0  501 -0.00000000000E+00  0.00000000000E+00  0.10424877927E+04  0.10424877927E+04  0.00000000000E+00 0.  1.
          1   -1    0    0  501    0  0.00000000000E+00 -0.00000000000E+00 -0.25403376878E+03  0.25403376878E+03  0.00000000000E+00 0. -1.
         23    2    1    2    0    0  0.91737066587E+02 -0.31237957677E+03  0.18612639396E+03  0.38593085074E+03  0.91120237335E+02 0.  0.
    5000000    2    1    2    0    0 -0.91737066587E+02  0.31237957677E+03  0.60232763001E+03  0.91059071079E+03  0.60031673252E+03 0.  0.
         23    2    4    4    0    0  0.11340012353E+03 -0.94962809979E+02  0.33157098370E+03  0.37240874474E+03  0.82894104935E+02 0.  0.
         23    2    4    4    0    0 -0.20513719012E+03  0.40734238675E+03  0.27075664631E+03  0.53818196605E+03  0.91222695900E+02 0.  0.
          2    1    3    3  502    0  0.59766507117E+01 -0.11560150297E+03  0.27370130138E+02  0.11894768542E+03  0.00000000000E+00 0.  1.
         -2    1    3    3    0  502  0.85760415876E+02 -0.19677807380E+03  0.15875626382E+03  0.26698316532E+03  0.00000000000E+00 0. -1.
         11    1    5    5    0    0  0.10504270793E+03 -0.54396546950E+02  0.18085495612E+03  0.21610522891E+03  0.00000000000E+00 0. -1.
        -11    1    5    5    0    0  0.83574156013E+01 -0.40566263028E+02  0.15071602758E+03  0.15630351583E+03  0.00000000000E+00 0.  1.
          5    1    6    6  503    0 -0.87071888577E+02  0.18161145063E+03  0.68204797005E+02  0.21269277636E+03  0.47000000000E+01 0. -1.
         -5    1    6    6    0  503 -0.11806530154E+03  0.22573093612E+03  0.20255184931E+03  0.32548918970E+03  0.47000000000E+01 0.  1.
<mgrwt>
<rscale>  0 0.47318339E+03</rscale>
<asrwt>0</asrwt>
<pdfrwt beam="1">  1        1 0.39082119E-01 0.47318339E+03</pdfrwt>
<pdfrwt beam="2">  1       -1 0.16038274E+00 0.47318339E+03</pdfrwt>
<totfact> 0.33319408E+01</totfact>
</mgrwt>
</event>
<event>
12    1  0.3166324E-008  0.7178707E+03  0.7818608E-02  0.9687150E-01
          2   -1    0    0  501    0  0.00000000000E+00  0.00000000000E+00  0.58916303193E+03  0.58916303193E+03  0.00000000000E+00 0. -1.
         -2   -1    0    0    0  501 -0.00000000000E+00 -0.00000000000E+00 -0.16766863165E+04  0.16766863165E+04  0.00000000000E+00 0.  1.
         23    2    1    2    0    0 -0.52865016004E+03  0.37568371383E+03 -0.12081379612E+04  0.13741553531E+04  0.89979756028E+02 0.  0.
    5000000    2    1    2    0    0  0.52865016004E+03 -0.37568371383E+03  0.12061467665E+03  0.89169399535E+03  0.59996752959E+03 0.  0.
         23    2    4    4    0    0  0.12884824161E+03  0.80809907566E+02 -0.13929231402E+03  0.22571790431E+03  0.91728474616E+02 0.  0.
         23    2    4    4    0    0  0.39980191844E+03 -0.45649362140E+03  0.25990699067E+03  0.66597609104E+03  0.88002895842E+02 0.  0.
          2    1    3    3  502    0 -0.23975118939E+03  0.13268432551E+03 -0.44174027259E+03  0.51982711691E+03  0.00000000000E+00 0. -1.
         -2    1    3    3    0  502 -0.28889897065E+03  0.24299938832E+03 -0.76639768860E+03  0.85432823614E+03  0.00000000000E+00 0.  1.
         11    1    5    5    0    0  0.39599404888E+02  0.77480722062E+02 -0.55185985413E+02  0.10303818780E+03  0.00000000000E+00 0. -1.
        -11    1    5    5    0    0  0.89248836720E+02  0.33291855034E+01 -0.84106328605E+02  0.12267971651E+03  0.00000000000E+00 0.  1.
          5    1    6    6  503    0  0.28459752476E+03 -0.34792548840E+03  0.22948149977E+03  0.50470956531E+03  0.47000000000E+01 0. -1.
         -5    1    6    6    0  503  0.11520439368E+03 -0.10856813300E+03  0.30425490898E+02  0.16126652573E+03  0.47000000000E+01 0.  1.
<mgrwt>
<rscale>  0 0.71787072E+03</rscale>
<asrwt>0</asrwt>
<pdfrwt beam="1">  1        2 0.90640467E-01 0.71787072E+03</pdfrwt>
<pdfrwt beam="2">  1       -2 0.25795174E+00 0.71787072E+03</pdfrwt>
<totfact> 0.30182729E+00</totfact>
</mgrwt>
</event>
<event>
12    1  0.3166324E-008  0.7820121E+03  0.7818608E-02  0.9586425E-01
          2   -1    0    0  501    0  0.00000000000E+00  0.00000000000E+00  0.60934000255E+03  0.60934000255E+03  0.00000000000E+00 0. -1.
         -2   -1    0    0    0  501 -0.00000000000E+00 -0.00000000000E+00 -0.11524011014E+04  0.11524011014E+04  0.00000000000E+00 0.  1.
         23    2    1    2    0    0 -0.65282199799E+03  0.31587573042E+03 -0.29846437177E+03  0.78924631373E+03  0.88739643817E+02 0.  0.
    5000000    2    1    2    0    0  0.65282199799E+03 -0.31587573042E+03 -0.24459672708E+03  0.97249479022E+03  0.59997043258E+03 0.  0.
         23    2    4    4    0    0  0.27737796668E+03  0.81722007949E+02 -0.28444435738E+03  0.41622464813E+03  0.93366708626E+02 0.  0.
         23    2    4    4    0    0  0.37544403131E+03 -0.39759773837E+03  0.39847630300E+02  0.55627014209E+03  0.93842714867E+02 0.  0.
          1    1    3    3  502    0 -0.38400492746E+03  0.16056664616E+03 -0.13013972374E+03  0.43609377417E+03  0.00000000000E+00 0. -1.
         -1    1    3    3    0  502 -0.26881707053E+03  0.15530908426E+03 -0.16832464803E+03  0.35315253956E+03  0.00000000000E+00 0.  1.
         13    1    5    5    0    0  0.14331183405E+03  0.33314619574E+02 -0.81415166395E+02  0.16815640034E+03  0.00000000000E+00 0.  1.
        -13    1    5    5    0    0  0.13406613263E+03  0.48407388376E+02 -0.20302919099E+03  0.24806824779E+03  0.00000000000E+00 0. -1.
          5    1    6    6  503    0  0.29740413389E+03 -0.33061753690E+03 -0.30658230761E+01  0.44473437446E+03  0.47000000000E+01 0. -1.
         -5    1    6    6    0  503  0.78039897423E+02 -0.66980201476E+02  0.42913453376E+02  0.11153576763E+03  0.47000000000E+01 0.  1.
<mgrwt>
<rscale>  0 0.78201211E+03</rscale>
<asrwt>0</asrwt>
<pdfrwt beam="1">  1        2 0.93744616E-01 0.78201211E+03</pdfrwt>
<pdfrwt beam="2">  1       -2 0.17729248E+00 0.78201211E+03</pdfrwt>
<totfact> 0.93419383E+00</totfact>
</mgrwt>
</event>
<event>
12    1  0.3166324E-008  0.1389929E+04  0.7818608E-02  0.8961141E-01
          1   -1    0    0  501    0  0.00000000000E+00  0.00000000000E+00  0.14337927117E+04  0.14337927117E+04  0.00000000000E+00 0. -1.
         -1   -1    0    0    0  501 -0.00000000000E+00 -0.00000000000E+00 -0.13907166497E+04  0.13907166497E+04  0.00000000000E+00 0.  1.
         23    2    1    2    0    0 -0.81978654853E+02  0.13400505556E+04  0.12601941242E+03  0.13516551013E+04  0.92922705812E+02 0.  0.
    5000000    2    1    2    0    0  0.81978654853E+02 -0.13400505556E+04 -0.82943350445E+02  0.14728542601E+04  0.59997006642E+03 0.  0.
         23    2    4    4    0    0 -0.11457799565E+03 -0.47883674426E+02  0.28966505543E+02  0.15793015759E+03  0.93176782888E+02 0.  0.
         23    2    4    4    0    0  0.19655665051E+03 -0.12921668812E+04 -0.11190985599E+03  0.13149241025E+04  0.90398084787E+02 0.  0.
          1    1    3    3  502    0 -0.96606441654E+02  0.84678646380E+03  0.77653945256E+02  0.85580970727E+03  0.00000000000E+00 0. -1.
         -1    1    3    3    0  502  0.14627786801E+02  0.49326409180E+03  0.48365467162E+02  0.49584539407E+03  0.00000000000E+00 0.  1.
         11    1    5    5    0    0 -0.14604403902E+02 -0.15416230607E+02 -0.30497568895E+02  0.37162487645E+02  0.00000000000E+00 0.  1.
        -11    1    5    5    0    0 -0.99973591753E+02 -0.32467443818E+02  0.59464074438E+02  0.12076766995E+03  0.00000000000E+00 0. -1.
          5    1    6    6  503    0  0.59385670729E+02 -0.52832957401E+03 -0.84658652188E+02  0.53837530966E+03  0.47000000000E+01 0. -1.
         -5    1    6    6    0  503  0.13717097978E+03 -0.76383730717E+03 -0.27251203800E+02  0.77654879281E+03  0.47000000000E+01 0.  1.
<mgrwt>
<rscale>  0 0.13899287E+04</rscale>
<asrwt>0</asrwt>
<pdfrwt beam="1">  1        1 0.22058350E+00 0.13899287E+04</pdfrwt>
<pdfrwt beam="2">  1       -1 0.21395641E+00 0.13899287E+04</pdfrwt>
<totfact> 0.84271799E-01</totfact>
</mgrwt>
</event>
<event>
12    1  0.3166324E-008  0.3469473E+03  0.7818608E-02  0.1063875E+00
          2   -1    0    0  501    0  0.00000000000E+00  0.00000000000E+00  0.24910272515E+04  0.24910272515E+04  0.00000000000E+00 0. -1.
         -2   -1    0    0    0  501 -0.00000000000E+00 -0.00000000000E+00 -0.74724852250E+02  0.74724852250E+02  0.00000000000E+00 0.  1.
         23    2    1    2    0    0  0.18385473652E+03  0.98361900894E+02  0.62695907597E+03  0.66704633528E+03  0.91626976229E+02 0.  0.
    5000000    2    1    2    0    0 -0.18385473652E+03 -0.98361900894E+02  0.17893433233E+04  0.18987057685E+04  0.59988035390E+03 0.  0.
         23    2    4    4    0    0 -0.30776969981E+03 -0.86901929906E+02  0.49831474166E+03  0.59909428777E+03  0.91226368617E+02 0.  0.
         23    2    4    4    0    0  0.12391496329E+03 -0.11459970988E+02  0.12910285816E+04  0.12996114807E+04  0.82152012641E+02 0.  0.
          3    1    3    3  502    0  0.85426596324E+02  0.71169514747E+02  0.44200172746E+03  0.45577223507E+03  0.00000000000E+00 0. -1.
         -3    1    3    3    0  502  0.98428140195E+02  0.27192386148E+02  0.18495734852E+03  0.21127410020E+03  0.00000000000E+00 0.  1.
         13    1    5    5    0    0 -0.14016441460E+03 -0.85019390919E+02  0.22307529672E+03  0.27683379122E+03  0.00000000000E+00 0.  1.
        -13    1    5    5    0    0 -0.16760528521E+03 -0.18825389877E+01  0.27523944494E+03  0.32226049655E+03  0.00000000000E+00 0. -1.
          5    1    6    6  503    0  0.60402030117E+02  0.35221091656E+02  0.58672779712E+03  0.59089806942E+03  0.47000000000E+01 0. -1.
         -5    1    6    6    0  503  0.63512933176E+02 -0.46681062644E+02  0.70430078449E+03  0.70871341128E+03  0.47000000000E+01 0.  1.
<mgrwt>
<rscale>  0 0.34694731E+03</rscale>
<asrwt>0</asrwt>
<pdfrwt beam="1">  1        2 0.38323490E+00 0.34694731E+03</pdfrwt>
<pdfrwt beam="2">  1       -2 0.11496133E-01 0.34694731E+03</pdfrwt>
<totfact> 0.21166131E+02</totfact>
</mgrwt>
</event>
<event>
12    1  0.3166324E-008  0.4016084E+03  0.7818608E-02  0.1043224E+00
          1   -1    0    0  501    0  0.00000000000E+00  0.00000000000E+00  0.72767277012E+03  0.72767277012E+03  0.00000000000E+00 0. -1.
         -1   -1    0    0    0  501 -0.00000000000E+00 -0.00000000000E+00 -0.41801873253E+03  0.41801873253E+03  0.00000000000E+00 0.  1.
         23    2    1    2    0    0  0.22003883237E+02 -0.20424668926E+03 -0.22380921687E+03  0.31700607244E+03  0.90561600337E+02 0.  0.
    5000000    2    1    2    0    0 -0.22003883237E+02  0.20424668926E+03  0.53346325446E+03  0.82868543021E+03  0.59994634546E+03 0.  0.
         23    2    4    4    0    0 -0.19632046853E+03  0.31373979833E+03  0.21061010262E+03  0.43528688575E+03  0.90242285878E+02 0.  0.
         23    2    4    4    0    0  0.17431658530E+03 -0.10949310907E+03  0.32285315184E+03  0.39339854446E+03  0.90295317087E+02 0.  0.
          4    1    3    3  502    0  0.32115407082E+02 -0.10971316927E+03 -0.17781555157E+03  0.21139240588E+03  0.00000000000E+00 0. -1.
         -4    1    3    3    0  502 -0.10111523845E+02 -0.94533519996E+02 -0.45993665305E+02  0.10561366657E+03  0.00000000000E+00 0.  1.
         11    1    5    5    0    0 -0.78672296794E+02  0.54165764334E+02  0.62030023679E+02  0.11389022849E+03  0.00000000000E+00 0. -1.
        -11    1    5    5    0    0 -0.11764817174E+03  0.25957403399E+03  0.14858007894E+03  0.32139665726E+03  0.00000000000E+00 0.  1.
          5    1    6    6  503    0  0.99827116299E+02 -0.30144981556E+02  0.22032861881E+03  0.24380517494E+03  0.47000000000E+01 0.  1.
         -5    1    6    6    0  503  0.74489468997E+02 -0.79348127510E+02  0.10252453303E+03  0.14959336952E+03  0.47000000000E+01 0.  1.
<mgrwt>
<rscale>  0 0.40160840E+03</rscale>
<asrwt>0</asrwt>
<pdfrwt beam="1">  1        1 0.11194966E+00 0.40160840E+03</pdfrwt>
<pdfrwt beam="2">  1       -1 0.64310574E-01 0.40160840E+03</pdfrwt>
<totfact> 0.66861101E+01</totfact>
</mgrwt>
</event>
<event>
12    1  0.3166324E-008  0.8536521E+03  0.7818608E-02  0.9485448E-01
          2   -1    0    0  501    0  0.00000000000E+00  0.00000000000E+00  0.12989495582E+04  0.12989495582E+04  0.00000000000E+00 0. -1.
         -2   -1    0    0    0  501 -0.00000000000E+00 -0.00000000000E+00 -0.71403561659E+03  0.71403561659E+03  0.00000000000E+00 0.  1.
         23    2    1    2    0    0  0.74527326027E+03  0.10285689760E+03 -0.18578967967E+03  0.78008714960E+03  0.89478388682E+02 0.  0.
    5000000    2    1    2    0    0 -0.74527326027E+03 -0.10285689760E+03  0.77070362130E+03  0.12328980252E+04  0.60003474467E+03 0.  0.
         23    2    4    4    0    0  0.70468810858E+02  0.30884207505E+02  0.57769665697E+02  0.13734874506E+03  0.98018650864E+02 0.  0.
         23    2    4    4    0    0 -0.81574207113E+03 -0.13374110511E+03  0.71293395560E+03  0.10955492801E+04  0.92906352719E+02 0.  0.
          2    1    3    3  502    0  0.57796927139E+03  0.95663499780E+02 -0.17868800386E+03  0.61247807029E+03  0.00000000000E+00 0. -1.
         -2    1    3    3    0  502  0.16730398888E+03  0.71933978202E+01 -0.71016758013E+01  0.16760907931E+03  0.00000000000E+00 0.  1.
         11    1    5    5    0    0  0.71169330305E+02 -0.18692739102E+02  0.44612041287E+02  0.86050719340E+02  0.00000000000E+00 0. -1.
        -11    1    5    5    0    0 -0.70051944757E+00  0.49576946607E+02  0.13157624410E+02  0.51298025717E+02  0.00000000000E+00 0.  1.
          5    1    6    6  503    0 -0.38267161841E+03 -0.10477666208E+03  0.36719571771E+03  0.54062047830E+03  0.47000000000E+01 0. -1.
         -5    1    6    6    0  503 -0.43307045272E+03 -0.28964443024E+02  0.34573823789E+03  0.55492880184E+03  0.47000000000E+01 0.  1.
<mgrwt>
<rscale>  0 0.85365208E+03</rscale>
<asrwt>0</asrwt>
<pdfrwt beam="1">  1        2 0.19983839E+00 0.85365208E+03</pdfrwt>
<pdfrwt beam="2">  1       -2 0.10985163E+00 0.85365208E+03</pdfrwt>
<totfact> 0.11007000E+01</totfact>
</mgrwt>
</event>
<event>
12    1  0.3166324E-008  0.6574224E+03  0.7818608E-02  0.9792950E-01
          1   -1    0    0  501    0  0.00000000000E+00  0.00000000000E+00  0.11128123083E+04  0.11128123083E+04  0.00000000000E+00 0. -1.
         -1   -1    0    0    0  501 -0.00000000000E+00 -0.00000000000E+00 -0.56249167600E+03  0.56249167600E+03  0.00000000000E+00 0.  1.
         23    2    1    2    0    0  0.33893425022E+03 -0.40817995100E+03  0.67640623463E+03  0.86451228974E+03  0.91481181083E+02 0.  0.
    5000000    2    1    2    0    0 -0.33893425022E+03  0.40817995100E+03 -0.12608560236E+03  0.81079169453E+03  0.59999857868E+03 0.  0.
         23    2    4    4    0    0 -0.41526289760E+03  0.66853654865E+02 -0.60511199627E+01  0.43006310632E+03  0.89470520682E+02 0.  0.
         23    2    4    4    0    0  0.76328647383E+02  0.34132629613E+03 -0.12003448240E+03  0.38072858821E+03  0.90643687421E+02 0.  0.
          3    1    3    3  502    0  0.61807639680E+02 -0.10567499005E+03  0.21235051946E+03  0.24511248634E+03  0.00000000000E+00 0. -1.
         -3    1    3    3    0  502  0.27712661054E+03 -0.30250496094E+03  0.46405571517E+03  0.61939980340E+03  0.00000000000E+00 0.  1.
         11    1    5    5    0    0 -0.14349313756E+03  0.30354892988E+02  0.39972052427E+02  0.15201797601E+03  0.00000000000E+00 0.  1.
        -11    1    5    5    0    0 -0.27176976004E+03  0.36498761877E+02 -0.46023172390E+02  0.27804513031E+03  0.00000000000E+00 0. -1.
          5    1    6    6  503    0  0.94949745778E+01  0.23741469456E+03 -0.80953459080E+02  0.25106063863E+03  0.47000000000E+01 0. -1.
         -5    1    6    6    0  503  0.66833672805E+02  0.10391160158E+03 -0.39081023317E+02  0.12966794957E+03  0.47000000000E+01 0.  1.
<mgrwt>
<rscale>  0 0.65742240E+03</rscale>
<asrwt>0</asrwt>
<pdfrwt beam="1">  1        1 0.17120189E+00 0.65742240E+03</pdfrwt>
<pdfrwt beam="2">  1       -1 0.86537181E-01 0.65742240E+03</pdfrwt>
<totfact> 0.17049908E+01</totfact>
</mgrwt>
</event>
<event>
12    1  0.3166324E-008  0.6785438E+03  0.7818608E-02  0.9754645E-01
         -1   -1    0    0    0  501 -0.00000000000E+00  0.00000000000E+00  0.37710704057E+03  0.37710704057E+03  0.00000000000E+00 0.  1.
          1   -1    0    0  501    0  0.00000000000E+00 -0.00000000000E+00 -0.15576464367E+04  0.15576464367E+04  0.00000000000E+00 0. -1.
         23    2    1    2    0    0 -0.49024264675E+03 -0.31627453232E+03 -0.15457834460E+03  0.61058831506E+03  0.92499693960E+02 0.  0.
    5000000    2    1    2    0    0  0.49024264675E+03  0.31627453232E+03 -0.10259610516E+04  0.13241651622E+04  0.60037477051E+03 0.  0.
         23    2    4    4    0    0  0.45058887489E+03  0.67704226267E+01 -0.36244218283E+03  0.58528394319E+03  0.90093204345E+02 0.  0.
         23    2    4    4    0    0  0.39653771865E+02  0.30950410969E+03 -0.66351886874E+03  0.73888121905E+03  0.91230209653E+02 0.  0.
          2    1    3    3  502    0 -0.25668223956E+03 -0.21951021542E+03 -0.95035992753E+02  0.35085944009E+03  0.00000000000E+00 0.  1.
         -2    1    3    3    0  502 -0.23356040719E+03 -0.96764316896E+02 -0.59542351848E+02  0.25972887497E+03  0.00000000000E+00 0. -1.
         13    1    5    5    0    0  0.31570812768E+03 -0.18469283243E+02 -0.29460660649E+03  0.43221035261E+03  0.00000000000E+00 0.  1.
        -13    1    5    5    0    0  0.13488074720E+03  0.25239705869E+02 -0.67835576338E+02  0.15307359059E+03  0.00000000000E+00 0. -1.
          5    1    6    6  503    0  0.41383140843E+02  0.26119333972E+03 -0.46950170690E+03  0.53887704334E+03  0.47000000000E+01 0. -1.
         -5    1    6    6    0  503 -0.17293689780E+01  0.48310769972E+02 -0.19401716184E+03  0.20000417571E+03  0.47000000000E+01 0.  1.
<mgrwt>
<rscale>  0 0.67854383E+03</rscale>
<asrwt>0</asrwt>
<pdfrwt beam="1">  1        1 0.23963792E+00 0.67854383E+03</pdfrwt>
<pdfrwt beam="2">  1       -1 0.58016467E-01 0.67854383E+03</pdfrwt>
<totfact> 0.18794032E+01</totfact>
</mgrwt>
</event>
<event>
12    1  0.3166324E-008  0.5066020E+03  0.7818608E-02  0.1012070E+00
         -2   -1    0    0    0  501 -0.00000000000E+00  0.00000000000E+00  0.22233692387E+03  0.22233692387E+03  0.00000000000E+00 0.  1.
          2   -1    0    0  501    0  0.00000000000E+00 -0.00000000000E+00 -0.13854404976E+04  0.13854404976E+04  0.00000000000E+00 0. -1.
         23    2    1    2    0    0 -0.26835629318E+03 -0.21716252281E+03 -0.66485228940E+03  0.75487131083E+03  0.92884163297E+02 0.  0.
    5000000    2    1    2    0    0  0.26835629318E+03  0.21716252281E+03 -0.49825128433E+03  0.85290611064E+03  0.60001652462E+03 0.  0.
         23    2    4    4    0    0 -0.84885981052E+02 -0.13479872325E+03 -0.15633244283E+03  0.24133725825E+03  0.91801492195E+02 0.  0.
         23    2    4    4    0    0  0.35324227423E+03  0.35196124606E+03 -0.34191884150E+03  0.61156885238E+03  0.91930103885E+02 0.  0.
          4    1    3    3  502    0 -0.16903069698E+03 -0.11377676368E+03 -0.47590656389E+03  0.51769062772E+03  0.00000000000E+00 0. -1.
         -4    1    3    3    0  502 -0.99325596196E+02 -0.10338575914E+03 -0.18894572550E+03  0.23718068310E+03  0.00000000000E+00 0.  1.
         13    1    5    5    0    0 -0.41689507090E+02 -0.60366914382E+02 -0.13345415279E+03  0.15228982320E+03  0.00000000000E+00 0. -1.
        -13    1    5    5    0    0 -0.43196473961E+02 -0.74431808868E+02 -0.22878290044E+02  0.89047435052E+02  0.00000000000E+00 0.  1.
          5    1    6    6  503    0  0.10545722237E+03  0.16639730381E+03 -0.14487233973E+03  0.24457999363E+03  0.47000000000E+01 0. -1.
         -5    1    6    6    0  503  0.24778505186E+03  0.18556394226E+03 -0.19704650177E+03  0.36698885876E+03  0.47000000000E+01 0.  1.
<mgrwt>
<rscale>  0 0.50660198E+03</rscale>
<asrwt>0</asrwt>
<pdfrwt beam="1">  1        2 0.21314470E+00 0.50660198E+03</pdfrwt>
<pdfrwt beam="2">  1       -2 0.34205680E-01 0.50660198E+03</pdfrwt>
<totfact> 0.12290523E+02</totfact>
</mgrwt>
</event>
<event>
12    1  0.3166324E-008  0.6408925E+03  0.7818608E-02  0.9824020E-01
          2   -1    0    0  501    0  0.00000000000E+00  0.00000000000E+00  0.12646559214E+04  0.12646559214E+04  0.00000000000E+00 0. -1.
         -2   -1    0    0    0  501 -0.00000000000E+00 -0.00000000000E+00 -0.10325379993E+04  0.10325379993E+04  0.00000000000E+00 0.  1.
         23    2    1    2    0    0 -0.52203166293E+03 -0.35431901521E+03 -0.75035241794E+03  0.98439814340E+03  0.89173605859E+02 0.  0.
    5000000    2    1    2    0    0  0.52203166293E+03  0.35431901521E+03  0.98247034007E+03  0.13127957774E+04  0.60010479276E+03 0.  0.
         23    2    4    4    0    0  0.39340591725E+03  0.21856105973E+03  0.10060378250E+04  0.11057745001E+04  0.89933237583E+02 0.  0.
         23    2    4    4    0    0  0.12862574568E+03  0.13575795548E+03 -0.23567484922E+02  0.20702127725E+03  0.85601273122E+02 0.  0.
          1    1    3    3  502    0 -0.38361328306E+03 -0.21921501271E+03 -0.48569264442E+03  0.65659098195E+03  0.00000000000E+00 0. -1.
         -1    1    3    3    0  502 -0.13841837987E+03 -0.13510400250E+03 -0.26465977352E+03  0.32780716145E+03  0.00000000000E+00 0.  1.
         11    1    5    5    0    0  0.44933903527E+02  0.42590857138E+02  0.21368469208E+03  0.22247288470E+03  0.00000000000E+00 0. -1.
        -11    1    5    5    0    0  0.34847201373E+03  0.17597020260E+03  0.79235313291E+03  0.88330161541E+03  0.00000000000E+00 0.  1.
          5    1    6    6  503    0  0.12676031666E+03  0.13904012776E+03 -0.58424568475E+01  0.18829912191E+03  0.47000000000E+01 0. -1.
         -5    1    6    6    0  503  0.18654290170E+01 -0.32821722849E+01 -0.17725028075E+02  0.18722155340E+02  0.47000000000E+01 0.  1.
<mgrwt>
<rscale>  0 0.64089254E+03</rscale>
<asrwt>0</asrwt>
<pdfrwt beam="1">  1        2 0.19456245E+00 0.64089254E+03</pdfrwt>
<pdfrwt beam="2">  1       -2 0.15885200E+00 0.64089254E+03</pdfrwt>
<totfact> 0.46364129E+00</totfact>
</mgrwt>
</event>
<event>
12    1  0.3166324E-008  0.7079820E+03  0.7818608E-02  0.9703678E-01
         -2   -1    0    0    0  501 -0.00000000000E+00  0.00000000000E+00  0.20479898551E+04  0.20479898551E+04  0.00000000000E+00 0.  1.
          2   -1    0    0  501    0  0.00000000000E+00 -0.00000000000E+00 -0.42665702468E+03  0.42665702468E+03  0.00000000000E+00 0. -1.
         23    2    1    2    0    0  0.47996102525E+03 -0.46452316027E+03  0.66592477286E+02  0.67934960204E+03  0.10457997694E+03 0.  0.
    5000000    2    1    2    0    0 -0.47996102525E+03  0.46452316027E+03  0.15547403531E+04  0.17952972777E+04  0.59977528927E+03 0.  0.
         23    2    4    4    0    0 -0.27912720237E+03  0.67150848799E+02  0.11414795472E+04  0.11804614020E+04  0.89957397283E+02 0.  0.
         23    2    4    4    0    0 -0.20083382288E+03  0.39737231147E+03  0.41326080593E+03  0.61483587575E+03  0.94866654053E+02 0.  0.
          1    1    3    3  502    0  0.23020459857E+03 -0.16286917260E+03 -0.62105476478E+00  0.28199452175E+03  0.00000000000E+00 0. -1.
         -1    1    3    3    0  502  0.24975642667E+03 -0.30165398767E+03  0.67213532051E+02  0.39735508029E+03  0.00000000000E+00 0.  1.
         13    1    5    5    0    0 -0.16521228870E+03  0.76048148638E+01  0.51404339424E+03  0.53999402285E+03  0.00000000000E+00 0. -1.
        -13    1    5    5    0    0 -0.11391491367E+03  0.59546033935E+02  0.62743615295E+03  0.64046737914E+03  0.00000000000E+00 0.  1.
          5    1    6    6  503    0 -0.40780256142E+02  0.13439510421E+03  0.82500407045E+02  0.16295238718E+03  0.47000000000E+01 0. -1.
         -5    1    6    6    0  503 -0.16005356673E+03  0.26297720726E+03  0.33076039889E+03  0.45188348856E+03  0.47000000000E+01 0.  1.
<mgrwt>
<rscale>  0 0.70798203E+03</rscale>
<asrwt>0</asrwt>
<pdfrwt beam="1">  1        2 0.65639544E-01 0.70798203E+03</pdfrwt>
<pdfrwt beam="2">  1       -2 0.31507536E+00 0.70798203E+03</pdfrwt>
<totfact> 0.19964386E+00</totfact>
</mgrwt>
</event>
<event>
12    1  0.3166324E-008  0.1107490E+04  0.7818608E-02  0.9197922E-01
          2   -1    0    0  501    0  0.00000000000E+00  0.00000000000E+00  0.27874496710E+04  0.27874496710E+04  0.00000000000E+00 0. -1.
         -2   -1    0    0    0  501 -0.00000000000E+00 -0.00000000000E+00 -0.68431925826E+03  0.68431925826E+03  0.00000000000E+00 0.  1.
         23    2    1    2    0    0 -0.10043471026E+04  0.23589143419E+03 -0.20411141624E+02  0.10358509558E+04  0.90624039639E+02 0.  0.
    5000000    2    1    2    0    0  0.10043471026E+04 -0.23589143419E+03  0.21235415544E+04  0.24359179735E+04  0.59992480296E+03 0.  0.
         23    2    4    4    0    0  0.14252550865E+03  0.16769150058E+03  0.40866543976E+03  0.47258700239E+03  0.88865478081E+02 0.  0.
         23    2    4    4    0    0  0.86182159399E+03 -0.40358293477E+03  0.17148761146E+04  0.19633309711E+04  0.90844749771E+02 0.  0.
          2    1    3    3  502    0 -0.32557562187E+03  0.67671350824E+02 -0.48112677736E+02  0.33599661760E+03  0.00000000000E+00 0. -1.
         -2    1    3    3    0  502 -0.67877148077E+03  0.16822008336E+03  0.27701536112E+02  0.69985433817E+03  0.00000000000E+00 0.  1.
         11    1    5    5    0    0  0.10745168536E+03  0.83716391607E+02  0.30861443500E+03  0.33733835892E+03  0.00000000000E+00 0. -1.
        -11    1    5    5    0    0  0.35073823289E+02  0.83975108972E+02  0.10005100476E+03  0.13524864347E+03  0.00000000000E+00 0.  1.
          5    1    6    6  503    0  0.63614261532E+03 -0.25325520472E+03  0.12367656574E+04  0.14136573160E+04  0.47000000000E+01 0. -1.
         -5    1    6    6    0  503  0.22567897867E+03 -0.15032773004E+03  0.47811045720E+03  0.54967365511E+03  0.47000000000E+01 0.  1.
<mgrwt>
<rscale>  0 0.11074903E+04</rscale>
<asrwt>0</asrwt>
<pdfrwt beam="1">  1        2 0.42883841E+00 0.11074903E+04</pdfrwt>
<pdfrwt beam="2">  1       -2 0.10527989E+00 0.11074903E+04</pdfrwt>
<totfact> 0.17162079E+00</totfact>
</mgrwt>
</event>
<event>
12    1  0.3166324E-008  0.5686586E+03  0.7818608E-02  0.9972651E-01
         -2   -1    0    0    0  501 -0.00000000000E+00  0.00000000000E+00  0.88614731820E+03  0.88614731820E+03  0.00000000000E+00 0.  1.
          2   -1    0    0  501    0  0.00000000000E+00 -0.00000000000E+00 -0.64207742603E+03  0.64207742603E+03  0.00000000000E+00 0. -1.
         23    2    1    2    0    0  0.68848719236E+02  0.43668913397E+03 -0.35335250161E+03  0.57303275841E+03  0.89838777532E+02 0.  0.
    5000000    2    1    2    0    0 -0.68848719236E+02 -0.43668913397E+03  0.59742239377E+03  0.95519198582E+03  0.60003388847E+03 0.  0.
         23    2    4    4    0    0 -0.23372418225E+03 -0.11887187443E+02  0.34508918438E+03  0.42653109705E+03  0.89855066522E+02 0.  0.
         23    2    4    4    0    0  0.16487546302E+03 -0.42480194653E+03  0.25233320939E+03  0.52866088876E+03  0.90386252622E+02 0.  0.
          2    1    3    3  502    0  0.32625687809E+02  0.31493766052E+03 -0.29681801958E+03  0.43399435741E+03  0.00000000000E+00 0. -1.
         -2    1    3    3    0  502  0.36223031427E+02  0.12175147346E+03 -0.56534482029E+02  0.13903840100E+03  0.00000000000E+00 0.  1.
         11    1    5    5    0    0 -0.93854098271E+02 -0.20783024068E+02  0.73842706111E+02  0.12121580383E+03  0.00000000000E+00 0.  1.
        -11    1    5    5    0    0 -0.13987008398E+03  0.88958366249E+01  0.27124647827E+03  0.30531529323E+03  0.00000000000E+00 0. -1.
          5    1    6    6  503    0  0.86181668484E+02 -0.16977599577E+03  0.15133406706E+03  0.24325965258E+03  0.47000000000E+01 0. -1.
         -5    1    6    6    0  503  0.78693794535E+02 -0.25502595076E+03  0.10099914233E+03  0.28540123618E+03  0.47000000000E+01 0.  1.
<mgrwt>
<rscale>  0 0.56865858E+03</rscale>
<asrwt>0</asrwt>
<pdfrwt beam="1">  1        2 0.98781142E-01 0.56865858E+03</pdfrwt>
<pdfrwt beam="2">  1       -2 0.13633036E+00 0.56865858E+03</pdfrwt>
<totfact> 0.18159304E+01</totfact>
</mgrwt>
</event>
<event>
12    1  0.3549956E-008  0.1241799E+04  0.7818608E-02  0.9077037E-01
         -1   -1    0    0    0  501 -0.00000000000E+00  0.00000000000E+00  0.83754159160E+03  0.83754159160E+03  0.00000000000E+00 0.  1.
          1   -1    0    0  501    0  0.00000000000E+00 -0.00000000000E+00 -0.18852656615E+04  0.18852656615E+04  0.00000000000E+00 0. -1.
         23    2    1    2    0    0 -0.11828323516E+04  0.15178514257E+02 -0.50821207401E+03  0.12906636612E+04  0.90611338873E+02 0.  0.
    5000000    2    1    2    0    0  0.11828323516E+04 -0.15178514257E+02 -0.53951199585E+03  0.14321435919E+04  0.60053252598E+03 0.  0.
         23    2    4    4    0    0  0.43442820675E+03  0.25034107636E+03 -0.32582037692E+03  0.60524232406E+03  0.93599313493E+02 0.  0.
         23    2    4    4    0    0  0.74840414488E+03 -0.26551959062E+03 -0.21369161893E+03  0.82690126783E+03  0.86557389386E+02 0.  0.
          4    1    3    3  502    0 -0.45260732230E+03  0.22249841487E+02 -0.15044342078E+03  0.47747425742E+03  0.00000000000E+00 0. -1.
         -4    1    3    3    0  502 -0.73022502933E+03 -0.70713272301E+01 -0.35776865323E+03  0.81318940374E+03  0.00000000000E+00 0.  1.
         13    1    5    5    0    0  0.13118748523E+03  0.78061299488E+02 -0.15253708058E+03  0.21580380838E+03  0.00000000000E+00 0. -1.
        -13    1    5    5    0    0  0.30324072152E+03  0.17227977687E+03 -0.17328329634E+03  0.38943851568E+03  0.00000000000E+00 0.  1.
          5    1    6    6  503    0  0.60875965029E+03 -0.17951041758E+03 -0.16619192023E+03  0.65609004427E+03  0.47000000000E+01 0. -1.
         -5    1    6    6    0  503  0.13964449459E+03 -0.86009173041E+02 -0.47499698706E+02  0.17081122356E+03  0.47000000000E+01 0.  1.
<mgrwt>
<rscale>  0 0.12417987E+04</rscale>
<asrwt>0</asrwt>
<pdfrwt beam="1">  1        1 0.29004087E+00 0.12417987E+04</pdfrwt>
<pdfrwt beam="2">  1       -1 0.12885255E+00 0.12417987E+04</pdfrwt>
<totfact> 0.18094403E+00</totfact>
</mgrwt>
</event>
<event>
12    1  0.3166324E-008  0.9047398E+03  0.7818608E-02  0.9419676E-01
          2   -1    0    0  501    0  0.00000000000E+00  0.00000000000E+00  0.74106631847E+03  0.74106631847E+03  0.00000000000E+00 0.  1.
         -2   -1    0    0    0  501 -0.00000000000E+00 -0.00000000000E+00 -0.12837938109E+04  0.12837938109E+04  0.00000000000E+00 0. -1.
         23    2    1    2    0    0 -0.64154246459E+03  0.59776119563E+03 -0.16218756772E+03  0.89642146002E+03  0.91495606384E+02 0.  0.
    5000000    2    1    2    0    0  0.64154246459E+03 -0.59776119563E+03 -0.38053992466E+03  0.11284386693E+04  0.59972328224E+03 0.  0.
         23    2    4    4    0    0  0.18041801307E+03 -0.36487074794E+03  0.87228818589E+02  0.42598342994E+03  0.90397420591E+02 0.  0.
         23    2    4    4    0    0  0.46112445152E+03 -0.23289044769E+03 -0.46776874325E+03  0.70245523936E+03  0.88102472954E+02 0.  0.
          1    1    3    3  502    0 -0.38445448347E+03  0.30804185918E+03 -0.11795252284E+03  0.50656473872E+03  0.00000000000E+00 0. -1.
         -1    1    3    3    0  502 -0.25708798112E+03  0.28971933645E+03 -0.44235044885E+02  0.38985672130E+03  0.00000000000E+00 0.  1.
         13    1    5    5    0    0  0.90638541108E+02 -0.25145562429E+03  0.87767872616E+02  0.28133338868E+03  0.00000000000E+00 0.  1.
        -13    1    5    5    0    0  0.89779471963E+02 -0.11341512365E+03 -0.53905402688E+00  0.14465004127E+03  0.00000000000E+00 0. -1.
          5    1    6    6  503    0  0.13034798108E+03 -0.51068221013E+02 -0.80083933773E+02  0.16135081598E+03  0.47000000000E+01 0. -1.
         -5    1    6    6    0  503  0.33077647043E+03 -0.18182222668E+03 -0.38768480947E+03  0.54110442338E+03  0.47000000000E+01 0.  1.
<mgrwt>
<rscale>  0 0.90473979E+03</rscale>
<asrwt>0</asrwt>
<pdfrwt beam="1">  1        2 0.11401020E+00 0.90473979E+03</pdfrwt>
<pdfrwt beam="2">  1       -2 0.19750674E+00 0.90473979E+03</pdfrwt>
<totfact> 0.52749569E+00</totfact>
</mgrwt>
</event>
<event>
12    1  0.3166324E-008  0.6378420E+03  0.7818608E-02  0.9829864E-01
          2   -1    0    0  501    0  0.00000000000E+00  0.00000000000E+00  0.74749017773E+03  0.74749017773E+03  0.00000000000E+00 0. -1.
         -2   -1    0    0    0  501 -0.00000000000E+00 -0.00000000000E+00 -0.63721716038E+03  0.63721716038E+03  0.00000000000E+00 0.  1.
         23    2    1    2    0    0 -0.44692333195E+03  0.30454433470E+03 -0.76053769434E+02  0.55569421001E+03  0.10258734205E+03 0.  0.
    5000000    2    1    2    0    0  0.44692333195E+03 -0.30454433470E+03  0.18632678678E+03  0.82901312810E+03  0.60004781363E+03 0.  0.
         23    2    4    4    0    0 -0.10330391721E+03 -0.64515104029E+02  0.16246234989E+03  0.22149455503E+03  0.88498162800E+02 0.  0.
         23    2    4    4    0    0  0.55022724915E+03 -0.24002923067E+03  0.23864436892E+02  0.60751857307E+03  0.90251027593E+02 0.  0.
          1    1    3    3  502    0 -0.54939820902E+02  0.68841678751E+02 -0.40443655410E+02  0.96918780001E+02  0.00000000000E+00 0. -1.
         -1    1    3    3    0  502 -0.39198351105E+03  0.23570265595E+03 -0.35610114024E+02  0.45877543000E+03  0.00000000000E+00 0.  1.
         13    1    5    5    0    0 -0.59430916533E+02 -0.49511237311E+02  0.15672349493E+03  0.17477313959E+03  0.00000000000E+00 0. -1.
        -13    1    5    5    0    0 -0.43873000673E+02 -0.15003866718E+02  0.57388549626E+01  0.46721415442E+02  0.00000000000E+00 0.  1.
          5    1    6    6  503    0  0.22082156993E+03 -0.51022734808E+02 -0.36298258391E+01  0.22671733690E+03  0.47000000000E+01 0.  1.
         -5    1    6    6    0  503  0.32940567922E+03 -0.18900649587E+03  0.27494262731E+02  0.38080123617E+03  0.47000000000E+01 0. -1.
<mgrwt>
<rscale>  0 0.63784201E+03</rscale>
<asrwt>0</asrwt>
<pdfrwt beam="1">  1        2 0.11499849E+00 0.63784201E+03</pdfrwt>
<pdfrwt beam="2">  1       -2 0.98033409E-01 0.63784201E+03</pdfrwt>
<totfact> 0.33393943E+01</totfact>
</mgrwt>
</event>
<event>
12    1  0.3166324E-008  0.1121337E+04  0.7818608E-02  0.9184642E-01
          1   -1    0    0  501    0  0.00000000000E+00  0.00000000000E+00  0.15399833635E+04  0.15399833635E+04  0.00000000000E+00 0. -1.
         -1   -1    0    0    0  501 -0.00000000000E+00 -0.00000000000E+00 -0.98607716034E+03  0.98607716034E+03  0.00000000000E+00 0.  1.
         23    2    1    2    0    0 -0.44169682329E+03  0.99350693297E+03  0.66389559774E+03  0.12793154951E+04  0.11721203712E+03 0.  0.
    5000000    2    1    2    0    0  0.44169682329E+03 -0.99350693297E+03 -0.10998939462E+03  0.12467450287E+04  0.60010281638E+03 0.  0.
         23    2    4    4    0    0  0.39532481301E+03 -0.98513417794E+03  0.39150043549E+02  0.10662182314E+04  0.92290491059E+02 0.  0.
         23    2    4    4    0    0  0.46372010278E+02 -0.83727550296E+01 -0.14913943817E+03  0.18052679735E+03  0.90149243926E+02 0.  0.
          4    1    3    3  502    0 -0.11072266540E+03  0.34635886538E+03  0.26716228623E+03  0.45122018953E+03  0.00000000000E+00 0.  1.
         -4    1    3    3    0  502 -0.33097415789E+03  0.64714806759E+03  0.39673331151E+03  0.82809530553E+03  0.00000000000E+00 0. -1.
         13    1    5    5    0    0  0.20147181041E+03 -0.56193266899E+03  0.62006773229E+02  0.60017002158E+03  0.00000000000E+00 0. -1.
        -13    1    5    5    0    0  0.19385300260E+03 -0.42320150894E+03 -0.22856729679E+02  0.46604820982E+03  0.00000000000E+00 0.  1.
          5    1    6    6  503    0  0.78947343662E+01  0.32276721158E+02 -0.10140647922E+03  0.10681515617E+03  0.47000000000E+01 0. -1.
         -5    1    6    6    0  503  0.38477275912E+02 -0.40649476188E+02 -0.47732958949E+02  0.73711641183E+02  0.47000000000E+01 0.  1.
<mgrwt>
<rscale>  0 0.11213365E+04</rscale>
<asrwt>0</asrwt>
<pdfrwt beam="1">  1        1 0.23692052E+00 0.11213365E+04</pdfrwt>
<pdfrwt beam="2">  1       -1 0.15170418E+00 0.11213365E+04</pdfrwt>
<totfact> 0.20565407E+00</totfact>
</mgrwt>
</event>
<event>
12    1  0.3166324E-008  0.7010797E+03  0.7818608E-02  0.9715388E-01
          1   -1    0    0  501    0  0.00000000000E+00  0.00000000000E+00  0.61844901980E+03  0.61844901980E+03  0.00000000000E+00 0. -1.
         -1   -1    0    0    0  501 -0.00000000000E+00 -0.00000000000E+00 -0.10054926410E+04  0.10054926410E+04  0.00000000000E+00 0.  1.
         23    2    1    2    0    0 -0.13957294834E+03 -0.59470892787E+03 -0.45181481690E+03  0.76525303088E+03  0.91193506972E+02 0.  0.
    5000000    2    1    2    0    0  0.13957294834E+03  0.59470892787E+03  0.64771195686E+02  0.85868862992E+03  0.59999294877E+03 0.  0.
         23    2    4    4    0    0 -0.17123731758E+03  0.28132941242E+03 -0.13245907049E+03  0.36670694361E+03  0.91978910164E+02 0.  0.
         23    2    4    4    0    0  0.31081026592E+03  0.31337951546E+03  0.19723026618E+03  0.49198168631E+03  0.91304214892E+02 0.  0.
          4    1    3    3  502    0 -0.52406612916E+02 -0.20417047762E+03 -0.21089857461E+03  0.29817821145E+03  0.00000000000E+00 0.  1.
         -4    1    3    3    0  502 -0.87166335420E+02 -0.39053845025E+03 -0.24091624228E+03  0.46707481944E+03  0.00000000000E+00 0. -1.
         13    1    5    5    0    0 -0.86932927499E+02  0.22167830459E+03 -0.82666669842E+02  0.25205630901E+03  0.00000000000E+00 0.  1.
        -13    1    5    5    0    0 -0.84304390085E+02  0.59651107829E+02 -0.49792400652E+02  0.11465063461E+03  0.00000000000E+00 0. -1.
          5    1    6    6  503    0  0.13577211404E+03  0.78613391294E+02  0.83613370420E+02  0.17784099065E+03  0.47000000000E+01 0. -1.
         -5    1    6    6    0  503  0.17503815188E+03  0.23476612416E+03  0.11361689576E+03  0.31414069566E+03  0.47000000000E+01 0.  1.
<mgrwt>
<rscale>  0 0.70107969E+03</rscale>
<asrwt>0</asrwt>
<pdfrwt beam="1">  1        1 0.95146004E-01 0.70107969E+03</pdfrwt>
<pdfrwt beam="2">  1       -1 0.15469117E+00 0.70107969E+03</pdfrwt>
<totfact> 0.10900882E+01</totfact>
</mgrwt>
</event>
<event>
12    1  0.3166324E-008  0.1013022E+04  0.7818608E-02  0.9294377E-01
         -1   -1    0    0    0  501 -0.00000000000E+00  0.00000000000E+00  0.69669253863E+03  0.69669253863E+03  0.00000000000E+00 0.  1.
          1   -1    0    0  501    0  0.00000000000E+00 -0.00000000000E+00 -0.17475926030E+04  0.17475926030E+04  0.00000000000E+00 0. -1.
         23    2    1    2    0    0 -0.86513301881E+03 -0.33307422683E+03 -0.95779379005E+03  0.13361257932E+04  0.92030484662E+02 0.  0.
    5000000    2    1    2    0    0  0.86513301881E+03  0.33307422683E+03 -0.93106274303E+02  0.11081593484E+04  0.59996231750E+03 0.  0.
         23    2    4    4    0    0  0.60534446995E+03 -0.68126008411E+02 -0.87250846021E+02  0.62188187575E+03  0.89673167335E+02 0.  0.
         23    2    4    4    0    0  0.25978854886E+03  0.40120023524E+03 -0.58554282827E+01  0.48627747269E+03  0.89329589332E+02 0.  0.
          3    1    3    3  502    0 -0.75236393768E+03 -0.30693569316E+03 -0.79873097023E+03  0.11393999198E+04  0.00000000000E+00 0. -1.
         -3    1    3    3    0  502 -0.11276908113E+03 -0.26138533670E+02 -0.15906281982E+03  0.19672587336E+03  0.00000000000E+00 0.  1.
         13    1    5    5    0    0  0.28953490696E+03  0.68473248503E+01 -0.19297316999E+02  0.29025804838E+03  0.00000000000E+00 0.  1.
        -13    1    5    5    0    0  0.31580956299E+03 -0.74973333262E+02 -0.67953529021E+02  0.33162382737E+03  0.00000000000E+00 0. -1.
          5    1    6    6  503    0  0.17223811591E+03  0.19963147645E+03  0.22408371566E+02  0.26465623000E+03  0.47000000000E+01 0. -1.
         -5    1    6    6    0  503  0.87550432953E+02  0.20156875879E+03 -0.28263799849E+02  0.22162124269E+03  0.47000000000E+01 0.  1.
<mgrwt>
<rscale>  0 0.10130217E+04</rscale>
<asrwt>0</asrwt>
<pdfrwt beam="1">  1        1 0.26886039E+00 0.10130217E+04</pdfrwt>
<pdfrwt beam="2">  1       -1 0.10718347E+00 0.10130217E+04</pdfrwt>
<totfact> 0.36109050E+00</totfact>
</mgrwt>
</event>
<event>
12    1  0.3166324E-008  0.1113613E+04  0.7818608E-02  0.9192024E-01
         -2   -1    0    0    0  501 -0.00000000000E+00  0.00000000000E+00  0.17297129249E+04  0.17297129249E+04  0.00000000000E+00 0.  1.
          2   -1    0    0  501    0  0.00000000000E+00 -0.00000000000E+00 -0.20434412924E+04  0.20434412924E+04  0.00000000000E+00 0. -1.
         23    2    1    2    0    0 -0.26166291566E+03  0.10104297198E+04 -0.16624424631E+04  0.19651558642E+04  0.93203686088E+02 0.  0.
    5000000    2    1    2    0    0  0.26166291566E+03 -0.10104297198E+04  0.13487140957E+04  0.18079983532E+04  0.60032710499E+03 0.  0.
         23    2    4    4    0    0  0.41709853191E+03 -0.88539323917E+03  0.11390226803E+04  0.15045380295E+04  0.91485751192E+02 0.  0.
         23    2    4    4    0    0 -0.15543561625E+03 -0.12503648063E+03  0.20969141537E+03  0.30346032363E+03  0.91232264334E+02 0.  0.
          3    1    3    3  502    0 -0.21117690550E+03  0.78644739253E+03 -0.13644690802E+04  0.15889842848E+04  0.00000000000E+00 0. -1.
         -3    1    3    3    0  502 -0.50486010165E+02  0.22398232727E+03 -0.29797338297E+03  0.37617157935E+03  0.00000000000E+00 0.  1.
         11    1    5    5    0    0  0.23780854082E+03 -0.53195481557E+03  0.61063336146E+03  0.84403905716E+03  0.00000000000E+00 0.  1.
        -11    1    5    5    0    0  0.17928999109E+03 -0.35343842361E+03  0.52838931887E+03  0.66049897235E+03  0.00000000000E+00 0. -1.
          5    1    6    6  503    0 -0.52662011287E+02 -0.17999724511E+02  0.11367309462E+03  0.12665283240E+03  0.47000000000E+01 0. -1.
         -5    1    6    6    0  503 -0.10277360496E+03 -0.10703675611E+03  0.96018320747E+02  0.17680749123E+03  0.47000000000E+01 0.  1.
<mgrwt>
<rscale>  0 0.11136132E+04</rscale>
<asrwt>0</asrwt>
<pdfrwt beam="1">  1        2 0.31437558E+00 0.11136132E+04</pdfrwt>
<pdfrwt beam="2">  1       -2 0.26610968E+00 0.11136132E+04</pdfrwt>
<totfact> 0.31934576E-01</totfact>
</mgrwt>
</event>
<event>
12    1  0.3166324E-008  0.1261354E+04  0.7818608E-02  0.9060786E-01
         -1   -1    0    0    0  501 -0.00000000000E+00  0.00000000000E+00  0.84518500075E+03  0.84518500075E+03  0.00000000000E+00 0.  1.
          1   -1    0    0  501    0  0.00000000000E+00 -0.00000000000E+00 -0.19354608407E+04  0.19354608407E+04  0.00000000000E+00 0. -1.
         23    2    1    2    0    0 -0.98226362310E+03 -0.68874278144E+03 -0.65778406435E+03  0.13712076053E+04  0.91224871630E+02 0.  0.
    5000000    2    1    2    0    0  0.98226362310E+03  0.68874278144E+03 -0.43249177564E+03  0.14094382362E+04  0.60021542919E+03 0.  0.
         23    2    4    4    0    0  0.25660685761E+03  0.49712347491E+03 -0.70654167346E+02  0.57132673549E+03  0.91887967948E+02 0.  0.
         23    2    4    4    0    0  0.72565676549E+03  0.19161930654E+03 -0.36183760829E+03  0.83811150071E+03  0.90602057984E+02 0.  0.
          2    1    3    3  502    0 -0.60627735377E+03 -0.39814316706E+03 -0.44130141769E+03  0.84902129092E+03  0.00000000000E+00 0. -1.
         -2    1    3    3    0  502 -0.37598626932E+03 -0.29059961438E+03 -0.21648264666E+03  0.52218631436E+03  0.00000000000E+00 0.  1.
         13    1    5    5    0    0  0.20140088802E+03  0.29359523263E+03 -0.46922745024E+02  0.35911310518E+03  0.00000000000E+00 0.  1.
        -13    1    5    5    0    0  0.55205969591E+02  0.20352824228E+03 -0.23731422323E+02  0.21221363031E+03  0.00000000000E+00 0. -1.
          5    1    6    6  503    0  0.26501976215E+03  0.11213081741E+03 -0.15556089758E+03  0.32715451609E+03  0.47000000000E+01 0. -1.
         -5    1    6    6    0  503  0.46063700334E+03  0.79488489127E+02 -0.20627671072E+03  0.51095698462E+03  0.47000000000E+01 0.  1.
<mgrwt>
<rscale>  0 0.12613543E+04</rscale>
<asrwt>0</asrwt>
<pdfrwt beam="1">  1        1 0.29776320E+00 0.12613543E+04</pdfrwt>
<pdfrwt beam="2">  1       -1 0.13002846E+00 0.12613543E+04</pdfrwt>
<totfact> 0.16314107E+00</totfact>
</mgrwt>
</event>
<event>
12    1  0.3166324E-008  0.7555942E+03  0.7818608E-02  0.9626615E-01
          2   -1    0    0  501    0  0.00000000000E+00  0.00000000000E+00  0.32543093598E+04  0.32543093598E+04  0.00000000000E+00 0.  1.
         -2   -1    0    0    0  501 -0.00000000000E+00 -0.00000000000E+00 -0.21976476487E+03  0.21976476487E+03  0.00000000000E+00 0. -1.
         23    2    1    2    0    0 -0.69501666528E+02 -0.72250838210E+03  0.10996759447E+04  0.13221697852E+04  0.10953042323E+03 0.  0.
    5000000    2    1    2    0    0  0.69501666528E+02  0.72250838210E+03  0.19348686503E+04  0.21519043395E+04  0.60010561474E+03 0.  0.
         23    2    4    4    0    0 -0.90139586836E+01  0.62631735483E+03  0.18901819485E+04  0.19928255902E+04  0.78812145894E+02 0.  0.
         23    2    4    4    0    0  0.78515625211E+02  0.96191027268E+02  0.44686701772E+02  0.15907874928E+03  0.88835409760E+02 0.  0.
          1    1    3    3  502    0 -0.39847615222E+02 -0.10153492137E+03  0.12274778564E+03  0.16420776954E+03  0.00000000000E+00 0. -1.
         -1    1    3    3    0  502 -0.29654051305E+02 -0.62097346073E+03  0.97692815907E+03  0.11579620156E+04  0.00000000000E+00 0.  1.
         13    1    5    5    0    0 -0.21854625743E+02  0.53968650355E+02  0.15072344282E+03  0.16157907074E+03  0.00000000000E+00 0. -1.
        -13    1    5    5    0    0  0.12840667059E+02  0.57234870448E+03  0.17394585057E+04  0.18312465195E+04  0.00000000000E+00 0.  1.
          5    1    6    6  503    0  0.84197143223E+02  0.10724408391E+03  0.49227332613E+02  0.14503748735E+03  0.47000000000E+01 0. -1.
         -5    1    6    6    0  503 -0.56815180123E+01 -0.11053056643E+02 -0.45406308402E+01  0.14041261927E+02  0.47000000000E+01 0.  1.
<mgrwt>
<rscale>  0 0.75559419E+03</rscale>
<asrwt>0</asrwt>
<pdfrwt beam="1">  1        2 0.50066294E+00 0.75559419E+03</pdfrwt>
<pdfrwt beam="2">  1       -2 0.33809966E-01 0.75559419E+03</pdfrwt>
<totfact> 0.10458065E+01</totfact>
</mgrwt>
</event>
<event>
12    1  0.3166324E-008  0.1555769E+04  0.7818608E-02  0.8848192E-01
          2   -1    0    0  501    0  0.00000000000E+00  0.00000000000E+00  0.23060788555E+04  0.23060788555E+04  0.00000000000E+00 0. -1.
         -2   -1    0    0    0  501 -0.00000000000E+00 -0.00000000000E+00 -0.10505871378E+04  0.10505871378E+04  0.00000000000E+00 0.  1.
         23    2    1    2    0    0 -0.10515186898E+04 -0.10653426033E+04  0.63854463293E+03  0.16300110686E+04  0.92468471062E+02 0.  0.
    5000000    2    1    2    0    0  0.10515186898E+04  0.10653426033E+04  0.61694708475E+03  0.17266549247E+04  0.60005591933E+03 0.  0.
         23    2    4    4    0    0  0.98179455046E+03  0.11173196631E+04  0.57466984443E+03  0.15971973367E+04  0.92033328100E+02 0.  0.
         23    2    4    4    0    0  0.69724139372E+02 -0.51977059820E+02  0.42277240320E+02  0.12945758802E+03  0.86074570501E+02 0.  0.
          1    1    3    3  502    0 -0.81450469740E+03 -0.77462557345E+03  0.49869252442E+03  0.12296978958E+04  0.00000000000E+00 0. -1.
         -1    1    3    3    0  502 -0.23701399243E+03 -0.29071702983E+03  0.13985210852E+03  0.40031317278E+03  0.00000000000E+00 0.  1.
         13    1    5    5    0    0  0.43822910999E+03  0.56628389693E+03  0.28816347184E+03  0.77185516211E+03  0.00000000000E+00 0. -1.
        -13    1    5    5    0    0  0.54356544047E+03  0.55103576617E+03  0.28650637259E+03  0.82534217462E+03  0.00000000000E+00 0.  1.
          5    1    6    6  503    0  0.22493727998E+02 -0.68371313477E+02  0.25912814471E+02  0.76643122716E+02  0.47000000000E+01 0. -1.
         -5    1    6    6    0  503  0.47230411373E+02  0.16394253657E+02  0.16364425849E+02  0.52814465299E+02  0.47000000000E+01 0.  1.
<mgrwt>
<rscale>  0 0.15557685E+04</rscale>
<asrwt>0</asrwt>
<pdfrwt beam="1">  1        2 0.35478136E+00 0.15557685E+04</pdfrwt>
<pdfrwt beam="2">  1       -2 0.16162879E+00 0.15557685E+04</pdfrwt>
<totfact> 0.10334857E+00</totfact>
</mgrwt>
</event>
<event>
12    1  0.3166324E-008  0.4773966E+03  0.7818608E-02  0.1019853E+00
          2   -1    0    0  501    0  0.00000000000E+00  0.00000000000E+00  0.27743765078E+04  0.27743765078E+04  0.00000000000E+00 0. -1.
         -2   -1    0    0    0  501 -0.00000000000E+00 -0.00000000000E+00 -0.13165347930E+03  0.13165347930E+03  0.00000000000E+00 0.  1.
         23    2    1    2    0    0 -0.19083154682E+03  0.23472230657E+03  0.18027914744E+04  0.18303434523E+04  0.92675847410E+02 0.  0.
    5000000    2    1    2    0    0  0.19083154682E+03 -0.23472230657E+03  0.83993155406E+03  0.10756865348E+04  0.60008771451E+03 0.  0.
         23    2    4    4    0    0  0.22698841757E+03  0.13006748573E+03  0.23956256722E+03  0.36632086847E+03  0.91430096291E+02 0.  0.
         23    2    4    4    0    0 -0.36156870757E+02 -0.36478979231E+03  0.60036898685E+03  0.70936566630E+03  0.91530411786E+02 0.  0.
          4    1    3    3  502    0 -0.13801709186E+03  0.22287157645E+03  0.14754608478E+04  0.14985677064E+04  0.00000000000E+00 0. -1.
         -4    1    3    3    0  502 -0.52814454958E+02  0.11850730127E+02  0.32733062660E+03  0.33177574590E+03  0.00000000000E+00 0.  1.
         13    1    5    5    0    0  0.20301283140E+03  0.83767497069E+02  0.21936383959E+03  0.31040569807E+03  0.00000000000E+00 0.  1.
        -13    1    5    5    0    0  0.23975586175E+02  0.46299988665E+02  0.20198727632E+02  0.55915170400E+02  0.00000000000E+00 0. -1.
          5    1    6    6  503    0 -0.28946659403E+02 -0.27219796630E+03  0.51443670755E+03  0.58274939555E+03  0.47000000000E+01 0. -1.
         -5    1    6    6    0  503 -0.72102113539E+01 -0.92591826010E+02  0.85932279300E+02  0.12661627075E+03  0.47000000000E+01 0.  1.
<mgrwt>
<rscale>  0 0.47739656E+03</rscale>
<asrwt>0</asrwt>
<pdfrwt beam="1">  1        2 0.42682711E+00 0.47739656E+03</pdfrwt>
<pdfrwt beam="2">  1       -2 0.20254384E-01 0.47739656E+03</pdfrwt>
<totfact> 0.54963465E+01</totfact>
</mgrwt>
</event>
<event>
12    1  0.3166324E-008  0.8267486E+03  0.7818608E-02  0.9522087E-01
         -2   -1    0    0    0  501 -0.00000000000E+00  0.00000000000E+00  0.40213273411E+03  0.40213273411E+03  0.00000000000E+00 0.  1.
          2   -1    0    0  501    0  0.00000000000E+00 -0.00000000000E+00 -0.25234294005E+04  0.25234294005E+04  0.00000000000E+00 0. -1.
         23    2    1    2    0    0  0.62841231559E+03  0.39601740970E+03 -0.17460200019E+04  0.18996477010E+04  0.91343930796E+02 0.  0.
    5000000    2    1    2    0    0 -0.62841231559E+03 -0.39601740970E+03 -0.37527666453E+03  0.10259144336E+04  0.59994668350E+03 0.  0.
         23    2    4    4    0    0  0.71606303595E+02 -0.13263137966E+03  0.14796003058E+02  0.17685468230E+03  0.91324210151E+02 0.  0.
         23    2    4    4    0    0 -0.70001861918E+03 -0.26338603004E+03 -0.39007266758E+03  0.84905975134E+03  0.96682507883E+02 0.  0.
          4    1    3    3  502    0  0.36702147186E+03  0.23038754771E+03 -0.11307671829E+04  0.12109573093E+04  0.00000000000E+00 0. -1.
         -4    1    3    3    0  502  0.26139084372E+03  0.16562986200E+03 -0.61525281896E+03  0.68869039169E+03  0.00000000000E+00 0.  1.
         11    1    5    5    0    0  0.56030391499E+02 -0.58685685817E+02 -0.32832287798E+02  0.87529272894E+02  0.00000000000E+00 0.  1.
        -11    1    5    5    0    0  0.15575912096E+02 -0.73945693844E+02  0.47628290856E+02  0.89325409406E+02  0.00000000000E+00 0. -1.
          5    1    6    6  503    0 -0.65166288355E+03 -0.26915968953E+03 -0.36886671168E+03  0.79573625860E+03  0.47000000000E+01 0. -1.
         -5    1    6    6    0  503 -0.48355735633E+02  0.57736594892E+01 -0.21205955903E+02  0.53323492742E+02  0.47000000000E+01 0.  1.
<mgrwt>
<rscale>  0 0.82674860E+03</rscale>
<asrwt>0</asrwt>
<pdfrwt beam="1">  1        2 0.38821991E+00 0.82674860E+03</pdfrwt>
<pdfrwt beam="2">  1       -2 0.61866574E-01 0.82674860E+03</pdfrwt>
<totfact> 0.84877094E+00</totfact>
</mgrwt>
</event>
<event>
12    1  0.3166324E-008  0.1147926E+04  0.7818608E-02  0.9159699E-01
          1   -1    0    0  501    0  0.00000000000E+00  0.00000000000E+00  0.13180173663E+04  0.13180173663E+04  0.00000000000E+00 0. -1.
         -1   -1    0    0    0  501 -0.00000000000E+00 -0.00000000000E+00 -0.11643277973E+04  0.11643277973E+04  0.00000000000E+00 0.  1.
         23    2    1    2    0    0 -0.82063290421E+03  0.78629645324E+03  0.32499038397E+03  0.11857095586E+04  0.92671094805E+02 0.  0.
    5000000    2    1    2    0    0  0.82063290421E+03 -0.78629645324E+03 -0.17130081494E+03  0.12966356050E+04  0.60018284482E+03 0.  0.
         23    2    4    4    0    0  0.26754870558E+03 -0.16699769367E+03 -0.30851131614E+03  0.44947992674E+03  0.85921084743E+02 0.  0.
         23    2    4    4    0    0  0.55308419862E+03 -0.61929875956E+03  0.13721050121E+03  0.84715567830E+03  0.97020293042E+02 0.  0.
          3    1    3    3  502    0 -0.52968067433E+03  0.53071988393E+03  0.17178792016E+03  0.76924398046E+03  0.00000000000E+00 0. -1.
         -3    1    3    3    0  502 -0.29095222987E+03  0.25557656931E+03  0.15320246382E+03  0.41646557813E+03  0.00000000000E+00 0.  1.
         11    1    5    5    0    0  0.11260577003E+03 -0.29337205918E+02 -0.81392085086E+02  0.14200493868E+03  0.00000000000E+00 0. -1.
        -11    1    5    5    0    0  0.15494293556E+03 -0.13766048776E+03 -0.22711923106E+03  0.30747498806E+03  0.00000000000E+00 0.  1.
          5    1    6    6  503    0  0.39015785982E+03 -0.37295488727E+03  0.10663452969E+03  0.55019225407E+03  0.47000000000E+01 0. -1.
         -5    1    6    6    0  503  0.16292633880E+03 -0.24634387229E+03  0.30575971514E+02  0.29696342422E+03  0.47000000000E+01 0.  1.
<mgrwt>
<rscale>  0 0.11479259E+04</rscale>
<asrwt>0</asrwt>
<pdfrwt beam="1">  1        1 0.20277190E+00 0.11479259E+04</pdfrwt>
<pdfrwt beam="2">  1       -1 0.17912735E+00 0.11479259E+04</pdfrwt>
<totfact> 0.18282959E+00</totfact>
</mgrwt>
</event>
<event>
12    1  0.3166324E-008  0.4658225E+03  0.7818608E-02  0.1023106E+00
          2   -1    0    0  501    0  0.00000000000E+00  0.00000000000E+00  0.60526898078E+03  0.60526898078E+03  0.00000000000E+00 0. -1.
         -2   -1    0    0    0  501 -0.00000000000E+00 -0.00000000000E+00 -0.67281544152E+03  0.67281544152E+03  0.00000000000E+00 0.  1.
         23    2    1    2    0    0  0.23638915336E+03 -0.18538070989E+03  0.36291078647E+03  0.48100031436E+03  0.97011463494E+02 0.  0.
    5000000    2    1    2    0    0 -0.23638915336E+03  0.18538070989E+03 -0.43045724722E+03  0.79708410794E+03  0.59983647273E+03 0.  0.
         23    2    4    4    0    0 -0.35337591892E+03 -0.50630942758E+02 -0.34610498296E+03  0.50555949386E+03  0.91453322326E+02 0.  0.
         23    2    4    4    0    0  0.11698676556E+03  0.23601165265E+03 -0.84352264259E+02  0.29152461408E+03  0.92108048670E+02 0.  0.
          3    1    3    3  502    0  0.12031586136E+03 -0.59542611002E+02  0.22125989585E+03  0.25879947939E+03  0.00000000000E+00 0.  1.
         -3    1    3    3    0  502  0.11607329200E+03 -0.12583809889E+03  0.14165089062E+03  0.22220083497E+03  0.00000000000E+00 0. -1.
         11    1    5    5    0    0 -0.27582163618E+03 -0.23408307056E+02 -0.21364660387E+03  0.34967183926E+03  0.00000000000E+00 0.  1.
        -11    1    5    5    0    0 -0.77554282733E+02 -0.27222635702E+02 -0.13245837909E+03  0.15588765460E+03  0.00000000000E+00 0. -1.
          5    1    6    6  503    0  0.97748624051E+02  0.15120534392E+03 -0.16007409324E+02  0.18082084141E+03  0.47000000000E+01 0. -1.
         -5    1    6    6    0  503  0.19238141506E+02  0.84806308725E+02 -0.68344854935E+02  0.11070377267E+03  0.47000000000E+01 0.  1.
<mgrwt>
<rscale>  0 0.46582247E+03</rscale>
<asrwt>0</asrwt>
<pdfrwt beam="1">  1        2 0.93118305E-01 0.46582247E+03</pdfrwt>
<pdfrwt beam="2">  1       -2 0.10351007E+00 0.46582247E+03</pdfrwt>
<totfact> 0.38845574E+01</totfact>
</mgrwt>
</event>
<event>
12    1  0.3166324E-008  0.6304849E+03  0.7818608E-02  0.9844103E-01
         -1   -1    0    0    0  501 -0.00000000000E+00  0.00000000000E+00  0.31631258432E+03  0.31631258432E+03  0.00000000000E+00 0.  1.
          1   -1    0    0  501    0  0.00000000000E+00 -0.00000000000E+00 -0.18936643782E+04  0.18936643782E+04  0.00000000000E+00 0. -1.
         23    2    1    2    0    0  0.16756046044E+03 -0.50344430025E+03 -0.12758950742E+03  0.55360218720E+03  0.93078611460E+02 0.  0.
    5000000    2    1    2    0    0 -0.16756046044E+03  0.50344430025E+03 -0.14497622865E+04  0.16563747754E+04  0.60019499977E+03 0.  0.
         23    2    4    4    0    0 -0.19667561315E+03 -0.18177212013E+02 -0.73425075404E+03  0.76582036463E+03  0.91350715518E+02 0.  0.
         23    2    4    4    0    0  0.29115152707E+02  0.52162151226E+03 -0.71551153247E+03  0.89055441074E+03  0.90519120785E+02 0.  0.
          3    1    3    3  502    0  0.13645483122E+03 -0.32094458730E+03 -0.11819341778E+03  0.36823230858E+03  0.00000000000E+00 0. -1.
         -3    1    3    3    0  502  0.31105629217E+02 -0.18249971295E+03 -0.93960896375E+01  0.18536987861E+03  0.00000000000E+00 0.  1.
         11    1    5    5    0    0 -0.97401468920E+02 -0.19641444875E+02 -0.21088988349E+03  0.23312523557E+03  0.00000000000E+00 0.  1.
        -11    1    5    5    0    0 -0.99274144227E+02  0.14642328619E+01 -0.52336087056E+03  0.53269512906E+03  0.00000000000E+00 0. -1.
          5    1    6    6  503    0 -0.17247001149E+02  0.35437782253E+03 -0.51382456993E+03  0.62443484753E+03  0.47000000000E+01 0. -1.
         -5    1    6    6    0  503  0.46362153856E+02  0.16724368973E+03 -0.20168696254E+03  0.26611956321E+03  0.47000000000E+01 0.  1.
<mgrwt>
<rscale>  0 0.63048490E+03</rscale>
<asrwt>0</asrwt>
<pdfrwt beam="1">  1        1 0.29133298E+00 0.63048490E+03</pdfrwt>
<pdfrwt beam="2">  1       -1 0.48663475E-01 0.63048490E+03</pdfrwt>
<totfact> 0.15782937E+01</totfact>
</mgrwt>
</event>
<event>
12    1  0.3166324E-008  0.1590471E+04  0.7818608E-02  0.8826424E-01
          2   -1    0    0  501    0  0.00000000000E+00  0.00000000000E+00  0.46273777750E+04  0.46273777750E+04  0.00000000000E+00 0.  1.
         -2   -1    0    0    0  501 -0.00000000000E+00 -0.00000000000E+00 -0.56644767983E+03  0.56644767983E+03  0.00000000000E+00 0. -1.
         23    2    1    2    0    0 -0.14556550697E+04 -0.56666130000E+03  0.19432274465E+04  0.24948120596E+04  0.88980857354E+02 0.  0.
    5000000    2    1    2    0    0  0.14556550697E+04  0.56666130000E+03  0.21177026487E+04  0.26990133952E+04  0.59997674005E+03 0.  0.
         23    2    4    4    0    0  0.10210736692E+01  0.61047999337E+02  0.27949957984E+03  0.29919656083E+03  0.87582338781E+02 0.  0.
         23    2    4    4    0    0  0.14546339960E+04  0.50561330066E+03  0.18382030688E+04  0.23998168344E+04  0.92333332125E+02 0.  0.
          1    1    3    3  502    0 -0.89815006317E+03 -0.31499265630E+03  0.12289804314E+04  0.15544409960E+04  0.00000000000E+00 0. -1.
         -1    1    3    3    0  502 -0.55750500654E+03 -0.25166864369E+03  0.71424701512E+03  0.94037106354E+03  0.00000000000E+00 0.  1.
         11    1    5    5    0    0 -0.64873717787E+01  0.65984083088E+02  0.10316770343E+03  0.12263588481E+03  0.00000000000E+00 0. -1.
        -11    1    5    5    0    0  0.75084454479E+01 -0.49360837502E+01  0.17633187641E+03  0.17656067601E+03  0.00000000000E+00 0.  1.
          5    1    6    6  503    0  0.14212272208E+04  0.50549929500E+03  0.18069615204E+04  0.23538369478E+04  0.47000000000E+01 0. -1.
         -5    1    6    6    0  503  0.33406775218E+02  0.11400566155E+00  0.31241548434E+02  0.45979886650E+02  0.47000000000E+01 0.  1.
<mgrwt>
<rscale>  0 0.15904706E+04</rscale>
<asrwt>0</asrwt>
<pdfrwt beam="1">  1        2 0.71190425E+00 0.15904706E+04</pdfrwt>
<pdfrwt beam="2">  1       -2 0.87145800E-01 0.15904706E+04</pdfrwt>
<totfact> 0.10150850E-01</totfact>
</mgrwt>
</event>
<event>
12    1  0.3166324E-008  0.8235420E+03  0.7818608E-02  0.9526553E-01
          2   -1    0    0  501    0  0.00000000000E+00  0.00000000000E+00  0.32246871477E+04  0.32246871477E+04  0.00000000000E+00 0.  1.
         -2   -1    0    0    0  501 -0.00000000000E+00 -0.00000000000E+00 -0.32122594783E+03  0.32122594783E+03  0.00000000000E+00 0. -1.
         23    2    1    2    0    0 -0.78897420085E+03 -0.57137675057E+02  0.48583949073E+03  0.93235393798E+03  0.86595908702E+02 0.  0.
    5000000    2    1    2    0    0  0.78897420085E+03  0.57137675057E+02  0.24176217091E+04  0.26135591576E+04  0.60004311347E+03 0.  0.
         23    2    4    4    0    0  0.30916106534E+03 -0.11911019693E+03  0.38780833417E+03  0.51837738530E+03  0.92477057701E+02 0.  0.
         23    2    4    4    0    0  0.47981313551E+03  0.17624787199E+03  0.20298133750E+04  0.20951817723E+04  0.91435027215E+02 0.  0.
          3    1    3    3  502    0 -0.29629866330E+03 -0.63120942782E+02  0.17757858931E+03  0.35115709685E+03  0.00000000000E+00 0. -1.
         -3    1    3    3    0  502 -0.49267553755E+03  0.59832677249E+01  0.30826090142E+03  0.58119684113E+03  0.00000000000E+00 0.  1.
         11    1    5    5    0    0  0.13879321498E+03 -0.80629997716E+02  0.12792162780E+03  0.20525276104E+03  0.00000000000E+00 0. -1.
        -11    1    5    5    0    0  0.17036785036E+03 -0.38480199219E+02  0.25988670637E+03  0.31312462425E+03  0.00000000000E+00 0.  1.
          5    1    6    6  503    0  0.10177355738E+02  0.16931113016E+02  0.13597059513E+03  0.13747848522E+03  0.47000000000E+01 0. -1.
         -5    1    6    6    0  503  0.46963577977E+03  0.15931675898E+03  0.18938427799E+04  0.19577032870E+04  0.47000000000E+01 0.  1.
<mgrwt>
<rscale>  0 0.82354199E+03</rscale>
<asrwt>0</asrwt>
<pdfrwt beam="1">  1        2 0.49610569E+00 0.82354199E+03</pdfrwt>
<pdfrwt beam="2">  1       -2 0.49419379E-01 0.82354199E+03</pdfrwt>
<totfact> 0.51271477E+00</totfact>
</mgrwt>
</event>
<event>
12    1  0.3166324E-008  0.5408414E+03  0.7818608E-02  0.1003636E+00
         -2   -1    0    0    0  501 -0.00000000000E+00  0.00000000000E+00  0.23092035098E+03  0.23092035098E+03  0.00000000000E+00 0.  1.
          2   -1    0    0  501    0  0.00000000000E+00 -0.00000000000E+00 -0.17052010716E+04  0.17052010716E+04  0.00000000000E+00 0. -1.
         23    2    1    2    0    0  0.28267472501E+03 -0.35019742250E+03 -0.82634273781E+03  0.94498301450E+03  0.87220080722E+02 0.  0.
    5000000    2    1    2    0    0 -0.28267472501E+03  0.35019742250E+03 -0.64793798281E+03  0.99113840808E+03  0.59999039951E+03 0.  0.
         23    2    4    4    0    0 -0.24297845866E+03 -0.10686580434E+02 -0.54321344882E+03  0.60201713246E+03  0.90504377919E+02 0.  0.
         23    2    4    4    0    0 -0.39696266346E+02  0.36088400293E+03 -0.10472453400E+03  0.38912127562E+03  0.92925141835E+02 0.  0.
          2    1    3    3  502    0  0.12328692716E+03 -0.87761711653E+02 -0.26676126871E+03  0.30669750394E+03  0.00000000000E+00 0. -1.
         -2    1    3    3    0  502  0.15938779785E+03 -0.26243571084E+03 -0.55958146910E+03  0.63828551056E+03  0.00000000000E+00 0.  1.
         13    1    5    5    0    0 -0.16175391345E+03  0.36129559923E+02 -0.34369613781E+03  0.38157136784E+03  0.00000000000E+00 0. -1.
        -13    1    5    5    0    0 -0.81224545217E+02 -0.46816140357E+02 -0.19951731101E+03  0.22044576461E+03  0.00000000000E+00 0.  1.
          5    1    6    6  503    0 -0.39178387622E+02  0.27702173870E+03 -0.11873161427E+03  0.30396591255E+03  0.47000000000E+01 0.  1.
         -5    1    6    6    0  503 -0.51787872393E+00  0.83862264235E+02  0.14007080274E+02  0.85155363065E+02  0.47000000000E+01 0.  1.
<mgrwt>
<rscale>  0 0.54084135E+03</rscale>
<asrwt>0</asrwt>
<pdfrwt beam="1">  1        2 0.26233862E+00 0.54084135E+03</pdfrwt>
<pdfrwt beam="2">  1       -2 0.35526208E-01 0.54084135E+03</pdfrwt>
<totfact> 0.76070707E+01</totfact>
</mgrwt>
</event>
<event>
12    1  0.3166324E-008  0.7175716E+03  0.7818608E-02  0.9687646E-01
         -1   -1    0    0    0  501 -0.00000000000E+00  0.00000000000E+00  0.59642513793E+03  0.59642513793E+03  0.00000000000E+00 0.  1.
          1   -1    0    0  501    0  0.00000000000E+00 -0.00000000000E+00 -0.91984821276E+03  0.91984821276E+03  0.00000000000E+00 0. -1.
         23    2    1    2    0    0 -0.44721956767E+03  0.42307870674E+03 -0.14230034375E+03  0.63818308196E+03  0.89595337310E+02 0.  0.
    5000000    2    1    2    0    0  0.44721956767E+03 -0.42307870674E+03 -0.18112273108E+03  0.87809026873E+03  0.59936311408E+03 0.  0.
         23    2    4    4    0    0 -0.83230119117E+02 -0.22365678716E+03 -0.16403853872E+03  0.30356408541E+03  0.91065364437E+02 0.  0.
         23    2    4    4    0    0  0.53044968679E+03 -0.19942191959E+03 -0.17084192365E+02  0.57452618332E+03  0.92965012042E+02 0.  0.
          2    1    3    3  502    0 -0.32603408235E+03  0.25144987682E+03 -0.85134403641E+02  0.42044396784E+03  0.00000000000E+00 0. -1.
         -2    1    3    3    0  502 -0.12118548532E+03  0.17162882992E+03 -0.57165940104E+02  0.21773911412E+03  0.00000000000E+00 0.  1.
         11    1    5    5    0    0 -0.19324168388E+02 -0.13765880337E+03 -0.13209292528E+03  0.19176003373E+03  0.00000000000E+00 0. -1.
        -11    1    5    5    0    0 -0.63905950729E+02 -0.85997983791E+02 -0.31945613435E+02  0.11180405168E+03  0.00000000000E+00 0.  1.
          5    1    6    6  503    0  0.67724490418E+02 -0.32006468564E+02  0.28576311233E+02  0.80310125115E+02  0.47000000000E+01 0. -1.
         -5    1    6    6    0  503  0.46272519637E+03 -0.16741545102E+03 -0.45660503598E+02  0.49421605820E+03  0.47000000000E+01 0.  1.
<mgrwt>
<rscale>  0 0.71757158E+03</rscale>
<asrwt>0</asrwt>
<pdfrwt beam="1">  1        1 0.14151511E+00 0.71757158E+03</pdfrwt>
<pdfrwt beam="2">  1       -1 0.91757714E-01 0.71757158E+03</pdfrwt>
<totfact> 0.20939733E+01</totfact>
</mgrwt>
</event>
<event>
12    1  0.3166324E-008  0.5419323E+03  0.7818608E-02  0.1003379E+00
          2   -1    0    0  501    0  0.00000000000E+00  0.00000000000E+00  0.27205120372E+04  0.27205120372E+04  0.00000000000E+00 0. -1.
         -2   -1    0    0    0  501 -0.00000000000E+00 -0.00000000000E+00 -0.12638945640E+03  0.12638945640E+03  0.00000000000E+00 0.  1.
         23    2    1    2    0    0  0.47321195006E+02  0.40991029337E+03  0.12308102579E+04  0.13012918849E+04  0.90559012572E+02 0.  0.
    5000000    2    1    2    0    0 -0.47321195006E+02 -0.40991029337E+03  0.13633123229E+04  0.15456096087E+04  0.60001902344E+03 0.  0.
         23    2    4    4    0    0 -0.76432807767E+02  0.10427681486E+03  0.13437918330E+03  0.21004000544E+03  0.96661319865E+02 0.  0.
         23    2    4    4    0    0  0.29111612761E+02 -0.51418710823E+03  0.12289331396E+04  0.13355696032E+04  0.90739380507E+02 0.  0.
          3    1    3    3  502    0  0.73489776829E+02  0.25765161912E+03  0.78866606922E+03  0.83293413477E+03  0.00000000000E+00 0. -1.
         -3    1    3    3    0  502 -0.26168581823E+02  0.15225867425E+03  0.44214418865E+03  0.46835775014E+03  0.00000000000E+00 0.  1.
         11    1    5    5    0    0 -0.56462982477E+01  0.51482080991E+02  0.10482174717E+03  0.11691827926E+03  0.00000000000E+00 0.  1.
        -11    1    5    5    0    0 -0.70786509520E+02  0.52794733868E+02  0.29557436135E+02  0.93121726171E+02  0.00000000000E+00 0. -1.
          5    1    6    6  503    0 -0.28169586481E+02 -0.18180601594E+03  0.38509735669E+03  0.42681262536E+03  0.47000000000E+01 0. -1.
         -5    1    6    6    0  503  0.57281199243E+02 -0.33238109229E+03  0.84383578292E+03  0.90875697788E+03  0.47000000000E+01 0.  1.
<mgrwt>
<rscale>  0 0.54193232E+03</rscale>
<asrwt>0</asrwt>
<pdfrwt beam="1">  1        2 0.41854027E+00 0.54193232E+03</pdfrwt>
<pdfrwt beam="2">  1       -2 0.19444534E-01 0.54193232E+03</pdfrwt>
<totfact> 0.62570447E+01</totfact>
</mgrwt>
</event>
<event>
12    1  0.3166324E-008  0.1381539E+04  0.7818608E-02  0.8967291E-01
         -2   -1    0    0    0  501 -0.00000000000E+00  0.00000000000E+00  0.69872823238E+03  0.69872823238E+03  0.00000000000E+00 0.  1.
          2   -1    0    0  501    0  0.00000000000E+00 -0.00000000000E+00 -0.38307220642E+04  0.38307220642E+04  0.00000000000E+00 0. -1.
         23    2    1    2    0    0  0.12563888425E+03 -0.13255289745E+04 -0.33883941887E+03  0.13775382180E+04  0.99935974053E+02 0.  0.
    5000000    2    1    2    0    0 -0.12563888425E+03  0.13255289745E+04 -0.27931544129E+04  0.31519120785E+04  0.60002165364E+03 0.  0.
         23    2    4    4    0    0 -0.15202190497E+01  0.13009634051E+04 -0.25176955435E+04  0.28353429858E+04  0.88718121027E+02 0.  0.
         23    2    4    4    0    0 -0.12411866520E+03  0.24565569435E+02 -0.27545886941E+03  0.31656909271E+03  0.91266047739E+02 0.  0.
          4    1    3    3  502    0  0.46335659359E+02 -0.83020132859E+03 -0.24850079495E+03  0.86783286663E+03  0.00000000000E+00 0. -1.
         -4    1    3    3    0  502  0.79303224889E+02 -0.49532764590E+03 -0.90338623917E+02  0.50970535140E+03  0.00000000000E+00 0.  1.
         13    1    5    5    0    0 -0.32053166942E+02  0.42666031053E+03 -0.88693040577E+03  0.98473954464E+03  0.00000000000E+00 0. -1.
        -13    1    5    5    0    0  0.30532947893E+02  0.87430309452E+03 -0.16307651377E+04  0.18506034411E+04  0.00000000000E+00 0.  1.
          5    1    6    6  503    0 -0.65902570154E+02  0.17994841986E+02 -0.23610973819E+03  0.24583909689E+03  0.47000000000E+01 0. -1.
         -5    1    6    6    0  503 -0.58216095044E+02  0.65707274488E+01 -0.39349131228E+02  0.70729995828E+02  0.47000000000E+01 0.  1.
<mgrwt>
<rscale>  0 0.13815393E+04</rscale>
<asrwt>0</asrwt>
<pdfrwt beam="1">  1        2 0.58934186E+00 0.13815393E+04</pdfrwt>
<pdfrwt beam="2">  1       -2 0.10749665E+00 0.13815393E+04</pdfrwt>
<totfact> 0.31699517E-01</totfact>
</mgrwt>
</event>
<event>
12    1  0.3166324E-008  0.1483596E+04  0.7818608E-02  0.8895435E-01
         -2   -1    0    0    0  501 -0.00000000000E+00  0.00000000000E+00  0.83139785216E+03  0.83139785216E+03  0.00000000000E+00 0.  1.
          2   -1    0    0  501    0  0.00000000000E+00 -0.00000000000E+00 -0.29818246388E+04  0.29818246388E+04  0.00000000000E+00 0. -1.
         23    2    1    2    0    0  0.14888319909E+03  0.14674819776E+04 -0.61325274901E+03  0.16000090440E+04  0.90996950174E+02 0.  0.
    5000000    2    1    2    0    0 -0.14888319909E+03 -0.14674819776E+04 -0.15371740376E+04  0.22132134470E+04  0.59978344284E+03 0.  0.
         23    2    4    4    0    0  0.21386911547E+02 -0.61858612436E+03 -0.28345046595E+03  0.68682295358E+03  0.90969278784E+02 0.  0.
         23    2    4    4    0    0 -0.17027011064E+03 -0.84889585328E+03 -0.12537235717E+04  0.15263904934E+04  0.91809933498E+02 0.  0.
          1    1    3    3  502    0  0.44755567627E+01  0.30417445624E+03 -0.98760540740E+02  0.31983710673E+03  0.00000000000E+00 0. -1.
         -1    1    3    3    0  502  0.14440764233E+03  0.11633075214E+04 -0.51449220827E+03  0.12801719372E+04  0.00000000000E+00 0.  1.
         13    1    5    5    0    0 -0.21435368444E+01 -0.43715530981E+03 -0.15731451130E+03  0.46460436406E+03  0.00000000000E+00 0.  1.
        -13    1    5    5    0    0  0.23530448391E+02 -0.18143081455E+03 -0.12613595465E+03  0.22221858952E+03  0.00000000000E+00 0. -1.
          5    1    6    6  503    0 -0.45428579077E+02 -0.45782057686E+03 -0.65740695278E+03  0.80241474809E+03  0.47000000000E+01 0. -1.
         -5    1    6    6    0  503 -0.12484153156E+03 -0.39107527643E+03 -0.59631661890E+03  0.72397574532E+03  0.47000000000E+01 0.  1.
<mgrwt>
<rscale>  0 0.14835964E+04</rscale>
<asrwt>0</asrwt>
<pdfrwt beam="1">  1        2 0.45874225E+00 0.14835964E+04</pdfrwt>
<pdfrwt beam="2">  1       -2 0.12790736E+00 0.14835964E+04</pdfrwt>
<totfact> 0.77063848E-01</totfact>
</mgrwt>
</event>
<event>
12    1  0.3166324E-008  0.9122869E+03  0.7818608E-02  0.9410351E-01
          2   -1    0    0  501    0  0.00000000000E+00  0.00000000000E+00  0.54118566789E+04  0.54118566789E+04  0.00000000000E+00 0.  1.
         -2   -1    0    0    0  501 -0.00000000000E+00 -0.00000000000E+00 -0.34453700755E+03  0.34453700755E+03  0.00000000000E+00 0. -1.
         23    2    1    2    0    0  0.48196195523E+03 -0.69150066028E+03  0.33378501199E+03  0.91108990476E+03  0.90619483939E+02 0.  0.
    5000000    2    1    2    0    0 -0.48196195523E+03  0.69150066028E+03  0.47335346593E+04  0.48453037817E+04  0.60013154896E+03 0.  0.
         23    2    4    4    0    0 -0.20824814905E+03 -0.10660778256E+02  0.58569022277E+03  0.62859858748E+03  0.92855820270E+02 0.  0.
         23    2    4    4    0    0 -0.27371380618E+03  0.70216143854E+03  0.41478444365E+04  0.42167051942E+04  0.89662095020E+02 0.  0.
          2    1    3    3  502    0  0.39262679760E+03 -0.55988045062E+03  0.30779469505E+03  0.74990632447E+03  0.00000000000E+00 0. -1.
         -2    1    3    3    0  502  0.89335157632E+02 -0.13162020967E+03  0.25990316936E+02  0.16118358030E+03  0.00000000000E+00 0.  1.
         13    1    5    5    0    0 -0.35570790319E+02 -0.38182155820E+02  0.16367708102E+03  0.17179448477E+03  0.00000000000E+00 0. -1.
        -13    1    5    5    0    0 -0.17267735873E+03  0.27521377564E+02  0.42201314175E+03  0.45680410271E+03  0.00000000000E+00 0.  1.
          5    1    6    6  503    0 -0.14826483760E+03  0.43114862150E+03  0.27207648283E+04  0.27587053009E+04  0.47000000000E+01 0. -1.
         -5    1    6    6    0  503 -0.12544896858E+03  0.27101281704E+03  0.14270796082E+04  0.14579998933E+04  0.47000000000E+01 0.  1.
<mgrwt>
<rscale>  0 0.91228686E+03</rscale>
<asrwt>0</asrwt>
<pdfrwt beam="1">  1        2 0.83259327E+00 0.91228686E+03</pdfrwt>
<pdfrwt beam="2">  1       -2 0.53005697E-01 0.91228686E+03</pdfrwt>
<totfact> 0.33577457E-02</totfact>
</mgrwt>
</event>
<event>
12    1  0.3166324E-008  0.9679917E+03  0.7818608E-02  0.9344365E-01
         -2   -1    0    0    0  501 -0.00000000000E+00  0.00000000000E+00  0.17385429956E+04  0.17385429956E+04  0.00000000000E+00 0.  1.
          2   -1    0    0  501    0  0.00000000000E+00 -0.00000000000E+00 -0.54907973767E+03  0.54907973767E+03  0.00000000000E+00 0. -1.
         23    2    1    2    0    0 -0.31653239887E+03 -0.82081446374E+03  0.61826140497E+03  0.10791293979E+04  0.91345218864E+02 0.  0.
    5000000    2    1    2    0    0  0.31653239887E+03  0.82081446374E+03  0.57120185295E+03  0.12084933354E+04  0.60021283016E+03 0.  0.
         23    2    4    4    0    0  0.22686286939E+03  0.10590535049E+02  0.14023853566E+03  0.28204001611E+03  0.91108741961E+02 0.  0.
         23    2    4    4    0    0  0.89669529478E+02  0.81022392869E+03  0.43096331729E+03  0.92645331930E+03  0.89905132480E+02 0.  0.
          2    1    3    3  502    0 -0.16435583183E+03 -0.54639771268E+03  0.39136583444E+03  0.69190354548E+03  0.00000000000E+00 0.  1.
         -2    1    3    3    0  502 -0.15217656704E+03 -0.27441675106E+03  0.22689557053E+03  0.38722585237E+03  0.00000000000E+00 0. -1.
         13    1    5    5    0    0  0.96330873644E+02  0.28120822888E+02  0.17217681091E+02  0.10181781003E+03  0.00000000000E+00 0. -1.
        -13    1    5    5    0    0  0.13053199574E+03 -0.17530287839E+02  0.12302085457E+03  0.18022220608E+03  0.00000000000E+00 0.  1.
          5    1    6    6  503    0 -0.12886784801E+01  0.36904386798E+03  0.21104845844E+03  0.42515712272E+03  0.47000000000E+01 0. -1.
         -5    1    6    6    0  503  0.90958207958E+02  0.44118006071E+03  0.21991485885E+03  0.50129619658E+03  0.47000000000E+01 0.  1.
<mgrwt>
<rscale>  0 0.96799168E+03</rscale>
<asrwt>0</asrwt>
<pdfrwt beam="1">  1        2 0.84473807E-01 0.96799168E+03</pdfrwt>
<pdfrwt beam="2">  1       -2 0.26746815E+00 0.96799168E+03</pdfrwt>
<totfact> 0.27852467E+00</totfact>
</mgrwt>
</event>
<event>
12    1  0.3166324E-008  0.1462560E+04  0.7818608E-02  0.8909739E-01
          1   -1    0    0  501    0  0.00000000000E+00  0.00000000000E+00  0.18881061940E+04  0.18881061940E+04  0.00000000000E+00 0. -1.
         -1   -1    0    0    0  501 -0.00000000000E+00 -0.00000000000E+00 -0.23940555251E+04  0.23940555251E+04  0.00000000000E+00 0.  1.
         23    2    1    2    0    0 -0.12827902551E+04 -0.64791877604E+03 -0.17661007825E+04  0.22788491275E+04  0.93229784997E+02 0.  0.
    5000000    2    1    2    0    0  0.12827902551E+04  0.64791877604E+03  0.12601514514E+04  0.20033125916E+04  0.59994173080E+03 0.  0.
         23    2    4    4    0    0  0.31276702695E+02  0.66218794810E+02  0.29086933545E+03  0.31418662276E+03  0.93515253832E+02 0.  0.
         23    2    4    4    0    0  0.12515135524E+04  0.58169998123E+03  0.96928211593E+03  0.16891259689E+04  0.94750611317E+02 0.  0.
          1    1    3    3  502    0 -0.14358127858E+03 -0.49965407465E+02 -0.15582578892E+03  0.21770117591E+03  0.00000000000E+00 0. -1.
         -1    1    3    3    0  502 -0.11392089765E+04 -0.59795336857E+03 -0.16102749936E+04  0.20611479516E+04  0.00000000000E+00 0.  1.
         13    1    5    5    0    0 -0.14862672535E+02 -0.76749213301E+01  0.86576339568E+01  0.18835022645E+02  0.00000000000E+00 0.  1.
        -13    1    5    5    0    0  0.46139375230E+02  0.73893716140E+02  0.28221170150E+03  0.29535160012E+03  0.00000000000E+00 0. -1.
          5    1    6    6  503    0  0.10023154972E+04  0.50174610620E+03  0.80646084765E+03  0.13808644756E+04  0.47000000000E+01 0. -1.
         -5    1    6    6    0  503  0.24919805520E+03  0.79953875023E+02  0.16282126828E+03  0.30826149330E+03  0.47000000000E+01 0.  1.
<mgrwt>
<rscale>  0 0.14625601E+04</rscale>
<asrwt>0</asrwt>
<pdfrwt beam="1">  1        1 0.29047788E+00 0.14625601E+04</pdfrwt>
<pdfrwt beam="2">  1       -1 0.36831624E+00 0.14625601E+04</pdfrwt>
<totfact> 0.39535740E-02</totfact>
</mgrwt>
</event>
<event>
12    1  0.3166324E-008  0.1098936E+04  0.7818608E-02  0.9206229E-01
          1   -1    0    0  501    0  0.00000000000E+00  0.00000000000E+00  0.15075205200E+04  0.15075205200E+04  0.00000000000E+00 0. -1.
         -1   -1    0    0    0  501 -0.00000000000E+00 -0.00000000000E+00 -0.85999589450E+03  0.85999589450E+03  0.00000000000E+00 0.  1.
         23    2    1    2    0    0  0.71931154638E+03 -0.77074455280E+03  0.38682224822E+03  0.11268207825E+04  0.92937385490E+02 0.  0.
    5000000    2    1    2    0    0 -0.71931154638E+03  0.77074455280E+03  0.26070237729E+03  0.12406956321E+04  0.59991970752E+03 0.  0.
         23    2    4    4    0    0 -0.62950232511E+03  0.37563361075E+03 -0.20682542101E+02  0.73899082426E+03  0.91136622477E+02 0.  0.
         23    2    4    4    0    0 -0.89809221270E+02  0.39511094205E+03  0.28138491939E+03  0.50170480780E+03  0.91388667524E+02 0.  0.
          3    1    3    3  502    0  0.43601793003E+03 -0.41143777623E+03  0.24694054028E+03  0.64836124919E+03  0.00000000000E+00 0. -1.
         -3    1    3    3    0  502  0.28329361635E+03 -0.35930677657E+03  0.13988170794E+03  0.47845953326E+03  0.00000000000E+00 0.  1.
         11    1    5    5    0    0 -0.36855166933E+03  0.22402780087E+03  0.32600676876E+02  0.43252929688E+03  0.00000000000E+00 0.  1.
        -11    1    5    5    0    0 -0.26095065578E+03  0.15160580988E+03 -0.53283218978E+02  0.30646152738E+03  0.00000000000E+00 0. -1.
          5    1    6    6  503    0 -0.22535223381E+02  0.19945439086E+03  0.18651512118E+03  0.27404355631E+03  0.47000000000E+01 0.  1.
         -5    1    6    6    0  503 -0.67273997889E+02  0.19565655120E+03  0.94869798215E+02  0.22766125149E+03  0.47000000000E+01 0.  1.
<mgrwt>
<rscale>  0 0.10989363E+04</rscale>
<asrwt>0</asrwt>
<pdfrwt beam="1">  1        1 0.23192623E+00 0.10989363E+04</pdfrwt>
<pdfrwt beam="2">  1       -1 0.13230706E+00 0.10989363E+04</pdfrwt>
<totfact> 0.31135848E+00</totfact>
</mgrwt>
</event>
<event>
12    1  0.3166324E-008  0.6118932E+03  0.7818608E-02  0.9881034E-01
         -2   -1    0    0    0  501 -0.00000000000E+00  0.00000000000E+00  0.46217560403E+03  0.46217560403E+03  0.00000000000E+00 0.  1.
          2   -1    0    0  501    0  0.00000000000E+00 -0.00000000000E+00 -0.23071829605E+04  0.23071829605E+04  0.00000000000E+00 0. -1.
         23    2    1    2    0    0  0.56749042592E+03  0.50080626360E+02  0.16131252010E+03  0.59927942675E+03  0.92523778202E+02 0.  0.
    5000000    2    1    2    0    0 -0.56749042592E+03 -0.50080626360E+02 -0.20063198766E+04  0.21700791378E+04  0.59947524090E+03 0.  0.
         23    2    4    4    0    0 -0.45546325528E+03 -0.14188793027E+03 -0.19165654321E+04  0.19771179358E+04  0.90516932549E+02 0.  0.
         23    2    4    4    0    0 -0.11202717064E+03  0.91807303910E+02 -0.89754444486E+02  0.19296120194E+03  0.90551074743E+02 0.  0.
          1    1    3    3  502    0  0.16311534614E+03 -0.10563685643E+01  0.87326282034E+02  0.18502327311E+03  0.00000000000E+00 0. -1.
         -1    1    3    3    0  502  0.40437507978E+03  0.51136994924E+02  0.73986238070E+02  0.41425615363E+03  0.00000000000E+00 0.  1.
         11    1    5    5    0    0 -0.22229255594E+03 -0.11341816246E+03 -0.92046149922E+03  0.95369126637E+03  0.00000000000E+00 0.  1.
        -11    1    5    5    0    0 -0.23317069934E+03 -0.28469767814E+02 -0.99610393285E+03  0.10234266695E+04  0.00000000000E+00 0. -1.
          5    1    6    6  503    0 -0.10823557741E+03  0.10699773216E+03 -0.89477952904E+02  0.17661214273E+03  0.47000000000E+01 0. -1.
         -5    1    6    6    0  503 -0.37915932336E+01 -0.15190428247E+02 -0.27649158241E+00  0.16349059214E+02  0.47000000000E+01 0.  1.
<mgrwt>
<rscale>  0 0.61189319E+03</rscale>
<asrwt>0</asrwt>
<pdfrwt beam="1">  1        2 0.35495122E+00 0.61189319E+03</pdfrwt>
<pdfrwt beam="2">  1       -2 0.71103939E-01 0.61189319E+03</pdfrwt>
<totfact> 0.86336500E+00</totfact>
</mgrwt>
</event>
<event>
12    1  0.3166324E-008  0.2766112E+03  0.7818608E-02  0.1097554E+00
         -1   -1    0    0    0  501 -0.00000000000E+00  0.00000000000E+00  0.24130650453E+03  0.24130650453E+03  0.00000000000E+00 0.  1.
          1   -1    0    0  501    0  0.00000000000E+00 -0.00000000000E+00 -0.68364157555E+03  0.68364157555E+03  0.00000000000E+00 0. -1.
         23    2    1    2    0    0 -0.62844450350E+02 -0.60142301045E+02 -0.26554664719E+03  0.29152897247E+03  0.83111964487E+02 0.  0.
    5000000    2    1    2    0    0  0.62844450350E+02  0.60142301045E+02 -0.17678842383E+03  0.63341910760E+03  0.60199592836E+03 0.  0.
         23    2    4    4    0    0  0.24379899989E+03  0.81550216625E+02 -0.29150680161E+03  0.39952439773E+03  0.92493993408E+02 0.  0.
         23    2    4    4    0    0 -0.18095454954E+03 -0.21407915580E+02  0.11471837778E+03  0.23389470987E+03  0.91343205849E+02 0.  0.
          4    1    3    3  502    0 -0.50619180761E+02 -0.21572131698E+02 -0.23355217344E+03  0.23994640245E+03  0.00000000000E+00 0. -1.
         -4    1    3    3    0  502 -0.12225269590E+02 -0.38570169347E+02 -0.31994473748E+02  0.51582570025E+02  0.00000000000E+00 0.  1.
         11    1    5    5    0    0  0.17085696692E+03  0.30664345327E+02 -0.24174404998E+03  0.29761147646E+03  0.00000000000E+00 0.  1.
        -11    1    5    5    0    0  0.72942032977E+02  0.50885871298E+02 -0.49762751628E+02  0.10191292127E+03  0.00000000000E+00 0. -1.
          5    1    6    6  503    0 -0.11660756376E+03  0.20204875598E+02  0.10152210274E+03  0.15599483411E+03  0.47000000000E+01 0. -1.
         -5    1    6    6    0  503 -0.64346985780E+02 -0.41612791178E+02  0.13196275045E+02  0.77899875762E+02  0.47000000000E+01 0.  1.
<mgrwt>
<rscale>  0 0.27661120E+03</rscale>
<asrwt>0</asrwt>
<pdfrwt beam="1">  1        1 0.10517563E+00 0.27661120E+03</pdfrwt>
<pdfrwt beam="2">  1       -1 0.37124078E-01 0.27661120E+03</pdfrwt>
<totfact> 0.20767348E+02</totfact>
</mgrwt>
</event>
<event>
12    1  0.3166324E-008  0.7797455E+03  0.7818608E-02  0.9589806E-01
         -1   -1    0    0    0  501 -0.00000000000E+00  0.00000000000E+00  0.14753389684E+04  0.14753389684E+04  0.00000000000E+00 0.  1.
          1   -1    0    0  501    0  0.00000000000E+00 -0.00000000000E+00 -0.47830706807E+03  0.47830706807E+03  0.00000000000E+00 0. -1.
         23    2    1    2    0    0 -0.10884328886E+03  0.71622461297E+03  0.32777160730E+03  0.79920426984E+03  0.80428108434E+02 0.  0.
    5000000    2    1    2    0    0  0.10884328886E+03 -0.71622461297E+03  0.66926029301E+03  0.11544417666E+04  0.60000157911E+03 0.  0.
         23    2    4    4    0    0  0.19645054405E+03 -0.12221611530E+03 -0.21332080327E+01  0.24917840826E+03  0.92497207892E+02 0.  0.
         23    2    4    4    0    0 -0.87607255188E+02 -0.59400849767E+03  0.67139350104E+03  0.90526335835E+03  0.90616710731E+02 0.  0.
          1    1    3    3  502    0 -0.11113724007E+03  0.55392160548E+03  0.27640179812E+03  0.62895038369E+03  0.00000000000E+00 0. -1.
         -1    1    3    3    0  502  0.22939512060E+01  0.16230300750E+03  0.51369809185E+02  0.17025388615E+03  0.00000000000E+00 0.  1.
         11    1    5    5    0    0  0.14418709423E+03 -0.90286250041E+02  0.40098836400E+02  0.17478398602E+03  0.00000000000E+00 0. -1.
        -11    1    5    5    0    0  0.52263449819E+02 -0.31929865257E+02 -0.42232044433E+02  0.74394422232E+02  0.00000000000E+00 0.  1.
          5    1    6    6  503    0 -0.55322352453E+02 -0.43449129593E+03  0.54461591429E+03  0.69890759977E+03  0.47000000000E+01 0. -1.
         -5    1    6    6    0  503 -0.32284902735E+02 -0.15951720175E+03  0.12677758675E+03  0.20635575859E+03  0.47000000000E+01 0.  1.
<mgrwt>
<rscale>  0 0.77974552E+03</rscale>
<asrwt>0</asrwt>
<pdfrwt beam="1">  1        1 0.73585703E-01 0.77974552E+03</pdfrwt>
<pdfrwt beam="2">  1       -1 0.22697522E+00 0.77974552E+03</pdfrwt>
<totfact> 0.48145151E+00</totfact>
</mgrwt>
</event>
<event>
12    1  0.3166324E-008  0.6523962E+03  0.7818608E-02  0.9802293E-01
          2   -1    0    0  501    0  0.00000000000E+00  0.00000000000E+00  0.27111629513E+04  0.27111629513E+04  0.00000000000E+00 0. -1.
         -2   -1    0    0    0  501 -0.00000000000E+00 -0.00000000000E+00 -0.21611294128E+03  0.21611294128E+03  0.00000000000E+00 0.  1.
         23    2    1    2    0    0 -0.57117627268E+03 -0.28518517407E+03  0.89637499215E+03  0.11042582136E+04  0.91242302321E+02 0.  0.
    5000000    2    1    2    0    0  0.57117627268E+03  0.28518517407E+03  0.15986750179E+04  0.18230176790E+04  0.60004893734E+03 0.  0.
         23    2    4    4    0    0  0.27817492102E+03  0.15273077476E+03  0.20210667228E+03  0.38702003888E+03  0.90716190780E+02 0.  0.
         23    2    4    4    0    0  0.29300135165E+03  0.13245439931E+03  0.13965683456E+04  0.14359976401E+04  0.91061070434E+02 0.  0.
          3    1    3    3  502    0 -0.21215612545E+03 -0.15011109615E+03  0.39836596448E+03  0.47564588131E+03  0.00000000000E+00 0. -1.
         -3    1    3    3    0  502 -0.35902014723E+03 -0.13507407792E+03  0.49800902768E+03  0.62861233227E+03  0.00000000000E+00 0.  1.
         13    1    5    5    0    0  0.55254827746E+02 -0.36173973999E+01  0.17566555077E+02  0.58092731133E+02  0.00000000000E+00 0.  1.
        -13    1    5    5    0    0  0.22292009328E+03  0.15634817216E+03  0.18454011720E+03  0.32892730775E+03  0.00000000000E+00 0. -1.
          5    1    6    6  503    0  0.17427358461E+03  0.12515824540E+03  0.85858646022E+03  0.88500207252E+03  0.47000000000E+01 0. -1.
         -5    1    6    6    0  503  0.11872776704E+03  0.72961539095E+01  0.53798188538E+03  0.55099556761E+03  0.47000000000E+01 0.  1.
<mgrwt>
<rscale>  0 0.65239620E+03</rscale>
<asrwt>0</asrwt>
<pdfrwt beam="1">  1        2 0.41710197E+00 0.65239620E+03</pdfrwt>
<pdfrwt beam="2">  1       -2 0.33248147E-01 0.65239620E+03</pdfrwt>
<totfact> 0.23584773E+01</totfact>
</mgrwt>
</event>
<event>
12    1  0.3166324E-008  0.3501733E+03  0.7818608E-02  0.1062544E+00
          1   -1    0    0  501    0  0.00000000000E+00  0.00000000000E+00  0.16644354808E+04  0.16644354808E+04  0.00000000000E+00 0. -1.
         -1   -1    0    0    0  501 -0.00000000000E+00 -0.00000000000E+00 -0.12011550596E+03  0.12011550596E+03  0.00000000000E+00 0.  1.
         23    2    1    2    0    0  0.43591522395E+02 -0.87961174645E+02  0.85458583618E+03  0.86515231248E+03  0.92380643670E+02 0.  0.
    5000000    2    1    2    0    0 -0.43591522395E+02  0.87961174645E+02  0.68973413867E+03  0.91939867429E+03  0.59993612257E+03 0.  0.
         23    2    4    4    0    0  0.16500101839E+03 -0.16784765218E+03  0.19855475754E+03  0.32063963527E+03  0.89373449927E+02 0.  0.
         23    2    4    4    0    0 -0.20859254079E+03  0.25580882682E+03  0.49117938113E+03  0.59875903902E+03  0.91138347598E+02 0.  0.
          2    1    3    3  502    0 -0.20808059926E+02 -0.60190151079E+02  0.45912671911E+03  0.46352257102E+03  0.00000000000E+00 0. -1.
         -2    1    3    3    0  502  0.64399582322E+02 -0.27771023566E+02  0.39545911707E+03  0.40162974147E+03  0.00000000000E+00 0.  1.
         13    1    5    5    0    0  0.13930866786E+02 -0.20109045752E+02 -0.74120461804E+01  0.25561322326E+02  0.00000000000E+00 0. -1.
        -13    1    5    5    0    0  0.15107015161E+03 -0.14773860643E+03  0.20596680372E+03  0.29507831294E+03  0.00000000000E+00 0.  1.
          5    1    6    6  503    0 -0.10573659997E+03  0.11454810661E+03  0.30988596388E+03  0.34691915184E+03  0.47000000000E+01 0. -1.
         -5    1    6    6    0  503 -0.10285594082E+03  0.14126072021E+03  0.18129341725E+03  0.25183988718E+03  0.47000000000E+01 0.  1.
<mgrwt>
<rscale>  0 0.35017331E+03</rscale>
<asrwt>0</asrwt>
<pdfrwt beam="1">  1        1 0.25606698E+00 0.35017331E+03</pdfrwt>
<pdfrwt beam="2">  1       -1 0.18479310E-01 0.35017331E+03</pdfrwt>
<totfact> 0.12670958E+02</totfact>
</mgrwt>
</event>
<event>
12    1  0.3166324E-008  0.1358348E+04  0.7818608E-02  0.8984533E-01
         -2   -1    0    0    0  501 -0.00000000000E+00  0.00000000000E+00  0.60950316854E+03  0.60950316854E+03  0.00000000000E+00 0.  1.
          2   -1    0    0  501    0  0.00000000000E+00 -0.00000000000E+00 -0.33155926645E+04  0.33155926645E+04  0.00000000000E+00 0. -1.
         23    2    1    2    0    0  0.53150099411E+03  0.12433775133E+04 -0.11455197975E+04  0.17747894687E+04  0.95818080369E+02 0.  0.
    5000000    2    1    2    0    0 -0.53150099411E+03 -0.12433775133E+04 -0.15605696985E+04  0.21503063643E+04  0.59996560672E+03 0.  0.
         23    2    4    4    0    0 -0.26863972890E+03 -0.50985151819E+03 -0.10877858055E+04  0.12342769435E+04  0.89698050039E+02 0.  0.
         23    2    4    4    0    0 -0.26286126521E+03 -0.73352599513E+03 -0.47278389304E+03  0.91602942081E+03  0.91808823121E+02 0.  0.
          3    1    3    3  502    0  0.46279115001E+03  0.11494913597E+04 -0.10533360543E+04  0.16263526302E+04  0.00000000000E+00 0. -1.
         -3    1    3    3    0  502  0.68709844105E+02  0.93886153597E+02 -0.92183743183E+02  0.14843683849E+03  0.00000000000E+00 0.  1.
         13    1    5    5    0    0 -0.34752990757E+02 -0.10429147571E+03 -0.27724485449E+03  0.29824351059E+03  0.00000000000E+00 0.  1.
        -13    1    5    5    0    0 -0.23388673815E+03 -0.40556004247E+03 -0.81054095099E+03  0.93603343293E+03  0.00000000000E+00 0. -1.
          5    1    6    6  503    0 -0.23603139773E+03 -0.56424157593E+03 -0.39213485200E+03  0.72654745810E+03  0.47000000000E+01 0. -1.
         -5    1    6    6    0  503 -0.26829867483E+02 -0.16928441920E+03 -0.80649041032E+02  0.18948196271E+03  0.47000000000E+01 0.  1.
<mgrwt>
<rscale>  0 0.13583483E+04</rscale>
<asrwt>0</asrwt>
<pdfrwt beam="1">  1        2 0.51009117E+00 0.13583483E+04</pdfrwt>
<pdfrwt beam="2">  1       -2 0.93769720E-01 0.13583483E+04</pdfrwt>
<totfact> 0.10207796E+00</totfact>
</mgrwt>
</event>
<event>
12    1  0.3166324E-008  0.1003911E+04  0.7818608E-02  0.9304265E-01
         -2   -1    0    0    0  501 -0.00000000000E+00  0.00000000000E+00  0.11867769537E+04  0.11867769537E+04  0.00000000000E+00 0.  1.
          2   -1    0    0  501    0  0.00000000000E+00 -0.00000000000E+00 -0.95054684934E+03  0.95054684934E+03  0.00000000000E+00 0. -1.
         23    2    1    2    0    0  0.90111194459E+03  0.35066747688E+03 -0.17984616675E+02  0.97131941775E+03  0.90374492259E+02 0.  0.
    5000000    2    1    2    0    0 -0.90111194459E+03 -0.35066747688E+03  0.25421472107E+03  0.11660043853E+04  0.59997557132E+03 0.  0.
         23    2    4    4    0    0 -0.76388452475E+03 -0.12825016423E+03 -0.14117832749E+02  0.77994767643E+03  0.90285065136E+02 0.  0.
         23    2    4    4    0    0 -0.13722741984E+03 -0.22241731264E+03  0.26833255382E+03  0.38605670890E+03  0.93469766917E+02 0.  0.
          3    1    3    3  502    0  0.76561972264E+03  0.29890550304E+03 -0.47629561445E+02  0.82327798135E+03  0.00000000000E+00 0. -1.
         -3    1    3    3    0  502  0.13549222195E+03  0.51761973833E+02  0.29644944770E+02  0.14804143641E+03  0.00000000000E+00 0.  1.
         11    1    5    5    0    0 -0.86392260986E+02 -0.24712190979E+02  0.25620590960E+02  0.93438374463E+02  0.00000000000E+00 0.  1.
        -11    1    5    5    0    0 -0.67749226376E+03 -0.10353797325E+03 -0.39738423709E+02  0.68650930197E+03  0.00000000000E+00 0. -1.
          5    1    6    6  503    0 -0.94609767475E+02 -0.18861944810E+03  0.16039725223E+03  0.26509936406E+03  0.47000000000E+01 0. -1.
         -5    1    6    6    0  503 -0.42617652362E+02 -0.33797864546E+02  0.10793530159E+03  0.12095734484E+03  0.47000000000E+01 0.  1.
<mgrwt>
<rscale>  0 0.10039112E+04</rscale>
<asrwt>0</asrwt>
<pdfrwt beam="1">  1        2 0.14623798E+00 0.10039112E+04</pdfrwt>
<pdfrwt beam="2">  1       -2 0.18258107E+00 0.10039112E+04</pdfrwt>
<totfact> 0.46797473E+00</totfact>
</mgrwt>
</event>
<event>
12    1  0.3166324E-008  0.8947340E+03  0.7818608E-02  0.9432188E-01
         -2   -1    0    0    0  501 -0.00000000000E+00  0.00000000000E+00  0.50903918032E+03  0.50903918032E+03  0.00000000000E+00 0.  1.
          2   -1    0    0  501    0  0.00000000000E+00 -0.00000000000E+00 -0.20461612003E+04  0.20461612003E+04  0.00000000000E+00 0. -1.
         23    2    1    2    0    0 -0.10702382062E+03  0.88131377844E+03 -0.10502457651E+04  0.13782000986E+04  0.90836503102E+02 0.  0.
    5000000    2    1    2    0    0  0.10702382062E+03 -0.88131377844E+03 -0.48687625489E+03  0.11770002821E+04  0.60009424440E+03 0.  0.
         23    2    4    4    0    0  0.76939631755E+02 -0.53606947441E+03 -0.58804691412E+03  0.80452911326E+03  0.90430816331E+02 0.  0.
         23    2    4    4    0    0  0.30084188864E+02 -0.34524430403E+03  0.10117065924E+03  0.37247116881E+03  0.91654685737E+02 0.  0.
          4    1    3    3  502    0 -0.91798618042E+02  0.38931879921E+03 -0.48528626286E+03  0.62888700942E+03  0.00000000000E+00 0. -1.
         -4    1    3    3    0  502 -0.15225202577E+02  0.49199497923E+03 -0.56495950225E+03  0.74931308915E+03  0.00000000000E+00 0.  1.
         13    1    5    5    0    0 -0.10499510816E+02 -0.24082933206E+03 -0.25113075840E+03  0.34810295133E+03  0.00000000000E+00 0. -1.
        -13    1    5    5    0    0  0.87439142571E+02 -0.29524014234E+03 -0.33691615572E+03  0.45642616193E+03  0.00000000000E+00 0.  1.
          5    1    6    6  503    0  0.32264493881E+01 -0.22072383554E+03  0.10596929661E+03  0.24491019451E+03  0.47000000000E+01 0. -1.
         -5    1    6    6    0  503  0.26857739476E+02 -0.12452046849E+03 -0.47986373745E+01  0.12756097430E+03  0.47000000000E+01 0.  1.
<mgrwt>
<rscale>  0 0.89473400E+03</rscale>
<asrwt>0</asrwt>
<pdfrwt beam="1">  1        2 0.31479404E+00 0.89473400E+03</pdfrwt>
<pdfrwt beam="2">  1       -2 0.78313719E-01 0.89473400E+03</pdfrwt>
<totfact> 0.92747120E+00</totfact>
</mgrwt>
</event>
<event>
12    1  0.3166324E-008  0.1534653E+04  0.7818608E-02  0.8861731E-01
         -1   -1    0    0    0  501 -0.00000000000E+00  0.00000000000E+00  0.14099866053E+04  0.14099866053E+04  0.00000000000E+00 0.  1.
          1   -1    0    0  501    0  0.00000000000E+00 -0.00000000000E+00 -0.31902517233E+04  0.31902517233E+04  0.00000000000E+00 0. -1.
         23    2    1    2    0    0 -0.12845729092E+04 -0.73491483878E+03 -0.24538836000E+04  0.28670677546E+04  0.91134010632E+02 0.  0.
    5000000    2    1    2    0    0  0.12845729092E+04  0.73491483878E+03  0.67361848203E+03  0.17331705740E+04  0.59990915963E+03 0.  0.
         23    2    4    4    0    0  0.57971544223E+03  0.65508490411E+03  0.41882377086E+03  0.97416219831E+03  0.91500885305E+02 0.  0.
         23    2    4    4    0    0  0.70485746698E+03  0.79829934667E+02  0.25479471117E+03  0.75900837567E+03  0.89311266163E+02 0.  0.
          3    1    3    3  502    0 -0.43559508536E+03 -0.28207549201E+03 -0.79711225798E+03  0.95115593537E+03  0.00000000000E+00 0. -1.
         -3    1    3    3    0  502 -0.84897782386E+03 -0.45283934677E+03 -0.16567713420E+04  0.19159118192E+04  0.00000000000E+00 0.  1.
         13    1    5    5    0    0  0.15211555369E+03  0.22961053408E+03  0.15176913306E+03  0.31447417825E+03  0.00000000000E+00 0.  1.
        -13    1    5    5    0    0  0.42759988855E+03  0.42547437004E+03  0.26705463779E+03  0.65968802006E+03  0.00000000000E+00 0. -1.
          5    1    6    6  503    0  0.51447643692E+03  0.53807439401E+02  0.22654279129E+03  0.56473442516E+03  0.47000000000E+01 0. -1.
         -5    1    6    6    0  503  0.19038103007E+03  0.26022495265E+02  0.28251919885E+02  0.19427395051E+03  0.47000000000E+01 0.  1.
<mgrwt>
<rscale>  0 0.15346529E+04</rscale>
<asrwt>0</asrwt>
<pdfrwt beam="1">  1        1 0.49080796E+00 0.15346529E+04</pdfrwt>
<pdfrwt beam="2">  1       -1 0.21692102E+00 0.15346529E+04</pdfrwt>
<totfact> 0.47068156E-02</totfact>
</mgrwt>
</event>
<event>
12    1  0.3166324E-008  0.6165503E+03  0.7818608E-02  0.9871652E-01
          1   -1    0    0  501    0  0.00000000000E+00  0.00000000000E+00  0.13141067323E+04  0.13141067323E+04  0.00000000000E+00 0. -1.
         -1   -1    0    0    0  501 -0.00000000000E+00 -0.00000000000E+00 -0.30846466645E+03  0.30846466645E+03  0.00000000000E+00 0.  1.
         23    2    1    2    0    0 -0.28122099099E+02  0.47676977780E+03  0.25420080418E+03  0.54891378134E+03  0.92671554538E+02 0.  0.
    5000000    2    1    2    0    0  0.28122099099E+02 -0.47676977780E+03  0.75144126165E+03  0.10736576174E+04  0.59998036319E+03 0.  0.
         23    2    4    4    0    0  0.21593825706E+03 -0.49632760109E+03  0.62215762107E+03  0.83032007672E+03  0.96855076654E+02 0.  0.
         23    2    4    4    0    0 -0.18781615796E+03  0.19557823288E+02  0.12928364057E+03  0.24333754068E+03  0.82713247679E+02 0.  0.
          4    1    3    3  502    0 -0.43610226333E+02  0.42772617938E+03  0.24992136550E+03  0.49730496207E+03  0.00000000000E+00 0. -1.
         -4    1    3    3    0  502  0.15488127234E+02  0.49043598419E+02  0.42794386831E+01  0.51608819271E+02  0.00000000000E+00 0.  1.
         11    1    5    5    0    0  0.15908746455E+03 -0.44609908281E+03  0.52520008377E+03  0.70721166637E+03  0.00000000000E+00 0. -1.
        -11    1    5    5    0    0  0.56850792508E+02 -0.50228518276E+02  0.96957537302E+02  0.12310841034E+03  0.00000000000E+00 0.  1.
          5    1    6    6  503    0 -0.19062420443E+03  0.96482168507E+01  0.10832240253E+03  0.21951425533E+03  0.47000000000E+01 0. -1.
         -5    1    6    6    0  503  0.28080464682E+01  0.99096064378E+01  0.20961238039E+02  0.23823285350E+02  0.47000000000E+01 0.  1.
<mgrwt>
<rscale>  0 0.61655029E+03</rscale>
<asrwt>0</asrwt>
<pdfrwt beam="1">  1        1 0.20217026E+00 0.61655029E+03</pdfrwt>
<pdfrwt beam="2">  1       -1 0.47456103E-01 0.61655029E+03</pdfrwt>
<totfact> 0.40927820E+01</totfact>
</mgrwt>
</event>
<event>
12    1  0.3166324E-008  0.8241566E+03  0.7818608E-02  0.9525695E-01
         -2   -1    0    0    0  501 -0.00000000000E+00  0.00000000000E+00  0.51080015624E+03  0.51080015624E+03  0.00000000000E+00 0.  1.
          2   -1    0    0  501    0  0.00000000000E+00 -0.00000000000E+00 -0.17931127319E+04  0.17931127319E+04  0.00000000000E+00 0. -1.
         23    2    1    2    0    0 -0.44233767104E+03 -0.65475416196E+03 -0.16999619936E+03  0.81343871493E+03  0.91750789227E+02 0.  0.
    5000000    2    1    2    0    0  0.44233767104E+03  0.65475416196E+03 -0.11123163762E+04  0.14904741732E+04  0.59991658767E+03 0.  0.
         23    2    4    4    0    0  0.45438950057E+03  0.60009169947E+03 -0.11508528369E+04  0.13780619717E+04  0.89513572146E+02 0.  0.
         23    2    4    4    0    0 -0.12051829527E+02  0.54662462490E+02  0.38536460640E+02  0.11241220149E+03  0.89544474110E+02 0.  0.
          4    1    3    3  502    0 -0.31396125259E+03 -0.38972528952E+03 -0.92574443701E+02  0.50894744036E+03  0.00000000000E+00 0. -1.
         -4    1    3    3    0  502 -0.12837641845E+03 -0.26502887245E+03 -0.77421755661E+02  0.30449127458E+03  0.00000000000E+00 0.  1.
         13    1    5    5    0    0  0.25517757475E+03  0.27891117474E+03 -0.62605126137E+03  0.73133249614E+03  0.00000000000E+00 0. -1.
        -13    1    5    5    0    0  0.19921192583E+03  0.32118052474E+03 -0.52480157552E+03  0.64672947553E+03  0.00000000000E+00 0.  1.
          5    1    6    6  503    0 -0.20703358617E+02  0.73303124228E+02  0.10051238642E+02  0.76974635289E+02  0.47000000000E+01 0. -1.
         -5    1    6    6    0  503  0.86515290902E+01 -0.18640661738E+02  0.28485221998E+02  0.35437566197E+02  0.47000000000E+01 0.  1.
<mgrwt>
<rscale>  0 0.82415663E+03</rscale>
<asrwt>0</asrwt>
<pdfrwt beam="1">  1        2 0.27586349E+00 0.82415663E+03</pdfrwt>
<pdfrwt beam="2">  1       -2 0.78584640E-01 0.82415663E+03</pdfrwt>
<totfact> 0.12778310E+01</totfact>
</mgrwt>
</event>
<event>
12    1  0.3166324E-008  0.1168899E+04  0.7818608E-02  0.9140523E-01
         -1   -1    0    0    0  501 -0.00000000000E+00  0.00000000000E+00  0.74306471322E+03  0.74306471322E+03  0.00000000000E+00 0.  1.
          1   -1    0    0  501    0  0.00000000000E+00 -0.00000000000E+00 -0.23314965622E+04  0.23314965622E+04  0.00000000000E+00 0. -1.
         23    2    1    2    0    0  0.70772973720E+03 -0.86723369418E+03 -0.13934378891E+04  0.17896388450E+04  0.90345911076E+02 0.  0.
    5000000    2    1    2    0    0 -0.70772973720E+03  0.86723369418E+03 -0.19499395995E+03  0.12849224305E+04  0.60002278841E+03 0.  0.
         23    2    4    4    0    0  0.65375430371E+02  0.62394564233E+02  0.46506687580E+02  0.13952308502E+03  0.95586561410E+02 0.  0.
         23    2    4    4    0    0 -0.77310516757E+03  0.80483912995E+03 -0.24150064753E+03  0.11453993454E+04  0.90329798646E+02 0.  0.
          1    1    3    3  502    0  0.60611700108E+03 -0.77850506933E+03 -0.12542760758E+04  0.15958246884E+04  0.00000000000E+00 0. -1.
         -1    1    3    3    0  502  0.10161273612E+03 -0.88728624856E+02 -0.13916181331E+03  0.19381415659E+03  0.00000000000E+00 0.  1.
         13    1    5    5    0    0  0.40339621242E+02  0.13776683274E+02 -0.25065437546E+02  0.49450563225E+02  0.00000000000E+00 0. -1.
        -13    1    5    5    0    0  0.25035809130E+02  0.48617880959E+02  0.71572125126E+02  0.90072521796E+02  0.00000000000E+00 0.  1.
          5    1    6    6  503    0 -0.32869950798E+03  0.40024032014E+03 -0.13198347240E+03  0.53448798621E+03  0.47000000000E+01 0. -1.
         -5    1    6    6    0  503 -0.44440565959E+03  0.40459880981E+03 -0.10951717513E+03  0.61091135922E+03  0.47000000000E+01 0.  1.
<mgrwt>
<rscale>  0 0.11688989E+04</rscale>
<asrwt>0</asrwt>
<pdfrwt beam="1">  1        1 0.35869177E+00 0.11688989E+04</pdfrwt>
<pdfrwt beam="2">  1       -1 0.11431765E+00 0.11688989E+04</pdfrwt>
<totfact> 0.12225172E+00</totfact>
</mgrwt>
</event>
<event>
12    1  0.3166324E-008  0.1222146E+04  0.7818608E-02  0.9093690E-01
          1   -1    0    0  501    0  0.00000000000E+00  0.00000000000E+00  0.13735629920E+04  0.13735629920E+04  0.00000000000E+00 0. -1.
         -1   -1    0    0    0  501 -0.00000000000E+00 -0.00000000000E+00 -0.11687588205E+04  0.11687588205E+04  0.00000000000E+00 0.  1.
         23    2    1    2    0    0 -0.11674502643E+04 -0.24359782636E+03  0.15576247162E+03  0.12063777625E+04  0.93836760494E+02 0.  0.
    5000000    2    1    2    0    0  0.11674502643E+04  0.24359782636E+03  0.49041699907E+02  0.13359440501E+04  0.60005116116E+03 0.  0.
         23    2    4    4    0    0  0.10629604014E+04  0.29793691030E+03  0.19960436808E+03  0.11254618728E+04  0.90395276842E+02 0.  0.
         23    2    4    4    0    0  0.10448986293E+03 -0.54339083933E+02 -0.15056266817E+03  0.21048217725E+03  0.88106540017E+02 0.  0.
          3    1    3    3  502    0 -0.62645925529E+03 -0.15638036891E+03  0.12400011106E+03  0.65748159356E+03  0.00000000000E+00 0. -1.
         -3    1    3    3    0  502 -0.54099100900E+03 -0.87217457450E+02  0.31762360558E+02  0.54889616892E+03  0.00000000000E+00 0.  1.
         11    1    5    5    0    0  0.16506361347E+03  0.80870197833E+02  0.37044679103E+02  0.18750544963E+03  0.00000000000E+00 0. -1.
        -11    1    5    5    0    0  0.89789678789E+03  0.21706671246E+03  0.16255968897E+03  0.93795642321E+03  0.00000000000E+00 0.  1.
          5    1    6    6  503    0 -0.29651928520E+01  0.14386243791E+02 -0.36150016724E+01  0.15840284599E+02  0.47000000000E+01 0. -1.
         -5    1    6    6    0  503  0.10745505579E+03 -0.68725327724E+02 -0.14694766650E+03  0.19464189265E+03  0.47000000000E+01 0.  1.
<mgrwt>
<rscale>  0 0.12221463E+04</rscale>
<asrwt>0</asrwt>
<pdfrwt beam="1">  1        1 0.21131738E+00 0.12221463E+04</pdfrwt>
<pdfrwt beam="2">  1       -1 0.17980905E+00 0.12221463E+04</pdfrwt>
<totfact> 0.16366555E+00</totfact>
</mgrwt>
</event>
<event>
12    1  0.3166324E-008  0.4890574E+03  0.7818608E-02  0.1016675E+00
          2   -1    0    0  501    0  0.00000000000E+00  0.00000000000E+00  0.33390290159E+04  0.33390290159E+04  0.00000000000E+00 0.  1.
         -2   -1    0    0    0  501 -0.00000000000E+00 -0.00000000000E+00 -0.10840291113E+03  0.10840291113E+03  0.00000000000E+00 0. -1.
         23    2    1    2    0    0  0.38777646903E+03  0.19712710790E+03  0.15110699489E+04  0.15749718470E+04  0.89298608518E+02 0.  0.
    5000000    2    1    2    0    0 -0.38777646903E+03 -0.19712710790E+03  0.17195561559E+04  0.18724600801E+04  0.60000307652E+03 0.  0.
         23    2    4    4    0    0  0.13839641018E+02 -0.32876722723E+02  0.11302798741E+04  0.11346113683E+04  0.92401021131E+02 0.  0.
         23    2    4    4    0    0 -0.40161611004E+03 -0.16425038518E+03  0.58927628181E+03  0.73784871186E+03  0.94342442259E+02 0.  0.
          1    1    3    3  502    0  0.19238049395E+03  0.48151005524E+02  0.68683526151E+03  0.71489261448E+03  0.00000000000E+00 0. -1.
         -1    1    3    3    0  502  0.19539597508E+03  0.14897610238E+03  0.82423468744E+03  0.86007923247E+03  0.00000000000E+00 0.  1.
         11    1    5    5    0    0  0.20466387469E+02  0.29130280214E+02  0.33347234346E+03  0.33536733606E+03  0.00000000000E+00 0.  1.
        -11    1    5    5    0    0 -0.66267464509E+01 -0.62007002937E+02  0.79680753060E+03  0.79924403219E+03  0.00000000000E+00 0. -1.
          5    1    6    6  503    0 -0.27173583693E+03 -0.89148718880E+02  0.44923400369E+03  0.53256092536E+03  0.47000000000E+01 0. -1.
         -5    1    6    6    0  503 -0.12988027311E+03 -0.75101666300E+02  0.14004227813E+03  0.20528778650E+03  0.47000000000E+01 0.  1.
<mgrwt>
<rscale>  0 0.48905737E+03</rscale>
<asrwt>0</asrwt>
<pdfrwt beam="1">  1        2 0.51369669E+00 0.48905737E+03</pdfrwt>
<pdfrwt beam="2">  1       -2 0.16677373E-01 0.48905737E+03</pdfrwt>
<totfact> 0.34546428E+01</totfact>
</mgrwt>
</event>
<event>
12    1  0.3166324E-008  0.8857388E+03  0.7818608E-02  0.9443586E-01
          1   -1    0    0  501    0  0.00000000000E+00  0.00000000000E+00  0.12161901089E+04  0.12161901089E+04  0.00000000000E+00 0. -1.
         -1   -1    0    0    0  501 -0.00000000000E+00 -0.00000000000E+00 -0.10867465518E+04  0.10867465518E+04  0.00000000000E+00 0.  1.
         23    2    1    2    0    0  0.27297581575E+03 -0.82376686735E+03 -0.56529484912E+03  0.10397033282E+04  0.91198117273E+02 0.  0.
    5000000    2    1    2    0    0 -0.27297581575E+03  0.82376686735E+03  0.69473840627E+03  0.12632333325E+04  0.59999112611E+03 0.  0.
         23    2    4    4    0    0 -0.66041334184E+02  0.52383879633E+03  0.70724078590E+03  0.88722319012E+03  0.90592038734E+02 0.  0.
         23    2    4    4    0    0 -0.20693448156E+03  0.29992807102E+03 -0.12502379639E+02  0.37601014236E+03  0.91916213001E+02 0.  0.
          4    1    3    3  502    0  0.18491427373E+03 -0.41910490835E+03 -0.31216219808E+03  0.55433514298E+03  0.00000000000E+00 0. -1.
         -4    1    3    3    0  502  0.88061542016E+02 -0.40466195900E+03 -0.25313265104E+03  0.48536818527E+03  0.00000000000E+00 0.  1.
         11    1    5    5    0    0  0.18533541795E+02  0.57684995723E+02  0.10158310043E+03  0.11828007945E+03  0.00000000000E+00 0.  1.
        -11    1    5    5    0    0 -0.84574875979E+02  0.46615380061E+03  0.60565768548E+03  0.76894311067E+03  0.00000000000E+00 0. -1.
          5    1    6    6  503    0 -0.44156558136E+02  0.53431150396E+02 -0.38514096964E+02  0.79436233068E+02  0.47000000000E+01 0. -1.
         -5    1    6    6    0  503 -0.16277792343E+03  0.24649692063E+03  0.26011717325E+02  0.29657390929E+03  0.47000000000E+01 0.  1.
<mgrwt>
<rscale>  0 0.88573877E+03</rscale>
<asrwt>0</asrwt>
<pdfrwt beam="1">  1        1 0.18710617E+00 0.88573877E+03</pdfrwt>
<pdfrwt beam="2">  1       -1 0.16719178E+00 0.88573877E+03</pdfrwt>
<totfact> 0.27368741E+00</totfact>
</mgrwt>
</event>
<event>
12    1  0.3166324E-008  0.2206862E+04  0.7818608E-02  0.8515578E-01
          3   -1    0    0  501    0  0.00000000000E+00  0.00000000000E+00  0.27673110146E+04  0.27673110146E+04  0.00000000000E+00 0. -1.
         -3   -1    0    0    0  501 -0.00000000000E+00 -0.00000000000E+00 -0.19983501026E+04  0.19983501026E+04  0.00000000000E+00 0.  1.
         23    2    1    2    0    0  0.43174395610E+03  0.21364945127E+04  0.11610173221E+04  0.24711212550E+04  0.86414052600E+02 0.  0.
    5000000    2    1    2    0    0 -0.43174395610E+03 -0.21364945127E+04 -0.39205641012E+03  0.22945398622E+04  0.60016106536E+03 0.  0.
         23    2    4    4    0    0  0.94516438018E-01 -0.52746821097E+02  0.52054981884E+02  0.11887466686E+03  0.92947454048E+02 0.  0.
         23    2    4    4    0    0 -0.43183847254E+03 -0.20837476916E+04 -0.44411139201E+03  0.21756651954E+04  0.88290460086E+02 0.  0.
          4    1    3    3  502    0  0.32704281387E+03  0.16189187834E+04  0.83732074475E+03  0.18517454088E+04  0.00000000000E+00 0. -1.
         -4    1    3    3    0  502  0.10470114224E+03  0.51757572924E+03  0.32369657734E+03  0.61937584621E+03  0.00000000000E+00 0.  1.
         11    1    5    5    0    0 -0.10188221072E+02  0.25255436715E+02  0.66400394800E+01  0.28030823330E+02  0.00000000000E+00 0. -1.
        -11    1    5    5    0    0  0.10282737510E+02 -0.78002257812E+02  0.45414942404E+02  0.90843843534E+02  0.00000000000E+00 0.  1.
          5    1    6    6  503    0 -0.25237090458E+03 -0.11709659439E+04 -0.29334019465E+03  0.12332570190E+04  0.47000000000E+01 0. -1.
         -5    1    6    6    0  503 -0.17946756796E+03 -0.91278174771E+03 -0.15077119735E+03  0.94240817635E+03  0.47000000000E+01 0.  1.
<mgrwt>
<rscale>  0 0.22068618E+04</rscale>
<asrwt>0</asrwt>
<pdfrwt beam="1">  1        3 0.42574016E+00 0.22068618E+04</pdfrwt>
<pdfrwt beam="2">  1       -3 0.30743848E+00 0.22068618E+04</pdfrwt>
<totfact> 0.61867879E-04</totfact>
</mgrwt>
</event>
<event>
12    1  0.3166324E-008  0.7903004E+03  0.7818608E-02  0.9574164E-01
         -2   -1    0    0    0  501 -0.00000000000E+00  0.00000000000E+00  0.58333719905E+03  0.58333719905E+03  0.00000000000E+00 0.  1.
          2   -1    0    0  501    0  0.00000000000E+00 -0.00000000000E+00 -0.17144125977E+04  0.17144125977E+04  0.00000000000E+00 0. -1.
         23    2    1    2    0    0 -0.63812281000E+03  0.27969476779E+03 -0.11834863904E+04  0.13767238470E+04  0.96429408747E+02 0.  0.
    5000000    2    1    2    0    0  0.63812281000E+03 -0.27969476779E+03  0.52410991678E+02  0.92102594982E+03  0.60009332976E+03 0.  0.
         23    2    4    4    0    0  0.62487900166E+03 -0.43401711289E+02  0.14939852645E+03  0.65013254022E+03  0.89414343855E+02 0.  0.
         23    2    4    4    0    0  0.13243808339E+02 -0.23629305650E+03 -0.96987534770E+02  0.27089340960E+03  0.89257215136E+02 0.  0.
          3    1    3    3  502    0 -0.83943482245E+02  0.63891625425E+02 -0.22885667655E+03  0.25200005240E+03  0.00000000000E+00 0. -1.
         -3    1    3    3    0  502 -0.55417932776E+03  0.21580314237E+03 -0.95462971380E+03  0.11247237946E+04  0.00000000000E+00 0.  1.
         11    1    5    5    0    0  0.72924805071E+02 -0.34489298408E+02  0.21450677983E+02  0.83472573252E+02  0.00000000000E+00 0. -1.
        -11    1    5    5    0    0  0.55195419659E+03 -0.89124128817E+01  0.12794784847E+03  0.56665996697E+03  0.00000000000E+00 0.  1.
          5    1    6    6  503    0 -0.12409890582E+01  0.43802954743E+01  0.58026901946E+01  0.87457564441E+01  0.47000000000E+01 0. -1.
         -5    1    6    6    0  503  0.14484797397E+02 -0.24067335198E+03 -0.10279022497E+03  0.26214765316E+03  0.47000000000E+01 0.  1.
<mgrwt>
<rscale>  0 0.79030041E+03</rscale>
<asrwt>0</asrwt>
<pdfrwt beam="1">  1        2 0.26375579E+00 0.79030041E+03</pdfrwt>
<pdfrwt beam="2">  1       -2 0.89744184E-01 0.79030041E+03</pdfrwt>
<totfact> 0.10478843E+01</totfact>
</mgrwt>
</event>
<event>
12    1  0.3166324E-008  0.9319744E+03  0.7818608E-02  0.9386471E-01
         -2   -1    0    0    0  501 -0.00000000000E+00  0.00000000000E+00  0.15502034474E+04  0.15502034474E+04  0.00000000000E+00 0.  1.
          2   -1    0    0  501    0  0.00000000000E+00 -0.00000000000E+00 -0.18170707711E+04  0.18170707711E+04  0.00000000000E+00 0. -1.
         23    2    1    2    0    0  0.77719074128E+03  0.35721090601E+03  0.12548612832E+04  0.15213979252E+04  0.91376841139E+02 0.  0.
    5000000    2    1    2    0    0 -0.77719074128E+03 -0.35721090601E+03 -0.15217286069E+04  0.18458762933E+04  0.59998021435E+03 0.  0.
         23    2    4    4    0    0  0.70636797797E+02 -0.58372143449E+02 -0.29919265327E+03  0.32581797368E+03  0.90797818628E+02 0.  0.
         23    2    4    4    0    0 -0.84782753908E+03 -0.29883876256E+03 -0.12225359536E+04  0.15200583196E+04  0.88696083739E+02 0.  0.
          1    1    3    3  502    0  0.41956521368E+03  0.21981903352E+03  0.76086867471E+03  0.89625694763E+03  0.00000000000E+00 0. -1.
         -1    1    3    3    0  502  0.35762552759E+03  0.13739187249E+03  0.49399260845E+03  0.62514097755E+03  0.00000000000E+00 0.  1.
         11    1    5    5    0    0  0.34986307433E+02 -0.62094554274E+02 -0.27099805585E+03  0.28021370711E+03  0.00000000000E+00 0.  1.
        -11    1    5    5    0    0  0.35650490364E+02  0.37224108250E+01 -0.28194597421E+02  0.45604266569E+02  0.00000000000E+00 0. -1.
          5    1    6    6  503    0 -0.48313343228E+03 -0.19313878576E+03 -0.64237361171E+03  0.82667191254E+03  0.47000000000E+01 0. -1.
         -5    1    6    6    0  503 -0.36469410679E+03 -0.10569997680E+03 -0.58016234188E+03  0.69338640711E+03  0.47000000000E+01 0.  1.
<mgrwt>
<rscale>  0 0.93197442E+03</rscale>
<asrwt>0</asrwt>
<pdfrwt beam="1">  1        2 0.27954935E+00 0.93197442E+03</pdfrwt>
<pdfrwt beam="2">  1       -2 0.23849284E+00 0.93197442E+03</pdfrwt>
<totfact> 0.64599794E-01</totfact>
</mgrwt>
</event>
<event>
12    1  0.3166324E-008  0.8464695E+03  0.7818608E-02  0.9495088E-01
         -1   -1    0    0    0  501 -0.00000000000E+00  0.00000000000E+00  0.11593839835E+04  0.11593839835E+04  0.00000000000E+00 0.  1.
          1   -1    0    0  501    0  0.00000000000E+00 -0.00000000000E+00 -0.86788301778E+03  0.86788301778E+03  0.00000000000E+00 0. -1.
         23    2    1    2    0    0 -0.33430483527E+03  0.67995742381E+03  0.64417553629E+03  0.99845955661E+03  0.88642786301E+02 0.  0.
    5000000    2    1    2    0    0  0.33430483527E+03 -0.67995742381E+03 -0.35267457056E+03  0.10288074447E+04  0.59996965293E+03 0.  0.
         23    2    4    4    0    0 -0.13997572544E+03 -0.17275099911E+03 -0.20104739981E+03  0.31069857905E+03  0.81715596098E+02 0.  0.
         23    2    4    4    0    0  0.47428056071E+03 -0.50720642470E+03 -0.15162717075E+03  0.71810886563E+03  0.10241648533E+03 0.  0.
          3    1    3    3  502    0 -0.57186850845E+02  0.18806935530E+03  0.13777173568E+03  0.24004472388E+03  0.00000000000E+00 0. -1.
         -3    1    3    3    0  502 -0.27711798443E+03  0.49188806851E+03  0.50640380061E+03  0.75841483273E+03  0.00000000000E+00 0.  1.
         11    1    5    5    0    0 -0.71026850237E+01 -0.63802998748E+02 -0.43248887929E+02  0.77406311699E+02  0.00000000000E+00 0.  1.
        -11    1    5    5    0    0 -0.13287304042E+03 -0.10894800036E+03 -0.15779851188E+03  0.23329226735E+03  0.00000000000E+00 0. -1.
          5    1    6    6  503    0  0.24745421093E+03 -0.23359115542E+03 -0.26763591830E+02  0.34137485883E+03  0.47000000000E+01 0. -1.
         -5    1    6    6    0  503  0.22682634978E+03 -0.27361526928E+03 -0.12486357892E+03  0.37673400680E+03  0.47000000000E+01 0.  1.
<mgrwt>
<rscale>  0 0.84646950E+03</rscale>
<asrwt>0</asrwt>
<pdfrwt beam="1">  1        1 0.13352046E+00 0.84646950E+03</pdfrwt>
<pdfrwt beam="2">  1       -1 0.17836677E+00 0.84646950E+03</pdfrwt>
<totfact> 0.42302948E+00</totfact>
</mgrwt>
</event>
<event>
12    1  0.3166324E-008  0.1187479E+04  0.7818608E-02  0.9123888E-01
          2   -1    0    0  501    0  0.00000000000E+00  0.00000000000E+00  0.11916320271E+04  0.11916320271E+04  0.00000000000E+00 0. -1.
         -2   -1    0    0    0  501 -0.00000000000E+00 -0.00000000000E+00 -0.14268290290E+04  0.14268290290E+04  0.00000000000E+00 0.  1.
         23    2    1    2    0    0 -0.39198650477E+03  0.10658195151E+04 -0.59426677037E+03  0.12849502573E+04  0.91211352310E+02 0.  0.
    5000000    2    1    2    0    0  0.39198650477E+03 -0.10658195151E+04  0.35906976848E+03  0.13335107988E+04  0.59974602399E+03 0.  0.
         23    2    4    4    0    0 -0.23016006920E+02 -0.63439654998E+03  0.24612418689E+02  0.64181107775E+03  0.91252228256E+02 0.  0.
         23    2    4    4    0    0  0.41500251169E+03 -0.43142296509E+03  0.33445734979E+03  0.69169972106E+03  0.90740981815E+02 0.  0.
          4    1    3    3  502    0 -0.11375678083E+03  0.31275334007E+03 -0.12810415701E+03  0.35660332577E+03  0.00000000000E+00 0. -1.
         -4    1    3    3    0  502 -0.27822972393E+03  0.75306617500E+03 -0.46616261336E+03  0.92834693155E+03  0.00000000000E+00 0.  1.
         11    1    5    5    0    0  0.11016701826E+02 -0.36845758788E+03 -0.23707794476E+02  0.36938384006E+03  0.00000000000E+00 0. -1.
        -11    1    5    5    0    0 -0.34032708746E+02 -0.26593896211E+03  0.48320213166E+02  0.27242723768E+03  0.00000000000E+00 0.  1.
          5    1    6    6  503    0  0.36038008342E+02 -0.14386195812E+02  0.62952410593E+01  0.39590664748E+02  0.47000000000E+01 0. -1.
         -5    1    6    6    0  503  0.37896450335E+03 -0.41703676927E+03  0.32816210873E+03  0.65210905631E+03  0.47000000000E+01 0.  1.
<mgrwt>
<rscale>  0 0.11874787E+04</rscale>
<asrwt>0</asrwt>
<pdfrwt beam="1">  1        2 0.18332800E+00 0.11874787E+04</pdfrwt>
<pdfrwt beam="2">  1       -2 0.21951216E+00 0.11874787E+04</pdfrwt>
<totfact> 0.18551343E+00</totfact>
</mgrwt>
</event>
<event>
12    1  0.3166324E-008  0.1076958E+04  0.7818608E-02  0.9227946E-01
         -1   -1    0    0    0  501 -0.00000000000E+00  0.00000000000E+00  0.63618578422E+03  0.63618578422E+03  0.00000000000E+00 0.  1.
          1   -1    0    0  501    0  0.00000000000E+00 -0.00000000000E+00 -0.28293701561E+04  0.28293701561E+04  0.00000000000E+00 0. -1.
         23    2    1    2    0    0  0.93402678399E+03  0.52598699791E+03 -0.15658437901E+03  0.10871554803E+04  0.91214118873E+02 0.  0.
    5000000    2    1    2    0    0 -0.93402678399E+03 -0.52598699791E+03 -0.20365999928E+04  0.23784004600E+04  0.59998405137E+03 0.  0.
         23    2    4    4    0    0 -0.54529792093E+03 -0.33100777874E+03 -0.62668199639E+03  0.89996531858E+03  0.10144593575E+03 0.  0.
         23    2    4    4    0    0 -0.38872886306E+03 -0.19497921916E+03 -0.14099179965E+04  0.14784351414E+04  0.93673292132E+02 0.  0.
          1    1    3    3  502    0  0.48038489608E+03  0.29764672888E+03 -0.12178825252E+03  0.57809653350E+03  0.00000000000E+00 0. -1.
         -1    1    3    3    0  502  0.45364188791E+03  0.22834026903E+03 -0.34796126485E+02  0.50905894683E+03  0.00000000000E+00 0.  1.
         11    1    5    5    0    0 -0.37969088079E+03 -0.17666969212E+03 -0.38574587080E+03  0.56936563113E+03  0.00000000000E+00 0.  1.
        -11    1    5    5    0    0 -0.16560704014E+03 -0.15433808663E+03 -0.24093612559E+03  0.33059968745E+03  0.00000000000E+00 0. -1.
          5    1    6    6  503    0 -0.11785295580E+03 -0.72545882579E+02 -0.31952301599E+03  0.34823737884E+03  0.47000000000E+01 0. -1.
         -5    1    6    6    0  503 -0.27087590726E+03 -0.12243333659E+03 -0.10903949805E+04  0.11301977626E+04  0.47000000000E+01 0.  1.
<mgrwt>
<rscale>  0 0.10769579E+04</rscale>
<asrwt>0</asrwt>
<pdfrwt beam="1">  1        1 0.43528771E+00 0.10769579E+04</pdfrwt>
<pdfrwt beam="2">  1       -1 0.97874737E-01 0.10769579E+04</pdfrwt>
<totfact> 0.80436692E-01</totfact>
</mgrwt>
</event>
<event>
12    1  0.3166324E-008  0.5248513E+03  0.7818608E-02  0.1007488E+00
         -2   -1    0    0    0  501 -0.00000000000E+00  0.00000000000E+00  0.29209778148E+03  0.29209778148E+03  0.00000000000E+00 0.  1.
          2   -1    0    0  501    0  0.00000000000E+00 -0.00000000000E+00 -0.11647047847E+04  0.11647047847E+04  0.00000000000E+00 0. -1.
         23    2    1    2    0    0  0.36087710967E+03  0.91654581958E+02 -0.73532210219E+02  0.39043886377E+03  0.91666077281E+02 0.  0.
    5000000    2    1    2    0    0 -0.36087710967E+03 -0.91654581958E+02 -0.79907479302E+03  0.10663637024E+04  0.59998180833E+03 0.  0.
         23    2    4    4    0    0 -0.98131044560E+02  0.23098401923E+03 -0.20662190036E+03  0.33673587476E+03  0.87835759230E+02 0.  0.
         23    2    4    4    0    0 -0.26274606511E+03 -0.32263860118E+03 -0.59245289266E+03  0.72962782766E+03  0.90692751491E+02 0.  0.
          3    1    3    3  502    0  0.18382006525E+03  0.36017195654E+02  0.85376738265E+01  0.18750985746E+03  0.00000000000E+00 0. -1.
         -3    1    3    3    0  502  0.17705704442E+03  0.55637386304E+02 -0.82069884045E+02  0.20292900631E+03  0.00000000000E+00 0.  1.
         13    1    5    5    0    0 -0.63720281382E+02  0.73486026320E+02 -0.11747895659E+03  0.15251811553E+03  0.00000000000E+00 0.  1.
        -13    1    5    5    0    0 -0.34410763178E+02  0.15749799291E+03 -0.89142943767E+02  0.18421775923E+03  0.00000000000E+00 0. -1.
          5    1    6    6  503    0 -0.19448307143E+03 -0.26566397739E+03 -0.40393000460E+03  0.52113582929E+03  0.47000000000E+01 0. -1.
         -5    1    6    6    0  503 -0.68262993687E+02 -0.56974623797E+02 -0.18852288805E+03  0.20849199837E+03  0.47000000000E+01 0.  1.
<mgrwt>
<rscale>  0 0.52485131E+03</rscale>
<asrwt>0</asrwt>
<pdfrwt beam="1">  1        2 0.17918536E+00 0.52485131E+03</pdfrwt>
<pdfrwt beam="2">  1       -2 0.44938119E-01 0.52485131E+03</pdfrwt>
<totfact> 0.96868674E+01</totfact>
</mgrwt>
</event>
<event>
12    1  0.3166324E-008  0.5252801E+03  0.7818608E-02  0.1007383E+00
         -1   -1    0    0    0  501 -0.00000000000E+00  0.00000000000E+00  0.95755712659E+03  0.95755712659E+03  0.00000000000E+00 0.  1.
          1   -1    0    0  501    0  0.00000000000E+00 -0.00000000000E+00 -0.41414972590E+03  0.41414972590E+03  0.00000000000E+00 0. -1.
         23    2    1    2    0    0  0.31831582945E+03  0.17670139357E+03  0.55483147450E+03  0.66972765980E+03  0.90270833814E+02 0.  0.
    5000000    2    1    2    0    0 -0.31831582945E+03 -0.17670139357E+03 -0.11424073800E+02  0.70197919269E+03  0.60007993446E+03 0.  0.
         23    2    4    4    0    0 -0.71739851783E+02 -0.35261203672E+03  0.66097405391E+02  0.37677269593E+03  0.90038561872E+02 0.  0.
         23    2    4    4    0    0 -0.24657597766E+03  0.17591064314E+03 -0.77521479191E+02  0.32520649677E+03  0.89473005262E+02 0.  0.
          1    1    3    3  502    0  0.18962927488E+03  0.11047993614E+03  0.25253434294E+03  0.33457237265E+03  0.00000000000E+00 0. -1.
         -1    1    3    3    0  502  0.12868655457E+03  0.66221457438E+02  0.30229713156E+03  0.33515528715E+03  0.00000000000E+00 0.  1.
         13    1    5    5    0    0 -0.85538026965E+02 -0.34421982842E+03  0.64910259394E+02  0.36057923693E+03  0.00000000000E+00 0.  1.
        -13    1    5    5    0    0  0.13798175183E+02 -0.83922083004E+01  0.11871459969E+01  0.16193458993E+02  0.00000000000E+00 0. -1.
          5    1    6    6  503    0  0.41474808172E+01  0.18304555878E+02 -0.82361155187E+01  0.21028123118E+02  0.47000000000E+01 0. -1.
         -5    1    6    6    0  503 -0.25072345848E+03  0.15760608727E+03 -0.69285363672E+02  0.30417837365E+03  0.47000000000E+01 0.  1.
<mgrwt>
<rscale>  0 0.52528006E+03</rscale>
<asrwt>0</asrwt>
<pdfrwt beam="1">  1        1 0.63715343E-01 0.52528006E+03</pdfrwt>
<pdfrwt beam="2">  1       -1 0.14731648E+00 0.52528006E+03</pdfrwt>
<totfact> 0.22108472E+01</totfact>
</mgrwt>
</event>
<event>
12    1  0.3166324E-008  0.7409303E+03  0.7818608E-02  0.9649688E-01
         -1   -1    0    0    0  501 -0.00000000000E+00  0.00000000000E+00  0.29744563831E+03  0.29744563831E+03  0.00000000000E+00 0.  1.
          1   -1    0    0  501    0  0.00000000000E+00 -0.00000000000E+00 -0.19038184142E+04  0.19038184142E+04  0.00000000000E+00 0. -1.
         23    2    1    2    0    0  0.42505665852E+03 -0.46319074214E+03 -0.63923588338E+03  0.90090167394E+03  0.88218393440E+02 0.  0.
    5000000    2    1    2    0    0 -0.42505665852E+03  0.46319074214E+03 -0.96713689253E+03  0.13003623786E+04  0.60030802108E+03 0.  0.
         23    2    4    4    0    0 -0.36846079268E+03 -0.11213934188E+02 -0.47968065855E+03  0.61175828407E+03  0.90915102568E+02 0.  0.
         23    2    4    4    0    0 -0.56595865845E+02  0.47440467633E+03 -0.48745623397E+03  0.68860409451E+03  0.91099560799E+02 0.  0.
          1    1    3    3  502    0  0.32134790004E+03 -0.33067675935E+03 -0.41350718105E+03  0.61935432574E+03  0.00000000000E+00 0. -1.
         -1    1    3    3    0  502  0.10370875848E+03 -0.13251398280E+03 -0.22572870232E+03  0.28154734819E+03  0.00000000000E+00 0.  1.
         11    1    5    5    0    0 -0.13929088629E+03 -0.97286254016E+00 -0.25552451455E+03  0.29102521368E+03  0.00000000000E+00 0. -1.
        -11    1    5    5    0    0 -0.22916990639E+03 -0.10241071648E+02 -0.22415614401E+03  0.32073307038E+03  0.00000000000E+00 0.  1.
          5    1    6    6  503    0 -0.74770699018E+02  0.40647745197E+03 -0.43973839811E+03  0.60349525695E+03  0.47000000000E+01 0. -1.
         -5    1    6    6    0  503  0.18174833173E+02  0.67927224368E+02 -0.47717835858E+02  0.85108837556E+02  0.47000000000E+01 0.  1.
<mgrwt>
<rscale>  0 0.74093031E+03</rscale>
<asrwt>0</asrwt>
<pdfrwt beam="1">  1        1 0.29289515E+00 0.74093031E+03</pdfrwt>
<pdfrwt beam="2">  1       -1 0.45760866E-01 0.74093031E+03</pdfrwt>
<totfact> 0.17129919E+01</totfact>
</mgrwt>
</event>
<event>
12    1  0.3166324E-008  0.9150603E+03  0.7818608E-02  0.9406949E-01
          2   -1    0    0  501    0  0.00000000000E+00  0.00000000000E+00  0.53078040186E+04  0.53078040186E+04  0.00000000000E+00 0. -1.
         -2   -1    0    0    0  501 -0.00000000000E+00 -0.00000000000E+00 -0.19532908591E+03  0.19532908591E+03  0.00000000000E+00 0.  1.
         23    2    1    2    0    0 -0.61131492785E+03 -0.64358078667E+03  0.30650741152E+04  0.31923430996E+04  0.92048701562E+02 0.  0.
    5000000    2    1    2    0    0  0.61131492785E+03  0.64358078667E+03  0.20474008174E+04  0.23107900049E+04  0.59999847469E+03 0.  0.
         23    2    4    4    0    0  0.32484251039E+03  0.14065032858E+03  0.13565996741E+04  0.14050028613E+04  0.91461430084E+02 0.  0.
         23    2    4    4    0    0  0.28647241746E+03  0.50293045809E+03  0.69080114339E+03  0.90578714361E+03  0.90766944285E+02 0.  0.
          2    1    3    3  502    0 -0.58081691821E+02 -0.47406188979E+02  0.18449458484E+03  0.19914587999E+03  0.00000000000E+00 0. -1.
         -2    1    3    3    0  502 -0.55323323603E+03 -0.59617459769E+03  0.28805795304E+04  0.29931972196E+04  0.00000000000E+00 0.  1.
         13    1    5    5    0    0  0.18416669933E+03  0.10133330630E+03  0.63893643751E+03  0.67262588657E+03  0.00000000000E+00 0. -1.
        -13    1    5    5    0    0  0.14067581106E+03  0.39317022277E+02  0.71766323654E+03  0.73237697474E+03  0.00000000000E+00 0.  1.
          5    1    6    6  503    0  0.21473478092E+03  0.29042639283E+03  0.41164194605E+03  0.54765837666E+03  0.47000000000E+01 0. -1.
         -5    1    6    6    0  503  0.71737636542E+02  0.21250406526E+03  0.27915919734E+03  0.35812876694E+03  0.47000000000E+01 0.  1.
<mgrwt>
<rscale>  0 0.91506032E+03</rscale>
<asrwt>0</asrwt>
<pdfrwt beam="1">  1        2 0.81658512E+00 0.91506032E+03</pdfrwt>
<pdfrwt beam="2">  1       -2 0.30050633E-01 0.91506032E+03</pdfrwt>
<totfact> 0.14937248E-01</totfact>
</mgrwt>
</event>
<event>
12    1  0.3166324E-008  0.1745835E+04  0.7818608E-02  0.8735646E-01
          1   -1    0    0  501    0  0.00000000000E+00  0.00000000000E+00  0.32874706816E+04  0.32874706816E+04  0.00000000000E+00 0. -1.
         -1   -1    0    0    0  501 -0.00000000000E+00 -0.00000000000E+00 -0.11128401048E+04  0.11128401048E+04  0.00000000000E+00 0.  1.
         23    2    1    2    0    0  0.12068536320E+04 -0.12263661757E+04  0.18875271098E+04  0.25556407905E+04  0.89841935992E+02 0.  0.
    5000000    2    1    2    0    0 -0.12068536320E+04  0.12263661757E+04  0.28710346696E+03  0.18446699959E+04  0.59992441762E+03 0.  0.
         23    2    4    4    0    0 -0.70081056144E+03  0.43358013928E+03 -0.75174235835E+02  0.83272116127E+03  0.92984872359E+02 0.  0.
         23    2    4    4    0    0 -0.50604307059E+03  0.79278603646E+03  0.36227770279E+03  0.10119488346E+04  0.90587090973E+02 0.  0.
          1    1    3    3  502    0  0.63883525804E+03 -0.60160191043E+03  0.91730135115E+03  0.12694396852E+04  0.00000000000E+00 0. -1.
         -1    1    3    3    0  502  0.56801837398E+03 -0.62476426531E+03  0.97022575868E+03  0.12862011053E+04  0.00000000000E+00 0.  1.
         13    1    5    5    0    0 -0.20642183080E+03  0.10816118059E+03  0.17214389279E+02  0.23367744525E+03  0.00000000000E+00 0. -1.
        -13    1    5    5    0    0 -0.49438873063E+03  0.32541895869E+03 -0.92388625113E+02  0.59904371602E+03  0.00000000000E+00 0.  1.
          5    1    6    6  503    0 -0.22893935318E+03  0.27761240374E+03  0.14138222106E+03  0.38664311267E+03  0.47000000000E+01 0. -1.
         -5    1    6    6    0  503 -0.27710371741E+03  0.51517363272E+03  0.22089548174E+03  0.62530572195E+03  0.47000000000E+01 0.  1.
<mgrwt>
<rscale>  0 0.17458350E+04</rscale>
<asrwt>0</asrwt>
<pdfrwt beam="1">  1        1 0.50576472E+00 0.17458350E+04</pdfrwt>
<pdfrwt beam="2">  1       -1 0.17120617E+00 0.17458350E+04</pdfrwt>
<totfact> 0.81271720E-02</totfact>
</mgrwt>
</event>
<event>
12    1  0.3166324E-008  0.1541055E+04  0.7818608E-02  0.8857601E-01
         -2   -1    0    0    0  501 -0.00000000000E+00  0.00000000000E+00  0.17117661167E+04  0.17117661167E+04  0.00000000000E+00 0.  1.
          2   -1    0    0  501    0  0.00000000000E+00 -0.00000000000E+00 -0.14573077317E+04  0.14573077317E+04  0.00000000000E+00 0. -1.
         23    2    1    2    0    0  0.14823132313E+04 -0.10048864917E+03 -0.20411215794E+03  0.15024088950E+04  0.90665487111E+02 0.  0.
    5000000    2    1    2    0    0 -0.14823132313E+04  0.10048864917E+03  0.45857054290E+03  0.16666649534E+04  0.60011218925E+03 0.  0.
         23    2    4    4    0    0 -0.46410406162E+03 -0.23006578291E+03  0.11155671943E+03  0.53788128402E+03  0.92458258498E+02 0.  0.
         23    2    4    4    0    0 -0.10182091697E+04  0.33055443208E+03  0.34701382346E+03  0.11287836693E+04  0.87851196583E+02 0.  0.
          3    1    3    3  502    0  0.13714153450E+04 -0.68798839810E+02 -0.18903853273E+03  0.13860912292E+04  0.00000000000E+00 0. -1.
         -3    1    3    3    0  502  0.11089788627E+03 -0.31689809359E+02 -0.15073625210E+02  0.11631766579E+03  0.00000000000E+00 0.  1.
         11    1    5    5    0    0 -0.41989128063E+03 -0.18332680813E+03  0.76174999380E+02  0.46445671129E+03  0.00000000000E+00 0. -1.
        -11    1    5    5    0    0 -0.44212780989E+02 -0.46738974782E+02  0.35381720054E+02  0.73424572729E+02  0.00000000000E+00 0.  1.
          5    1    6    6  503    0 -0.92339606463E+03  0.28974071106E+03  0.28777659567E+03  0.10096768943E+04  0.47000000000E+01 0. -1.
         -5    1    6    6    0  503 -0.94813105029E+02  0.40813721023E+02  0.59237227791E+02  0.11910677506E+03  0.47000000000E+01 0.  1.
<mgrwt>
<rscale>  0 0.15410553E+04</rscale>
<asrwt>0</asrwt>
<pdfrwt beam="1">  1        2 0.22420119E+00 0.15410553E+04</pdfrwt>
<pdfrwt beam="2">  1       -2 0.26334863E+00 0.15410553E+04</pdfrwt>
<totfact> 0.66936031E-01</totfact>
</mgrwt>
</event>
<event>
12    1  0.3166324E-008  0.1422684E+04  0.7818608E-02  0.8937561E-01
         -2   -1    0    0    0  501 -0.00000000000E+00  0.00000000000E+00  0.11712408515E+04  0.11712408515E+04  0.00000000000E+00 0.  1.
          2   -1    0    0  501    0  0.00000000000E+00 -0.00000000000E+00 -0.19451643867E+04  0.19451643867E+04  0.00000000000E+00 0. -1.
         23    2    1    2    0    0 -0.10500944027E+03 -0.13693359014E+04  0.10258771154E+03  0.13801983865E+04  0.91189660911E+02 0.  0.
    5000000    2    1    2    0    0  0.10500944027E+03  0.13693359014E+04 -0.87651124677E+03  0.17362068517E+04  0.60002872664E+03 0.  0.
         23    2    4    4    0    0  0.14425073098E+03  0.13631933071E+04 -0.89149913340E+03  0.16378081480E+04  0.92415143746E+02 0.  0.
         23    2    4    4    0    0 -0.39241290709E+02  0.61425942734E+01  0.14987886632E+02  0.98398703714E+02  0.88769689568E+02 0.  0.
          2    1    3    3  502    0 -0.11002568901E+02 -0.70423875210E+03  0.68020445410E+02  0.70760162342E+03  0.00000000000E+00 0. -1.
         -2    1    3    3    0  502 -0.94006871371E+02 -0.66509714929E+03  0.34567266132E+02  0.67259676311E+03  0.00000000000E+00 0.  1.
         11    1    5    5    0    0  0.76743015487E+01  0.44059551924E+03 -0.30882202442E+03  0.53810254529E+03  0.00000000000E+00 0.  1.
        -11    1    5    5    0    0  0.13657642943E+03  0.92259778788E+03 -0.58267710898E+03  0.10997056027E+04  0.00000000000E+00 0. -1.
          5    1    6    6  503    0  0.21436206063E+02  0.24072891792E+02  0.12542906728E+02  0.34906010353E+02  0.47000000000E+01 0. -1.
         -5    1    6    6    0  503 -0.60677496771E+02 -0.17930297518E+02  0.24449799043E+01  0.63492693361E+02  0.47000000000E+01 0.  1.
<mgrwt>
<rscale>  0 0.14226836E+04</rscale>
<asrwt>0</asrwt>
<pdfrwt beam="1">  1        2 0.29925606E+00 0.14226836E+04</pdfrwt>
<pdfrwt beam="2">  1       -2 0.18019090E+00 0.14226836E+04</pdfrwt>
<totfact> 0.12286473E+00</totfact>
</mgrwt>
</event>
<event>
12    1  0.3166324E-008  0.6720877E+03  0.7818608E-02  0.9766194E-01
          2   -1    0    0  501    0  0.00000000000E+00  0.00000000000E+00  0.59167597319E+03  0.59167597319E+03  0.00000000000E+00 0.  1.
         -2   -1    0    0    0  501 -0.00000000000E+00 -0.00000000000E+00 -0.93970062933E+03  0.93970062933E+03  0.00000000000E+00 0. -1.
         23    2    1    2    0    0  0.37920295806E+03 -0.39078219217E+03 -0.45342025786E+03  0.71438846914E+03  0.90858953811E+02 0.  0.
    5000000    2    1    2    0    0 -0.37920295806E+03  0.39078219217E+03  0.10539560172E+03  0.81698813337E+03  0.59987979804E+03 0.  0.
         23    2    4    4    0    0 -0.50382682034E+03  0.16865526440E+03  0.84514623503E+02  0.54553645407E+03  0.90450196407E+02 0.  0.
         23    2    4    4    0    0  0.12462386228E+03  0.22212692777E+03  0.20880978218E+02  0.27145167930E+03  0.91534255093E+02 0.  0.
          2    1    3    3  502    0  0.21845507994E+03 -0.19940453716E+03 -0.29912596121E+03  0.42066748396E+03  0.00000000000E+00 0. -1.
         -2    1    3    3    0  502  0.16074787812E+03 -0.19137765501E+03 -0.15429429665E+03  0.29372098518E+03  0.00000000000E+00 0.  1.
         11    1    5    5    0    0 -0.20280751064E+03  0.35015383589E+02  0.64074134234E+02  0.21555152084E+03  0.00000000000E+00 0. -1.
        -11    1    5    5    0    0 -0.30101930970E+03  0.13363988081E+03  0.20440489268E+02  0.32998493323E+03  0.00000000000E+00 0.  1.
          5    1    6    6  503    0  0.90668995940E+02  0.94049783525E+02 -0.21023756380E+02  0.13240210322E+03  0.47000000000E+01 0. -1.
         -5    1    6    6    0  503  0.33954866340E+02  0.12807714424E+03  0.41904734598E+02  0.13904957608E+03  0.47000000000E+01 0.  1.
<mgrwt>
<rscale>  0 0.67208772E+03</rscale>
<asrwt>0</asrwt>
<pdfrwt beam="1">  1        2 0.91027073E-01 0.67208772E+03</pdfrwt>
<pdfrwt beam="2">  1       -2 0.14456933E+00 0.67208772E+03</pdfrwt>
<totfact> 0.17022489E+01</totfact>
</mgrwt>
</event>
<event>
12    1  0.3166324E-008  0.1390491E+04  0.7818608E-02  0.8960731E-01
          1   -1    0    0  501    0  0.00000000000E+00  0.00000000000E+00  0.26175861862E+04  0.26175861862E+04  0.00000000000E+00 0. -1.
         -1   -1    0    0    0  501 -0.00000000000E+00 -0.00000000000E+00 -0.17391232134E+04  0.17391232134E+04  0.00000000000E+00 0.  1.
         23    2    1    2    0    0  0.12947081329E+04  0.34237035617E+03  0.20696663589E+04  0.24666406672E+04  0.85502827422E+02 0.  0.
    5000000    2    1    2    0    0 -0.12947081329E+04 -0.34237035617E+03 -0.11912033860E+04  0.18900687324E+04  0.59992307500E+03 0.  0.
         23    2    4    4    0    0 -0.10268977190E+04 -0.47217295942E+03 -0.10598942459E+04  0.15521420459E+04  0.91120190322E+02 0.  0.
         23    2    4    4    0    0 -0.26781041392E+03  0.12980260325E+03 -0.13130914012E+03  0.33792668651E+03  0.91549011795E+02 0.  0.
          2    1    3    3  502    0  0.46635837470E+03  0.90886431253E+02  0.78216550047E+03  0.91516848021E+03  0.00000000000E+00 0.  1.
         -2    1    3    3    0  502  0.82834975824E+03  0.25148392492E+03  0.12875008585E+04  0.15514721870E+04  0.00000000000E+00 0. -1.
         11    1    5    5    0    0 -0.23391915219E+03 -0.69067365575E+02 -0.21015812380E+03  0.32195482252E+03  0.00000000000E+00 0. -1.
        -11    1    5    5    0    0 -0.79297856683E+03 -0.40310559385E+03 -0.84973612213E+03  0.12301872234E+04  0.00000000000E+00 0.  1.
          5    1    6    6  503    0 -0.19426574170E+03  0.55582210281E+02 -0.11357855154E+03  0.23184205371E+03  0.47000000000E+01 0. -1.
         -5    1    6    6    0  503 -0.73544672216E+02  0.74220392974E+02 -0.17730588582E+02  0.10608463280E+03  0.47000000000E+01 0.  1.
<mgrwt>
<rscale>  0 0.13904907E+04</rscale>
<asrwt>0</asrwt>
<pdfrwt beam="1">  1        1 0.40270557E+00 0.13904907E+04</pdfrwt>
<pdfrwt beam="2">  1       -1 0.26755742E+00 0.13904907E+04</pdfrwt>
<totfact> 0.57626794E-02</totfact>
</mgrwt>
</event>
<event>
12    1  0.3958191E-008  0.1387903E+04  0.7818608E-02  0.8962622E-01
          1   -1    0    0  501    0  0.00000000000E+00  0.00000000000E+00  0.22236111092E+04  0.22236111092E+04  0.00000000000E+00 0. -1.
         -1   -1    0    0    0  501 -0.00000000000E+00 -0.00000000000E+00 -0.87043393473E+03  0.87043393473E+03  0.00000000000E+00 0.  1.
         23    2    1    2    0    0  0.13169305442E+04  0.14442948478E+03  0.66475815093E+03  0.14850528119E+04  0.91173025249E+02 0.  0.
    5000000    2    1    2    0    0 -0.13169305442E+04 -0.14442948478E+03  0.68841902355E+03  0.16089922320E+04  0.59980773284E+03 0.  0.
         23    2    4    4    0    0 -0.58686858148E+03  0.21990270794E+03  0.27659392512E+03  0.69078214008E+03  0.88903502520E+02 0.  0.
         23    2    4    4    0    0 -0.73006196275E+03 -0.36433219272E+03  0.41182509843E+03  0.91821009195E+03  0.88212500061E+02 0.  0.
          3    1    3    3  502    0  0.52381527785E+03  0.77122778524E+02  0.22090517388E+03  0.57369806007E+03  0.00000000000E+00 0. -1.
         -3    1    3    3    0  502  0.79311526637E+03  0.67306706258E+02  0.44385297705E+03  0.91135475184E+03  0.00000000000E+00 0.  1.
         13    1    5    5    0    0 -0.18411854375E+03  0.10878304669E+03  0.11508039630E+03  0.24285157404E+03  0.00000000000E+00 0. -1.
        -13    1    5    5    0    0 -0.40275003773E+03  0.11111966125E+03  0.16151352881E+03  0.44793056605E+03  0.00000000000E+00 0.  1.
          5    1    6    6  503    0 -0.14823464200E+03 -0.10492438730E+03  0.65607906346E+02  0.19315569760E+03  0.47000000000E+01 0. -1.
         -5    1    6    6    0  503 -0.58182732074E+03 -0.25940780541E+03  0.34621719208E+03  0.72505439435E+03  0.47000000000E+01 0.  1.
<mgrwt>
<rscale>  0 0.13879030E+04</rscale>
<asrwt>0</asrwt>
<pdfrwt beam="1">  1        1 0.34209401E+00 0.13879030E+04</pdfrwt>
<pdfrwt beam="2">  1       -1 0.13391291E+00 0.13879030E+04</pdfrwt>
<totfact> 0.95084803E-01</totfact>
</mgrwt>
</event>
<event>
12    1  0.3166324E-008  0.1292170E+04  0.7818608E-02  0.9035798E-01
         -4   -1    0    0    0  501 -0.00000000000E+00  0.00000000000E+00  0.14442898561E+04  0.14442898561E+04  0.00000000000E+00 0.  1.
          4   -1    0    0  501    0  0.00000000000E+00 -0.00000000000E+00 -0.21584855538E+04  0.21584855538E+04  0.00000000000E+00 0. -1.
         23    2    1    2    0    0 -0.44195981843E+03 -0.11698247074E+04 -0.15420611274E+04  0.19874549840E+04  0.90589543766E+02 0.  0.
    5000000    2    1    2    0    0  0.44195981843E+03  0.11698247074E+04  0.82786542966E+03  0.16153204259E+04  0.60006714763E+03 0.  0.
         23    2    4    4    0    0  0.40190511063E+01  0.61284952087E+03  0.16654298474E+03  0.64174240673E+03  0.92174089798E+02 0.  0.
         23    2    4    4    0    0  0.43794076732E+03  0.55697518653E+03  0.66132244493E+03  0.97357801921E+03  0.92159151592E+02 0.  0.
          2    1    3    3  502    0 -0.20978534165E+03 -0.67936724762E+03 -0.85942640599E+03  0.11154207699E+04  0.00000000000E+00 0. -1.
         -2    1    3    3    0  502 -0.23217447678E+03 -0.49045745978E+03 -0.68263472143E+03  0.87203421402E+03  0.00000000000E+00 0.  1.
         11    1    5    5    0    0 -0.33209694537E+02  0.23797640033E+03  0.94505408604E+02  0.25819938649E+03  0.00000000000E+00 0. -1.
        -11    1    5    5    0    0  0.37228745644E+02  0.37487312053E+03  0.72037576132E+02  0.38354302024E+03  0.00000000000E+00 0.  1.
          5    1    6    6  503    0  0.14346894219E+03  0.24999153911E+03  0.24447558031E+03  0.37798082804E+03  0.47000000000E+01 0. -1.
         -5    1    6    6    0  503  0.29447182513E+03  0.30698364742E+03  0.41684686462E+03  0.59559719117E+03  0.47000000000E+01 0.  1.
<mgrwt>
<rscale>  0 0.12921698E+04</rscale>
<asrwt>0</asrwt>
<pdfrwt beam="1">  1        4 0.33207470E+00 0.12921698E+04</pdfrwt>
<pdfrwt beam="2">  1       -4 0.22219844E+00 0.12921698E+04</pdfrwt>
<totfact> 0.34158710E-03</totfact>
</mgrwt>
</event>
<event>
12    1  0.3166324E-008  0.1528648E+04  0.7818608E-02  0.8865622E-01
          2   -1    0    0  501    0  0.00000000000E+00  0.00000000000E+00  0.39179085681E+04  0.39179085681E+04  0.00000000000E+00 0. -1.
         -2   -1    0    0    0  501 -0.00000000000E+00 -0.00000000000E+00 -0.80454559110E+03  0.80454559110E+03  0.00000000000E+00 0.  1.
         23    2    1    2    0    0 -0.39990832347E+03 -0.14309686524E+04  0.26741110222E+04  0.30607925169E+04  0.99915571632E+02 0.  0.
    5000000    2    1    2    0    0  0.39990832347E+03  0.14309686524E+04  0.43925195484E+03  0.16616616423E+04  0.60048245797E+03 0.  0.
         23    2    4    4    0    0  0.13506280017E+03  0.11990599833E+04  0.19680320876E+03  0.12258873038E+04  0.89896468837E+02 0.  0.
         23    2    4    4    0    0  0.26484552330E+03  0.23190866908E+03  0.24244874608E+03  0.43577433848E+03  0.84812131175E+02 0.  0.
          1    1    3    3  502    0 -0.22842715366E+03 -0.63339776019E+03  0.12185562334E+04  0.13922108249E+04  0.00000000000E+00 0. -1.
         -1    1    3    3    0  502 -0.17148116981E+03 -0.79757089220E+03  0.14555547888E+04  0.16685816920E+04  0.00000000000E+00 0.  1.
         13    1    5    5    0    0  0.12900403580E+03  0.10511335016E+04  0.14431581185E+03  0.10688080898E+04  0.00000000000E+00 0. -1.
        -13    1    5    5    0    0  0.60587643670E+01  0.14792648175E+03  0.52487396912E+02  0.15707921397E+03  0.00000000000E+00 0.  1.
          5    1    6    6  503    0  0.24340716310E+03  0.17419538134E+03  0.18832879682E+03  0.35366778711E+03  0.47000000000E+01 0. -1.
         -5    1    6    6    0  503  0.21438360205E+02  0.57713287740E+02  0.54119949263E+02  0.82106551372E+02  0.47000000000E+01 0.  1.
<mgrwt>
<rscale>  0 0.15286484E+04</rscale>
<asrwt>0</asrwt>
<pdfrwt beam="1">  1        2 0.60275515E+00 0.15286484E+04</pdfrwt>
<pdfrwt beam="2">  1       -2 0.12377625E+00 0.15286484E+04</pdfrwt>
<totfact> 0.18778688E-01</totfact>
</mgrwt>
</event>
<event>
12    1  0.3166324E-008  0.4641272E+03  0.7818608E-02  0.1023591E+00
         -1   -1    0    0    0  501 -0.00000000000E+00  0.00000000000E+00  0.18364439347E+03  0.18364439347E+03  0.00000000000E+00 0.  1.
          1   -1    0    0  501    0  0.00000000000E+00 -0.00000000000E+00 -0.15044684211E+04  0.15044684211E+04  0.00000000000E+00 0. -1.
         23    2    1    2    0    0  0.25227609354E+03  0.23160635924E+03 -0.53880792806E+03  0.64457484331E+03  0.88758167400E+02 0.  0.
    5000000    2    1    2    0    0 -0.25227609354E+03 -0.23160635924E+03 -0.78201609956E+03  0.10435379713E+04  0.60011464277E+03 0.  0.
         23    2    4    4    0    0  0.63919797900E+02 -0.24237305536E+03 -0.96321080852E+02  0.28302647692E+03  0.89419223280E+02 0.  0.
         23    2    4    4    0    0 -0.31619589144E+03  0.10766696124E+02 -0.68569501871E+03  0.76051149433E+03  0.90023945835E+02 0.  0.
          1    1    3    3  502    0  0.97928965637E+02  0.13470339362E+03 -0.20367334653E+03  0.26309298480E+03  0.00000000000E+00 0. -1.
         -1    1    3    3    0  502  0.15434712790E+03  0.96902965615E+02 -0.33513458153E+03  0.38148185851E+03  0.00000000000E+00 0.  1.
         13    1    5    5    0    0  0.36455770233E+02 -0.86201242137E+02 -0.80897779209E+02  0.12370985414E+03  0.00000000000E+00 0. -1.
        -13    1    5    5    0    0  0.27464027666E+02 -0.15617181323E+03 -0.15423301643E+02  0.15931662279E+03  0.00000000000E+00 0.  1.
          5    1    6    6  503    0 -0.27627282174E+03  0.37771048807E+02 -0.60882354379E+03  0.66965776456E+03  0.47000000000E+01 0. -1.
         -5    1    6    6    0  503 -0.39923069695E+02 -0.27004352683E+02 -0.76871474923E+02  0.90853729778E+02  0.47000000000E+01 0.  1.
<mgrwt>
<rscale>  0 0.46412720E+03</rscale>
<asrwt>0</asrwt>
<pdfrwt beam="1">  1        1 0.23145667E+00 0.46412720E+03</pdfrwt>
<pdfrwt beam="2">  1       -1 0.28252985E-01 0.46412720E+03</pdfrwt>
<totfact> 0.78166594E+01</totfact>
</mgrwt>
</event>
<event>
12    1  0.3166324E-008  0.6362243E+03  0.7818608E-02  0.9832977E-01
          1   -1    0    0  501    0  0.00000000000E+00  0.00000000000E+00  0.28947527579E+04  0.28947527579E+04  0.00000000000E+00 0. -1.
         -1   -1    0    0    0  501 -0.00000000000E+00 -0.00000000000E+00 -0.19441361921E+03  0.19441361921E+03  0.00000000000E+00 0.  1.
         23    2    1    2    0    0  0.61066565115E+03  0.26007616768E+02  0.14237128088E+04  0.15518640083E+04  0.87947739262E+02 0.  0.
    5000000    2    1    2    0    0 -0.61066565115E+03 -0.26007616768E+02  0.12766263299E+04  0.15373023688E+04  0.59994570856E+03 0.  0.
         23    2    4    4    0    0 -0.10097696925E+03 -0.23646006454E+02  0.86480471330E+03  0.87584762190E+03  0.92012948581E+02 0.  0.
         23    2    4    4    0    0 -0.50968868190E+03 -0.23616103142E+01  0.41182161658E+03  0.66145474685E+03  0.90206477549E+02 0.  0.
          1    1    3    3  502    0  0.39439638107E+03 -0.24983431115E+02  0.89606177230E+03  0.97933619202E+03  0.00000000000E+00 0. -1.
         -1    1    3    3    0  502  0.21626927008E+03  0.50991047883E+02  0.52765103650E+03  0.57252781632E+03  0.00000000000E+00 0.  1.
         13    1    5    5    0    0 -0.73275594800E+02  0.28353878166E+02  0.43735079049E+03  0.44435230296E+03  0.00000000000E+00 0.  1.
        -13    1    5    5    0    0 -0.27701374446E+02 -0.51999884619E+02  0.42745392281E+03  0.43149531894E+03  0.00000000000E+00 0. -1.
          5    1    6    6  503    0 -0.23002810556E+02 -0.19565401767E+02  0.26301952530E+02  0.40321420444E+02  0.47000000000E+01 0. -1.
         -5    1    6    6    0  503 -0.48668587135E+03  0.17203791453E+02  0.38551966405E+03  0.62113332641E+03  0.47000000000E+01 0.  1.
<mgrwt>
<rscale>  0 0.63622434E+03</rscale>
<asrwt>0</asrwt>
<pdfrwt beam="1">  1        1 0.44534655E+00 0.63622434E+03</pdfrwt>
<pdfrwt beam="2">  1       -1 0.29909790E-01 0.63622434E+03</pdfrwt>
<totfact> 0.79326208E+00</totfact>
</mgrwt>
</event>
<event>
12    1  0.3166324E-008  0.7565679E+03  0.7818608E-02  0.9625102E-01
          2   -1    0    0  501    0  0.00000000000E+00  0.00000000000E+00  0.18264517918E+04  0.18264517918E+04  0.00000000000E+00 0. -1.
         -2   -1    0    0    0  501 -0.00000000000E+00 -0.00000000000E+00 -0.43948483632E+03  0.43948483632E+03  0.00000000000E+00 0.  1.
         23    2    1    2    0    0 -0.47225418742E+03  0.44715419689E+03  0.44332785577E+02  0.65797559548E+03  0.89418091229E+02 0.  0.
    5000000    2    1    2    0    0  0.47225418742E+03 -0.44715419689E+03  0.13426341699E+04  0.16079610326E+04  0.59991772345E+03 0.  0.
         23    2    4    4    0    0  0.16643988484E+03 -0.51646482052E+03  0.73451010608E+03  0.91760561575E+03  0.89759812966E+02 0.  0.
         23    2    4    4    0    0  0.30581430258E+03  0.69310623628E+02  0.60812406380E+03  0.69035541685E+03  0.91920478661E+02 0.  0.
          1    1    3    3  502    0 -0.30846117485E+02  0.66000635196E+02  0.12434381432E+02  0.73906567041E+02  0.00000000000E+00 0. -1.
         -1    1    3    3    0  502 -0.44140806993E+03  0.38115356170E+03  0.31898404145E+02  0.58406902844E+03  0.00000000000E+00 0.  1.
         11    1    5    5    0    0  0.11970949860E+03 -0.39636064885E+03  0.61795601341E+03  0.74384256568E+03  0.00000000000E+00 0. -1.
        -11    1    5    5    0    0  0.46730386244E+02 -0.12010417168E+03  0.11655409268E+03  0.17376305008E+03  0.00000000000E+00 0.  1.
          5    1    6    6  503    0  0.24908548589E+03  0.62400701981E+02  0.55771220791E+03  0.61400523103E+03  0.47000000000E+01 0. -1.
         -5    1    6    6    0  503  0.56728816688E+02  0.69099216470E+01  0.50411855890E+02  0.76350185816E+02  0.47000000000E+01 0.  1.
<mgrwt>
<rscale>  0 0.75656790E+03</rscale>
<asrwt>0</asrwt>
<pdfrwt beam="1">  1        2 0.28099258E+00 0.75656790E+03</pdfrwt>
<pdfrwt beam="2">  1       -2 0.67613052E-01 0.75656790E+03</pdfrwt>
<totfact> 0.17221261E+01</totfact>
</mgrwt>
</event>
<event>
12    1  0.3166324E-008  0.3916719E+03  0.7818608E-02  0.1046702E+00
         -2   -1    0    0    0  501 -0.00000000000E+00  0.00000000000E+00  0.36111725191E+03  0.36111725191E+03  0.00000000000E+00 0. -1.
          2   -1    0    0  501    0  0.00000000000E+00 -0.00000000000E+00 -0.72110757144E+03  0.72110757144E+03  0.00000000000E+00 0.  1.
         23    2    1    2    0    0 -0.65208198352E+02 -0.30608427864E+03 -0.23796745653E+02  0.32649175362E+03  0.89949348615E+02 0.  0.
    5000000    2    1    2    0    0  0.65208198352E+02  0.30608427864E+03 -0.33619357388E+03  0.75573306972E+03  0.60013886625E+03 0.  0.
         23    2    4    4    0    0 -0.94050576990E+02  0.43839226328E+02  0.12972345404E+03  0.19037290831E+03  0.92985379989E+02 0.  0.
         23    2    4    4    0    0  0.15925877534E+03  0.26224505231E+03 -0.46591702792E+03  0.56536016141E+03  0.91747535240E+02 0.  0.
          2    1    3    3  502    0 -0.80132648232E+02 -0.16216329782E+03 -0.10406983815E+02  0.18118079861E+03  0.00000000000E+00 0. -1.
         -2    1    3    3    0  502  0.14924449880E+02 -0.14392098082E+03 -0.13389761838E+02  0.14531095502E+03  0.00000000000E+00 0.  1.
         11    1    5    5    0    0  0.10554397428E+02 -0.14403222905E+02  0.28296471079E+02  0.33459504041E+02  0.00000000000E+00 0. -1.
        -11    1    5    5    0    0 -0.10460497442E+03  0.58242449233E+02  0.10142698296E+03  0.15691340427E+03  0.00000000000E+00 0.  1.
          5    1    6    6  503    0  0.76762007617E+01 -0.68421060321E+01 -0.18421311112E+02  0.21614189233E+02  0.47000000000E+01 0. -1.
         -5    1    6    6    0  503  0.15158257458E+03  0.26908715835E+03 -0.44749571681E+03  0.54374597218E+03  0.47000000000E+01 0.  1.
<mgrwt>
<rscale>  0 0.39167190E+03</rscale>
<asrwt>0</asrwt>
<pdfrwt beam="1">  1        2 0.11093963E+00 0.39167190E+03</pdfrwt>
<pdfrwt beam="2">  1       -2 0.55556501E-01 0.39167190E+03</pdfrwt>
<totfact> 0.12493364E+02</totfact>
</mgrwt>
</event>
<event>
12    1  0.3166324E-008  0.8259065E+03  0.7818608E-02  0.9523257E-01
         -2   -1    0    0    0  501 -0.00000000000E+00  0.00000000000E+00  0.30732175248E+03  0.30732175248E+03  0.00000000000E+00 0.  1.
          2   -1    0    0  501    0  0.00000000000E+00 -0.00000000000E+00 -0.24230837813E+04  0.24230837813E+04  0.00000000000E+00 0. -1.
         23    2    1    2    0    0 -0.38056313430E+03  0.64788586886E+03 -0.10585959396E+04  0.13013683822E+04  0.91377812859E+02 0.  0.
    5000000    2    1    2    0    0  0.38056313430E+03 -0.64788586886E+03 -0.10571660892E+04  0.14290371515E+04  0.59996886754E+03 0.  0.
         23    2    4    4    0    0  0.48027451641E+03 -0.56191465373E+03 -0.10290099529E+04  0.12708197022E+04  0.98537013966E+02 0.  0.
         23    2    4    4    0    0 -0.99711382109E+02 -0.85971215127E+02 -0.28156136333E+02  0.15821744936E+03  0.83105858491E+02 0.  0.
          4    1    3    3  502    0 -0.14380313194E+03  0.33179787642E+03 -0.48548981518E+03  0.60536727050E+03  0.00000000000E+00 0. -1.
         -4    1    3    3    0  502 -0.23676000237E+03  0.31608799244E+03 -0.57310612441E+03  0.69600111172E+03  0.00000000000E+00 0.  1.
         13    1    5    5    0    0  0.16838264129E+03 -0.23507497449E+03 -0.33277922195E+03  0.44085708351E+03  0.00000000000E+00 0. -1.
        -13    1    5    5    0    0  0.31189187513E+03 -0.32683967924E+03 -0.69623073090E+03  0.82996261864E+03  0.00000000000E+00 0.  1.
          5    1    6    6  503    0  0.52956345475E+01 -0.38240403468E+02 -0.16301209426E+02  0.42168609550E+02  0.47000000000E+01 0. -1.
         -5    1    6    6    0  503 -0.10500701666E+03 -0.47730811659E+02 -0.11854926907E+02  0.11604883981E+03  0.47000000000E+01 0.  1.
<mgrwt>
<rscale>  0 0.82590646E+03</rscale>
<asrwt>0</asrwt>
<pdfrwt beam="1">  1        2 0.37278211E+00 0.82590646E+03</pdfrwt>
<pdfrwt beam="2">  1       -2 0.47280271E-01 0.82590646E+03</pdfrwt>
<totfact> 0.16889337E+01</totfact>
</mgrwt>
</event>
<event>
12    1  0.3166324E-008  0.6790752E+03  0.7818608E-02  0.9753701E-01
         -2   -1    0    0    0  501 -0.00000000000E+00  0.00000000000E+00  0.54998376716E+03  0.54998376716E+03  0.00000000000E+00 0. -1.
          2   -1    0    0  501    0  0.00000000000E+00 -0.00000000000E+00 -0.11945172264E+04  0.11945172264E+04  0.00000000000E+00 0.  1.
         23    2    1    2    0    0 -0.64103282578E+03 -0.18626838934E+03 -0.49172939600E+03  0.83404559900E+03  0.90638103042E+02 0.  0.
    5000000    2    1    2    0    0  0.64103282578E+03  0.18626838934E+03 -0.15280406322E+03  0.91045539453E+03  0.59996745503E+03 0.  0.
         23    2    4    4    0    0  0.21511637333E+03  0.18785439112E+02  0.21203778734E+03  0.31852814803E+03  0.99359000777E+02 0.  0.
         23    2    4    4    0    0  0.42591645246E+03  0.16748295023E+03 -0.36484185055E+03  0.59192724649E+03  0.88390758217E+02 0.  0.
          1    1    3    3  502    0 -0.26352470392E+03 -0.42753666678E+02 -0.23353038372E+03  0.35469646983E+03  0.00000000000E+00 0. -1.
         -1    1    3    3    0  502 -0.37750812186E+03 -0.14351472266E+03 -0.25819901228E+03  0.47934912917E+03  0.00000000000E+00 0.  1.
         13    1    5    5    0    0  0.15630229856E+03 -0.17134733335E+02  0.97981864844E+02  0.18526859815E+03  0.00000000000E+00 0. -1.
        -13    1    5    5    0    0  0.58814074762E+02  0.35920172448E+02  0.11405592249E+03  0.13325954988E+03  0.00000000000E+00 0.  1.
          5    1    6    6  503    0  0.21624392041E+03  0.11499879390E+03 -0.15057378274E+03  0.28754253557E+03  0.47000000000E+01 0. -1.
         -5    1    6    6    0  503  0.20967253204E+03  0.52484156324E+02 -0.21426806782E+03  0.30438471092E+03  0.47000000000E+01 0.  1.
<mgrwt>
<rscale>  0 0.67907518E+03</rscale>
<asrwt>0</asrwt>
<pdfrwt beam="1">  1        2 0.18377188E+00 0.67907518E+03</pdfrwt>
<pdfrwt beam="2">  1       -2 0.84612888E-01 0.67907518E+03</pdfrwt>
<totfact> 0.23866205E+01</totfact>
</mgrwt>
</event>
<event>
12    1  0.3166324E-008  0.8787372E+03  0.7818608E-02  0.9452558E-01
         -1   -1    0    0    0  501 -0.00000000000E+00  0.00000000000E+00  0.16685033066E+04  0.16685033066E+04  0.00000000000E+00 0.  1.
          1   -1    0    0  501    0  0.00000000000E+00 -0.00000000000E+00 -0.99994678640E+03  0.99994678640E+03  0.00000000000E+00 0. -1.
         23    2    1    2    0    0  0.82084796149E+03 -0.28166774756E+03 -0.56927805476E+03  0.10420087220E+04  0.92609811450E+02 0.  0.
    5000000    2    1    2    0    0 -0.82084796149E+03  0.28166774756E+03  0.12378345750E+04  0.16264413710E+04  0.59995750054E+03 0.  0.
         23    2    4    4    0    0 -0.38532074235E+03  0.19784034917E+03  0.18426603138E+03  0.47960084286E+03  0.91924533751E+02 0.  0.
         23    2    4    4    0    0 -0.43552721914E+03  0.83827398391E+02  0.10535685436E+04  0.11468405282E+04  0.92333794650E+02 0.  0.
          3    1    3    3  502    0  0.35964399494E+03 -0.16751535765E+03 -0.23563841503E+03  0.46144410364E+03  0.00000000000E+00 0. -1.
         -3    1    3    3    0  502  0.46120396655E+03 -0.11415238991E+03 -0.33363963973E+03  0.58056461835E+03  0.00000000000E+00 0.  1.
         13    1    5    5    0    0 -0.33358486315E+02  0.21704148834E+02  0.49669843908E+02  0.63647090112E+02  0.00000000000E+00 0.  1.
        -13    1    5    5    0    0 -0.35196225603E+03  0.17613620033E+03  0.13459618747E+03  0.41595375274E+03  0.00000000000E+00 0. -1.
          5    1    6    6  503    0 -0.43153700744E+03  0.92725866269E+02  0.10160522391E+04  0.11077935356E+04  0.47000000000E+01 0. -1.
         -5    1    6    6    0  503 -0.39902117007E+01 -0.88984678784E+01  0.37516304544E+02  0.39046992543E+02  0.47000000000E+01 0.  1.
<mgrwt>
<rscale>  0 0.87873721E+03</rscale>
<asrwt>0</asrwt>
<pdfrwt beam="1">  1        1 0.15383797E+00 0.87873721E+03</pdfrwt>
<pdfrwt beam="2">  1       -1 0.25669282E+00 0.87873721E+03</pdfrwt>
<totfact> 0.98104169E-01</totfact>
</mgrwt>
</event>
<event>
12    1  0.3166324E-008  0.6746490E+03  0.7818608E-02  0.9761596E-01
          1   -1    0    0  501    0  0.00000000000E+00  0.00000000000E+00  0.10659041584E+04  0.10659041584E+04  0.00000000000E+00 0. -1.
         -1   -1    0    0    0  501 -0.00000000000E+00 -0.00000000000E+00 -0.46342422696E+03  0.46342422696E+03  0.00000000000E+00 0.  1.
         23    2    1    2    0    0  0.71990007666E+02  0.54040430454E+03  0.42974322981E+03  0.70037820340E+03  0.92903232779E+02 0.  0.
    5000000    2    1    2    0    0 -0.71990007666E+02 -0.54040430454E+03  0.17273670163E+03  0.82895018195E+03  0.60008421285E+03 0.  0.
         23    2    4    4    0    0  0.14535475660E+03 -0.53835246782E+03  0.64613439320E+02  0.56881203432E+03  0.91765183859E+02 0.  0.
         23    2    4    4    0    0 -0.21734476427E+03 -0.20518367134E+01  0.10812326230E+03  0.26013814763E+03  0.93478657536E+02 0.  0.
          2    1    3    3  502    0  0.66572301266E+02  0.16967023400E+03  0.14211556584E+03  0.23112051760E+03  0.00000000000E+00 0. -1.
         -2    1    3    3    0  502  0.54177063994E+01  0.37073407053E+03  0.28762766397E+03  0.46925768579E+03  0.00000000000E+00 0.  1.
         13    1    5    5    0    0  0.11809629339E+03 -0.50195978804E+03  0.40266621428E+02  0.51723472826E+03  0.00000000000E+00 0. -1.
        -13    1    5    5    0    0  0.27258463215E+02 -0.36392679786E+02  0.24346817893E+02  0.51577306059E+02  0.00000000000E+00 0.  1.
          5    1    6    6  503    0 -0.22531362030E+03 -0.49968196897E+01  0.10900252392E+03  0.25038936862E+03  0.47000000000E+01 0. -1.
         -5    1    6    6    0  503  0.79688560317E+01  0.29449829763E+01 -0.87926161515E+00  0.97487790094E+01  0.47000000000E+01 0.  1.
<mgrwt>
<rscale>  0 0.67464904E+03</rscale>
<asrwt>0</asrwt>
<pdfrwt beam="1">  1        1 0.16398525E+00 0.67464904E+03</pdfrwt>
<pdfrwt beam="2">  1       -1 0.71296035E-01 0.67464904E+03</pdfrwt>
<totfact> 0.27736377E+01</totfact>
</mgrwt>
</event>
<event>
12    1  0.3166324E-008  0.9847975E+03  0.7818608E-02  0.9325378E-01
         -2   -1    0    0    0  501 -0.00000000000E+00  0.00000000000E+00  0.12203555872E+04  0.12203555872E+04  0.00000000000E+00 0.  1.
          2   -1    0    0  501    0  0.00000000000E+00 -0.00000000000E+00 -0.81876961604E+03  0.81876961604E+03  0.00000000000E+00 0. -1.
         23    2    1    2    0    0  0.82965312862E+03  0.34896728548E+03  0.29892981501E+03  0.95296538004E+03  0.93174573087E+02 0.  0.
    5000000    2    1    2    0    0 -0.82965312862E+03 -0.34896728548E+03  0.10265615615E+03  0.10861598232E+04  0.59925152895E+03 0.  0.
         23    2    4    4    0    0 -0.29469891900E+03 -0.42830869793E+03  0.98451215367E+02  0.53765979743E+03  0.95339511140E+02 0.  0.
         23    2    4    4    0    0 -0.53495420963E+03  0.79341412445E+02  0.42049407815E+01  0.54850002576E+03  0.91452340632E+02 0.  0.
          1    1    3    3  502    0  0.20642754548E+03  0.13145048241E+03  0.85108919433E+02  0.25910439793E+03  0.00000000000E+00 0. -1.
         -1    1    3    3    0  502  0.62322558314E+03  0.21751680307E+03  0.21382089558E+03  0.69386098211E+03  0.00000000000E+00 0.  1.
         11    1    5    5    0    0 -0.12320634773E+03 -0.23376715438E+03  0.86505742222E+02  0.27804699247E+03  0.00000000000E+00 0. -1.
        -11    1    5    5    0    0 -0.17149257127E+03 -0.19454154355E+03  0.11945473145E+02  0.25961280496E+03  0.00000000000E+00 0.  1.
          5    1    6    6  503    0 -0.24254561933E+03  0.26914759081E+02  0.46275885411E+02  0.24842771440E+03  0.47000000000E+01 0. -1.
         -5    1    6    6    0  503 -0.29240859030E+03  0.52426653364E+02 -0.42070944630E+02  0.30007231136E+03  0.47000000000E+01 0.  1.
<mgrwt>
<rscale>  0 0.98479746E+03</rscale>
<asrwt>0</asrwt>
<pdfrwt beam="1">  1        2 0.12596456E+00 0.98479746E+03</pdfrwt>
<pdfrwt beam="2">  1       -2 0.18774701E+00 0.98479746E+03</pdfrwt>
<totfact> 0.53259386E+00</totfact>
</mgrwt>
</event>
<event>
12    1  0.3166324E-008  0.8958041E+03  0.7818608E-02  0.9430842E-01
         -2   -1    0    0    0  501 -0.00000000000E+00  0.00000000000E+00  0.11401182205E+04  0.11401182205E+04  0.00000000000E+00 0.  1.
          2   -1    0    0  501    0  0.00000000000E+00 -0.00000000000E+00 -0.85537324822E+03  0.85537324822E+03  0.00000000000E+00 0. -1.
         23    2    1    2    0    0  0.44090431474E+03 -0.77750962541E+03  0.11133800699E+03  0.90504879775E+03  0.88313884188E+02 0.  0.
    5000000    2    1    2    0    0 -0.44090431474E+03  0.77750962541E+03  0.17340696528E+03  0.10904426710E+04  0.60006450544E+03 0.  0.
         23    2    4    4    0    0 -0.22691461990E+03  0.43000377650E+03 -0.19641772939E+03  0.53233692573E+03  0.91701611465E+02 0.  0.
         23    2    4    4    0    0 -0.21398969484E+03  0.34750584891E+03  0.36982469467E+03  0.55810574524E+03  0.90331686321E+02 0.  0.
          3    1    3    3  502    0  0.33226891199E+03 -0.56528800481E+03  0.43379431639E+02  0.65714148655E+03  0.00000000000E+00 0. -1.
         -3    1    3    3    0  502  0.10863540275E+03 -0.21222162060E+03  0.67958575346E+02  0.24790731120E+03  0.00000000000E+00 0.  1.
         11    1    5    5    0    0 -0.84013348020E+02  0.21309550795E+03 -0.13332299964E+03  0.26503388536E+03  0.00000000000E+00 0.  1.
        -11    1    5    5    0    0 -0.14290127188E+03  0.21690826855E+03 -0.63094729756E+02  0.26730304037E+03  0.00000000000E+00 0. -1.
          5    1    6    6  503    0 -0.10733337406E+02  0.16960358441E+02  0.53881542330E+02  0.57690284227E+02  0.47000000000E+01 0. -1.
         -5    1    6    6    0  503 -0.20325635744E+03  0.33054549047E+03  0.31594315234E+03  0.50041546101E+03  0.47000000000E+01 0.  1.
<mgrwt>
<rscale>  0 0.89580409E+03</rscale>
<asrwt>0</asrwt>
<pdfrwt beam="1">  1        2 0.13159588E+00 0.89580409E+03</pdfrwt>
<pdfrwt beam="2">  1       -2 0.17540280E+00 0.89580409E+03</pdfrwt>
<totfact> 0.61547587E+00</totfact>
</mgrwt>
</event>
<event>
12    1  0.3166324E-008  0.1155553E+04  0.7818608E-02  0.9152676E-01
         -2   -1    0    0    0  501 -0.00000000000E+00  0.00000000000E+00  0.51455849624E+03  0.51455849624E+03  0.00000000000E+00 0.  1.
          2   -1    0    0  501    0  0.00000000000E+00 -0.00000000000E+00 -0.30354013154E+04  0.30354013154E+04  0.00000000000E+00 0. -1.
         23    2    1    2    0    0 -0.14976250433E+02  0.11297836003E+04 -0.16521327097E+04  0.20036448641E+04  0.91733196115E+02 0.  0.
    5000000    2    1    2    0    0  0.14976250433E+02 -0.11297836003E+04 -0.86871010942E+03  0.15463149475E+04  0.59983113543E+03 0.  0.
         23    2    4    4    0    0  0.40057333945E+02 -0.41877074225E+02  0.49998927069E+02  0.11925896263E+03  0.91457794157E+02 0.  0.
         23    2    4    4    0    0 -0.25081083512E+02 -0.10879065261E+04 -0.91870903649E+03  0.14270559849E+04  0.91064921609E+02 0.  0.
          3    1    3    3  502    0 -0.43412990242E+01  0.92909177854E+02 -0.95894148009E+02  0.13359135387E+03  0.00000000000E+00 0. -1.
         -3    1    3    3    0  502 -0.10634951409E+02  0.10368744225E+04 -0.15562385617E+04  0.18700535102E+04  0.00000000000E+00 0.  1.
         11    1    5    5    0    0  0.19490023910E+02  0.19271628726E+02  0.47324265398E+02  0.54688598458E+02  0.00000000000E+00 0.  1.
        -11    1    5    5    0    0  0.20567310035E+02 -0.61148702952E+02  0.26746616705E+01  0.64570364176E+02  0.00000000000E+00 0. -1.
          5    1    6    6  503    0  0.79753460026E+01 -0.64986214983E+03 -0.49801388550E+03  0.81879444311E+03  0.47000000000E+01 0. -1.
         -5    1    6    6    0  503 -0.33056429514E+02 -0.43804437628E+03 -0.42069515099E+03  0.60826154177E+03  0.47000000000E+01 0.  1.
<mgrwt>
<rscale>  0 0.11555533E+04</rscale>
<asrwt>0</asrwt>
<pdfrwt beam="1">  1        2 0.46698483E+00 0.11555533E+04</pdfrwt>
<pdfrwt beam="2">  1       -2 0.79162844E-01 0.11555533E+04</pdfrwt>
<totfact> 0.23410563E+00</totfact>
</mgrwt>
</event>
<event>
12    1  0.3166324E-008  0.5989507E+03  0.7818608E-02  0.9907585E-01
         -2   -1    0    0    0  501 -0.00000000000E+00  0.00000000000E+00  0.31192379533E+03  0.31192379533E+03  0.00000000000E+00 0.  1.
          2   -1    0    0  501    0  0.00000000000E+00 -0.00000000000E+00 -0.14986037378E+04  0.14986037378E+04  0.00000000000E+00 0. -1.
         23    2    1    2    0    0  0.36074508210E+03 -0.40162326643E+03 -0.36148897054E+03  0.65622517046E+03  0.92298082990E+02 0.  0.
    5000000    2    1    2    0    0 -0.36074508210E+03  0.40162326643E+03 -0.82519097192E+03  0.11543023627E+04  0.60002961755E+03 0.  0.
         23    2    4    4    0    0 -0.41997833027E+03  0.35512161249E+03 -0.33535466569E+03  0.65019967305E+03  0.88338584313E+02 0.  0.
         23    2    4    4    0    0  0.59233248166E+02  0.46501653940E+02 -0.48983630624E+03  0.50410268963E+03  0.92243879347E+02 0.  0.
          3    1    3    3  502    0  0.24902401548E+03 -0.33139255715E+03 -0.25525183144E+03  0.48681360363E+03  0.00000000000E+00 0. -1.
         -3    1    3    3    0  502  0.11172106662E+03 -0.70230709275E+02 -0.10623713910E+03  0.16941156683E+03  0.00000000000E+00 0.  1.
         11    1    5    5    0    0 -0.23099031210E+03  0.18221849971E+03 -0.12890483673E+03  0.32121108769E+03  0.00000000000E+00 0. -1.
        -11    1    5    5    0    0 -0.18898801817E+03  0.17290311277E+03 -0.20644982896E+03  0.32898858536E+03  0.00000000000E+00 0.  1.
          5    1    6    6  503    0  0.16241891469E+02 -0.17159281093E+02 -0.27211524008E+03  0.27317949017E+03  0.47000000000E+01 0. -1.
         -5    1    6    6    0  503  0.42991356697E+02  0.63660935033E+02 -0.21772106615E+03  0.23092319945E+03  0.47000000000E+01 0.  1.
<mgrwt>
<rscale>  0 0.59895066E+03</rscale>
<asrwt>0</asrwt>
<pdfrwt beam="1">  1        2 0.23055442E+00 0.59895066E+03</pdfrwt>
<pdfrwt beam="2">  1       -2 0.47988276E-01 0.59895066E+03</pdfrwt>
<totfact> 0.54378504E+01</totfact>
</mgrwt>
</event>
<event>
12    1  0.3166324E-008  0.2476487E+03  0.7818608E-02  0.1114800E+00
          1   -1    0    0  501    0  0.00000000000E+00  0.00000000000E+00  0.51482840777E+03  0.51482840777E+03  0.00000000000E+00 0. -1.
         -1   -1    0    0    0  501 -0.00000000000E+00 -0.00000000000E+00 -0.39269800104E+03  0.39269800104E+03  0.00000000000E+00 0.  1.
         23    2    1    2    0    0  0.21522602006E+03  0.75218035377E+02 -0.30905008702E+02  0.24762128525E+03  0.91548832806E+02 0.  0.
    5000000    2    1    2    0    0 -0.21522602006E+03 -0.75218035377E+02  0.15303541544E+03  0.65990512357E+03  0.60006244773E+03 0.  0.
         23    2    4    4    0    0 -0.15958176924E+02 -0.45029163088E+02 -0.21141586943E+03  0.23511449565E+03  0.91103607386E+02 0.  0.
         23    2    4    4    0    0 -0.19926784314E+03 -0.30188872289E+02  0.36445128486E+03  0.42479062792E+03  0.83685704949E+02 0.  0.
          3    1    3    3  502    0  0.40576917827E+02  0.43401896232E+02  0.20421019475E+02  0.62826975841E+02  0.00000000000E+00 0. -1.
         -3    1    3    3    0  502  0.17464910223E+03  0.31816139145E+02 -0.51326028177E+02  0.18479430941E+03  0.00000000000E+00 0.  1.
         13    1    5    5    0    0 -0.22930901673E+02 -0.39826312414E+02 -0.21887937992E+03  0.22365183739E+03  0.00000000000E+00 0. -1.
        -13    1    5    5    0    0  0.69727247495E+01 -0.52028506743E+01  0.74635104919E+01  0.11462658262E+02  0.00000000000E+00 0.  1.
          5    1    6    6  503    0 -0.15874398026E+03 -0.34998618757E+02  0.34024287162E+03  0.37710987294E+03  0.47000000000E+01 0. -1.
         -5    1    6    6    0  503 -0.40523862875E+02  0.48097464672E+01  0.24208413244E+02  0.47680754977E+02  0.47000000000E+01 0.  1.
<mgrwt>
<rscale>  0 0.24764867E+03</rscale>
<asrwt>0</asrwt>
<pdfrwt beam="1">  1        1 0.79204371E-01 0.24764867E+03</pdfrwt>
<pdfrwt beam="2">  1       -1 0.60415077E-01 0.24764867E+03</pdfrwt>
<totfact> 0.12646102E+02</totfact>
</mgrwt>
</event>
<event>
12    1  0.3166324E-008  0.1831454E+04  0.7818608E-02  0.8689749E-01
         -2   -1    0    0    0  501 -0.00000000000E+00  0.00000000000E+00  0.18466555796E+04  0.18466555796E+04  0.00000000000E+00 0.  1.
          2   -1    0    0  501    0  0.00000000000E+00 -0.00000000000E+00 -0.21368255262E+04  0.21368255262E+04  0.00000000000E+00 0. -1.
         23    2    1    2    0    0 -0.54335000671E+03 -0.17019847996E+04 -0.89998512738E+03  0.20025966516E+04  0.91862024065E+02 0.  0.
    5000000    2    1    2    0    0  0.54335000671E+03  0.17019847996E+04  0.60981518078E+03  0.19808844542E+04  0.60003931384E+03 0.  0.
         23    2    4    4    0    0  0.17469493544E+03  0.13538737016E+04  0.47958949143E+03  0.14495760311E+04  0.88160474076E+02 0.  0.
         23    2    4    4    0    0  0.36865507128E+03  0.34811109799E+03  0.13022568935E+03  0.53130842308E+03  0.90785528317E+02 0.  0.
          4    1    3    3  502    0 -0.27690051271E+03 -0.92107723704E+03 -0.53222724870E+03  0.10992374697E+04  0.00000000000E+00 0. -1.
         -4    1    3    3    0  502 -0.26644949400E+03 -0.78090756259E+03 -0.36775787868E+03  0.90335918188E+03  0.00000000000E+00 0.  1.
         11    1    5    5    0    0  0.13805645629E+03  0.74814725648E+03  0.28258617835E+03  0.81156567861E+03  0.00000000000E+00 0.  1.
        -11    1    5    5    0    0  0.36638479142E+02  0.60572644516E+03  0.19700331308E+03  0.63801035249E+03  0.00000000000E+00 0. -1.
          5    1    6    6  503    0  0.28514107984E+03  0.28857756484E+03  0.68339911136E+02  0.41143028546E+03  0.47000000000E+01 0. -1.
         -5    1    6    6    0  503  0.83513991436E+02  0.59533533151E+02  0.61885778210E+02  0.11987813762E+03  0.47000000000E+01 0.  1.
<mgrwt>
<rscale>  0 0.18314540E+04</rscale>
<asrwt>0</asrwt>
<pdfrwt beam="1">  1        2 0.32874239E+00 0.18314540E+04</pdfrwt>
<pdfrwt beam="2">  1       -2 0.28410086E+00 0.18314540E+04</pdfrwt>
<totfact> 0.20147660E-01</totfact>
</mgrwt>
</event>
<event>
12    1  0.3166324E-008  0.7310954E+03  0.7818608E-02  0.9665484E-01
         -1   -1    0    0    0  501 -0.00000000000E+00  0.00000000000E+00  0.74611789410E+03  0.74611789410E+03  0.00000000000E+00 0.  1.
          1   -1    0    0  501    0  0.00000000000E+00 -0.00000000000E+00 -0.12039611773E+04  0.12039611773E+04  0.00000000000E+00 0. -1.
         23    2    1    2    0    0  0.38736912056E+02 -0.65858923367E+03 -0.75823480129E+03  0.10090912790E+04  0.90027042913E+02 0.  0.
    5000000    2    1    2    0    0 -0.38736912056E+02  0.65858923367E+03  0.30039151804E+03  0.94098779243E+03  0.59998552843E+03 0.  0.
         23    2    4    4    0    0 -0.23946938772E+03  0.29323930188E+03  0.33373060187E+03  0.51272766079E+03  0.90435964617E+02 0.  0.
         23    2    4    4    0    0  0.20073247566E+03  0.36534993179E+03 -0.33339083827E+02  0.42826013164E+03  0.92310055761E+02 0.  0.
          3    1    3    3  502    0  0.48438994555E+02 -0.41928399303E+03 -0.42755953545E+03  0.60079327506E+03  0.00000000000E+00 0. -1.
         -3    1    3    3    0  502 -0.97020824988E+01 -0.23930524064E+03 -0.33067526584E+03  0.40829800397E+03  0.00000000000E+00 0.  1.
         13    1    5    5    0    0 -0.11557479182E+03  0.17386164139E+03  0.12944733066E+03  0.24564611592E+03  0.00000000000E+00 0. -1.
        -13    1    5    5    0    0 -0.12389459590E+03  0.11937766049E+03  0.20428327121E+03  0.26708154487E+03  0.00000000000E+00 0.  1.
          5    1    6    6  503    0  0.45348031343E+02  0.12978565931E+03  0.25635917788E+02  0.13992873754E+03  0.47000000000E+01 0. -1.
         -5    1    6    6    0  503  0.15538444432E+03  0.23556427249E+03 -0.58975001616E+02  0.28833139410E+03  0.47000000000E+01 0.  1.
<mgrwt>
<rscale>  0 0.73109542E+03</rscale>
<asrwt>0</asrwt>
<pdfrwt beam="1">  1        1 0.18522480E+00 0.73109542E+03</pdfrwt>
<pdfrwt beam="2">  1       -1 0.11478737E+00 0.73109542E+03</pdfrwt>
<totfact> 0.76039569E+00</totfact>
</mgrwt>
</event>
<event>
12    1  0.3166324E-008  0.4893389E+03  0.7818608E-02  0.1016600E+00
          1   -1    0    0  501    0  0.00000000000E+00  0.00000000000E+00  0.27244323178E+04  0.27244323178E+04  0.00000000000E+00 0. -1.
         -1   -1    0    0    0  501 -0.00000000000E+00 -0.00000000000E+00 -0.10042861318E+03  0.10042861318E+03  0.00000000000E+00 0.  1.
         23    2    1    2    0    0 -0.27790373010E+03 -0.14802931677E+03  0.12577302323E+04  0.12998013999E+04  0.91952054389E+02 0.  0.
    5000000    2    1    2    0    0  0.27790373010E+03  0.14802931677E+03  0.13662734724E+04  0.15250595311E+04  0.59996684089E+03 0.  0.
         23    2    4    4    0    0  0.24680904806E+03 -0.18493701327E+03  0.76728419898E+03  0.83198709567E+03  0.91438942899E+02 0.  0.
         23    2    4    4    0    0  0.31094682039E+02  0.33296633004E+03  0.59898927339E+03  0.69307243539E+03  0.98629584166E+02 0.  0.
          1    1    3    3  502    0 -0.15428147903E+03 -0.11312874330E+03  0.88853272800E+03  0.90889564641E+03  0.00000000000E+00 0. -1.
         -1    1    3    3    0  502 -0.12362225108E+03 -0.34900573463E+02  0.36919750426E+03  0.39090575353E+03  0.00000000000E+00 0.  1.
         11    1    5    5    0    0  0.19007816311E+03 -0.12192912784E+03  0.44881778131E+03  0.50242792630E+03  0.00000000000E+00 0. -1.
        -11    1    5    5    0    0  0.56730884957E+02 -0.63007885434E+02  0.31846641767E+03  0.32955916938E+03  0.00000000000E+00 0.  1.
          5    1    6    6  503    0 -0.34215121488E+02  0.82933308652E+02  0.16846833905E+03  0.19092480061E+03  0.47000000000E+01 0. -1.
         -5    1    6    6    0  503  0.65309803526E+02  0.25003302139E+03  0.43052093434E+03  0.50214763479E+03  0.47000000000E+01 0.  1.
<mgrwt>
<rscale>  0 0.48933892E+03</rscale>
<asrwt>0</asrwt>
<pdfrwt beam="1">  1        1 0.41914338E+00 0.48933892E+03</pdfrwt>
<pdfrwt beam="2">  1       -1 0.15450558E-01 0.48933892E+03</pdfrwt>
<totfact> 0.32439229E+01</totfact>
</mgrwt>
</event>
<event>
12    1  0.3166324E-008  0.5034668E+03  0.7818608E-02  0.1012878E+00
         -1   -1    0    0    0  501 -0.00000000000E+00  0.00000000000E+00  0.92901732257E+03  0.92901732257E+03  0.00000000000E+00 0.  1.
          1   -1    0    0  501    0  0.00000000000E+00 -0.00000000000E+00 -0.13582118741E+04  0.13582118741E+04  0.00000000000E+00 0. -1.
         23    2    1    2    0    0 -0.18772020678E+03  0.37730799622E+03 -0.11687425852E+04  0.12458039229E+04  0.92021648325E+02 0.  0.
    5000000    2    1    2    0    0  0.18772020678E+03 -0.37730799622E+03  0.73954803368E+03  0.10414252738E+04  0.60002925486E+03 0.  0.
         23    2    4    4    0    0  0.18538140897E+03 -0.42810520854E+03  0.24219097624E+03  0.53322094188E+03  0.89597809799E+02 0.  0.
         23    2    4    4    0    0  0.23387978173E+01  0.50797212316E+02  0.49735705744E+03  0.50820433190E+03  0.91223755756E+02 0.  0.
          3    1    3    3  502    0 -0.33445510974E+02  0.16820322827E+03 -0.46224529531E+03  0.49303310359E+03  0.00000000000E+00 0. -1.
         -3    1    3    3    0  502 -0.15427469581E+03  0.20910476795E+03 -0.70649728990E+03  0.75277081929E+03  0.00000000000E+00 0.  1.
         11    1    5    5    0    0  0.20720458751E+02 -0.12141189723E+03  0.34657613883E+02  0.12795052325E+03  0.00000000000E+00 0.  1.
        -11    1    5    5    0    0  0.16466095021E+03 -0.30669331131E+03  0.20753336235E+03  0.40527041863E+03  0.00000000000E+00 0. -1.
          5    1    6    6  503    0  0.29960927439E+02  0.65855913238E+02  0.33393571531E+03  0.34171597920E+03  0.47000000000E+01 0. -1.
         -5    1    6    6    0  503 -0.27622129622E+02 -0.15058700922E+02  0.16342134213E+03  0.16648835269E+03  0.47000000000E+01 0.  1.
<mgrwt>
<rscale>  0 0.50346676E+03</rscale>
<asrwt>0</asrwt>
<pdfrwt beam="1">  1        1 0.20895567E+00 0.50346676E+03</pdfrwt>
<pdfrwt beam="2">  1       -1 0.14292574E+00 0.50346676E+03</pdfrwt>
<totfact> 0.35850196E+00</totfact>
</mgrwt>
</event>
<event>
12    1  0.3166324E-008  0.1075247E+04  0.7818608E-02  0.9229659E-01
          2   -1    0    0  501    0  0.00000000000E+00  0.00000000000E+00  0.11147121872E+04  0.11147121872E+04  0.00000000000E+00 0. -1.
         -2   -1    0    0    0  501 -0.00000000000E+00 -0.00000000000E+00 -0.14682095944E+04  0.14682095944E+04  0.00000000000E+00 0.  1.
         23    2    1    2    0    0  0.91631065124E+03  0.41479150213E+03 -0.84121610376E+03  0.13142567025E+04  0.89156867241E+02 0.  0.
    5000000    2    1    2    0    0 -0.91631065124E+03 -0.41479150213E+03  0.48771869659E+03  0.12686650791E+04  0.59997029594E+03 0.  0.
         23    2    4    4    0    0 -0.13650234440E+03  0.12693945531E+03  0.27101059815E+02  0.20946942144E+03  0.91632176298E+02 0.  0.
         23    2    4    4    0    0 -0.77980830684E+03 -0.54173095744E+03  0.46061763677E+03  0.10591956576E+04  0.90296224512E+02 0.  0.
          3    1    3    3  502    0  0.26806936191E+03  0.77969939913E+02 -0.23918193928E+03  0.36762548117E+03  0.00000000000E+00 0. -1.
         -3    1    3    3    0  502  0.64824128932E+03  0.33682156222E+03 -0.60203416448E+03  0.94663122131E+03  0.00000000000E+00 0.  1.
         11    1    5    5    0    0 -0.12463593268E+03  0.12134420735E+03 -0.58027506066E+01  0.17404655782E+03  0.00000000000E+00 0. -1.
        -11    1    5    5    0    0 -0.11866411717E+02  0.55952479573E+01  0.32903810421E+02  0.35422863619E+02  0.00000000000E+00 0.  1.
          5    1    6    6  503    0 -0.17680724042E+03 -0.17006062624E+03  0.12428302240E+03  0.27504504452E+03  0.47000000000E+01 0. -1.
         -5    1    6    6    0  503 -0.60300106642E+03 -0.37167033121E+03  0.33633461438E+03  0.78415061310E+03  0.47000000000E+01 0.  1.
<mgrwt>
<rscale>  0 0.10752469E+04</rscale>
<asrwt>0</asrwt>
<pdfrwt beam="1">  1        2 0.17149418E+00 0.10752469E+04</pdfrwt>
<pdfrwt beam="2">  1       -2 0.22587840E+00 0.10752469E+04</pdfrwt>
<totfact> 0.19075555E+00</totfact>
</mgrwt>
</event>
<event>
12    1  0.3166324E-008  0.3385979E+03  0.7818608E-02  0.1067395E+00
         -4   -1    0    0    0  501 -0.00000000000E+00  0.00000000000E+00  0.79596650080E+02  0.79596650080E+02  0.00000000000E+00 0.  1.
          4   -1    0    0  501    0  0.00000000000E+00 -0.00000000000E+00 -0.15875602968E+04  0.15875602968E+04  0.00000000000E+00 0. -1.
         23    2    1    2    0    0 -0.41575473432E+02  0.14034164334E+01 -0.32780902358E+03  0.34258844140E+03  0.90430054011E+02 0.  0.
    5000000    2    1    2    0    0  0.41575473432E+02 -0.14034164334E+01 -0.11801546232E+04  0.13245685055E+04  0.59998858460E+03 0.  0.
         23    2    4    4    0    0  0.14171983456E+03 -0.25425355266E+03 -0.49598005620E+03  0.58276768770E+03  0.94300483190E+02 0.  0.
         23    2    4    4    0    0 -0.10014436113E+03  0.25285013623E+03 -0.68417456697E+03  0.74180081781E+03  0.90617497029E+02 0.  0.
          1    1    3    3  502    0  0.22779817175E+02 -0.20718193192E+02 -0.12173101714E+03  0.12556513901E+03  0.00000000000E+00 0. -1.
         -1    1    3    3    0  502 -0.64355290608E+02  0.22121609625E+02 -0.20607800644E+03  0.21702330239E+03  0.00000000000E+00 0.  1.
         11    1    5    5    0    0  0.34759643120E+02 -0.15819818776E+03 -0.27436465619E+03  0.31860769603E+03  0.00000000000E+00 0.  1.
        -11    1    5    5    0    0  0.10696019144E+03 -0.96055364897E+02 -0.22161540002E+03  0.26415999168E+03  0.00000000000E+00 0. -1.
          5    1    6    6  503    0 -0.56321990522E+02  0.16345826866E+03 -0.31441924021E+03  0.35884860432E+03  0.47000000000E+01 0. -1.
         -5    1    6    6    0  503 -0.43822370608E+02  0.89391867569E+02 -0.36975532676E+03  0.38295221349E+03  0.47000000000E+01 0.  1.
<mgrwt>
<rscale>  0 0.33859790E+03</rscale>
<asrwt>0</asrwt>
<pdfrwt beam="1">  1        4 0.24424005E+00 0.33859790E+03</pdfrwt>
<pdfrwt beam="2">  1       -4 0.12245638E-01 0.33859790E+03</pdfrwt>
<totfact> 0.76366897E+00</totfact>
</mgrwt>
</event>
<event>
12    1  0.3166324E-008  0.1467248E+04  0.7818608E-02  0.8906530E-01
         -3   -1    0    0    0  501 -0.00000000000E+00  0.00000000000E+00  0.80431944417E+03  0.80431944417E+03  0.00000000000E+00 0.  1.
          3   -1    0    0  501    0  0.00000000000E+00 -0.00000000000E+00 -0.30148515541E+04  0.30148515541E+04  0.00000000000E+00 0. -1.
         23    2    1    2    0    0  0.13464039852E+04 -0.44762223440E+03 -0.16536439188E+04  0.21810370020E+04  0.95993948039E+02 0.  0.
    5000000    2    1    2    0    0 -0.13464039852E+04  0.44762223440E+03 -0.55688819122E+03  0.16381339963E+04  0.60015762600E+03 0.  0.
         23    2    4    4    0    0 -0.10280548092E+04  0.98031781471E+02 -0.24756092017E+03  0.10657558639E+04  0.89678487932E+02 0.  0.
         23    2    4    4    0    0 -0.31834917600E+03  0.34959045293E+03 -0.30932727104E+03  0.57237813241E+03  0.91507831398E+02 0.  0.
          3    1    3    3  502    0  0.84426594790E+03 -0.29986944649E+03 -0.11083078714E+04  0.14251501723E+04  0.00000000000E+00 0. -1.
         -3    1    3    3    0  502  0.50213803733E+03 -0.14775278791E+03 -0.54533604733E+03  0.75588682975E+03  0.00000000000E+00 0.  1.
         11    1    5    5    0    0 -0.74867109651E+03  0.52752613088E+02 -0.14299295568E+03  0.76402763976E+03  0.00000000000E+00 0. -1.
        -11    1    5    5    0    0 -0.27938371272E+03  0.45279168383E+02 -0.10456796450E+03  0.30172822411E+03  0.00000000000E+00 0.  1.
          5    1    6    6  503    0 -0.11144392022E+02  0.53617604373E+02 -0.36928368912E+02  0.66218119897E+02  0.47000000000E+01 0. -1.
         -5    1    6    6    0  503 -0.30720478398E+03  0.29597284856E+03 -0.27239890213E+03  0.50616001251E+03  0.47000000000E+01 0.  1.
<mgrwt>
<rscale>  0 0.14672479E+04</rscale>
<asrwt>0</asrwt>
<pdfrwt beam="1">  1        3 0.46382332E+00 0.14672479E+04</pdfrwt>
<pdfrwt beam="2">  1       -3 0.12374145E+00 0.14672479E+04</pdfrwt>
<totfact> 0.66374282E-03</totfact>
</mgrwt>
</event>
<event>
12    1  0.3166324E-008  0.3030295E+03  0.7818608E-02  0.1083736E+00
          1   -1    0    0  501    0  0.00000000000E+00  0.00000000000E+00  0.49350372919E+03  0.49350372919E+03  0.00000000000E+00 0. -1.
         -1   -1    0    0    0  501 -0.00000000000E+00 -0.00000000000E+00 -0.41655846143E+03  0.41655846143E+03  0.00000000000E+00 0.  1.
         23    2    1    2    0    0 -0.13058328348E+02 -0.24106666591E+03 -0.25272359761E+01  0.25847040618E+03  0.92287087904E+02 0.  0.
    5000000    2    1    2    0    0  0.13058328348E+02  0.24106666591E+03  0.79472503735E+02  0.65159178444E+03  0.59997693068E+03 0.  0.
         23    2    4    4    0    0 -0.67612625876E+02  0.43678563469E+00 -0.21922297367E+03  0.24917059876E+03  0.97239997646E+02 0.  0.
         23    2    4    4    0    0  0.80670954224E+02  0.24062988028E+03  0.29869547741E+03  0.40242118568E+03  0.91177191920E+02 0.  0.
          3    1    3    3  502    0 -0.48678457788E+02 -0.95543654994E+02 -0.14350498778E+02  0.10818557703E+03  0.00000000000E+00 0. -1.
         -3    1    3    3    0  502  0.35620129439E+02 -0.14552301092E+03  0.11823262802E+02  0.15028482915E+03  0.00000000000E+00 0.  1.
         11    1    5    5    0    0  0.71292566623E+01 -0.41061284751E+01 -0.13969976365E+03  0.13994181132E+03  0.00000000000E+00 0. -1.
        -11    1    5    5    0    0 -0.74741882538E+02  0.45429141097E+01 -0.79523210023E+02  0.10922878744E+03  0.00000000000E+00 0.  1.
          5    1    6    6  503    0  0.32077661974E+02  0.19935388753E+03  0.25353031132E+03  0.32414604368E+03  0.47000000000E+01 0. -1.
         -5    1    6    6    0  503  0.48593292251E+02  0.41275992748E+02  0.45165166082E+02  0.78275142008E+02  0.47000000000E+01 0.  1.
<mgrwt>
<rscale>  0 0.30302947E+03</rscale>
<asrwt>0</asrwt>
<pdfrwt beam="1">  1        1 0.75923651E-01 0.30302947E+03</pdfrwt>
<pdfrwt beam="2">  1       -1 0.64085917E-01 0.30302947E+03</pdfrwt>
<totfact> 0.11822614E+02</totfact>
</mgrwt>
</event>
<event>
12    1  0.3166324E-008  0.1164212E+04  0.7818608E-02  0.9144772E-01
          2   -1    0    0  501    0  0.00000000000E+00  0.00000000000E+00  0.32013103844E+04  0.32013103844E+04  0.00000000000E+00 0. -1.
         -2   -1    0    0    0  501 -0.00000000000E+00 -0.00000000000E+00 -0.56100509920E+03  0.56100509920E+03  0.00000000000E+00 0.  1.
         23    2    1    2    0    0 -0.71757423717E+03 -0.85671724146E+03  0.40502921133E+03  0.11922294439E+04  0.92114966730E+02 0.  0.
    5000000    2    1    2    0    0  0.71757423717E+03  0.85671724146E+03  0.22352760738E+04  0.25700860397E+04  0.60000492300E+03 0.  0.
         23    2    4    4    0    0 -0.63717660467E+02  0.63834335543E+02  0.43734697983E+03  0.45344576687E+03  0.78777662274E+02 0.  0.
         23    2    4    4    0    0  0.78129189764E+03  0.79288290591E+03  0.17979290940E+04  0.21166402728E+04  0.92394186916E+02 0.  0.
          2    1    3    3  502    0 -0.40471792502E+03 -0.43094591230E+03  0.24728264380E+03  0.64082734343E+03  0.00000000000E+00 0. -1.
         -2    1    3    3    0  502 -0.31285631216E+03 -0.42577132916E+03  0.15774656753E+03  0.55140210043E+03  0.00000000000E+00 0.  1.
         13    1    5    5    0    0  0.30474711291E+01  0.44055044010E-02 -0.25390253189E+01  0.39665790376E+01  0.00000000000E+00 0.  1.
        -13    1    5    5    0    0 -0.66765131596E+02  0.63829930039E+02  0.43988600515E+03  0.44947918783E+03  0.00000000000E+00 0. -1.
          5    1    6    6  503    0  0.57263107184E+03  0.59629132150E+03  0.14055999543E+04  0.16307062906E+04  0.47000000000E+01 0. -1.
         -5    1    6    6    0  503  0.20866082580E+03  0.19659158441E+03  0.39232913969E+03  0.48593398228E+03  0.47000000000E+01 0.  1.
<mgrwt>
<rscale>  0 0.11642121E+04</rscale>
<asrwt>0</asrwt>
<pdfrwt beam="1">  1        2 0.49250928E+00 0.11642121E+04</pdfrwt>
<pdfrwt beam="2">  1       -2 0.86308479E-01 0.11642121E+04</pdfrwt>
<totfact> 0.15075850E+00</totfact>
</mgrwt>
</event>
<event>
12    1  0.3166324E-008  0.5716185E+03  0.7818608E-02  0.9966103E-01
          2   -1    0    0  501    0  0.00000000000E+00  0.00000000000E+00  0.10552776680E+04  0.10552776680E+04  0.00000000000E+00 0. -1.
         -2   -1    0    0    0  501 -0.00000000000E+00 -0.00000000000E+00 -0.36128958601E+03  0.36128958601E+03  0.00000000000E+00 0.  1.
         23    2    1    2    0    0 -0.15064294420E+03 -0.39908862697E+03  0.48361424789E+03  0.65090651143E+03  0.88495858928E+02 0.  0.
    5000000    2    1    2    0    0  0.15064294420E+03  0.39908862697E+03  0.21037383413E+03  0.76566074260E+03  0.60001182810E+03 0.  0.
         23    2    4    4    0    0  0.35810818724E+03  0.28091608453E+03  0.56927016604E+02  0.46766189342E+03  0.91168201790E+02 0.  0.
         23    2    4    4    0    0 -0.20746524304E+03  0.11817254243E+03  0.15344681752E+03  0.29799884918E+03  0.90833977417E+02 0.  0.
          4    1    3    3  502    0 -0.12182335723E+02 -0.28015845205E+01  0.31453788633E+01  0.12889980127E+02  0.00000000000E+00 0. -1.
         -4    1    3    3    0  502 -0.13846060848E+03 -0.39628704245E+03  0.48046886903E+03  0.63801653130E+03  0.00000000000E+00 0.  1.
         11    1    5    5    0    0  0.55758383993E+02  0.34460127950E+02  0.40899526398E+02  0.77261044929E+02  0.00000000000E+00 0.  1.
        -11    1    5    5    0    0  0.30234980324E+03  0.24645595658E+03  0.16027490206E+02  0.39040084849E+03  0.00000000000E+00 0. -1.
          5    1    6    6  503    0 -0.44588306534E+02 -0.12414415138E+02  0.31490587576E+02  0.56178126425E+02  0.47000000000E+01 0. -1.
         -5    1    6    6    0  503 -0.16287693650E+03  0.13058695757E+03  0.12195622995E+03  0.24182072276E+03  0.47000000000E+01 0.  1.
<mgrwt>
<rscale>  0 0.57161850E+03</rscale>
<asrwt>0</asrwt>
<pdfrwt beam="1">  1        2 0.16235041E+00 0.57161850E+03</pdfrwt>
<pdfrwt beam="2">  1       -2 0.55583014E-01 0.57161850E+03</pdfrwt>
<totfact> 0.72928106E+01</totfact>
</mgrwt>
</event>
<event>
12    1  0.3166324E-008  0.9515965E+03  0.7818608E-02  0.9363286E-01
         -1   -1    0    0    0  501 -0.00000000000E+00  0.00000000000E+00  0.12653205064E+04  0.12653205064E+04  0.00000000000E+00 0.  1.
          1   -1    0    0  501    0  0.00000000000E+00 -0.00000000000E+00 -0.15657453470E+04  0.15657453470E+04  0.00000000000E+00 0. -1.
         23    2    1    2    0    0 -0.13211383784E+03 -0.92667067558E+03  0.82353163077E+03  0.12501058157E+04  0.91583822455E+02 0.  0.
    5000000    2    1    2    0    0  0.13211383784E+03  0.92667067558E+03 -0.11239564714E+04  0.15809600377E+04  0.59998656999E+03 0.  0.
         23    2    4    4    0    0  0.56289210963E+02  0.13103469541E+03 -0.59366301304E+03  0.61724793253E+03  0.90667913198E+02 0.  0.
         23    2    4    4    0    0  0.75824626873E+02  0.79563598016E+03 -0.53029345836E+03  0.96371210520E+03  0.93508730920E+02 0.  0.
          4    1    3    3  502    0 -0.69406981564E+02 -0.57800988734E+03  0.45459339963E+03  0.73862569542E+03  0.00000000000E+00 0.  1.
         -4    1    3    3    0  502 -0.62706856272E+02 -0.34866078823E+03  0.36893823114E+03  0.51148012031E+03  0.00000000000E+00 0. -1.
         11    1    5    5    0    0 -0.55885387899E+01  0.85126473122E+02 -0.39631169468E+03  0.40538957501E+03  0.00000000000E+00 0. -1.
        -11    1    5    5    0    0  0.61877749753E+02  0.45908222292E+02 -0.19735131837E+03  0.21185835752E+03  0.00000000000E+00 0.  1.
          5    1    6    6  503    0  0.72969655745E+02  0.30109498536E+03 -0.21654578985E+03  0.37801710275E+03  0.47000000000E+01 0. -1.
         -5    1    6    6    0  503  0.28549711285E+01  0.49454099480E+03 -0.31374766851E+03  0.58569500245E+03  0.47000000000E+01 0.  1.
<mgrwt>
<rscale>  0 0.95159647E+03</rscale>
<asrwt>0</asrwt>
<pdfrwt beam="1">  1        1 0.24088390E+00 0.95159647E+03</pdfrwt>
<pdfrwt beam="2">  1       -1 0.19466469E+00 0.95159647E+03</pdfrwt>
<totfact> 0.98033070E-01</totfact>
</mgrwt>
</event>
<event>
12    1  0.3166324E-008  0.9997312E+03  0.7818608E-02  0.9308840E-01
          2   -1    0    0  501    0  0.00000000000E+00  0.00000000000E+00  0.16863565029E+04  0.16863565029E+04  0.00000000000E+00 0. -1.
         -2   -1    0    0    0  501 -0.00000000000E+00 -0.00000000000E+00 -0.69483913627E+03  0.69483913627E+03  0.00000000000E+00 0.  1.
         23    2    1    2    0    0 -0.38187801963E+03  0.86167432550E+03  0.81667223874E+03  0.12503128787E+04  0.89528118633E+02 0.  0.
    5000000    2    1    2    0    0  0.38187801963E+03 -0.86167432550E+03  0.17484512787E+03  0.11308827604E+04  0.60000961160E+03 0.  0.
         23    2    4    4    0    0  0.43964773072E+03 -0.45448000243E+03 -0.72288795298E+02  0.64260840070E+03  0.88756334922E+02 0.  0.
         23    2    4    4    0    0 -0.57769711094E+02 -0.40719432308E+03  0.24713392317E+03  0.48827435974E+03  0.90510320593E+02 0.  0.
          4    1    3    3  502    0 -0.61259118234E+02  0.14860611219E+03  0.97367996976E+02  0.18792813250E+03  0.00000000000E+00 0. -1.
         -4    1    3    3    0  502 -0.32061890140E+03  0.71306821331E+03  0.71930424177E+03  0.10623847462E+04  0.00000000000E+00 0.  1.
         11    1    5    5    0    0  0.26093901129E+03 -0.31885755180E+03 -0.72011195827E+02  0.41826417283E+03  0.00000000000E+00 0.  1.
        -11    1    5    5    0    0  0.17870871943E+03 -0.13562245063E+03 -0.27759947073E+00  0.22434422787E+03  0.00000000000E+00 0. -1.
          5    1    6    6  503    0  0.12649837760E+02 -0.22094697993E+03  0.11723399671E+03  0.25048649928E+03  0.47000000000E+01 0. -1.
         -5    1    6    6    0  503 -0.70419548854E+02 -0.18624734315E+03  0.12989992645E+03  0.23778786046E+03  0.47000000000E+01 0.  1.
<mgrwt>
<rscale>  0 0.99973124E+03</rscale>
<asrwt>0</asrwt>
<pdfrwt beam="1">  1        2 0.25943946E+00 0.99973124E+03</pdfrwt>
<pdfrwt beam="2">  1       -2 0.10689833E+00 0.99973124E+03</pdfrwt>
<totfact> 0.70017197E+00</totfact>
</mgrwt>
</event>
<event>
12    1  0.3166324E-008  0.6439707E+03  0.7818608E-02  0.9818159E-01
          2   -1    0    0  501    0  0.00000000000E+00  0.00000000000E+00  0.15956004693E+04  0.15956004693E+04  0.00000000000E+00 0. -1.
         -2   -1    0    0    0  501 -0.00000000000E+00 -0.00000000000E+00 -0.30016301412E+03  0.30016301412E+03  0.00000000000E+00 0.  1.
         23    2    1    2    0    0  0.51551373205E+03 -0.20610678015E+03  0.45758513236E+03  0.72525426576E+03  0.91516030733E+02 0.  0.
    5000000    2    1    2    0    0 -0.51551373205E+03  0.20610678015E+03  0.83785232281E+03  0.11705092177E+04  0.59988407299E+03 0.  0.
         23    2    4    4    0    0 -0.46909785430E+03 -0.28969873770E+02  0.27552243325E+03  0.55241615090E+03  0.91427250076E+02 0.  0.
         23    2    4    4    0    0 -0.46415877751E+02  0.23507665392E+03  0.56232988956E+03  0.61809306676E+03  0.91698787118E+02 0.  0.
          1    1    3    3  502    0  0.19671807131E+03 -0.89765956863E+02  0.23534546079E+03  0.31959883058E+03  0.00000000000E+00 0. -1.
         -1    1    3    3    0  502  0.31879566074E+03 -0.11634082328E+03  0.22223967157E+03  0.40565543518E+03  0.00000000000E+00 0.  1.
         13    1    5    5    0    0 -0.36993474336E+03  0.82460427853E+01  0.18816142244E+03  0.41511978086E+03  0.00000000000E+00 0. -1.
        -13    1    5    5    0    0 -0.99163110941E+02 -0.37215916555E+02  0.87361010816E+02  0.13729637004E+03  0.00000000000E+00 0.  1.
          5    1    6    6  503    0  0.25366023475E+02  0.10108934015E+03  0.23946552190E+03  0.26120550533E+03  0.47000000000E+01 0. -1.
         -5    1    6    6    0  503 -0.71781901226E+02  0.13398731377E+03  0.32286436766E+03  0.35688756143E+03  0.47000000000E+01 0.  1.
<mgrwt>
<rscale>  0 0.64397070E+03</rscale>
<asrwt>0</asrwt>
<pdfrwt beam="1">  1        2 0.24547699E+00 0.64397070E+03</pdfrwt>
<pdfrwt beam="2">  1       -2 0.46178926E-01 0.64397070E+03</pdfrwt>
<totfact> 0.51645742E+01</totfact>
</mgrwt>
</event>
<event>
12    1  0.3166324E-008  0.1820695E+04  0.7818608E-02  0.8695371E-01
         -1   -1    0    0    0  501 -0.00000000000E+00  0.00000000000E+00  0.15896220460E+04  0.15896220460E+04  0.00000000000E+00 0.  1.
          1   -1    0    0  501    0  0.00000000000E+00 -0.00000000000E+00 -0.21088053303E+04  0.21088053303E+04  0.00000000000E+00 0. -1.
         23    2    1    2    0    0 -0.32590789207E+03 -0.17456827388E+04 -0.11869641564E+03  0.17816460851E+04  0.80930555664E+02 0.  0.
    5000000    2    1    2    0    0  0.32590789207E+03  0.17456827388E+04 -0.40048686860E+03  0.19167812912E+04  0.60003050557E+03 0.  0.
         23    2    4    4    0    0  0.44167557270E+03  0.92457590986E+03 -0.32072013043E+03  0.10775307915E+04  0.91067446924E+02 0.  0.
         23    2    4    4    0    0 -0.11576768063E+03  0.82110682895E+03 -0.79766738171E+02  0.83925049971E+03  0.10178451907E+03 0.  0.
          3    1    3    3  502    0 -0.19425218934E+03 -0.12185224748E+04 -0.10039203301E+03  0.12379860641E+04  0.00000000000E+00 0. -1.
         -3    1    3    3    0  502 -0.13165570273E+03 -0.52716026405E+03 -0.18304382629E+02  0.54366002104E+03  0.00000000000E+00 0.  1.
         11    1    5    5    0    0  0.37870280676E+03  0.70522915762E+03 -0.24766540308E+03  0.83791534923E+03  0.00000000000E+00 0. -1.
        -11    1    5    5    0    0  0.62972765946E+02  0.21934675224E+03 -0.73054727354E+02  0.23961544224E+03  0.00000000000E+00 0.  1.
          5    1    6    6  503    0 -0.52887158555E+02  0.11658058699E+03 -0.13430535331E+02  0.12880432478E+03  0.47000000000E+01 0.  1.
         -5    1    6    6    0  503 -0.62880522076E+02  0.70452624196E+03 -0.66336202839E+02  0.71044617493E+03  0.47000000000E+01 0. -1.
<mgrwt>
<rscale>  0 0.18206949E+04</rscale>
<asrwt>0</asrwt>
<pdfrwt beam="1">  1        1 0.32443159E+00 0.18206949E+04</pdfrwt>
<pdfrwt beam="2">  1       -1 0.24455724E+00 0.18206949E+04</pdfrwt>
<totfact> 0.17321282E-01</totfact>
</mgrwt>
</event>
<event>
12    1  0.3166324E-008  0.9627350E+03  0.7818608E-02  0.9350388E-01
         -2   -1    0    0    0  501 -0.00000000000E+00  0.00000000000E+00  0.37029426391E+03  0.37029426391E+03  0.00000000000E+00 0.  1.
          2   -1    0    0  501    0  0.00000000000E+00 -0.00000000000E+00 -0.26424936816E+04  0.26424936816E+04  0.00000000000E+00 0. -1.
         23    2    1    2    0    0  0.62592276084E+03 -0.64069753994E+03 -0.10519199802E+04  0.13845055311E+04  0.89706636078E+02 0.  0.
    5000000    2    1    2    0    0 -0.62592276084E+03  0.64069753994E+03 -0.12202794375E+04  0.16282824145E+04  0.59995756138E+03 0.  0.
         23    2    4    4    0    0  0.17650530051E+02  0.27526001748E+03 -0.15875328069E+03  0.33069879985E+03  0.89885892419E+02 0.  0.
         23    2    4    4    0    0 -0.64357329089E+03  0.36543752246E+03 -0.10615261568E+04  0.12975836146E+04  0.95678063171E+02 0.  0.
          3    1    3    3  502    0  0.43817653158E+03 -0.46066598917E+03 -0.68309357354E+03  0.93318200616E+03  0.00000000000E+00 0. -1.
         -3    1    3    3    0  502  0.18774622925E+03 -0.18003155077E+03 -0.36882640670E+03  0.45132352492E+03  0.00000000000E+00 0.  1.
         13    1    5    5    0    0  0.41972500653E+02  0.21308833623E+03 -0.14864048125E+03  0.26317735943E+03  0.00000000000E+00 0.  1.
        -13    1    5    5    0    0 -0.24321970602E+02  0.62171681253E+02 -0.10112799431E+02  0.67521440418E+02  0.00000000000E+00 0. -1.
          5    1    6    6  503    0 -0.39866276426E+03  0.17521217357E+03 -0.64574113199E+03  0.77886777114E+03  0.47000000000E+01 0. -1.
         -5    1    6    6    0  503 -0.24491052663E+03  0.19022534889E+03 -0.41578502480E+03  0.51871584347E+03  0.47000000000E+01 0.  1.
<mgrwt>
<rscale>  0 0.96273501E+03</rscale>
<asrwt>0</asrwt>
<pdfrwt beam="1">  1        2 0.40653749E+00 0.96273501E+03</pdfrwt>
<pdfrwt beam="2">  1       -2 0.56968348E-01 0.96273501E+03</pdfrwt>
<totfact> 0.84622702E+00</totfact>
</mgrwt>
</event>
<event>
12    1  0.3166324E-008  0.1035244E+04  0.7818608E-02  0.9270713E-01
          2   -1    0    0  501    0  0.00000000000E+00  0.00000000000E+00  0.23071912037E+04  0.23071912037E+04  0.00000000000E+00 0. -1.
         -2   -1    0    0    0  501 -0.00000000000E+00 -0.00000000000E+00 -0.47892538411E+03  0.47892538411E+03  0.00000000000E+00 0.  1.
         23    2    1    2    0    0  0.84667927814E+03 -0.45737843531E+03  0.89630821797E+03  0.13182902773E+04  0.91978261766E+02 0.  0.
    5000000    2    1    2    0    0 -0.84667927814E+03  0.45737843531E+03  0.93195760161E+03  0.14678263105E+04  0.59992355626E+03 0.  0.
         23    2    4    4    0    0 -0.75432346548E+03  0.57539825563E+03  0.84684720488E+03  0.12751615209E+04  0.93806570729E+02 0.  0.
         23    2    4    4    0    0 -0.92355812658E+02 -0.11801982032E+03  0.85110396728E+02  0.19266478959E+03  0.86125881114E+02 0.  0.
          4    1    3    3  502    0  0.67489569217E+03 -0.36071374148E+03  0.76087632596E+03  0.10791345523E+04  0.00000000000E+00 0. -1.
         -4    1    3    3    0  502  0.17178358597E+03 -0.96664693826E+02  0.13543189201E+03  0.23915572503E+03  0.00000000000E+00 0.  1.
         11    1    5    5    0    0 -0.15869448303E+03  0.16505030167E+03  0.23020538845E+03  0.32468455753E+03  0.00000000000E+00 0.  1.
        -11    1    5    5    0    0 -0.59562898245E+03  0.41034795396E+03  0.61664181643E+03  0.95047696333E+03  0.00000000000E+00 0. -1.
          5    1    6    6  503    0 -0.73103823790E+02 -0.60432393673E+02  0.92966221843E+01  0.95418868374E+02  0.47000000000E+01 0. -1.
         -5    1    6    6    0  503 -0.19251988868E+02 -0.57587426650E+02  0.75813774543E+02  0.97245921220E+02  0.47000000000E+01 0.  1.
<mgrwt>
<rscale>  0 0.10352440E+04</rscale>
<asrwt>0</asrwt>
<pdfrwt beam="1">  1        2 0.35495249E+00 0.10352440E+04</pdfrwt>
<pdfrwt beam="2">  1       -2 0.73680830E-01 0.10352440E+04</pdfrwt>
<totfact> 0.74815753E+00</totfact>
</mgrwt>
</event>
<event>
12    1  0.3599006E-008  0.8666092E+03  0.7818608E-02  0.9468312E-01
          1   -1    0    0  501    0  0.00000000000E+00  0.00000000000E+00  0.10718124752E+04  0.10718124752E+04  0.00000000000E+00 0. -1.
         -1   -1    0    0    0  501 -0.00000000000E+00 -0.00000000000E+00 -0.12096749885E+04  0.12096749885E+04  0.00000000000E+00 0.  1.
         23    2    1    2    0    0  0.63354095063E+03  0.56260871564E+03 -0.69818145532E+03  0.11017476760E+04  0.92129767586E+02 0.  0.
    5000000    2    1    2    0    0 -0.63354095063E+03 -0.56260871564E+03  0.56031894198E+03  0.11797397877E+04  0.59993828589E+03 0.  0.
         23    2    4    4    0    0 -0.48932285685E+03 -0.30196519179E+03  0.53309777275E+02  0.58438137405E+03  0.89665058371E+02 0.  0.
         23    2    4    4    0    0 -0.14421809377E+03 -0.26064352384E+03  0.50700916470E+03  0.59535841363E+03  0.93056125510E+02 0.  0.
          2    1    3    3  502    0  0.28319434363E+03  0.31309051200E+03 -0.34616542961E+03  0.54594432832E+03  0.00000000000E+00 0. -1.
         -2    1    3    3    0  502  0.35034660699E+03  0.24951820364E+03 -0.35201602571E+03  0.55580334772E+03  0.00000000000E+00 0.  1.
         11    1    5    5    0    0 -0.33683567538E+03 -0.15872974893E+03  0.44163494620E+02  0.37497175848E+03  0.00000000000E+00 0.  1.
        -11    1    5    5    0    0 -0.15248718148E+03 -0.14323544286E+03  0.91462826550E+01  0.20940961557E+03  0.00000000000E+00 0. -1.
          5    1    6    6  503    0 -0.11091421348E+03 -0.22142631055E+03  0.34080569472E+03  0.42131008214E+03  0.47000000000E+01 0. -1.
         -5    1    6    6    0  503 -0.33303880289E+02 -0.39217213291E+02  0.16620346999E+03  0.17404833150E+03  0.47000000000E+01 0.  1.
<mgrwt>
<rscale>  0 0.86660918E+03</rscale>
<asrwt>0</asrwt>
<pdfrwt beam="1">  1        1 0.16489423E+00 0.86660918E+03</pdfrwt>
<pdfrwt beam="2">  1       -1 0.18610385E+00 0.86660918E+03</pdfrwt>
<totfact> 0.25633621E+00</totfact>
</mgrwt>
</event>
<event>
12    1  0.3166324E-008  0.4398413E+03  0.7818608E-02  0.1030796E+00
         -1   -1    0    0    0  501 -0.00000000000E+00  0.00000000000E+00  0.13430863964E+04  0.13430863964E+04  0.00000000000E+00 0.  1.
          1   -1    0    0  501    0  0.00000000000E+00 -0.00000000000E+00 -0.22429752834E+03  0.22429752834E+03  0.00000000000E+00 0. -1.
         23    2    1    2    0    0 -0.33134595675E+03  0.17806152663E+03  0.34855363444E+03  0.52120282895E+03  0.93095126080E+02 0.  0.
    5000000    2    1    2    0    0  0.33134595675E+03 -0.17806152663E+03  0.77023523367E+03  0.10461810958E+04  0.59978039297E+03 0.  0.
         23    2    4    4    0    0  0.32980552021E+03 -0.30623328599E+02  0.79986176007E+03  0.87061509313E+03  0.92099596843E+02 0.  0.
         23    2    4    4    0    0  0.15404365444E+01 -0.14743819803E+03 -0.29626526405E+02  0.17556600272E+03  0.90583083737E+02 0.  0.
          3    1    3    3  502    0 -0.22740676855E+03  0.76222310332E+02  0.24306799958E+03  0.34147581378E+03  0.00000000000E+00 0. -1.
         -3    1    3    3    0  502 -0.10393918820E+03  0.10183921630E+03  0.10548563486E+03  0.17972701517E+03  0.00000000000E+00 0.  1.
         11    1    5    5    0    0  0.13649910792E+02 -0.23664169873E+02  0.55268320979E+02  0.61651442029E+02  0.00000000000E+00 0.  1.
        -11    1    5    5    0    0  0.31615560942E+03 -0.69591587253E+01  0.74459343910E+03  0.80896365110E+03  0.00000000000E+00 0. -1.
          5    1    6    6  503    0  0.15622776537E+02 -0.65331862563E+02 -0.56506242674E+02  0.87905454176E+02  0.47000000000E+01 0. -1.
         -5    1    6    6    0  503 -0.14082339992E+02 -0.82106335469E+02  0.26879716269E+02  0.87660548541E+02  0.47000000000E+01 0.  1.
<mgrwt>
<rscale>  0 0.43984126E+03</rscale>
<asrwt>0</asrwt>
<pdfrwt beam="1">  1        1 0.34507313E-01 0.43984126E+03</pdfrwt>
<pdfrwt beam="2">  1       -1 0.20662867E+00 0.43984126E+03</pdfrwt>
<totfact> 0.18593403E+01</totfact>
</mgrwt>
</event>
<event>
12    1  0.3166324E-008  0.7009435E+03  0.7818608E-02  0.9715620E-01
          1   -1    0    0  501    0  0.00000000000E+00  0.00000000000E+00  0.27053241239E+04  0.27053241239E+04  0.00000000000E+00 0. -1.
         -1   -1    0    0    0  501 -0.00000000000E+00 -0.00000000000E+00 -0.25738065015E+03  0.25738065015E+03  0.00000000000E+00 0.  1.
         23    2    1    2    0    0 -0.39565720034E+03  0.51625481063E+03  0.50772686559E+03  0.83028434482E+03  0.92313994275E+02 0.  0.
    5000000    2    1    2    0    0  0.39565720034E+03 -0.51625481063E+03  0.19402166081E+04  0.21324204292E+04  0.59976057779E+03 0.  0.
         23    2    4    4    0    0  0.36653999628E+03 -0.17518146566E+03  0.50829031849E+03  0.65707959139E+03  0.91402553420E+02 0.  0.
         23    2    4    4    0    0  0.29117204062E+02 -0.34107334497E+03  0.14319262897E+04  0.14753408378E+04  0.95072869263E+02 0.  0.
          3    1    3    3  502    0 -0.24965695334E+03  0.34114333699E+03  0.27396602971E+03  0.50375068850E+03  0.00000000000E+00 0. -1.
         -3    1    3    3    0  502 -0.14600024701E+03  0.17511147363E+03  0.23376083588E+03  0.32653365633E+03  0.00000000000E+00 0.  1.
         13    1    5    5    0    0  0.14125668209E+02 -0.28912248644E+01  0.58552580068E+02  0.60301727307E+02  0.00000000000E+00 0.  1.
        -13    1    5    5    0    0  0.35241432807E+03 -0.17229024079E+03  0.44973773842E+03  0.59677786409E+03  0.00000000000E+00 0. -1.
          5    1    6    6  503    0 -0.87813455771E+01 -0.63704295179E+02  0.15132239044E+03  0.16448679309E+03  0.47000000000E+01 0. -1.
         -5    1    6    6    0  503  0.37898549639E+02 -0.27736904979E+03  0.12806038992E+04  0.13108540447E+04  0.47000000000E+01 0.  1.
<mgrwt>
<rscale>  0 0.70094347E+03</rscale>
<asrwt>0</asrwt>
<pdfrwt beam="1">  1        1 0.41620369E+00 0.70094347E+03</pdfrwt>
<pdfrwt beam="2">  1       -1 0.39597025E-01 0.70094347E+03</pdfrwt>
<totfact> 0.64593865E+00</totfact>
</mgrwt>
</event>
<event>
12    1  0.3166324E-008  0.3278592E+03  0.7818608E-02  0.1072088E+00
          1   -1    0    0  501    0  0.00000000000E+00  0.00000000000E+00  0.12584095193E+03  0.12584095193E+03  0.00000000000E+00 0. -1.
         -1   -1    0    0    0  501 -0.00000000000E+00 -0.00000000000E+00 -0.23919884145E+04  0.23919884145E+04  0.00000000000E+00 0.  1.
         23    2    1    2    0    0  0.12737312381E+03  0.16597158745E+03 -0.81383975034E+02  0.24255079513E+03  0.91853450220E+02 0.  0.
    5000000    2    1    2    0    0 -0.12737312381E+03 -0.16597158745E+03 -0.21847634876E+04  0.22752785713E+04  0.59994216390E+03 0.  0.
         23    2    4    4    0    0 -0.25350481195E+03 -0.16772000209E+03 -0.56575001363E+03  0.64889491901E+03  0.92719195525E+02 0.  0.
         23    2    4    4    0    0  0.12613168814E+03  0.17484146373E+01 -0.16190134739E+04  0.16263836523E+04  0.89481260701E+02 0.  0.
          1    1    3    3  502    0  0.19835617010E+02  0.25182947175E+02  0.20627255142E+02  0.38119761086E+02  0.00000000000E+00 0. -1.
         -1    1    3    3    0  502  0.10753750680E+03  0.14078864028E+03 -0.10201123018E+03  0.20443103405E+03  0.00000000000E+00 0.  1.
         13    1    5    5    0    0 -0.21975008629E+03 -0.10780365273E+03 -0.48148667875E+03  0.54013067843E+03  0.00000000000E+00 0.  1.
        -13    1    5    5    0    0 -0.33754725663E+02 -0.59916349362E+02 -0.84263334874E+02  0.10876424058E+03  0.00000000000E+00 0. -1.
          5    1    6    6  503    0  0.12417799846E+03 -0.51687104545E+01 -0.10551736408E+04  0.10624784200E+04  0.47000000000E+01 0. -1.
         -5    1    6    6    0  503  0.19536896800E+01  0.69171250918E+01 -0.56383983316E+03  0.56390523227E+03  0.47000000000E+01 0.  1.
<mgrwt>
<rscale>  0 0.32785915E+03</rscale>
<asrwt>0</asrwt>
<pdfrwt beam="1">  1        1 0.19360145E-01 0.32785915E+03</pdfrwt>
<pdfrwt beam="2">  1       -1 0.36799825E+00 0.32785915E+03</pdfrwt>
<totfact> 0.37412385E+00</totfact>
</mgrwt>
</event>
<event>
12    1  0.3166324E-008  0.5277057E+03  0.7818608E-02  0.1006790E+00
          2   -1    0    0  501    0  0.00000000000E+00  0.00000000000E+00  0.24608365001E+04  0.24608365001E+04  0.00000000000E+00 0. -1.
         -2   -1    0    0    0  501 -0.00000000000E+00 -0.00000000000E+00 -0.19351373642E+03  0.19351373642E+03  0.00000000000E+00 0.  1.
         23    2    1    2    0    0 -0.10906982400E+03 -0.48899771227E+03  0.46236570865E+03  0.68739180700E+03  0.87809217565E+02 0.  0.
    5000000    2    1    2    0    0  0.10906982400E+03  0.48899771227E+03  0.18049570550E+04  0.19669584295E+04  0.60003375227E+03 0.  0.
         23    2    4    4    0    0  0.10179291626E+03  0.11484339199E+03  0.13865621121E+04  0.13981441855E+04  0.93283816385E+02 0.  0.
         23    2    4    4    0    0  0.72769077395E+01  0.37415432027E+03  0.41839494289E+03  0.56881424394E+03  0.91928815408E+02 0.  0.
          2    1    3    3  502    0 -0.90545107325E+02 -0.22345986360E+03  0.24490298140E+03  0.34367164183E+03  0.00000000000E+00 0. -1.
         -2    1    3    3    0  502 -0.18524716674E+02 -0.26553784866E+03  0.21746272726E+03  0.34372016517E+03  0.00000000000E+00 0.  1.
         13    1    5    5    0    0 -0.79797167956E+01  0.39730914381E+02  0.50257949160E+03  0.50421063735E+03  0.00000000000E+00 0. -1.
        -13    1    5    5    0    0  0.10977263305E+03  0.75112477613E+02  0.88398262050E+03  0.89393354820E+03  0.00000000000E+00 0.  1.
          5    1    6    6  503    0 -0.30358590270E+01  0.19035966522E+03  0.27926738256E+03  0.33802127085E+03  0.47000000000E+01 0. -1.
         -5    1    6    6    0  503  0.10312766767E+02  0.18379465505E+03  0.13912756033E+03  0.23079297309E+03  0.47000000000E+01 0.  1.
<mgrwt>
<rscale>  0 0.52770572E+03</rscale>
<asrwt>0</asrwt>
<pdfrwt beam="1">  1        2 0.37859021E+00 0.52770572E+03</pdfrwt>
<pdfrwt beam="2">  1       -2 0.29771346E-01 0.52770572E+03</pdfrwt>
<totfact> 0.41173507E+01</totfact>
</mgrwt>
</event>
<event>
12    1  0.3166324E-008  0.3939158E+03  0.7818608E-02  0.1045907E+00
         -1   -1    0    0    0  501 -0.00000000000E+00  0.00000000000E+00  0.23013570371E+03  0.23013570371E+03  0.00000000000E+00 0.  1.
          1   -1    0    0  501    0  0.00000000000E+00 -0.00000000000E+00 -0.13733157448E+04  0.13733157448E+04  0.00000000000E+00 0. -1.
         23    2    1    2    0    0 -0.25217360468E+03 -0.26611883038E+02  0.20121208692E+02  0.27037246378E+03  0.91633437763E+02 0.  0.
    5000000    2    1    2    0    0  0.25217360468E+03  0.26611883038E+02 -0.11633012498E+04  0.13330789847E+04  0.59960825758E+03 0.  0.
         23    2    4    4    0    0  0.14827125870E+03 -0.20676922907E+03 -0.21260716385E+03  0.34450315057E+03  0.93502590248E+02 0.  0.
         23    2    4    4    0    0  0.10390234598E+03  0.23338111211E+03 -0.95069408591E+03  0.98857583414E+03  0.90556578289E+02 0.  0.
          1    1    3    3  502    0 -0.16196963637E+03 -0.54882197335E+02 -0.95873595719E+01  0.17128378836E+03  0.00000000000E+00 0. -1.
         -1    1    3    3    0  502 -0.90203968309E+02  0.28270314298E+02  0.29708568264E+02  0.99088675425E+02  0.00000000000E+00 0.  1.
         11    1    5    5    0    0  0.12351717737E+03 -0.10635603723E+03 -0.16027873503E+03  0.22859871536E+03  0.00000000000E+00 0. -1.
        -11    1    5    5    0    0  0.24754081328E+02 -0.10041319184E+03 -0.52328428820E+02  0.11590443521E+03  0.00000000000E+00 0.  1.
          5    1    6    6  503    0  0.41437956268E+02  0.10631524216E+03 -0.26766405717E+03  0.29100888721E+03  0.47000000000E+01 0. -1.
         -5    1    6    6    0  503  0.62464389714E+02  0.12706586996E+03 -0.68303002874E+03  0.69756694693E+03  0.47000000000E+01 0.  1.
<mgrwt>
<rscale>  0 0.39391579E+03</rscale>
<asrwt>0</asrwt>
<pdfrwt beam="1">  1        1 0.21127934E+00 0.39391579E+03</pdfrwt>
<pdfrwt beam="2">  1       -1 0.35405494E-01 0.39391579E+03</pdfrwt>
<totfact> 0.65648426E+01</totfact>
</mgrwt>
</event>
<event>
12    1  0.3166324E-008  0.1019515E+04  0.7818608E-02  0.9287396E-01
          3   -1    0    0  501    0  0.00000000000E+00  0.00000000000E+00  0.79012780366E+03  0.79012780366E+03  0.00000000000E+00 0. -1.
         -3   -1    0    0    0  501 -0.00000000000E+00 -0.00000000000E+00 -0.16008995715E+04  0.16008995715E+04  0.00000000000E+00 0.  1.
         23    2    1    2    0    0  0.79570873470E+03  0.60749742256E+03 -0.68659595133E+03  0.12174028068E+04  0.91924342786E+02 0.  0.
    5000000    2    1    2    0    0 -0.79570873470E+03 -0.60749742256E+03 -0.12417581656E+03  0.11736245684E+04  0.59980787355E+03 0.  0.
         23    2    4    4    0    0 -0.73194287366E+03 -0.53764757437E+03 -0.29333448759E+03  0.95902509628E+03  0.94227008610E+02 0.  0.
         23    2    4    4    0    0 -0.63765861039E+02 -0.69849848194E+02  0.16915867103E+03  0.21459947210E+03  0.92158510795E+02 0.  0.
          1    1    3    3  502    0  0.53926530633E+03  0.41133613275E+03 -0.41207867032E+03  0.79360778427E+03  0.00000000000E+00 0. -1.
         -1    1    3    3    0  502  0.25644342837E+03  0.19616128981E+03 -0.27451728102E+03  0.42379502256E+03  0.00000000000E+00 0.  1.
         11    1    5    5    0    0 -0.11222202489E+03 -0.12752466996E+03 -0.50563962889E+02  0.17723723836E+03  0.00000000000E+00 0. -1.
        -11    1    5    5    0    0 -0.61972084877E+03 -0.41012290441E+03 -0.24277052470E+03  0.78178785792E+03  0.00000000000E+00 0.  1.
          5    1    6    6  503    0 -0.38935189891E+02 -0.86280096237E+02  0.93395726566E+02  0.13306034631E+03  0.47000000000E+01 0. -1.
         -5    1    6    6    0  503 -0.24830671147E+02  0.16430248042E+02  0.75762944466E+02  0.81539125790E+02  0.47000000000E+01 0.  1.
<mgrwt>
<rscale>  0 0.10195152E+04</rscale>
<asrwt>0</asrwt>
<pdfrwt beam="1">  1        3 0.12155812E+00 0.10195152E+04</pdfrwt>
<pdfrwt beam="2">  1       -3 0.24629224E+00 0.10195152E+04</pdfrwt>
<totfact> 0.10721631E-01</totfact>
</mgrwt>
</event>
<event>
12    1  0.3166324E-008  0.8642768E+03  0.7818608E-02  0.9471373E-01
          2   -1    0    0  501    0  0.00000000000E+00  0.00000000000E+00  0.15440315885E+04  0.15440315885E+04  0.00000000000E+00 0. -1.
         -2   -1    0    0    0  501 -0.00000000000E+00 -0.00000000000E+00 -0.51231997560E+03  0.51231997560E+03  0.00000000000E+00 0.  1.
         23    2    1    2    0    0  0.75842559273E+03  0.80224345317E+02  0.67461123452E+03  0.10223343035E+04  0.91770284717E+02 0.  0.
    5000000    2    1    2    0    0 -0.75842559273E+03 -0.80224345317E+02  0.35710037841E+03  0.10340172606E+04  0.60002140770E+03 0.  0.
         23    2    4    4    0    0 -0.13341393914E+03  0.21875949945E+03  0.82910591912E+02  0.28318667604E+03  0.87553009553E+02 0.  0.
         23    2    4    4    0    0 -0.62501165358E+03 -0.29898384476E+03  0.27418978650E+03  0.75083058457E+03  0.92388425450E+02 0.  0.
          3    1    3    3  502    0  0.24033155659E+03  0.61229101252E+02  0.18693642703E+03  0.31056961809E+03  0.00000000000E+00 0. -1.
         -3    1    3    3    0  502  0.51809403614E+03  0.18995244065E+02  0.48767480749E+03  0.71176468544E+03  0.00000000000E+00 0.  1.
         13    1    5    5    0    0 -0.29071916409E+02  0.11108036545E+03  0.67683945844E+01  0.11502102016E+03  0.00000000000E+00 0.  1.
        -13    1    5    5    0    0 -0.10434202273E+03  0.10767913399E+03  0.76142197328E+02  0.16816565588E+03  0.00000000000E+00 0. -1.
          5    1    6    6  503    0 -0.53117612950E+03 -0.28351820847E+03  0.25395078925E+03  0.65348584411E+03  0.47000000000E+01 0. -1.
         -5    1    6    6    0  503 -0.93835524085E+02 -0.15465636288E+02  0.20238997254E+02  0.97344740463E+02  0.47000000000E+01 0.  1.
<mgrwt>
<rscale>  0 0.86427684E+03</rscale>
<asrwt>0</asrwt>
<pdfrwt beam="1">  1        2 0.23754332E+00 0.86427684E+03</pdfrwt>
<pdfrwt beam="2">  1       -2 0.78818459E-01 0.86427684E+03</pdfrwt>
<totfact> 0.17328244E+01</totfact>
</mgrwt>
</event>
<event>
12    1  0.3166324E-008  0.8386097E+03  0.7818608E-02  0.9505753E-01
          1   -1    0    0  501    0  0.00000000000E+00  0.00000000000E+00  0.84287087242E+03  0.84287087242E+03  0.00000000000E+00 0. -1.
         -1   -1    0    0    0  501 -0.00000000000E+00 -0.00000000000E+00 -0.11776815163E+04  0.11776815163E+04  0.00000000000E+00 0.  1.
         23    2    1    2    0    0 -0.30746287118E+03 -0.70169914037E+03  0.33254643225E+03  0.84019859736E+03  0.91822941890E+02 0.  0.
    5000000    2    1    2    0    0  0.30746287118E+03  0.70169914037E+03 -0.66735707618E+03  0.11803537914E+04  0.60079489427E+03 0.  0.
         23    2    4    4    0    0  0.19963007636E+03  0.15868315505E+02 -0.93832619982E+01  0.21995212119E+03  0.90481595842E+02 0.  0.
         23    2    4    4    0    0  0.10783279482E+03  0.68583082487E+03 -0.65797381418E+03  0.96040167021E+03  0.86313359419E+02 0.  0.
          3    1    3    3  502    0 -0.18501443850E+02 -0.12189552047E+03  0.64121807572E+02  0.13896916039E+03  0.00000000000E+00 0. -1.
         -3    1    3    3    0  502 -0.28896142733E+03 -0.57980361991E+03  0.26842462468E+03  0.70122943697E+03  0.00000000000E+00 0.  1.
         13    1    5    5    0    0  0.81429502034E+02  0.33368506172E+02  0.31791620980E+02  0.93567773139E+02  0.00000000000E+00 0.  1.
        -13    1    5    5    0    0  0.11820057432E+03 -0.17500190667E+02 -0.41174882978E+02  0.12638434805E+03  0.00000000000E+00 0. -1.
          5    1    6    6  503    0  0.52601057481E+02  0.54050528795E+03 -0.48977652314E+03  0.73131113089E+03  0.47000000000E+01 0. -1.
         -5    1    6    6    0  503  0.55231737340E+02  0.14532553692E+03 -0.16819729104E+03  0.22909053932E+03  0.47000000000E+01 0.  1.
<mgrwt>
<rscale>  0 0.83860971E+03</rscale>
<asrwt>0</asrwt>
<pdfrwt beam="1">  1        1 0.12967244E+00 0.83860971E+03</pdfrwt>
<pdfrwt beam="2">  1       -1 0.18118177E+00 0.83860971E+03</pdfrwt>
<totfact> 0.42429404E+00</totfact>
</mgrwt>
</event>
<event>
12    1  0.3853183E-008  0.1253829E+04  0.7818608E-02  0.9067003E-01
          1   -1    0    0  501    0  0.00000000000E+00  0.00000000000E+00  0.16468569813E+04  0.16468569813E+04  0.00000000000E+00 0. -1.
         -1   -1    0    0    0  501 -0.00000000000E+00 -0.00000000000E+00 -0.10045184503E+04  0.10045184503E+04  0.00000000000E+00 0.  1.
         23    2    1    2    0    0  0.11060182466E+04 -0.48696886543E+03  0.18562517454E+03  0.12269853858E+04  0.10306014701E+03 0.  0.
    5000000    2    1    2    0    0 -0.11060182466E+04  0.48696886543E+03  0.45671335648E+03  0.14243900458E+04  0.59990405459E+03 0.  0.
         23    2    4    4    0    0 -0.37682596235E+03  0.40769167096E+03  0.13961028441E+02  0.56276171062E+03  0.91079790031E+02 0.  0.
         23    2    4    4    0    0 -0.72919228427E+03  0.79277194471E+02  0.44275232804E+03  0.86162833515E+03  0.91474056061E+02 0.  0.
          2    1    3    3  502    0  0.71964437077E+03 -0.35901346111E+03  0.93152617376E+02  0.80960243068E+03  0.00000000000E+00 0. -1.
         -2    1    3    3    0  502  0.38637387586E+03 -0.12795540432E+03  0.92472557169E+02  0.41738295517E+03  0.00000000000E+00 0.  1.
         11    1    5    5    0    0 -0.23380456773E+03  0.18641962738E+03  0.12500220715E+02  0.29928766911E+03  0.00000000000E+00 0.  1.
        -11    1    5    5    0    0 -0.14302139462E+03  0.22127204358E+03  0.14608077261E+01  0.26347404151E+03  0.00000000000E+00 0. -1.
          5    1    6    6  503    0 -0.47963822291E+03  0.63238225095E+02  0.24226291243E+03  0.54107791188E+03  0.47000000000E+01 0.  1.
         -5    1    6    6    0  503 -0.24955406137E+03  0.16038969376E+02  0.20048941561E+03  0.32055042326E+03  0.47000000000E+01 0. -1.
<mgrwt>
<rscale>  0 0.12538287E+04</rscale>
<asrwt>0</asrwt>
<pdfrwt beam="1">  1        1 0.25336261E+00 0.12538287E+04</pdfrwt>
<pdfrwt beam="2">  1       -1 0.15454130E+00 0.12538287E+04</pdfrwt>
<totfact> 0.16254588E+00</totfact>
</mgrwt>
</event>
<event>
12    1  0.3166324E-008  0.3939819E+03  0.7818608E-02  0.1045884E+00
         -2   -1    0    0    0  501 -0.00000000000E+00  0.00000000000E+00  0.42093950044E+03  0.42093950044E+03  0.00000000000E+00 0. -1.
          2   -1    0    0  501    0  0.00000000000E+00 -0.00000000000E+00 -0.15931786886E+04  0.15931786886E+04  0.00000000000E+00 0.  1.
         23    2    1    2    0    0 -0.11354565092E+03 -0.15140086784E+03  0.32691572685E+03  0.38835392276E+03  0.90166730206E+02 0.  0.
    5000000    2    1    2    0    0  0.11354565092E+03  0.15140086784E+03 -0.14991549150E+04  0.16257642662E+04  0.59985761032E+03 0.  0.
         23    2    4    4    0    0 -0.98773201982E+02  0.30443797972E+03 -0.10159088265E+04  0.10685377446E+04  0.85226397497E+02 0.  0.
         23    2    4    4    0    0  0.21231885290E+03 -0.15303711188E+03 -0.48324608844E+03  0.55722652166E+03  0.92059554277E+02 0.  0.
          1    1    3    3  502    0 -0.51202163637E+02 -0.36719854568E+02  0.18547881160E+03  0.19588874096E+03  0.00000000000E+00 0. -1.
         -1    1    3    3    0  502 -0.62343487284E+02 -0.11468101327E+03  0.14143691525E+03  0.19246518181E+03  0.00000000000E+00 0.  1.
         13    1    5    5    0    0 -0.97824721196E+02  0.18497923692E+03 -0.58158986157E+03  0.61808879722E+03  0.00000000000E+00 0. -1.
        -13    1    5    5    0    0 -0.94848078654E+00  0.11945874280E+03 -0.43431896497E+03  0.45044894736E+03  0.00000000000E+00 0.  1.
          5    1    6    6  503    0  0.70865363617E+02 -0.26327235426E+02 -0.73293609386E+02  0.10539955532E+03  0.47000000000E+01 0. -1.
         -5    1    6    6    0  503  0.14145348929E+03 -0.12670987646E+03 -0.40995247905E+03  0.45182696633E+03  0.47000000000E+01 0.  1.
<mgrwt>
<rscale>  0 0.39398186E+03</rscale>
<asrwt>0</asrwt>
<pdfrwt beam="1">  1        2 0.24510441E+00 0.39398186E+03</pdfrwt>
<pdfrwt beam="2">  1       -2 0.64759924E-01 0.39398186E+03</pdfrwt>
<totfact> 0.26923159E+01</totfact>
</mgrwt>
</event>
<event>
12    1  0.3166324E-008  0.5626125E+03  0.7818608E-02  0.9986161E-01
         -2   -1    0    0    0  501 -0.00000000000E+00  0.00000000000E+00  0.65339020779E+03  0.65339020779E+03  0.00000000000E+00 0.  1.
          2   -1    0    0  501    0  0.00000000000E+00 -0.00000000000E+00 -0.10736016899E+04  0.10736016899E+04  0.00000000000E+00 0. -1.
         23    2    1    2    0    0 -0.22939054606E+03  0.39955806880E+03 -0.76344579638E+03  0.89627689965E+03  0.90532446518E+02 0.  0.
    5000000    2    1    2    0    0  0.22939054606E+03 -0.39955806880E+03  0.34323431421E+03  0.83071499808E+03  0.60000911711E+03 0.  0.
         23    2    4    4    0    0  0.35782654970E+02  0.85481909862E+02  0.26234360457E+03  0.29395643049E+03  0.94861271646E+02 0.  0.
         23    2    4    4    0    0  0.19360789109E+03 -0.48503997867E+03  0.80890709646E+02  0.53675856759E+03  0.93907702454E+02 0.  0.
          3    1    3    3  502    0 -0.57764018869E+02  0.18868731332E+03 -0.33741382567E+03  0.39088063886E+03  0.00000000000E+00 0. -1.
         -3    1    3    3    0  502 -0.17162652719E+03  0.21087075549E+03 -0.42603197071E+03  0.50539626079E+03  0.00000000000E+00 0.  1.
         13    1    5    5    0    0  0.50176443847E+02  0.45198481625E+01  0.98918121049E+02  0.11100855470E+03  0.00000000000E+00 0. -1.
        -13    1    5    5    0    0 -0.14393788877E+02  0.80962061700E+02  0.16342548352E+03  0.18294787579E+03  0.00000000000E+00 0.  1.
          5    1    6    6  503    0  0.10430964415E+02 -0.50919141411E+02  0.36034997569E+02  0.63420619915E+02  0.47000000000E+01 0. -1.
         -5    1    6    6    0  503  0.18317692668E+03 -0.43412083725E+03  0.44855712078E+02  0.47333794768E+03  0.47000000000E+01 0.  1.
<mgrwt>
<rscale>  0 0.56261252E+03</rscale>
<asrwt>0</asrwt>
<pdfrwt beam="1">  1        2 0.16516949E+00 0.56261252E+03</pdfrwt>
<pdfrwt beam="2">  1       -2 0.10052157E+00 0.56261252E+03</pdfrwt>
<totfact> 0.19226617E+01</totfact>
</mgrwt>
</event>
<event>
12    1  0.3166324E-008  0.4521201E+03  0.7818608E-02  0.1027092E+00
         -2   -1    0    0    0  501 -0.00000000000E+00  0.00000000000E+00  0.19116227941E+04  0.19116227941E+04  0.00000000000E+00 0.  1.
          2   -1    0    0  501    0  0.00000000000E+00 -0.00000000000E+00 -0.12569890640E+03  0.12569890640E+03  0.00000000000E+00 0. -1.
         23    2    1    2    0    0  0.15647436828E+01 -0.27188088505E+03  0.81486048522E+03  0.86394443877E+03  0.92090818413E+02 0.  0.
    5000000    2    1    2    0    0 -0.15647436828E+01  0.27188088505E+03  0.97106340245E+03  0.11733772617E+04  0.59994033255E+03 0.  0.
         23    2    4    4    0    0 -0.27551494509E+03  0.11317822750E+03  0.62023580886E+03  0.69338686703E+03  0.85878359520E+02 0.  0.
         23    2    4    4    0    0  0.27395020141E+03  0.15870265755E+03  0.35082759359E+03  0.47999039467E+03  0.84116182655E+02 0.  0.
          3    1    3    3  502    0  0.34429058871E+02 -0.71845886986E+02  0.30575486974E+03  0.31596397254E+03  0.00000000000E+00 0. -1.
         -3    1    3    3    0  502 -0.32864315188E+02 -0.20003499807E+03  0.50910561548E+03  0.54798046623E+03  0.00000000000E+00 0.  1.
         13    1    5    5    0    0 -0.20381862110E+03  0.51271145834E+02  0.48180729510E+03  0.52565105376E+03  0.00000000000E+00 0.  1.
        -13    1    5    5    0    0 -0.71696323987E+02  0.61907081668E+02  0.13842851376E+03  0.16773581327E+03  0.00000000000E+00 0. -1.
          5    1    6    6  503    0  0.17379415381E+03  0.94184548249E+02  0.15723109632E+03  0.25262391945E+03  0.47000000000E+01 0. -1.
         -5    1    6    6    0  503  0.10015604759E+03  0.64518109302E+02  0.19359649727E+03  0.22736647522E+03  0.47000000000E+01 0.  1.
<mgrwt>
<rscale>  0 0.45212009E+03</rscale>
<asrwt>0</asrwt>
<pdfrwt beam="1">  1        2 0.19338295E-01 0.45212009E+03</pdfrwt>
<pdfrwt beam="2">  1       -2 0.29409579E+00 0.45212009E+03</pdfrwt>
<totfact> 0.11022131E+01</totfact>
</mgrwt>
</event>
<event>
12    1  0.3166324E-008  0.4255131E+03  0.7818608E-02  0.1035287E+00
         -1   -1    0    0    0  501 -0.00000000000E+00  0.00000000000E+00  0.85762992624E+03  0.85762992624E+03  0.00000000000E+00 0.  1.
          1   -1    0    0  501    0  0.00000000000E+00 -0.00000000000E+00 -0.34976158762E+03  0.34976158762E+03  0.00000000000E+00 0. -1.
         23    2    1    2    0    0  0.36939607105E+03 -0.50237614100E+02  0.12483237636E+03  0.40391475317E+03  0.92664612811E+02 0.  0.
    5000000    2    1    2    0    0 -0.36939607105E+03  0.50237614100E+02  0.38303596227E+03  0.80347676068E+03  0.59990089297E+03 0.  0.
         23    2    4    4    0    0 -0.35995676069E+03  0.11750104529E+03 -0.14984068667E+02  0.38969173792E+03  0.90883238727E+02 0.  0.
         23    2    4    4    0    0 -0.94393103555E+01 -0.67263431186E+02  0.39802003093E+03  0.41378502276E+03  0.90468946493E+02 0.  0.
          3    1    3    3  502    0  0.22006600346E+03 -0.41396688887E+01  0.11238429377E+03  0.24713642432E+03  0.00000000000E+00 0. -1.
         -3    1    3    3    0  502  0.14933006759E+03 -0.46097945212E+02  0.12448082582E+02  0.15677832885E+03  0.00000000000E+00 0.  1.
         11    1    5    5    0    0 -0.22807175935E+03  0.43962786216E+02 -0.42713638504E+02  0.23616500355E+03  0.00000000000E+00 0.  1.
        -11    1    5    5    0    0 -0.13188500134E+03  0.73538259070E+02  0.27729569837E+02  0.15352673438E+03  0.00000000000E+00 0. -1.
          5    1    6    6  503    0  0.93739560237E+01  0.82877426199E+01  0.20731173932E+03  0.20774215987E+03  0.47000000000E+01 0. -1.
         -5    1    6    6    0  503 -0.18813266379E+02 -0.75551173806E+02  0.19070829162E+03  0.20604286289E+03  0.47000000000E+01 0.  1.
<mgrwt>
<rscale>  0 0.42551312E+03</rscale>
<asrwt>0</asrwt>
<pdfrwt beam="1">  1        1 0.53809475E-01 0.42551312E+03</pdfrwt>
<pdfrwt beam="2">  1       -1 0.13194307E+00 0.42551312E+03</pdfrwt>
<totfact> 0.37151403E+01</totfact>
</mgrwt>
</event>
<event>
12    1  0.3166324E-008  0.9817823E+03  0.7818608E-02  0.9328754E-01
          1   -1    0    0  501    0  0.00000000000E+00  0.00000000000E+00  0.72871205481E+03  0.72871205481E+03  0.00000000000E+00 0. -1.
         -1   -1    0    0    0  501 -0.00000000000E+00 -0.00000000000E+00 -0.15312435265E+04  0.15312435265E+04  0.00000000000E+00 0.  1.
         23    2    1    2    0    0  0.40228340914E+03  0.86816819869E+03 -0.19890916000E+03  0.97937002554E+03  0.63661845063E+02 0.  0.
    5000000    2    1    2    0    0 -0.40228340914E+03 -0.86816819869E+03 -0.60362231167E+03  0.12805855557E+04  0.59999292326E+03 0.  0.
         23    2    4    4    0    0 -0.15345078598E+03 -0.10269859465E+03 -0.39133909891E+03  0.44325599644E+03  0.96101212183E+02 0.  0.
         23    2    4    4    0    0 -0.24883262316E+03 -0.76546960403E+03 -0.21228321276E+03  0.83732955930E+03  0.90527561669E+02 0.  0.
          4    1    3    3  502    0  0.26735506763E+03  0.63575487220E+03 -0.15776984342E+03  0.70749863124E+03  0.00000000000E+00 0. -1.
         -4    1    3    3    0  502  0.13492834151E+03  0.23241332649E+03 -0.41139316584E+02  0.27187139430E+03  0.00000000000E+00 0.  1.
         11    1    5    5    0    0 -0.33430952023E+02  0.10641601160E+02 -0.12568253241E+03  0.13048743687E+03  0.00000000000E+00 0. -1.
        -11    1    5    5    0    0 -0.12001983396E+03 -0.11334019582E+03 -0.26565656650E+03  0.31276855957E+03  0.00000000000E+00 0.  1.
          5    1    6    6  503    0 -0.68241722669E+02 -0.21647274304E+03 -0.18599288005E+02  0.22778367963E+03  0.47000000000E+01 0. -1.
         -5    1    6    6    0  503 -0.18059090049E+03 -0.54899686099E+03 -0.19368392476E+03  0.60954587967E+03  0.47000000000E+01 0.  1.
<mgrwt>
<rscale>  0 0.98178229E+03</rscale>
<asrwt>0</asrwt>
<pdfrwt beam="1">  1        1 0.11210955E+00 0.98178229E+03</pdfrwt>
<pdfrwt beam="2">  1       -1 0.23557592E+00 0.98178229E+03</pdfrwt>
<totfact> 0.22407712E+00</totfact>
</mgrwt>
</event>
<event>
12    1  0.3166324E-008  0.1235090E+04  0.7818608E-02  0.9082685E-01
         -2   -1    0    0    0  501 -0.00000000000E+00  0.00000000000E+00  0.56715232147E+03  0.56715232147E+03  0.00000000000E+00 0.  1.
          2   -1    0    0  501    0  0.00000000000E+00 -0.00000000000E+00 -0.29932047706E+04  0.29932047706E+04  0.00000000000E+00 0. -1.
         23    2    1    2    0    0  0.13787614686E+03  0.12129982391E+04 -0.13772605324E+04  0.18426613727E+04  0.90442248738E+02 0.  0.
    5000000    2    1    2    0    0 -0.13787614686E+03 -0.12129982391E+04 -0.10487919168E+04  0.17176957194E+04  0.60011627203E+03 0.  0.
         23    2    4    4    0    0 -0.91010856169E+02 -0.23012430632E+03 -0.55237401428E+03  0.61221794211E+03  0.91943377633E+02 0.  0.
         23    2    4    4    0    0 -0.46865290696E+02 -0.98287393276E+03 -0.49641790248E+03  0.11054777773E+04  0.86097961883E+02 0.  0.
          1    1    3    3  502    0  0.86842159210E+02  0.83458688598E+03 -0.10071662313E+04  0.13109007012E+04  0.00000000000E+00 0. -1.
         -1    1    3    3    0  502  0.51033987654E+02  0.37841135310E+03 -0.37009430112E+03  0.53176067152E+03  0.00000000000E+00 0.  1.
         11    1    5    5    0    0  0.12133783655E+02 -0.85429868796E+02 -0.17759580458E+03  0.19744812228E+03  0.00000000000E+00 0.  1.
        -11    1    5    5    0    0 -0.10314463982E+03 -0.14469443752E+03 -0.37477820970E+03  0.41476981983E+03  0.00000000000E+00 0. -1.
          5    1    6    6  503    0 -0.57091068227E+02 -0.84000893861E+03 -0.39564448843E+03  0.93028547137E+03  0.47000000000E+01 0. -1.
         -5    1    6    6    0  503  0.10225777531E+02 -0.14286499415E+03 -0.10077341405E+03  0.17519230594E+03  0.47000000000E+01 0.  1.
<mgrwt>
<rscale>  0 0.12350896E+04</rscale>
<asrwt>0</asrwt>
<pdfrwt beam="1">  1        2 0.46049304E+00 0.12350896E+04</pdfrwt>
<pdfrwt beam="2">  1       -2 0.87254204E-01 0.12350896E+04</pdfrwt>
<totfact> 0.19714033E+00</totfact>
</mgrwt>
</event>
<event>
12    1  0.3166324E-008  0.1028503E+04  0.7818608E-02  0.9277824E-01
         -2   -1    0    0    0  501 -0.00000000000E+00  0.00000000000E+00  0.84684599384E+03  0.84684599384E+03  0.00000000000E+00 0.  1.
          2   -1    0    0  501    0  0.00000000000E+00 -0.00000000000E+00 -0.19227234411E+04  0.19227234411E+04  0.00000000000E+00 0. -1.
         23    2    1    2    0    0  0.28812795014E+03  0.93741131257E+03  0.24853115648E+03  0.10157445994E+04  0.90618270018E+02 0.  0.
    5000000    2    1    2    0    0 -0.28812795014E+03 -0.93741131257E+03 -0.13244086037E+04  0.17538248355E+04  0.60007142869E+03 0.  0.
         23    2    4    4    0    0  0.93210665929E+02 -0.15931842359E+03 -0.52546085267E+02  0.21216691012E+03  0.90460589943E+02 0.  0.
         23    2    4    4    0    0 -0.38133861607E+03 -0.77809288898E+03 -0.12718625184E+04  0.15416579254E+04  0.90703964406E+02 0.  0.
          3    1    3    3  502    0  0.85948866317E+02  0.23604355842E+03  0.10272934161E+03  0.27139839116E+03  0.00000000000E+00 0. -1.
         -3    1    3    3    0  502  0.20217908382E+03  0.70136775415E+03  0.14580181487E+03  0.74434620823E+03  0.00000000000E+00 0.  1.
         11    1    5    5    0    0  0.84385249942E+02 -0.56549037909E+02 -0.16558361743E+02  0.10292154021E+03  0.00000000000E+00 0. -1.
        -11    1    5    5    0    0  0.88254159877E+01 -0.10276938568E+03 -0.35987723524E+02  0.10924536991E+03  0.00000000000E+00 0.  1.
          5    1    6    6  503    0 -0.25350307719E+03 -0.41662839939E+03 -0.70031583127E+03  0.85340927277E+03  0.47000000000E+01 0. -1.
         -5    1    6    6    0  503 -0.12783553887E+03 -0.36146448959E+03 -0.57154668717E+03  0.68824865263E+03  0.47000000000E+01 0.  1.
<mgrwt>
<rscale>  0 0.10285034E+04</rscale>
<asrwt>0</asrwt>
<pdfrwt beam="1">  1        2 0.29580360E+00 0.10285034E+04</pdfrwt>
<pdfrwt beam="2">  1       -2 0.13028400E+00 0.10285034E+04</pdfrwt>
<totfact> 0.31662745E+00</totfact>
</mgrwt>
</event>
<event>
12    1  0.3166324E-008  0.8158322E+03  0.7818608E-02  0.9537379E-01
         -1   -1    0    0    0  501 -0.00000000000E+00  0.00000000000E+00  0.62329511168E+03  0.62329511168E+03  0.00000000000E+00 0.  1.
          1   -1    0    0  501    0  0.00000000000E+00 -0.00000000000E+00 -0.10988257860E+04  0.10988257860E+04  0.00000000000E+00 0. -1.
         23    2    1    2    0    0 -0.68565483008E+03  0.19905217012E+03 -0.25660379688E+03  0.76415415058E+03  0.91333153030E+02 0.  0.
    5000000    2    1    2    0    0  0.68565483008E+03 -0.19905217012E+03 -0.21892687748E+03  0.95796674714E+03  0.60002249833E+03 0.  0.
         23    2    4    4    0    0  0.17106894871E+03  0.19251862423E+03 -0.14144039895E+02  0.27377421561E+03  0.91783775127E+02 0.  0.
         23    2    4    4    0    0  0.51458588137E+03 -0.39157079436E+03 -0.20478283759E+03  0.68419253153E+03  0.89761313164E+02 0.  0.
          4    1    3    3  502    0 -0.49251824426E+03  0.17324457438E+03 -0.15626136580E+03  0.54498212624E+03  0.00000000000E+00 0. -1.
         -4    1    3    3    0  502 -0.19313658582E+03  0.25807595740E+02 -0.10034243108E+03  0.21917202435E+03  0.00000000000E+00 0.  1.
         13    1    5    5    0    0  0.53294207114E+02  0.10318410276E+03 -0.41720920835E+02  0.12340124314E+03  0.00000000000E+00 0. -1.
        -13    1    5    5    0    0  0.11777474160E+03  0.89334521478E+02  0.27576880940E+02  0.15037297246E+03  0.00000000000E+00 0.  1.
          5    1    6    6  503    0  0.40772517691E+03 -0.34487590714E+03 -0.18858535593E+03  0.56636184342E+03  0.47000000000E+01 0. -1.
         -5    1    6    6    0  503  0.10686070446E+03 -0.46694887216E+02 -0.16197481660E+02  0.11783068811E+03  0.47000000000E+01 0.  1.
<mgrwt>
<rscale>  0 0.81583223E+03</rscale>
<asrwt>0</asrwt>
<pdfrwt beam="1">  1        1 0.16905012E+00 0.81583223E+03</pdfrwt>
<pdfrwt beam="2">  1       -1 0.95891557E-01 0.81583223E+03</pdfrwt>
<totfact> 0.13631903E+01</totfact>
</mgrwt>
</event>
<event>
12    1  0.3166324E-008  0.8222989E+03  0.7818608E-02  0.9528290E-01
          2   -1    0    0  501    0  0.00000000000E+00  0.00000000000E+00  0.54129228310E+03  0.54129228310E+03  0.00000000000E+00 0. -1.
         -2   -1    0    0    0  501 -0.00000000000E+00 -0.00000000000E+00 -0.13480671422E+04  0.13480671422E+04  0.00000000000E+00 0.  1.
         23    2    1    2    0    0 -0.26866153861E+03 -0.66664762368E+03 -0.13599242019E+03  0.73709843532E+03  0.90675732815E+02 0.  0.
    5000000    2    1    2    0    0  0.26866153861E+03  0.66664762368E+03 -0.67078243892E+03  0.11522609900E+04  0.60096441840E+03 0.  0.
         23    2    4    4    0    0 -0.17383316442E+03  0.12742240381E+03 -0.17844411429E+03  0.29416058614E+03  0.90739795383E+02 0.  0.
         23    2    4    4    0    0  0.44249470303E+03  0.53922521986E+03 -0.49233832463E+03  0.85810040384E+03  0.85871282957E+02 0.  0.
          2    1    3    3  502    0 -0.90296105739E+02 -0.17252128826E+03 -0.11117751477E+01  0.19472600663E+03  0.00000000000E+00 0. -1.
         -2    1    3    3    0  502 -0.17836543287E+03 -0.49412633542E+03 -0.13488064505E+03  0.54237242869E+03  0.00000000000E+00 0.  1.
         11    1    5    5    0    0 -0.10952437771E+03  0.11760927185E+03 -0.15945587690E+03  0.22639281529E+03  0.00000000000E+00 0. -1.
        -11    1    5    5    0    0 -0.64308786706E+02  0.98131319664E+01 -0.18988237399E+02  0.67767770851E+02  0.00000000000E+00 0.  1.
          5    1    6    6  503    0  0.34928693486E+03  0.44993443231E+03 -0.43531028800E+03  0.71690968265E+03  0.47000000000E+01 0. -1.
         -5    1    6    6    0  503  0.93207768170E+02  0.89290787556E+02 -0.57028036621E+02  0.14119072119E+03  0.47000000000E+01 0.  1.
<mgrwt>
<rscale>  0 0.82229890E+03</rscale>
<asrwt>0</asrwt>
<pdfrwt beam="1">  1        2 0.83275735E-01 0.82229890E+03</pdfrwt>
<pdfrwt beam="2">  1       -2 0.20739495E+00 0.82229890E+03</pdfrwt>
<totfact> 0.67622795E+00</totfact>
</mgrwt>
</event>
<event>
12    1  0.3166324E-008  0.3602598E+03  0.7818608E-02  0.1058481E+00
         -1   -1    0    0    0  501 -0.00000000000E+00  0.00000000000E+00  0.34094342813E+03  0.34094342813E+03  0.00000000000E+00 0.  1.
          1   -1    0    0  501    0  0.00000000000E+00 -0.00000000000E+00 -0.76978337331E+03  0.76978337331E+03  0.00000000000E+00 0. -1.
         23    2    1    2    0    0  0.21975788799E+03 -0.20237297096E+03  0.47531975521E+01  0.31221584099E+03  0.90596852970E+02 0.  0.
    5000000    2    1    2    0    0 -0.21975788799E+03  0.20237297096E+03 -0.43359314273E+03  0.79851096045E+03  0.60030691469E+03 0.  0.
         23    2    4    4    0    0 -0.18996906226E+03  0.24362607908E+03 -0.55458597549E+03  0.64132907143E+03  0.91079430309E+02 0.  0.
         23    2    4    4    0    0 -0.29788825734E+02 -0.41253108121E+02  0.12099283276E+03  0.15718188902E+03  0.86473623662E+02 0.  0.
          1    1    3    3  502    0  0.90051903177E+02 -0.10934275387E+03  0.43084077661E+02  0.14805884248E+03  0.00000000000E+00 0. -1.
         -1    1    3    3    0  502  0.12970598482E+03 -0.93030217092E+02 -0.38330880109E+02  0.16415699851E+03  0.00000000000E+00 0.  1.
         11    1    5    5    0    0 -0.14016710734E+02  0.81378204311E+02 -0.15140314631E+03  0.17245809065E+03  0.00000000000E+00 0. -1.
        -11    1    5    5    0    0 -0.17595235153E+03  0.16224787477E+03 -0.40318282917E+03  0.46887098078E+03  0.00000000000E+00 0.  1.
          5    1    6    6  503    0 -0.30043082752E+02 -0.65721540593E+02  0.71473499825E+02  0.10174703385E+03  0.47000000000E+01 0. -1.
         -5    1    6    6    0  503  0.25425701774E+00  0.24468432471E+02  0.49519332932E+02  0.55434855175E+02  0.47000000000E+01 0.  1.
<mgrwt>
<rscale>  0 0.36025984E+03</rscale>
<asrwt>0</asrwt>
<pdfrwt beam="1">  1        1 0.11842821E+00 0.36025984E+03</pdfrwt>
<pdfrwt beam="2">  1       -1 0.52452836E-01 0.36025984E+03</pdfrwt>
<totfact> 0.91577850E+01</totfact>
</mgrwt>
</event>
<event>
12    1  0.3166324E-008  0.9153289E+03  0.7818608E-02  0.9406620E-01
         -2   -1    0    0    0  501 -0.00000000000E+00  0.00000000000E+00  0.30188626575E+03  0.30188626575E+03  0.00000000000E+00 0.  1.
          2   -1    0    0  501    0  0.00000000000E+00 -0.00000000000E+00 -0.35522795182E+04  0.35522795182E+04  0.00000000000E+00 0. -1.
         23    2    1    2    0    0  0.82311237005E+03 -0.17072460914E+03 -0.23017868352E+04  0.24518598200E+04  0.82055324663E+02 0.  0.
    5000000    2    1    2    0    0 -0.82311237005E+03  0.17072460914E+03 -0.94860641734E+03  0.14023059640E+04  0.59995584497E+03 0.  0.
         23    2    4    4    0    0 -0.67214629393E+03  0.33518658591E+03 -0.54555494746E+03  0.93281029944E+03  0.91510470567E+02 0.  0.
         23    2    4    4    0    0 -0.15096607612E+03 -0.16446197677E+03 -0.40305146987E+03  0.46949566461E+03  0.90206395443E+02 0.  0.
          2    1    3    3  502    0  0.61500107695E+03 -0.13472451947E+03 -0.16169626936E+04  0.17352075880E+04  0.00000000000E+00 0.  1.
         -2    1    3    3    0  502  0.20811129310E+03 -0.36000089669E+02 -0.68482414155E+03  0.71665223200E+03  0.00000000000E+00 0. -1.
         13    1    5    5    0    0 -0.93906345249E+02  0.74950855296E+02 -0.60895557409E+02  0.13470078433E+03  0.00000000000E+00 0. -1.
        -13    1    5    5    0    0 -0.57823994868E+03  0.26023573062E+03 -0.48465939006E+03  0.79810951511E+03  0.00000000000E+00 0.  1.
          5    1    6    6  503    0 -0.13263674207E+03 -0.93935429443E+02 -0.23001762488E+03  0.28168522859E+03  0.47000000000E+01 0.  1.
         -5    1    6    6    0  503 -0.18329334051E+02 -0.70526547328E+02 -0.17303384499E+03  0.18781043602E+03  0.47000000000E+01 0. -1.
<mgrwt>
<rscale>  0 0.91532893E+03</rscale>
<asrwt>0</asrwt>
<pdfrwt beam="1">  1        2 0.54650449E+00 0.91532893E+03</pdfrwt>
<pdfrwt beam="2">  1       -2 0.46444045E-01 0.91532893E+03</pdfrwt>
<totfact> 0.34579867E+00</totfact>
</mgrwt>
</event>
<event>
12    1  0.3166324E-008  0.1466417E+04  0.7818608E-02  0.8907097E-01
          1   -1    0    0  501    0  0.00000000000E+00  0.00000000000E+00  0.72216772067E+03  0.72216772067E+03  0.00000000000E+00 0. -1.
         -1   -1    0    0    0  501 -0.00000000000E+00 -0.00000000000E+00 -0.52305421089E+04  0.52305421089E+04  0.00000000000E+00 0.  1.
         23    2    1    2    0    0 -0.13780452827E+04 -0.33993171844E+03 -0.41270469633E+04  0.43652723705E+04  0.92324736874E+02 0.  0.
    5000000    2    1    2    0    0  0.13780452827E+04  0.33993171844E+03 -0.38132742497E+03  0.15874374591E+04  0.59998725590E+03 0.  0.
         23    2    4    4    0    0  0.69323405930E+03 -0.95870517232E+02 -0.55000798861E+02  0.70786542060E+03  0.91015101865E+02 0.  0.
         23    2    4    4    0    0  0.68481122338E+03  0.43580223567E+03 -0.32632662611E+03  0.87957203850E+03  0.90928014004E+02 0.  0.
          4    1    3    3  502    0 -0.51308916310E+03 -0.12326799720E+03 -0.13999565134E+04  0.14961061887E+04  0.00000000000E+00 0. -1.
         -4    1    3    3    0  502 -0.86495611958E+03 -0.21666372124E+03 -0.27270904499E+04  0.28691661818E+04  0.00000000000E+00 0.  1.
         11    1    5    5    0    0  0.59360924732E+02 -0.21619978840E+02  0.17497244971E+02  0.65553767639E+02  0.00000000000E+00 0. -1.
        -11    1    5    5    0    0  0.63387313456E+03 -0.74250538391E+02 -0.72498043832E+02  0.64231165296E+03  0.00000000000E+00 0.  1.
          5    1    6    6  503    0  0.60762394018E+03  0.37925880251E+03 -0.25571530514E+03  0.76056327761E+03  0.47000000000E+01 0. -1.
         -5    1    6    6    0  503  0.77187283190E+02  0.56543433163E+02 -0.70611320969E+02  0.11900876089E+03  0.47000000000E+01 0.  1.
<mgrwt>
<rscale>  0 0.14664173E+04</rscale>
<asrwt>0</asrwt>
<pdfrwt beam="1">  1        1 0.11110273E+00 0.14664173E+04</pdfrwt>
<pdfrwt beam="2">  1       -1 0.80469876E+00 0.14664173E+04</pdfrwt>
<totfact> 0.16745318E-03</totfact>
</mgrwt>
</event>
<event>
12    1  0.6342933E-008  0.1080785E+04  0.7818608E-02  0.9224125E-01
          3   -1    0    0  501    0  0.00000000000E+00  0.00000000000E+00  0.11087487444E+04  0.11087487444E+04  0.00000000000E+00 0. -1.
         -3   -1    0    0    0  501 -0.00000000000E+00 -0.00000000000E+00 -0.11838566532E+04  0.11838566532E+04  0.00000000000E+00 0.  1.
         23    2    1    2    0    0  0.10077672374E+04  0.19126048488E+03 -0.32110762596E+03  0.10790685424E+04  0.95411917717E+02 0.  0.
    5000000    2    1    2    0    0 -0.10077672374E+04 -0.19126048488E+03  0.24599971721E+03  0.12135368552E+04  0.59998371661E+03 0.  0.
         23    2    4    4    0    0  0.21166522004E+02 -0.73712156400E+02  0.11523259516E+03  0.16567036196E+03  0.91030841962E+02 0.  0.
         23    2    4    4    0    0 -0.10289337594E+04 -0.11754832848E+03  0.13076712205E+03  0.10478664932E+04  0.91661642384E+02 0.  0.
          2    1    3    3  502    0  0.61163731097E+03  0.68525285168E+02 -0.19436776409E+03  0.64542601636E+03  0.00000000000E+00 0. -1.
         -2    1    3    3    0  502  0.39612992638E+03  0.12273519971E+03 -0.12673986187E+03  0.43364252606E+03  0.00000000000E+00 0.  1.
         11    1    5    5    0    0  0.14739129541E+01  0.86440553290E+01  0.68291008442E+02  0.68851680778E+02  0.00000000000E+00 0.  1.
        -11    1    5    5    0    0  0.19692609050E+02 -0.82356211729E+02  0.46941586721E+02  0.96818681180E+02  0.00000000000E+00 0. -1.
          5    1    6    6  503    0 -0.57142574447E+03 -0.99658604597E+02  0.43111412939E+02  0.58166992602E+03  0.47000000000E+01 0. -1.
         -5    1    6    6    0  503 -0.45750801488E+03 -0.17889723881E+02  0.87655709108E+02  0.46619656717E+03  0.47000000000E+01 0.  1.
<mgrwt>
<rscale>  0 0.10807853E+04</rscale>
<asrwt>0</asrwt>
<pdfrwt beam="1">  1        3 0.17057673E+00 0.10807853E+04</pdfrwt>
<pdfrwt beam="2">  1       -3 0.18213179E+00 0.10807853E+04</pdfrwt>
<totfact> 0.11071343E-01</totfact>
</mgrwt>
</event>
<event>
12    1  0.3166324E-008  0.3396169E+03  0.7818608E-02  0.1066959E+00
         -2   -1    0    0    0  501 -0.00000000000E+00  0.00000000000E+00  0.11024081405E+03  0.11024081405E+03  0.00000000000E+00 0. -1.
          2   -1    0    0  501    0  0.00000000000E+00 -0.00000000000E+00 -0.14976533462E+04  0.14976533462E+04  0.00000000000E+00 0.  1.
         23    2    1    2    0    0  0.79968130481E+01 -0.15527729732E+03 -0.44601207324E+03  0.48086381777E+03  0.90156828289E+02 0.  0.
    5000000    2    1    2    0    0 -0.79968130481E+01  0.15527729732E+03 -0.94140045893E+03  0.11270303425E+04  0.59982295782E+03 0.  0.
         23    2    4    4    0    0  0.10815147206E+02 -0.16376906607E+03 -0.67692053806E+03  0.70252089861E+03  0.91525535955E+02 0.  0.
         23    2    4    4    0    0 -0.18811960254E+02  0.31904636339E+03 -0.26447992087E+03  0.42450944387E+03  0.90078674220E+02 0.  0.
          3    1    3    3  502    0  0.46163437072E+02 -0.70116323403E+02 -0.17194481936E+03  0.19134362450E+03  0.00000000000E+00 0. -1.
         -3    1    3    3    0  502 -0.38166624024E+02 -0.85160973916E+02 -0.27406725388E+03  0.28952019328E+03  0.00000000000E+00 0.  1.
         13    1    5    5    0    0  0.39712132402E+02 -0.13568424112E+03 -0.59018321305E+03  0.60688012961E+03  0.00000000000E+00 0. -1.
        -13    1    5    5    0    0 -0.28896985197E+02 -0.28084824955E+02 -0.86737325008E+02  0.95640769005E+02  0.00000000000E+00 0.  1.
          5    1    6    6  503    0 -0.20441343273E+02  0.29442833126E+03 -0.20340253921E+03  0.35846976682E+03  0.47000000000E+01 0. -1.
         -5    1    6    6    0  503  0.16293830192E+01  0.24618032132E+02 -0.61077381660E+02  0.66039677055E+02  0.47000000000E+01 0.  1.
<mgrwt>
<rscale>  0 0.33961688E+03</rscale>
<asrwt>0</asrwt>
<pdfrwt beam="1">  1        2 0.23040821E+00 0.33961688E+03</pdfrwt>
<pdfrwt beam="2">  1       -2 0.16960125E-01 0.33961688E+03</pdfrwt>
<totfact> 0.37962599E+02</totfact>
</mgrwt>
</event>
<event>
12    1  0.3166324E-008  0.1152172E+04  0.7818608E-02  0.9155782E-01
         -1   -1    0    0    0  501 -0.00000000000E+00  0.00000000000E+00  0.85217156379E+03  0.85217156379E+03  0.00000000000E+00 0.  1.
          1   -1    0    0  501    0  0.00000000000E+00 -0.00000000000E+00 -0.17689852573E+04  0.17689852573E+04  0.00000000000E+00 0. -1.
         23    2    1    2    0    0 -0.53618514586E+03  0.94995475580E+03 -0.82897720663E+03  0.13731153830E+04  0.91291275998E+02 0.  0.
    5000000    2    1    2    0    0  0.53618514586E+03 -0.94995475580E+03 -0.87836486926E+02  0.12480414382E+04  0.59998636172E+03 0.  0.
         23    2    4    4    0    0  0.41664982686E+03 -0.22767905333E+03 -0.15243762679E+03  0.50749962059E+03  0.94253940405E+02 0.  0.
         23    2    4    4    0    0  0.11953531900E+03 -0.72227570247E+03  0.64601139869E+02  0.74054181759E+03  0.90873502488E+02 0.  0.
          1    1    3    3  502    0 -0.34074306001E+03  0.63326809907E+03 -0.49431864566E+03  0.87263121746E+03  0.00000000000E+00 0. -1.
         -1    1    3    3    0  502 -0.19544208586E+03  0.31668665673E+03 -0.33465856097E+03  0.50048416549E+03  0.00000000000E+00 0.  1.
         11    1    5    5    0    0  0.28313720201E+03 -0.17148902363E+03 -0.62134958585E+02  0.33680248435E+03  0.00000000000E+00 0. -1.
        -11    1    5    5    0    0  0.13351262485E+03 -0.56190029707E+02 -0.90302668210E+02  0.17069713624E+03  0.00000000000E+00 0.  1.
          5    1    6    6  503    0 -0.90475462501E+01 -0.16312002596E+03  0.25803483117E+02  0.16546271695E+03  0.47000000000E+01 0. -1.
         -5    1    6    6    0  503  0.12858286525E+03 -0.55915567651E+03  0.38797656752E+02  0.57507910063E+03  0.47000000000E+01 0.  1.
<mgrwt>
<rscale>  0 0.11521719E+04</rscale>
<asrwt>0</asrwt>
<pdfrwt beam="1">  1        1 0.27215158E+00 0.11521719E+04</pdfrwt>
<pdfrwt beam="2">  1       -1 0.13110332E+00 0.11521719E+04</pdfrwt>
<totfact> 0.20982793E+00</totfact>
</mgrwt>
</event>
<event>
12    1  0.3239707E-008  0.8201579E+03  0.7818608E-02  0.9531289E-01
          1   -1    0    0  501    0  0.00000000000E+00  0.00000000000E+00  0.53585294209E+03  0.53585294209E+03  0.00000000000E+00 0. -1.
         -1   -1    0    0    0  501 -0.00000000000E+00 -0.00000000000E+00 -0.14269228451E+04  0.14269228451E+04  0.00000000000E+00 0.  1.
         23    2    1    2    0    0 -0.64277815286E+03 -0.34157923292E+03 -0.11699146748E+03  0.74260463447E+03  0.89075886298E+02 0.  0.
    5000000    2    1    2    0    0  0.64277815286E+03  0.34157923292E+03 -0.77407843556E+03  0.12201711527E+04  0.59981671488E+03 0.  0.
         23    2    4    4    0    0 -0.82520614647E+02  0.12897201837E+03 -0.14751525164E+03  0.23412117229E+03  0.98023162998E+02 0.  0.
         23    2    4    4    0    0  0.72529876750E+03  0.21260721454E+03 -0.62656318392E+03  0.98604998046E+03  0.91940256127E+02 0.  0.
          3    1    3    3  502    0 -0.28069687532E+03 -0.14372452382E+03 -0.63572483727E+01  0.31541700837E+03  0.00000000000E+00 0. -1.
         -3    1    3    3    0  502 -0.36208127754E+03 -0.19785470909E+03 -0.11063421911E+03  0.42718762610E+03  0.00000000000E+00 0.  1.
         13    1    5    5    0    0 -0.36333820418E+02  0.31016609755E+02 -0.10929025862E+03  0.11927504859E+03  0.00000000000E+00 0. -1.
        -13    1    5    5    0    0 -0.46186794229E+02  0.97955408619E+02 -0.38224993026E+02  0.11484612371E+03  0.00000000000E+00 0.  1.
          5    1    6    6  503    0  0.36077946731E+03  0.92880283108E+02 -0.36574442155E+03  0.52209160395E+03  0.47000000000E+01 0. -1.
         -5    1    6    6    0  503  0.36451930020E+03  0.11972693143E+03 -0.26081876237E+03  0.46395837651E+03  0.47000000000E+01 0.  1.
<mgrwt>
<rscale>  0 0.82015794E+03</rscale>
<asrwt>0</asrwt>
<pdfrwt beam="1">  1        1 0.82438915E-01 0.82015794E+03</pdfrwt>
<pdfrwt beam="2">  1       -1 0.21952659E+00 0.82015794E+03</pdfrwt>
<totfact> 0.45845578E+00</totfact>
</mgrwt>
</event>
<event>
12    1  0.3166324E-008  0.7969922E+03  0.7818608E-02  0.9564381E-01
          3   -1    0    0  501    0  0.00000000000E+00  0.00000000000E+00  0.11129072903E+04  0.11129072903E+04  0.00000000000E+00 0. -1.
         -3   -1    0    0    0  501 -0.00000000000E+00 -0.00000000000E+00 -0.64824217020E+03  0.64824217020E+03  0.00000000000E+00 0.  1.
         23    2    1    2    0    0 -0.66857680980E+03  0.15200046972E+03  0.49311385207E+03  0.84961663695E+03  0.92671814867E+02 0.  0.
    5000000    2    1    2    0    0  0.66857680980E+03 -0.15200046972E+03 -0.28448732010E+02  0.91153282352E+03  0.59998638702E+03 0.  0.
         23    2    4    4    0    0 -0.36921471133E+02  0.11374882879E+03  0.13266202329E+02  0.15100831851E+03  0.91244337111E+02 0.  0.
         23    2    4    4    0    0  0.70549828094E+03 -0.26574929851E+03 -0.41714934339E+02  0.76052450501E+03  0.91142047984E+02 0.  0.
          2    1    3    3  502    0 -0.20807416137E+03  0.12508103616E+02  0.18119291398E+03  0.27619229055E+03  0.00000000000E+00 0. -1.
         -2    1    3    3    0  502 -0.46050264843E+03  0.13949236610E+03  0.31192093810E+03  0.57342434639E+03  0.00000000000E+00 0.  1.
         11    1    5    5    0    0  0.18586412111E+02  0.86395973682E+02  0.42623768175E+01  0.88475345943E+02  0.00000000000E+00 0.  1.
        -11    1    5    5    0    0 -0.55507883244E+02  0.27352855107E+02  0.90038255115E+01  0.62532972571E+02  0.00000000000E+00 0. -1.
          5    1    6    6  503    0  0.45354724293E+03 -0.16285081704E+03 -0.69540012044E+02  0.48691210033E+03  0.47000000000E+01 0.  1.
         -5    1    6    6    0  503  0.25195103801E+03 -0.10289848147E+03  0.27825077705E+02  0.27361240467E+03  0.47000000000E+01 0. -1.
<mgrwt>
<rscale>  0 0.79699223E+03</rscale>
<asrwt>0</asrwt>
<pdfrwt beam="1">  1        3 0.17121651E+00 0.79699223E+03</pdfrwt>
<pdfrwt beam="2">  1       -3 0.99729565E-01 0.79699223E+03</pdfrwt>
<totfact> 0.51823008E-01</totfact>
</mgrwt>
</event>
<event>
12    1  0.3166324E-008  0.3859570E+03  0.7818608E-02  0.1048754E+00
          1   -1    0    0  501    0  0.00000000000E+00  0.00000000000E+00  0.22018341365E+03  0.22018341365E+03  0.00000000000E+00 0. -1.
         -1   -1    0    0    0  501 -0.00000000000E+00 -0.00000000000E+00 -0.12282967430E+04  0.12282967430E+04  0.00000000000E+00 0.  1.
         23    2    1    2    0    0  0.13221463567E+03  0.55826749698E+02 -0.76800281758E+03  0.78644083659E+03  0.89797136812E+02 0.  0.
    5000000    2    1    2    0    0 -0.13221463567E+03 -0.55826749698E+02 -0.24011051180E+03  0.66203932008E+03  0.60003805512E+03 0.  0.
         23    2    4    4    0    0  0.11128808086E+03  0.20457760223E+03 -0.90352745142E+02  0.26474195334E+03  0.87679250820E+02 0.  0.
         23    2    4    4    0    0 -0.24350271653E+03 -0.26040435193E+03 -0.14975776665E+03  0.39729736675E+03  0.91180093687E+02 0.  0.
          2    1    3    3  502    0  0.29101563736E+02  0.56183637864E+02 -0.22465184360E+03  0.23339227282E+03  0.00000000000E+00 0. -1.
         -2    1    3    3    0  502  0.10311307194E+03 -0.35688816547E+00 -0.54335097398E+03  0.55304856378E+03  0.00000000000E+00 0.  1.
         13    1    5    5    0    0  0.64605315101E+02  0.16364461701E+03 -0.99282850296E+02  0.20201606812E+03  0.00000000000E+00 0. -1.
        -13    1    5    5    0    0  0.46682765760E+02  0.40932985228E+02  0.89301051535E+01  0.62725885220E+02  0.00000000000E+00 0.  1.
          5    1    6    6  503    0 -0.21380518464E+03 -0.17299185757E+03 -0.12086206544E+03  0.30044728094E+03  0.47000000000E+01 0. -1.
         -5    1    6    6    0  503 -0.29697531898E+02 -0.87412494364E+02 -0.28895701217E+02  0.96850085806E+02  0.47000000000E+01 0.  1.
<mgrwt>
<rscale>  0 0.38595702E+03</rscale>
<asrwt>0</asrwt>
<pdfrwt beam="1">  1        1 0.33874371E-01 0.38595702E+03</pdfrwt>
<pdfrwt beam="2">  1       -1 0.18896873E+00 0.38595702E+03</pdfrwt>
<totfact> 0.25332248E+01</totfact>
</mgrwt>
</event>
<event>
12    1  0.3166324E-008  0.8515032E+03  0.7818608E-02  0.9488322E-01
         -1   -1    0    0    0  501 -0.00000000000E+00  0.00000000000E+00  0.11075441954E+04  0.11075441954E+04  0.00000000000E+00 0.  1.
          1   -1    0    0  501    0  0.00000000000E+00 -0.00000000000E+00 -0.81739621357E+03  0.81739621357E+03  0.00000000000E+00 0. -1.
         23    2    1    2    0    0  0.20023467732E+03 -0.81621614542E+03 -0.24522965966E+02  0.84548281632E+03  0.89090374234E+02 0.  0.
    5000000    2    1    2    0    0 -0.20023467732E+03  0.81621614542E+03  0.31467094778E+03  0.10794575926E+04  0.59992346750E+03 0.  0.
         23    2    4    4    0    0 -0.20390684774E+03  0.52393844135E+03  0.46882837470E+03  0.73767449282E+03  0.90962187468E+02 0.  0.
         23    2    4    4    0    0  0.36721704131E+01  0.29227770406E+03 -0.15415742692E+03  0.34178309981E+03  0.87243532212E+02 0.  0.
          2    1    3    3  502    0  0.13540006554E+03 -0.50109668168E+03 -0.56712222236E+02  0.52215643086E+03  0.00000000000E+00 0. -1.
         -2    1    3    3    0  502  0.64834611784E+02 -0.31511946373E+03  0.32189256270E+02  0.32332638545E+03  0.00000000000E+00 0.  1.
         13    1    5    5    0    0 -0.10403275133E+03  0.19684912128E+03  0.23283839322E+03  0.32215851262E+03  0.00000000000E+00 0.  1.
        -13    1    5    5    0    0 -0.99874096411E+02  0.32708932007E+03  0.23598998148E+03  0.41551598020E+03  0.00000000000E+00 0. -1.
          5    1    6    6  503    0 -0.23049116696E+02  0.20031306974E+03 -0.67905490834E+02  0.21281408171E+03  0.47000000000E+01 0. -1.
         -5    1    6    6    0  503  0.26721287109E+02  0.91964634328E+02 -0.86251936085E+02  0.12896901810E+03  0.47000000000E+01 0.  1.
<mgrwt>
<rscale>  0 0.85150324E+03</rscale>
<asrwt>0</asrwt>
<pdfrwt beam="1">  1        1 0.12575326E+00 0.85150324E+03</pdfrwt>
<pdfrwt beam="2">  1       -1 0.17039142E+00 0.85150324E+03</pdfrwt>
<totfact> 0.53278726E+00</totfact>
</mgrwt>
</event>
<event>
12    1  0.3166324E-008  0.8496181E+03  0.7818608E-02  0.9490850E-01
          2   -1    0    0  501    0  0.00000000000E+00  0.00000000000E+00  0.32515186106E+04  0.32515186106E+04  0.00000000000E+00 0. -1.
         -2   -1    0    0    0  501 -0.00000000000E+00 -0.00000000000E+00 -0.28810676857E+03  0.28810676857E+03  0.00000000000E+00 0.  1.
         23    2    1    2    0    0  0.40195951446E+03 -0.63375024342E+03  0.52961613466E+03  0.92302088921E+03  0.90903737699E+02 0.  0.
    5000000    2    1    2    0    0 -0.40195951446E+03  0.63375024342E+03  0.24337957074E+04  0.26166044900E+04  0.60003890649E+03 0.  0.
         23    2    4    4    0    0  0.25188654407E+02  0.49075947934E+03  0.11537250292E+04  0.12566062513E+04  0.80613230418E+02 0.  0.
         23    2    4    4    0    0 -0.42714816887E+03  0.14299076408E+03  0.12800706782E+04  0.13599982387E+04  0.90068591902E+02 0.  0.
          1    1    3    3  502    0  0.10216867429E+03 -0.17261353396E+03  0.19189827015E+03  0.27759469771E+03  0.00000000000E+00 0. -1.
         -1    1    3    3    0  502  0.29979084017E+03 -0.46113670946E+03  0.33771786451E+03  0.64542619150E+03  0.00000000000E+00 0.  1.
         11    1    5    5    0    0  0.42344859033E+02  0.37618121204E+03  0.81528444932E+03  0.89888493406E+03  0.00000000000E+00 0. -1.
        -11    1    5    5    0    0 -0.17156204626E+02  0.11457826730E+03  0.33844057986E+03  0.35772131722E+03  0.00000000000E+00 0.  1.
          5    1    6    6  503    0 -0.24244863622E+03  0.50886041693E+02  0.59592271005E+03  0.64538104775E+03  0.47000000000E+01 0. -1.
         -5    1    6    6    0  503 -0.18469953265E+03  0.92104722385E+02  0.68414796816E+03  0.71461719094E+03  0.47000000000E+01 0.  1.
<mgrwt>
<rscale>  0 0.84961809E+03</rscale>
<asrwt>0</asrwt>
<pdfrwt beam="1">  1        2 0.50023361E+00 0.84961809E+03</pdfrwt>
<pdfrwt beam="2">  1       -2 0.44324121E-01 0.84961809E+03</pdfrwt>
<totfact> 0.61052375E+00</totfact>
</mgrwt>
</event>
<event>
12    1  0.3166324E-008  0.1086213E+04  0.7818608E-02  0.9218734E-01
         -2   -1    0    0    0  501 -0.00000000000E+00  0.00000000000E+00  0.80368314827E+03  0.80368314827E+03  0.00000000000E+00 0.  1.
          2   -1    0    0  501    0  0.00000000000E+00 -0.00000000000E+00 -0.16504781478E+04  0.16504781478E+04  0.00000000000E+00 0. -1.
         23    2    1    2    0    0 -0.42643442314E+03  0.93373961033E+03 -0.67796038735E+02  0.10326823385E+04  0.90113995452E+02 0.  0.
    5000000    2    1    2    0    0  0.42643442314E+03 -0.93373961033E+03 -0.77899896085E+03  0.14214789577E+04  0.60003922281E+03 0.  0.
         23    2    4    4    0    0  0.28420620399E+03 -0.12249492121E+03 -0.69192494565E+02  0.33031873860E+03  0.92437522981E+02 0.  0.
         23    2    4    4    0    0  0.14222821915E+03 -0.81124468912E+03 -0.70980646628E+03  0.10911602191E+04  0.91970604639E+02 0.  0.
          2    1    3    3  502    0 -0.19960869227E+03  0.47887493645E+03 -0.75906480498E+02  0.52433446251E+03  0.00000000000E+00 0. -1.
         -2    1    3    3    0  502 -0.22682573087E+03  0.45486467387E+03  0.81104417626E+01  0.50834787596E+03  0.00000000000E+00 0.  1.
         13    1    5    5    0    0  0.13035432217E+03 -0.95897047868E+02 -0.64220218505E+02  0.17410551273E+03  0.00000000000E+00 0.  1.
        -13    1    5    5    0    0  0.15385188182E+03 -0.26597873337E+02 -0.49722760593E+01  0.15621322587E+03  0.00000000000E+00 0. -1.
          5    1    6    6  503    0  0.95551567163E+02 -0.70185787976E+03 -0.62888781037E+03  0.94723627116E+03  0.47000000000E+01 0. -1.
         -5    1    6    6    0  503  0.46676651982E+02 -0.10938680936E+03 -0.80918655916E+02  0.14392394789E+03  0.47000000000E+01 0.  1.
<mgrwt>
<rscale>  0 0.10862134E+04</rscale>
<asrwt>0</asrwt>
<pdfrwt beam="1">  1        2 0.25391971E+00 0.10862134E+04</pdfrwt>
<pdfrwt beam="2">  1       -2 0.12364356E+00 0.10862134E+04</pdfrwt>
<totfact> 0.50759637E+00</totfact>
</mgrwt>
</event>
<event>
12    1  0.3166324E-008  0.4411595E+03  0.7818608E-02  0.1030392E+00
         -1   -1    0    0    0  501 -0.00000000000E+00  0.00000000000E+00  0.27380500468E+03  0.27380500468E+03  0.00000000000E+00 0.  1.
          1   -1    0    0  501    0  0.00000000000E+00 -0.00000000000E+00 -0.86040209093E+03  0.86040209093E+03  0.00000000000E+00 0. -1.
         23    2    1    2    0    0  0.16151345478E+03  0.22612613779E+03 -0.86594991116E+02  0.30522396604E+03  0.91887706973E+02 0.  0.
    5000000    2    1    2    0    0 -0.16151345478E+03 -0.22612613779E+03 -0.50000209513E+03  0.82898312956E+03  0.59999275637E+03 0.  0.
         23    2    4    4    0    0  0.17185064557E+03 -0.56372061625E+01 -0.33437440802E+03  0.38672455221E+03  0.90472161849E+02 0.  0.
         23    2    4    4    0    0 -0.33336410036E+03 -0.22048893163E+03 -0.16562768712E+03  0.44225857735E+03  0.91723094823E+02 0.  0.
          3    1    3    3  502    0  0.42446997858E+02  0.32810963797E+02  0.16134390521E+02  0.56023437326E+02  0.00000000000E+00 0. -1.
         -3    1    3    3    0  502  0.11906645693E+03  0.19331517399E+03 -0.10272938164E+03  0.24920052872E+03  0.00000000000E+00 0.  1.
         13    1    5    5    0    0  0.16549775044E+03 -0.30624178324E+02 -0.28368874351E+03  0.32985852860E+03  0.00000000000E+00 0.  1.
        -13    1    5    5    0    0  0.63528951323E+01  0.24986972162E+02 -0.50685664508E+02  0.56866023608E+02  0.00000000000E+00 0. -1.
          5    1    6    6  503    0 -0.16719566549E+02  0.58090666952E+01 -0.18839610499E+02  0.26273752781E+02  0.47000000000E+01 0. -1.
         -5    1    6    6    0  503 -0.31664453381E+03 -0.22629799832E+03 -0.14678807662E+03  0.41598482457E+03  0.47000000000E+01 0.  1.
<mgrwt>
<rscale>  0 0.44115952E+03</rscale>
<asrwt>0</asrwt>
<pdfrwt beam="1">  1        1 0.13236955E+00 0.44115952E+03</pdfrwt>
<pdfrwt beam="2">  1       -1 0.42123848E-01 0.44115952E+03</pdfrwt>
<totfact> 0.11394743E+02</totfact>
</mgrwt>
</event>
<event>
12    1  0.3166324E-008  0.6006521E+03  0.7818608E-02  0.9904054E-01
          2   -1    0    0  501    0  0.00000000000E+00  0.00000000000E+00  0.23057035844E+04  0.23057035844E+04  0.00000000000E+00 0. -1.
         -2   -1    0    0    0  501 -0.00000000000E+00 -0.00000000000E+00 -0.18468956136E+03  0.18468956136E+03  0.00000000000E+00 0.  1.
         23    2    1    2    0    0  0.41565230950E+03 -0.24885226233E+03  0.53849422956E+03  0.72985247178E+03  0.89522647593E+02 0.  0.
    5000000    2    1    2    0    0 -0.41565230950E+03  0.24885226233E+03  0.15825197935E+04  0.17605406740E+04  0.60036678549E+03 0.  0.
         23    2    4    4    0    0 -0.10161203500E+01 -0.12474367555E+03  0.66929902500E+03  0.68642516240E+03  0.87500295006E+02 0.  0.
         23    2    4    4    0    0 -0.41463618915E+03  0.37359593789E+03  0.91322076852E+03  0.10741155116E+04  0.90856293513E+02 0.  0.
          3    1    3    3  502    0  0.13851607808E+03 -0.96595205099E+02  0.25080164542E+03  0.30235542476E+03  0.00000000000E+00 0. -1.
         -3    1    3    3    0  502  0.27713623142E+03 -0.15225705724E+03  0.28769258414E+03  0.42749704702E+03  0.00000000000E+00 0.  1.
         13    1    5    5    0    0 -0.25255827771E+01  0.13340230401E+02  0.43430393356E+02  0.45503179918E+02  0.00000000000E+00 0.  1.
        -13    1    5    5    0    0  0.15094624271E+01 -0.13808390595E+03  0.62586863164E+03  0.64092198249E+03  0.00000000000E+00 0. -1.
          5    1    6    6  503    0 -0.37907119187E+03  0.30277961662E+03  0.80495288559E+03  0.93986259781E+03  0.47000000000E+01 0. -1.
         -5    1    6    6    0  503 -0.35564997279E+02  0.70816321272E+02  0.10826788293E+03  0.13425291380E+03  0.47000000000E+01 0.  1.
<mgrwt>
<rscale>  0 0.60065207E+03</rscale>
<asrwt>0</asrwt>
<pdfrwt beam="1">  1        2 0.35472361E+00 0.60065207E+03</pdfrwt>
<pdfrwt beam="2">  1       -2 0.28413780E-01 0.60065207E+03</pdfrwt>
<totfact> 0.53989142E+01</totfact>
</mgrwt>
</event>
<event>
12    1  0.3166324E-008  0.1589412E+04  0.7818608E-02  0.8827079E-01
          2   -1    0    0  501    0  0.00000000000E+00  0.00000000000E+00  0.22389573564E+04  0.22389573564E+04  0.00000000000E+00 0. -1.
         -2   -1    0    0    0  501 -0.00000000000E+00 -0.00000000000E+00 -0.12959196093E+04  0.12959196093E+04  0.00000000000E+00 0.  1.
         23    2    1    2    0    0  0.67596723450E+03 -0.14256418037E+04 -0.41258100513E+02  0.15808926860E+04  0.90184252406E+02 0.  0.
    5000000    2    1    2    0    0 -0.67596723450E+03  0.14256418037E+04  0.98429584763E+03  0.19539842796E+04  0.59985831223E+03 0.  0.
         23    2    4    4    0    0 -0.35440895688E+03  0.47755882268E+03  0.90020470877E+02  0.60843182008E+03  0.91746698462E+02 0.  0.
         23    2    4    4    0    0 -0.32155827762E+03  0.94808298099E+03  0.89427537675E+03  0.13455524595E+04  0.92314175931E+02 0.  0.
          4    1    3    3  502    0  0.24507117864E+03 -0.43618302074E+03 -0.36854645653E+02  0.50167098290E+03  0.00000000000E+00 0. -1.
         -4    1    3    3    0  502  0.43089605586E+03 -0.98945878293E+03 -0.44034548599E+01  0.10792217031E+04  0.00000000000E+00 0.  1.
         11    1    5    5    0    0 -0.29864028643E+03  0.40677226474E+03  0.10917404569E+03  0.51630288426E+03  0.00000000000E+00 0.  1.
        -11    1    5    5    0    0 -0.55768670446E+02  0.70786557938E+02 -0.19153574810E+02  0.92128935824E+02  0.00000000000E+00 0. -1.
          5    1    6    6  503    0 -0.26533789319E+03  0.66685189106E+03  0.66324877146E+03  0.97724954081E+03  0.47000000000E+01 0. -1.
         -5    1    6    6    0  503 -0.56220384433E+02  0.28123108993E+03  0.23102660529E+03  0.36830291870E+03  0.47000000000E+01 0.  1.
<mgrwt>
<rscale>  0 0.15894117E+04</rscale>
<asrwt>0</asrwt>
<pdfrwt beam="1">  1        2 0.34445498E+00 0.15894117E+04</pdfrwt>
<pdfrwt beam="2">  1       -2 0.19937225E+00 0.15894117E+04</pdfrwt>
<totfact> 0.61348635E-01</totfact>
</mgrwt>
</event>
<event>
12    1  0.3166324E-008  0.5383295E+03  0.7818608E-02  0.1004232E+00
         -2   -1    0    0    0  501 -0.00000000000E+00  0.00000000000E+00  0.38581187898E+03  0.38581187898E+03  0.00000000000E+00 0.  1.
          2   -1    0    0  501    0  0.00000000000E+00 -0.00000000000E+00 -0.10168443070E+04  0.10168443070E+04  0.00000000000E+00 0. -1.
         23    2    1    2    0    0 -0.43271921689E+02  0.42457810985E+03 -0.48361257644E+03  0.65172313126E+03  0.93396387313E+02 0.  0.
    5000000    2    1    2    0    0  0.43271921689E+02 -0.42457810985E+03 -0.14741985156E+03  0.75093305469E+03  0.60002400738E+03 0.  0.
         23    2    4    4    0    0  0.24190305908E+02  0.93082125008E+02 -0.18145165706E+03  0.22467461284E+03  0.91129166085E+02 0.  0.
         23    2    4    4    0    0  0.19081615781E+02 -0.51766023486E+03  0.34031805498E+02  0.52625844185E+03  0.86333985307E+02 0.  0.
          4    1    3    3  502    0 -0.29949211592E+02  0.13144297543E+03 -0.95698790919E+02  0.16532534485E+03  0.00000000000E+00 0. -1.
         -4    1    3    3    0  502 -0.13322710097E+02  0.29313513442E+03 -0.38791378552E+03  0.48639778642E+03  0.00000000000E+00 0.  1.
         13    1    5    5    0    0 -0.11260250963E+02  0.87610433102E+02 -0.88485309344E+02  0.12502812168E+03  0.00000000000E+00 0.  1.
        -13    1    5    5    0    0  0.35450556871E+02  0.54716919065E+01 -0.92966347716E+02  0.99646491169E+02  0.00000000000E+00 0. -1.
          5    1    6    6  503    0  0.45885679961E+02 -0.19409948031E+03 -0.23885496345E+01  0.19951916963E+03  0.47000000000E+01 0. -1.
         -5    1    6    6    0  503 -0.26804064180E+02 -0.32356075455E+03  0.36420355133E+02  0.32673927221E+03  0.47000000000E+01 0.  1.
<mgrwt>
<rscale>  0 0.53832945E+03</rscale>
<asrwt>0</asrwt>
<pdfrwt beam="1">  1        2 0.15643758E+00 0.53832945E+03</pdfrwt>
<pdfrwt beam="2">  1       -2 0.59355674E-01 0.53832945E+03</pdfrwt>
<totfact> 0.67443942E+01</totfact>
</mgrwt>
</event>
<event>
12    1  0.3166324E-008  0.5550159E+03  0.7818608E-02  0.1000340E+00
         -1   -1    0    0    0  501 -0.00000000000E+00  0.00000000000E+00  0.25043367570E+03  0.25043367570E+03  0.00000000000E+00 0.  1.
          1   -1    0    0  501    0  0.00000000000E+00 -0.00000000000E+00 -0.17362159640E+04  0.17362159640E+04  0.00000000000E+00 0. -1.
         23    2    1    2    0    0 -0.10797026205E+03 -0.38418158307E+03 -0.94574478240E+02  0.41990091591E+03  0.90107607828E+02 0.  0.
    5000000    2    1    2    0    0  0.10797026205E+03  0.38418158307E+03 -0.13912078101E+04  0.15667487238E+04  0.59999110531E+03 0.  0.
         23    2    4    4    0    0  0.33258262704E+03  0.31453175442E+03 -0.85738602882E+03  0.97585873713E+03  0.87453096339E+02 0.  0.
         23    2    4    4    0    0 -0.22461236499E+03  0.69649828647E+02 -0.53382178125E+03  0.59088998667E+03  0.94252156866E+02 0.  0.
          3    1    3    3  502    0 -0.23313576365E+02 -0.24538552703E+03 -0.53944159618E+02  0.25232429941E+03  0.00000000000E+00 0. -1.
         -3    1    3    3    0  502 -0.84656685690E+02 -0.13879605605E+03 -0.40630318622E+02  0.16757661650E+03  0.00000000000E+00 0.  1.
         11    1    5    5    0    0  0.45827500451E+02  0.98492037967E+01 -0.70673873730E+02  0.84805442284E+02  0.00000000000E+00 0.  1.
        -11    1    5    5    0    0  0.28675512659E+03  0.30468255063E+03 -0.78671215509E+03  0.89105329484E+03  0.00000000000E+00 0. -1.
          5    1    6    6  503    0 -0.20230826736E+03  0.62077749612E+02 -0.52363737321E+03  0.56480126652E+03  0.47000000000E+01 0. -1.
         -5    1    6    6    0  503 -0.22304097629E+02  0.75720790351E+01 -0.10184408038E+02  0.26088720150E+02  0.47000000000E+01 0.  1.
<mgrwt>
<rscale>  0 0.55501587E+03</rscale>
<asrwt>0</asrwt>
<pdfrwt beam="1">  1        1 0.26711015E+00 0.55501587E+03</pdfrwt>
<pdfrwt beam="2">  1       -1 0.38528258E-01 0.55501587E+03</pdfrwt>
<totfact> 0.31257003E+01</totfact>
</mgrwt>
</event>
<event>
12    1  0.3166324E-008  0.5497957E+03  0.7818608E-02  0.1001541E+00
          2   -1    0    0  501    0  0.00000000000E+00  0.00000000000E+00  0.84551727760E+03  0.84551727760E+03  0.00000000000E+00 0.  1.
         -2   -1    0    0    0  501 -0.00000000000E+00 -0.00000000000E+00 -0.58047015334E+03  0.58047015334E+03  0.00000000000E+00 0. -1.
         23    2    1    2    0    0  0.26959114218E+03  0.42477255042E+03 -0.15944703042E+03  0.53531562653E+03  0.89601121456E+02 0.  0.
    5000000    2    1    2    0    0 -0.26959114218E+03 -0.42477255042E+03  0.42449415468E+03  0.89067180441E+03  0.59999156016E+03 0.  0.
         23    2    4    4    0    0 -0.25376377692E+03 -0.45170033854E+03  0.78871525993E+02  0.53188429092E+03  0.90834635454E+02 0.  0.
         23    2    4    4    0    0 -0.15827365261E+02  0.26927788123E+02  0.34562262869E+03  0.35878751348E+03  0.91092629250E+02 0.  0.
          1    1    3    3  502    0  0.18799772324E+03  0.33562896151E+03 -0.86977445158E+02  0.39440463957E+03  0.00000000000E+00 0. -1.
         -1    1    3    3    0  502  0.81593418946E+02  0.89143588910E+02 -0.72469585265E+02  0.14091098697E+03  0.00000000000E+00 0.  1.
         11    1    5    5    0    0 -0.16675259846E+03 -0.37260333350E+03  0.67317533415E+02  0.41372856262E+03  0.00000000000E+00 0.  1.
        -11    1    5    5    0    0 -0.87011178463E+02 -0.79097005047E+02  0.11553992578E+02  0.11815572830E+03  0.00000000000E+00 0. -1.
          5    1    6    6  503    0  0.18733138793E+02  0.27206792267E+02  0.44332561408E+02  0.55485187533E+02  0.47000000000E+01 0. -1.
         -5    1    6    6    0  503 -0.34560504054E+02 -0.27900414377E+00  0.30129006728E+03  0.30330232595E+03  0.47000000000E+01 0.  1.
<mgrwt>
<rscale>  0 0.54979571E+03</rscale>
<asrwt>0</asrwt>
<pdfrwt beam="1">  1        2 0.13007958E+00 0.54979571E+03</pdfrwt>
<pdfrwt beam="2">  1       -2 0.89303100E-01 0.54979571E+03</pdfrwt>
<totfact> 0.35613671E+01</totfact>
</mgrwt>
</event>
<event>
12    1  0.3830759E-008  0.8064640E+03  0.7818608E-02  0.9550708E-01
         -1   -1    0    0    0  501 -0.00000000000E+00  0.00000000000E+00  0.44973130718E+03  0.44973130718E+03  0.00000000000E+00 0.  1.
          1   -1    0    0  501    0  0.00000000000E+00 -0.00000000000E+00 -0.15295779019E+04  0.15295779019E+04  0.00000000000E+00 0. -1.
         23    2    1    2    0    0  0.64587119292E+03 -0.31193270824E+03 -0.48680769469E+03  0.87198878114E+03  0.94504447089E+02 0.  0.
    5000000    2    1    2    0    0 -0.64587119292E+03  0.31193270824E+03 -0.59303890006E+03  0.11073204280E+04  0.60000981731E+03 0.  0.
         23    2    4    4    0    0 -0.57392138222E+03  0.43427898067E+03 -0.59630769857E+03  0.93920335841E+03  0.92390968464E+02 0.  0.
         23    2    4    4    0    0 -0.71949810703E+02 -0.12234627243E+03  0.32687985133E+01  0.16811706954E+03  0.90040426419E+02 0.  0.
          2    1    3    3  502    0  0.24108280698E+03 -0.68984557009E+02 -0.15217074671E+03  0.29331847041E+03  0.00000000000E+00 0. -1.
         -2    1    3    3    0  502  0.40478838595E+03 -0.24294815123E+03 -0.33463694797E+03  0.57867031074E+03  0.00000000000E+00 0.  1.
         13    1    5    5    0    0 -0.24418558445E+03  0.22658816642E+03 -0.31611270334E+03  0.45923418647E+03  0.00000000000E+00 0.  1.
        -13    1    5    5    0    0 -0.32973579777E+03  0.20769081425E+03 -0.28019499523E+03  0.47996917193E+03  0.00000000000E+00 0. -1.
          5    1    6    6  503    0  0.25160406199E+00 -0.86286979392E+02 -0.66411434095E+01  0.86670069245E+02  0.47000000000E+01 0. -1.
         -5    1    6    6    0  503 -0.72201414765E+02 -0.36059293041E+02  0.99099419228E+01  0.81447000298E+02  0.47000000000E+01 0.  1.
<mgrwt>
<rscale>  0 0.80646400E+03</rscale>
<asrwt>0</asrwt>
<pdfrwt beam="1">  1        1 0.23531967E+00 0.80646400E+03</pdfrwt>
<pdfrwt beam="2">  1       -1 0.69189433E-01 0.80646400E+03</pdfrwt>
<totfact> 0.13572175E+01</totfact>
</mgrwt>
</event>
<event>
12    1  0.3166324E-008  0.5223133E+03  0.7818608E-02  0.1008114E+00
         -2   -1    0    0    0  501 -0.00000000000E+00  0.00000000000E+00  0.92764106323E+03  0.92764106323E+03  0.00000000000E+00 0. -1.
          2   -1    0    0  501    0  0.00000000000E+00 -0.00000000000E+00 -0.44556901266E+03  0.44556901266E+03  0.00000000000E+00 0.  1.
         23    2    1    2    0    0  0.19352044176E+03 -0.40644661232E+03 -0.40273350273E+02  0.46048103783E+03  0.88158002569E+02 0.  0.
    5000000    2    1    2    0    0 -0.19352044176E+03  0.40644661232E+03  0.52234540085E+03  0.91272903806E+03  0.59798040862E+03 0.  0.
         23    2    4    4    0    0 -0.28162116832E+03  0.35954126763E+03  0.11138166422E+03  0.47993554963E+03  0.96704969391E+02 0.  0.
         23    2    4    4    0    0  0.88100726562E+02  0.46905344687E+02  0.41096373662E+03  0.43279348842E+03  0.91962826299E+02 0.  0.
          3    1    3    3  502    0  0.43933039549E+02 -0.46979121197E+02  0.18006489538E+02  0.66793588449E+02  0.00000000000E+00 0. -1.
         -3    1    3    3    0  502  0.14958740221E+03 -0.35946749112E+03 -0.58279839811E+02  0.39368744938E+03  0.00000000000E+00 0.  1.
         13    1    5    5    0    0 -0.19876138941E+03  0.26014785291E+03  0.33968466801E+02  0.32914563954E+03  0.00000000000E+00 0. -1.
        -13    1    5    5    0    0 -0.82859778908E+02  0.99393414719E+02  0.77413197421E+02  0.15078991009E+03  0.00000000000E+00 0.  1.
          5    1    6    6  503    0  0.23004246217E+02 -0.26858207662E+02  0.14036949020E+03  0.14483177290E+03  0.47000000000E+01 0. -1.
         -5    1    6    6    0  503  0.65096480345E+02  0.73763552349E+02  0.27059424642E+03  0.28796171552E+03  0.47000000000E+01 0.  1.
<mgrwt>
<rscale>  0 0.52231332E+03</rscale>
<asrwt>0</asrwt>
<pdfrwt beam="1">  1        2 0.68549079E-01 0.52231332E+03</pdfrwt>
<pdfrwt beam="2">  1       -2 0.14271401E+00 0.52231332E+03</pdfrwt>
<totfact> 0.24870520E+01</totfact>
</mgrwt>
</event>
<event>
12    1  0.3166324E-008  0.6320248E+03  0.7818608E-02  0.9841106E-01
         -1   -1    0    0    0  501 -0.00000000000E+00  0.00000000000E+00  0.16382114582E+04  0.16382114582E+04  0.00000000000E+00 0.  1.
          1   -1    0    0  501    0  0.00000000000E+00 -0.00000000000E+00 -0.34568138731E+03  0.34568138731E+03  0.00000000000E+00 0. -1.
         23    2    1    2    0    0  0.61606125260E+03 -0.36709245810E+02  0.70728681381E+03  0.94303099644E+03  0.90409001636E+02 0.  0.
    5000000    2    1    2    0    0 -0.61606125260E+03  0.36709245810E+02  0.58524325706E+03  0.10408618490E+04  0.60000390264E+03 0.  0.
         23    2    4    4    0    0 -0.30304158597E+03  0.25570830719E+02 -0.54710468522E+02  0.32248114729E+03  0.92264753738E+02 0.  0.
         23    2    4    4    0    0 -0.31301966663E+03  0.11138415091E+02  0.63995372558E+03  0.71838070175E+03  0.91786087042E+02 0.  0.
          2    1    3    3  502    0  0.45588306767E+03 -0.10245323835E+01  0.47243873715E+03  0.65652782227E+03  0.00000000000E+00 0. -1.
         -2    1    3    3    0  502  0.16017818493E+03 -0.35684713427E+02  0.23484807666E+03  0.28650317417E+03  0.00000000000E+00 0.  1.
         13    1    5    5    0    0 -0.10482277309E+03 -0.34939259565E+02 -0.15925118113E+02  0.11163411219E+03  0.00000000000E+00 0. -1.
        -13    1    5    5    0    0 -0.19821881288E+03  0.60510090284E+02 -0.38785350409E+02  0.21084703510E+03  0.00000000000E+00 0.  1.
          5    1    6    6  503    0 -0.26039277572E+02 -0.25771489429E+02  0.67810703307E+02  0.77217842024E+02  0.47000000000E+01 0. -1.
         -5    1    6    6    0  503 -0.28698038906E+03  0.36909904520E+02  0.57214302228E+03  0.64116285973E+03  0.47000000000E+01 0.  1.
<mgrwt>
<rscale>  0 0.63202476E+03</rscale>
<asrwt>0</asrwt>
<pdfrwt beam="1">  1        1 0.53181753E-01 0.63202476E+03</pdfrwt>
<pdfrwt beam="2">  1       -1 0.25203253E+00 0.63202476E+03</pdfrwt>
<totfact> 0.52107704E+00</totfact>
</mgrwt>
</event>
<event>
12    1  0.3266539E-008  0.1525754E+04  0.7818608E-02  0.8867505E-01
         -1   -1    0    0    0  501 -0.00000000000E+00  0.00000000000E+00  0.18950072668E+04  0.18950072668E+04  0.00000000000E+00 0.  1.
          1   -1    0    0  501    0  0.00000000000E+00 -0.00000000000E+00 -0.13151875802E+04  0.13151875802E+04  0.00000000000E+00 0. -1.
         23    2    1    2    0    0 -0.14444723779E+04  0.32993413364E+03 -0.65666688165E+02  0.14859060519E+04  0.90816838778E+02 0.  0.
    5000000    2    1    2    0    0  0.14444723779E+04 -0.32993413364E+03  0.64548637485E+03  0.17242887951E+04  0.60096772437E+03 0.  0.
         23    2    4    4    0    0  0.61391257553E+03 -0.38832798511E+03  0.13843261374E+03  0.74509154140E+03  0.91162174784E+02 0.  0.
         23    2    4    4    0    0  0.83055980234E+03  0.58393851469E+02  0.50705376111E+03  0.97919725368E+03  0.92110356571E+02 0.  0.
          1    1    3    3  502    0 -0.36797033931E+03  0.55148846960E+02 -0.44030858676E+02  0.37467623684E+03  0.00000000000E+00 0. -1.
         -1    1    3    3    0  502 -0.10765020386E+04  0.27478528668E+03 -0.21635829488E+02  0.11112298151E+04  0.00000000000E+00 0.  1.
         11    1    5    5    0    0  0.37956941489E+03 -0.19210725240E+03  0.60773976027E+02  0.42973435202E+03  0.00000000000E+00 0. -1.
        -11    1    5    5    0    0  0.23434316064E+03 -0.19622073272E+03  0.77658637709E+02  0.31535718939E+03  0.00000000000E+00 0.  1.
          5    1    6    6  503    0  0.40462506180E+03  0.72774815378E+02  0.23498898561E+03  0.47356047950E+03  0.47000000000E+01 0. -1.
         -5    1    6    6    0  503  0.42593474055E+03 -0.14380963910E+02  0.27206477550E+03  0.50563677417E+03  0.47000000000E+01 0.  1.
<mgrwt>
<rscale>  0 0.15257540E+04</rscale>
<asrwt>0</asrwt>
<pdfrwt beam="1">  1        1 0.20233655E+00 0.15257540E+04</pdfrwt>
<pdfrwt beam="2">  1       -1 0.29153958E+00 0.15257540E+04</pdfrwt>
<totfact> 0.31224646E-01</totfact>
</mgrwt>
</event>
<event>
12    1  0.3166324E-008  0.4070622E+03  0.7818608E-02  0.1041361E+00
         -2   -1    0    0    0  501 -0.00000000000E+00  0.00000000000E+00  0.16883891878E+03  0.16883891878E+03  0.00000000000E+00 0.  1.
          2   -1    0    0  501    0  0.00000000000E+00 -0.00000000000E+00 -0.12807523397E+04  0.12807523397E+04  0.00000000000E+00 0. -1.
         23    2    1    2    0    0  0.60095471928E+02  0.18097669617E+03 -0.60619151093E+03  0.64229003877E+03  0.93296922089E+02 0.  0.
    5000000    2    1    2    0    0 -0.60095471928E+02 -0.18097669617E+03 -0.50572190994E+03  0.80730121967E+03  0.59968039720E+03 0.  0.
         23    2    4    4    0    0 -0.29210657535E+03  0.14808616184E+02 -0.29631005127E+03  0.42618445024E+03  0.91038413124E+02 0.  0.
         23    2    4    4    0    0  0.23201110342E+03 -0.19578531235E+03 -0.20941185867E+03  0.38111676944E+03  0.96102157872E+02 0.  0.
          1    1    3    3  502    0  0.33779502803E+02  0.22760878320E+02 -0.22616679252E+03  0.22980541862E+03  0.00000000000E+00 0. -1.
         -1    1    3    3    0  502  0.26315969126E+02  0.15821581785E+03 -0.38002471842E+03  0.41248462014E+03  0.00000000000E+00 0.  1.
         13    1    5    5    0    0 -0.21847360743E+03 -0.48841275571E+01 -0.26576227000E+03  0.34406998707E+03  0.00000000000E+00 0. -1.
        -13    1    5    5    0    0 -0.73632967922E+02  0.19692743741E+02 -0.30547781268E+02  0.82114463168E+02  0.00000000000E+00 0.  1.
          5    1    6    6  503    0  0.16469487586E+03 -0.77511857929E+02 -0.12604217447E+03  0.22145250055E+03  0.47000000000E+01 0. -1.
         -5    1    6    6    0  503  0.67316227558E+02 -0.11827345442E+03 -0.83369684203E+02  0.15966426888E+03  0.47000000000E+01 0.  1.
<mgrwt>
<rscale>  0 0.40706217E+03</rscale>
<asrwt>0</asrwt>
<pdfrwt beam="1">  1        2 0.19703881E+00 0.40706217E+03</pdfrwt>
<pdfrwt beam="2">  1       -2 0.25975220E-01 0.40706217E+03</pdfrwt>
<totfact> 0.23632729E+02</totfact>
</mgrwt>
</event>
<event>
12    1  0.3166324E-008  0.1660165E+04  0.7818608E-02  0.8784416E-01
         -1   -1    0    0    0  501 -0.00000000000E+00  0.00000000000E+00  0.15818151315E+04  0.15818151315E+04  0.00000000000E+00 0.  1.
          1   -1    0    0  501    0  0.00000000000E+00 -0.00000000000E+00 -0.19287687067E+04  0.19287687067E+04  0.00000000000E+00 0. -1.
         23    2    1    2    0    0 -0.11860308740E+04 -0.11474695003E+04 -0.55534477515E+03  0.17423799352E+04  0.64222513952E+02 0.  0.
    5000000    2    1    2    0    0  0.11860308740E+04  0.11474695003E+04  0.20839119992E+03  0.17682039030E+04  0.59980218609E+03 0.  0.
         23    2    4    4    0    0  0.10851287540E+04  0.98930283835E+03  0.35518754028E+03  0.15135084754E+04  0.91242520641E+02 0.  0.
         23    2    4    4    0    0  0.10090211998E+03  0.15816666192E+03 -0.14679634037E+03  0.25469542765E+03  0.90125826274E+02 0.  0.
          1    1    3    3  502    0 -0.98172089183E+03 -0.96910574810E+03 -0.48431936836E+03  0.14620215836E+04  0.00000000000E+00 0.  1.
         -1    1    3    3    0  502 -0.20430998213E+03 -0.17836375217E+03 -0.71025406790E+02  0.28035835157E+03  0.00000000000E+00 0. -1.
         11    1    5    5    0    0  0.27470305685E+03  0.29053438564E+03  0.68201319300E+02  0.40561486491E+03  0.00000000000E+00 0. -1.
        -11    1    5    5    0    0  0.81042569714E+03  0.69876845271E+03  0.28698622098E+03  0.11078936105E+04  0.00000000000E+00 0.  1.
          5    1    6    6  503    0  0.13322313793E+02  0.83073637324E+02 -0.27415254251E+02  0.88613765458E+02  0.47000000000E+01 0. -1.
         -5    1    6    6    0  503  0.87579806184E+02  0.75093024599E+02 -0.11938108611E+03  0.16608166219E+03  0.47000000000E+01 0.  1.
<mgrwt>
<rscale>  0 0.16601648E+04</rscale>
<asrwt>0</asrwt>
<pdfrwt beam="1">  1        1 0.29673365E+00 0.16601648E+04</pdfrwt>
<pdfrwt beam="2">  1       -1 0.24335618E+00 0.16601648E+04</pdfrwt>
<totfact> 0.23797303E-01</totfact>
</mgrwt>
</event>
<event>
12    1  0.3166324E-008  0.5013689E+03  0.7818608E-02  0.1013422E+00
          1   -1    0    0  501    0  0.00000000000E+00  0.00000000000E+00  0.11656449252E+04  0.11656449252E+04  0.00000000000E+00 0. -1.
         -1   -1    0    0    0  501 -0.00000000000E+00 -0.00000000000E+00 -0.54570742863E+03  0.54570742863E+03  0.00000000000E+00 0.  1.
         23    2    1    2    0    0 -0.40279709863E+03  0.19797764164E+03 -0.28220507546E+03  0.53823089868E+03  0.92801650982E+02 0.  0.
    5000000    2    1    2    0    0  0.40279709863E+03 -0.19797764164E+03  0.90214257208E+03  0.11731214552E+04  0.60075958505E+03 0.  0.
         23    2    4    4    0    0 -0.18297113949E+02 -0.82042662693E+02  0.64719532993E+03  0.65902742662E+03  0.91594601741E+02 0.  0.
         23    2    4    4    0    0  0.42109421258E+03 -0.11593497895E+03  0.25494724215E+03  0.51409402857E+03  0.92375964019E+02 0.  0.
          2    1    3    3  502    0 -0.36693744203E+03  0.16777799832E+03 -0.21761538189E+03  0.45842011029E+03  0.00000000000E+00 0.  1.
         -2    1    3    3    0  502 -0.35859656603E+02  0.30199643321E+02 -0.64589693570E+02  0.79810788393E+02  0.00000000000E+00 0. -1.
         13    1    5    5    0    0  0.30638340530E+02 -0.43552572965E+02  0.18028804117E+03  0.18798753233E+03  0.00000000000E+00 0.  1.
        -13    1    5    5    0    0 -0.48935454479E+02 -0.38490089728E+02  0.46690728876E+03  0.47103989429E+03  0.00000000000E+00 0. -1.
          5    1    6    6  503    0  0.20635386319E+03 -0.58186192587E+02  0.72364569528E+02  0.22633221331E+03  0.47000000000E+01 0.  1.
         -5    1    6    6    0  503  0.21474034939E+03 -0.57748786361E+02  0.18258267262E+03  0.28776181526E+03  0.47000000000E+01 0.  1.
<mgrwt>
<rscale>  0 0.50136887E+03</rscale>
<asrwt>0</asrwt>
<pdfrwt beam="1">  1        1 0.17932999E+00 0.50136887E+03</pdfrwt>
<pdfrwt beam="2">  1       -1 0.83954989E-01 0.50136887E+03</pdfrwt>
<totfact> 0.17096357E+01</totfact>
</mgrwt>
</event>
<event>
12    1  0.3166324E-008  0.1428154E+04  0.7818608E-02  0.8933687E-01
         -2   -1    0    0    0  501 -0.00000000000E+00  0.00000000000E+00  0.26145224794E+04  0.26145224794E+04  0.00000000000E+00 0.  1.
          2   -1    0    0  501    0  0.00000000000E+00 -0.00000000000E+00 -0.78619397910E+03  0.78619397910E+03  0.00000000000E+00 0. -1.
         23    2    1    2    0    0 -0.81469068112E+03  0.10998966847E+04  0.80933243937E+03  0.15918751543E+04  0.74524403789E+02 0.  0.
    5000000    2    1    2    0    0  0.81469068112E+03 -0.10998966847E+04  0.10189960609E+04  0.18088413041E+04  0.60005022172E+03 0.  0.
         23    2    4    4    0    0  0.60168771477E+03 -0.33478461915E+03  0.50233249121E+03  0.85644821764E+03  0.84004585884E+02 0.  0.
         23    2    4    4    0    0  0.21300296635E+03 -0.76511206551E+03  0.51666356968E+03  0.95239308649E+03  0.96667525561E+02 0.  0.
          4    1    3    3  502    0 -0.50590232533E+03  0.68843928701E+03  0.46310624353E+03  0.97177837363E+03  0.00000000000E+00 0. -1.
         -4    1    3    3    0  502 -0.30878835579E+03  0.41145739765E+03  0.34622619584E+03  0.62009678071E+03  0.00000000000E+00 0.  1.
         13    1    5    5    0    0  0.15360503554E+03 -0.10526014955E+03  0.17781533296E+03  0.25747329699E+03  0.00000000000E+00 0.  1.
        -13    1    5    5    0    0  0.44808267923E+03 -0.22952446961E+03  0.32451715825E+03  0.59897492066E+03  0.00000000000E+00 0. -1.
          5    1    6    6  503    0  0.74852983153E+01 -0.13054317306E+03  0.11181655959E+03  0.17211212253E+03  0.47000000000E+01 0. -1.
         -5    1    6    6    0  503  0.20551766803E+03 -0.63456889245E+03  0.40484701009E+03  0.78028096396E+03  0.47000000000E+01 0.  1.
<mgrwt>
<rscale>  0 0.14281543E+04</rscale>
<asrwt>0</asrwt>
<pdfrwt beam="1">  1        2 0.12095292E+00 0.14281543E+04</pdfrwt>
<pdfrwt beam="2">  1       -2 0.40223422E+00 0.14281543E+04</pdfrwt>
<totfact> 0.24335848E-01</totfact>
</mgrwt>
</event>
<event>
12    1  0.3166324E-008  0.2744304E+04  0.7818608E-02  0.8320772E-01
          2   -1    0    0  501    0  0.00000000000E+00  0.00000000000E+00  0.37359724180E+04  0.37359724180E+04  0.00000000000E+00 0. -1.
         -2   -1    0    0    0  501 -0.00000000000E+00 -0.00000000000E+00 -0.20662359878E+04  0.20662359878E+04  0.00000000000E+00 0.  1.
         23    2    1    2    0    0  0.23018799790E+04  0.14919852174E+04  0.93698844182E+03  0.29002206280E+04  0.93064627087E+02 0.  0.
    5000000    2    1    2    0    0 -0.23018799790E+04 -0.14919852174E+04  0.73274798842E+03  0.29019877777E+04  0.59995176577E+03 0.  0.
         23    2    4    4    0    0 -0.95740473034E+03 -0.57653087137E+03  0.13659310905E+02  0.11214117120E+04  0.91465773206E+02 0.  0.
         23    2    4    4    0    0 -0.13444752486E+04 -0.91545434598E+03  0.71908867751E+03  0.17805760658E+04  0.87705450703E+02 0.  0.
          4    1    3    3  502    0  0.74386537581E+03  0.49097640449E+03  0.25923412149E+03  0.92822187910E+03  0.00000000000E+00 0. -1.
         -4    1    3    3    0  502  0.15580146031E+04  0.10010088129E+04  0.67775432034E+03  0.19719987489E+04  0.00000000000E+00 0.  1.
         13    1    5    5    0    0 -0.26278685227E+02 -0.12925775866E+02 -0.14402226125E+02  0.32635396372E+02  0.00000000000E+00 0. -1.
        -13    1    5    5    0    0 -0.93112604511E+03 -0.56360509550E+03  0.28061537030E+02  0.10887763156E+04  0.00000000000E+00 0.  1.
          5    1    6    6  503    0 -0.31613986245E+03 -0.18427820709E+03  0.19009124966E+03  0.41238288451E+03  0.47000000000E+01 0. -1.
         -5    1    6    6    0  503 -0.10283353862E+04 -0.73117613889E+03  0.52899742785E+03  0.13681931812E+04  0.47000000000E+01 0.  1.
<mgrwt>
<rscale>  0 0.27443035E+04</rscale>
<asrwt>0</asrwt>
<pdfrwt beam="1">  1        2 0.57476499E+00 0.27443035E+04</pdfrwt>
<pdfrwt beam="2">  1       -2 0.31788246E+00 0.27443035E+04</pdfrwt>
<totfact> 0.11092465E-02</totfact>
</mgrwt>
</event>
<event>
12    1  0.3166324E-008  0.2302248E+04  0.7818608E-02  0.8477035E-01
         -2   -1    0    0    0  501 -0.00000000000E+00  0.00000000000E+00  0.17145694153E+04  0.17145694153E+04  0.00000000000E+00 0.  1.
          2   -1    0    0  501    0  0.00000000000E+00 -0.00000000000E+00 -0.31287634961E+04  0.31287634961E+04  0.00000000000E+00 0. -1.
         23    2    1    2    0    0 -0.63762973032E+03 -0.21836681014E+04 -0.78145453372E+03  0.24070803978E+04  0.91579491533E+02 0.  0.
    5000000    2    1    2    0    0  0.63762973032E+03  0.21836681014E+04 -0.63273954702E+03  0.24362525136E+04  0.59999077157E+03 0.  0.
         23    2    4    4    0    0  0.66065760794E+03  0.21035805149E+04 -0.51639973807E+03  0.22663651656E+04  0.90680300715E+02 0.  0.
         23    2    4    4    0    0 -0.23027877617E+02  0.80087586449E+02 -0.11633980896E+03  0.16988734800E+03  0.91555749191E+02 0.  0.
          3    1    3    3  502    0 -0.28794365578E+03 -0.11361767131E+04 -0.42143466651E+03  0.12455586098E+04  0.00000000000E+00 0. -1.
         -3    1    3    3    0  502 -0.34968607454E+03 -0.10474913883E+04 -0.36001986722E+03  0.11615217880E+04  0.00000000000E+00 0.  1.
         11    1    5    5    0    0  0.53035703262E+03  0.17804209158E+04 -0.45361811223E+03  0.19123144645E+04  0.00000000000E+00 0. -1.
        -11    1    5    5    0    0  0.13030057531E+03  0.32315959913E+03 -0.62781625835E+02  0.35405070114E+03  0.00000000000E+00 0.  1.
          5    1    6    6  503    0  0.30504815379E+02  0.78021848537E+01 -0.44284424581E+02  0.54540059684E+02  0.47000000000E+01 0. -1.
         -5    1    6    6    0  503 -0.53532692997E+02  0.72285401595E+02 -0.72055384377E+02  0.11534728831E+03  0.47000000000E+01 0.  1.
<mgrwt>
<rscale>  0 0.23022482E+04</rscale>
<asrwt>0</asrwt>
<pdfrwt beam="1">  1        2 0.48134823E+00 0.23022482E+04</pdfrwt>
<pdfrwt beam="2">  1       -2 0.26377991E+00 0.23022482E+04</pdfrwt>
<totfact> 0.65725188E-02</totfact>
</mgrwt>
</event>
<event>
12    1  0.3166324E-008  0.6905103E+03  0.7818608E-02  0.9733600E-01
         -2   -1    0    0    0  501 -0.00000000000E+00  0.00000000000E+00  0.13934584803E+04  0.13934584803E+04  0.00000000000E+00 0.  1.
          2   -1    0    0  501    0  0.00000000000E+00 -0.00000000000E+00 -0.88338793803E+03  0.88338793803E+03  0.00000000000E+00 0. -1.
         23    2    1    2    0    0  0.23778801903E+03 -0.53587454330E+03  0.11010000743E+04  0.12507282878E+04  0.91735588061E+02 0.  0.
    5000000    2    1    2    0    0 -0.23778801903E+03  0.53587454330E+03 -0.59092953203E+03  0.10261181305E+04  0.60001336473E+03 0.  0.
         23    2    4    4    0    0  0.57612906901E+02  0.46206404321E+03 -0.50747489886E+03  0.69499347683E+03  0.93073803018E+02 0.  0.
         23    2    4    4    0    0 -0.29540092593E+03  0.73810500091E+02 -0.83454633173E+02  0.33112465371E+03  0.99845698610E+02 0.  0.
          3    1    3    3  502    0  0.10759863699E+03 -0.18396854172E+03  0.32303727240E+03  0.38700771360E+03  0.00000000000E+00 0. -1.
         -3    1    3    3    0  502  0.13018938204E+03 -0.35190600158E+03  0.77796280186E+03  0.86372057415E+03  0.00000000000E+00 0.  1.
         13    1    5    5    0    0  0.72937419009E+01  0.34204315052E+03 -0.33396076873E+03  0.47809675855E+03  0.00000000000E+00 0.  1.
        -13    1    5    5    0    0  0.50319165000E+02  0.12002089268E+03 -0.17351413013E+03  0.21689671828E+03  0.00000000000E+00 0. -1.
          5    1    6    6  503    0 -0.19889705737E+03  0.19974242737E+00 -0.50104204539E+02  0.20516481336E+03  0.47000000000E+01 0. -1.
         -5    1    6    6    0  503 -0.96503868559E+02  0.73610757664E+02 -0.33350428635E+02  0.12595984035E+03  0.47000000000E+01 0.  1.
<mgrwt>
<rscale>  0 0.69051034E+03</rscale>
<asrwt>0</asrwt>
<pdfrwt beam="1">  1        2 0.13590584E+00 0.69051034E+03</pdfrwt>
<pdfrwt beam="2">  1       -2 0.21437823E+00 0.69051034E+03</pdfrwt>
<totfact> 0.33419127E+00</totfact>
</mgrwt>
</event>
<event>
12    1  0.3166324E-008  0.3946368E+03  0.7818608E-02  0.1045653E+00
          3   -1    0    0  501    0  0.00000000000E+00  0.00000000000E+00  0.64596866401E+03  0.64596866401E+03  0.00000000000E+00 0. -1.
         -3   -1    0    0    0  501 -0.00000000000E+00 -0.00000000000E+00 -0.28535479941E+03  0.28535479941E+03  0.00000000000E+00 0.  1.
         23    2    1    2    0    0 -0.17577898213E+03  0.87880460627E+02  0.29998170113E+02  0.21868311402E+03  0.91110856792E+02 0.  0.
    5000000    2    1    2    0    0  0.17577898213E+03 -0.87880460627E+02  0.33061569449E+03  0.71264034940E+03  0.59994025055E+03 0.  0.
         23    2    4    4    0    0  0.14120707190E+02  0.21254281806E+03  0.26739353482E+03  0.35393005127E+03  0.91615145302E+02 0.  0.
         23    2    4    4    0    0  0.16165827494E+03 -0.30042327869E+03  0.63222159664E+02  0.35871029813E+03  0.91041157055E+02 0.  0.
          3    1    3    3  502    0 -0.13501239219E+03  0.10162059408E+03  0.41796373404E+02  0.17407477708E+03  0.00000000000E+00 0. -1.
         -3    1    3    3    0  502 -0.40766589942E+02 -0.13740133456E+02 -0.11798203291E+02  0.44608336931E+02  0.00000000000E+00 0.  1.
         11    1    5    5    0    0 -0.12735105689E+02  0.19477841739E+03  0.20122726302E+03  0.28034483441E+03  0.00000000000E+00 0. -1.
        -11    1    5    5    0    0  0.26855812879E+02  0.17764400670E+02  0.66166271802E+02  0.73585216863E+02  0.00000000000E+00 0.  1.
          5    1    6    6  503    0  0.29113912064E+02 -0.13329620822E+03  0.48373528510E+02  0.14483641552E+03  0.47000000000E+01 0. -1.
         -5    1    6    6    0  503  0.13254436288E+03 -0.16712707047E+03  0.14848631154E+02  0.21387388261E+03  0.47000000000E+01 0.  1.
<mgrwt>
<rscale>  0 0.39463677E+03</rscale>
<asrwt>0</asrwt>
<pdfrwt beam="1">  1        3 0.99379794E-01 0.39463677E+03</pdfrwt>
<pdfrwt beam="2">  1       -3 0.43900739E-01 0.39463677E+03</pdfrwt>
<totfact> 0.11908600E+01</totfact>
</mgrwt>
</event>
<event>
12    1  0.3166324E-008  0.1647735E+04  0.7818608E-02  0.8791748E-01
          2   -1    0    0  501    0  0.00000000000E+00  0.00000000000E+00  0.20271477273E+04  0.20271477273E+04  0.00000000000E+00 0. -1.
         -2   -1    0    0    0  501 -0.00000000000E+00 -0.00000000000E+00 -0.17288868901E+04  0.17288868901E+04  0.00000000000E+00 0.  1.
         23    2    1    2    0    0  0.70834083368E+03  0.14575979248E+04 -0.69166360300E+03  0.17645326668E+04  0.94013539321E+02 0.  0.
    5000000    2    1    2    0    0 -0.70834083368E+03 -0.14575979248E+04  0.98992444021E+03  0.19915019506E+04  0.59982595399E+03 0.  0.
         23    2    4    4    0    0 -0.50986578990E+03 -0.13317436785E+04  0.99114042742E+03  0.17391760319E+04  0.94178415124E+02 0.  0.
         23    2    4    4    0    0 -0.19847504378E+03 -0.12585424625E+03 -0.12159872116E+01  0.25232591879E+03  0.91843651734E+02 0.  0.
          4    1    3    3  502    0  0.50796530482E+03  0.11044721544E+04 -0.48395536017E+03  0.13084724993E+04  0.00000000000E+00 0. -1.
         -4    1    3    3    0  502  0.20037552886E+03  0.35312577038E+03 -0.20770824283E+03  0.45606016753E+03  0.00000000000E+00 0.  1.
         11    1    5    5    0    0 -0.42971551522E+03 -0.11490698265E+04  0.88919895602E+03  0.15151540099E+04  0.00000000000E+00 0.  1.
        -11    1    5    5    0    0 -0.80150274683E+02 -0.18267385202E+03  0.10194147140E+03  0.22402202198E+03  0.00000000000E+00 0. -1.
          5    1    6    6  503    0 -0.12495681126E+03 -0.12046260737E+03  0.21714929398E+02  0.17498306379E+03  0.47000000000E+01 0. -1.
         -5    1    6    6    0  503 -0.73518232522E+02 -0.53916388853E+01 -0.22930916610E+02  0.77342855000E+02  0.47000000000E+01 0.  1.
<mgrwt>
<rscale>  0 0.16477349E+04</rscale>
<asrwt>0</asrwt>
<pdfrwt beam="1">  1        2 0.31186888E+00 0.16477349E+04</pdfrwt>
<pdfrwt beam="2">  1       -2 0.26598260E+00 0.16477349E+04</pdfrwt>
<totfact> 0.30532431E-01</totfact>
</mgrwt>
</event>
<event>
12    1  0.3166324E-008  0.1134487E+04  0.7818608E-02  0.9172215E-01
         -2   -1    0    0    0  501 -0.00000000000E+00  0.00000000000E+00  0.62817899740E+03  0.62817899740E+03  0.00000000000E+00 0.  1.
          2   -1    0    0  501    0  0.00000000000E+00 -0.00000000000E+00 -0.23629259885E+04  0.23629259885E+04  0.00000000000E+00 0. -1.
         23    2    1    2    0    0 -0.76406075752E+03 -0.73397372202E+03 -0.13405714486E+04  0.17113405391E+04  0.95122899910E+02 0.  0.
    5000000    2    1    2    0    0  0.76406075752E+03  0.73397372202E+03 -0.39417554244E+03  0.12797644468E+04  0.59993034190E+03 0.  0.
         23    2    4    4    0    0  0.99334721074E+02 -0.78384274145E+02 -0.10053297535E+03  0.18592107019E+03  0.91914547066E+02 0.  0.
         23    2    4    4    0    0  0.66472603645E+03  0.81235799617E+03 -0.29364256709E+03  0.10938433766E+04  0.92093201734E+02 0.  0.
          3    1    3    3  502    0 -0.28849188464E+03 -0.22714823092E+03 -0.50798320554E+03  0.62679408376E+03  0.00000000000E+00 0. -1.
         -3    1    3    3    0  502 -0.47556887288E+03 -0.50682549110E+03 -0.83258824309E+03  0.10845464553E+04  0.00000000000E+00 0.  1.
         11    1    5    5    0    0  0.75744239357E+02 -0.45309897517E+01 -0.67827068156E+02  0.10177539407E+03  0.00000000000E+00 0.  1.
        -11    1    5    5    0    0  0.23590481718E+02 -0.73853284394E+02 -0.32705907193E+02  0.84145676114E+02  0.00000000000E+00 0. -1.
          5    1    6    6  503    0  0.42128257405E+03  0.57946751293E+03 -0.21225206072E+03  0.74721792873E+03  0.47000000000E+01 0. -1.
         -5    1    6    6    0  503  0.24344346240E+03  0.23289048324E+03 -0.81390506377E+02  0.34662544785E+03  0.47000000000E+01 0.  1.
<mgrwt>
<rscale>  0 0.11344873E+04</rscale>
<asrwt>0</asrwt>
<pdfrwt beam="1">  1        2 0.36352707E+00 0.11344873E+04</pdfrwt>
<pdfrwt beam="2">  1       -2 0.96642923E-01 0.11344873E+04</pdfrwt>
<totfact> 0.36988200E+00</totfact>
</mgrwt>
</event>
<event>
12    1  0.3166324E-008  0.1882909E+04  0.7818608E-02  0.8663411E-01
         -2   -1    0    0    0  501 -0.00000000000E+00  0.00000000000E+00  0.18082961373E+04  0.18082961373E+04  0.00000000000E+00 0.  1.
          2   -1    0    0  501    0  0.00000000000E+00 -0.00000000000E+00 -0.21374433979E+04  0.21374433979E+04  0.00000000000E+00 0. -1.
         23    2    1    2    0    0 -0.18381925880E+04 -0.31812659595E+03  0.28992295978E+03  0.18906540504E+04  0.10178847574E+03 0.  0.
    5000000    2    1    2    0    0  0.18381925880E+04  0.31812659595E+03 -0.61907022038E+03  0.20550854848E+04  0.59997657479E+03 0.  0.
         23    2    4    4    0    0  0.15818625970E+04  0.17517799279E+03 -0.31740231222E+03  0.16252854512E+04  0.88498390361E+02 0.  0.
         23    2    4    4    0    0  0.25632999106E+03  0.14294860315E+03 -0.30166790817E+03  0.42980003363E+03  0.87092908042E+02 0.  0.
          3    1    3    3  502    0 -0.54379321351E+03 -0.13698506816E+03  0.67058677559E+02  0.56477680033E+03  0.00000000000E+00 0. -1.
         -3    1    3    3    0  502 -0.12943993745E+04 -0.18114152779E+03  0.22286428222E+03  0.13258772500E+04  0.00000000000E+00 0.  1.
         13    1    5    5    0    0  0.51836452434E+02 -0.12979146461E+01  0.37522175167E+01  0.51988282523E+02  0.00000000000E+00 0.  1.
        -13    1    5    5    0    0  0.15300261445E+04  0.17647590744E+03 -0.32115452973E+03  0.15732971686E+04  0.00000000000E+00 0. -1.
          5    1    6    6  503    0  0.41178463862E+02 -0.91890984645E+01 -0.46499368830E+02  0.62963376008E+02  0.47000000000E+01 0. -1.
         -5    1    6    6    0  503  0.21515152719E+03  0.15213770162E+03 -0.25516853933E+03  0.36683665762E+03  0.47000000000E+01 0.  1.
<mgrwt>
<rscale>  0 0.18829092E+04</rscale>
<asrwt>0</asrwt>
<pdfrwt beam="1">  1        2 0.32883744E+00 0.18829092E+04</pdfrwt>
<pdfrwt beam="2">  1       -2 0.27819941E+00 0.18829092E+04</pdfrwt>
<totfact> 0.21771745E-01</totfact>
</mgrwt>
</event>
<event>
12    1  0.3166324E-008  0.7450183E+03  0.7818608E-02  0.9643198E-01
          2   -1    0    0  501    0  0.00000000000E+00  0.00000000000E+00  0.18764843899E+04  0.18764843899E+04  0.00000000000E+00 0. -1.
         -2   -1    0    0    0  501 -0.00000000000E+00 -0.00000000000E+00 -0.76227268101E+03  0.76227268101E+03  0.00000000000E+00 0.  1.
         23    2    1    2    0    0 -0.22119073504E+03  0.66082035115E+03 -0.44258167799E+03  0.83062124915E+03  0.91892546421E+02 0.  0.
    5000000    2    1    2    0    0  0.22119073504E+03 -0.66082035115E+03  0.15567933869E+04  0.18081358218E+04  0.60011717417E+03 0.  0.
         23    2    4    4    0    0 -0.55896029993E+02 -0.36522808176E+03  0.30072749558E+03  0.48511233562E+03  0.91547985762E+02 0.  0.
         23    2    4    4    0    0  0.27708676504E+03 -0.29559226939E+03  0.12560658913E+04  0.13230234862E+04  0.92399981081E+02 0.  0.
          2    1    3    3  502    0 -0.11269207739E+03  0.46977219323E+03 -0.29832780198E+03  0.56778948147E+03  0.00000000000E+00 0. -1.
         -2    1    3    3    0  502 -0.10849865765E+03  0.19104815793E+03 -0.14425387601E+03  0.26283176768E+03  0.00000000000E+00 0.  1.
         13    1    5    5    0    0 -0.59831454838E+00 -0.25565703235E+03  0.17781982316E+03  0.31141734967E+03  0.00000000000E+00 0. -1.
        -13    1    5    5    0    0 -0.55297715445E+02 -0.10957104941E+03  0.12290767242E+03  0.17369498595E+03  0.00000000000E+00 0.  1.
          5    1    6    6  503    0  0.27764856716E+03 -0.28999490335E+03  0.12516363896E+04  0.13144586386E+04  0.47000000000E+01 0. -1.
         -5    1    6    6    0  503 -0.56180212778E+00 -0.55973660357E+01  0.44295017182E+01  0.85648475550E+01  0.47000000000E+01 0. -1.
<mgrwt>
<rscale>  0 0.74501826E+03</rscale>
<asrwt>0</asrwt>
<pdfrwt beam="1">  1        2 0.28868990E+00 0.74501826E+03</pdfrwt>
<pdfrwt beam="2">  1       -2 0.11727272E+00 0.74501826E+03</pdfrwt>
<totfact> 0.45482472E+00</totfact>
</mgrwt>
</event>
<event>
12    1  0.3166324E-008  0.2376895E+03  0.7818608E-02  0.1121342E+00
         -2   -1    0    0    0  501 -0.00000000000E+00  0.00000000000E+00  0.39505561800E+03  0.39505561800E+03  0.00000000000E+00 0.  1.
          2   -1    0    0  501    0  0.00000000000E+00 -0.00000000000E+00 -0.73320891840E+03  0.73320891840E+03  0.00000000000E+00 0. -1.
         23    2    1    2    0    0 -0.10272577544E+03  0.15759776511E+03  0.20830236283E+03  0.29460422193E+03  0.89510517326E+02 0.  0.
    5000000    2    1    2    0    0  0.10272577544E+03 -0.15759776511E+03 -0.54645566323E+03  0.83366031447E+03  0.60082117766E+03 0.  0.
         23    2    4    4    0    0  0.35702126462E+02 -0.14631336916E+03 -0.65316317844E+03  0.67639775559E+03  0.90606524423E+02 0.  0.
         23    2    4    4    0    0  0.67023648974E+02 -0.11284395954E+02  0.10670751521E+03  0.15726255888E+03  0.93410446464E+02 0.  0.
          1    1    3    3  502    0 -0.40536521503E+02  0.11117597067E+03  0.74225968166E+02  0.13968822563E+03  0.00000000000E+00 0. -1.
         -1    1    3    3    0  502 -0.62189253934E+02  0.46421794447E+02  0.13407639467E+03  0.15491599630E+03  0.00000000000E+00 0.  1.
         13    1    5    5    0    0  0.25794807642E+02 -0.12024863772E+01 -0.54339238286E+02  0.60162869715E+02  0.00000000000E+00 0.  1.
        -13    1    5    5    0    0  0.99073188206E+01 -0.14511088278E+03 -0.59882394015E+03  0.61623488588E+03  0.00000000000E+00 0. -1.
          5    1    6    6  503    0 -0.10323074864E+02 -0.26834209826E+02  0.56671245683E+02  0.63720960280E+02  0.47000000000E+01 0. -1.
         -5    1    6    6    0  503  0.77346723838E+02  0.15549813873E+02  0.50036269524E+02  0.93541598596E+02  0.47000000000E+01 0.  1.
<mgrwt>
<rscale>  0 0.23768947E+03</rscale>
<asrwt>0</asrwt>
<pdfrwt beam="1">  1        2 0.11280137E+00 0.23768947E+03</pdfrwt>
<pdfrwt beam="2">  1       -2 0.60777787E-01 0.23768947E+03</pdfrwt>
<totfact> 0.10383298E+02</totfact>
</mgrwt>
</event>
<event>
12    1  0.3166324E-008  0.4839037E+03  0.7818608E-02  0.1018068E+00
          2   -1    0    0  501    0  0.00000000000E+00  0.00000000000E+00  0.17070044461E+04  0.17070044461E+04  0.00000000000E+00 0. -1.
         -2   -1    0    0    0  501 -0.00000000000E+00 -0.00000000000E+00 -0.48093581272E+03  0.48093581272E+03  0.00000000000E+00 0.  1.
         23    2    1    2    0    0  0.83908033430E+02 -0.45591367418E+03  0.13402993012E+04  0.14211762299E+04  0.91879395274E+02 0.  0.
    5000000    2    1    2    0    0 -0.83908033430E+02  0.45591367418E+03 -0.11423066790E+03  0.76676402884E+03  0.59998382816E+03 0.  0.
         23    2    4    4    0    0 -0.19249579527E+02  0.36012046956E+03  0.19795305924E+03  0.42169037949E+03  0.92628632647E+02 0.  0.
         23    2    4    4    0    0 -0.64658453903E+02  0.95793204625E+02 -0.31218372714E+03  0.34507364935E+03  0.90885038786E+02 0.  0.
          4    1    3    3  502    0  0.37104339048E+02 -0.21074648430E+03  0.75828796167E+03  0.78790319547E+03  0.00000000000E+00 0. -1.
         -4    1    3    3    0  502  0.46803694382E+02 -0.24516718988E+03  0.58201133957E+03  0.63327303447E+03  0.00000000000E+00 0.  1.
         13    1    5    5    0    0 -0.26936936502E+02  0.36211132721E+03  0.18780384348E+03  0.40880373710E+03  0.00000000000E+00 0. -1.
        -13    1    5    5    0    0  0.76873569741E+01 -0.19908576562E+01  0.10149215759E+02  0.12886642386E+02  0.00000000000E+00 0.  1.
          5    1    6    6  503    0 -0.28413765797E+02  0.92029363214E+02 -0.28031152226E+03  0.29643445361E+03  0.47000000000E+01 0. -1.
         -5    1    6    6    0  503 -0.36244688106E+02  0.37638414105E+01 -0.31872204880E+02  0.48639195737E+02  0.47000000000E+01 0.  1.
<mgrwt>
<rscale>  0 0.48390368E+03</rscale>
<asrwt>0</asrwt>
<pdfrwt beam="1">  1        2 0.26261606E+00 0.48390368E+03</pdfrwt>
<pdfrwt beam="2">  1       -2 0.73990126E-01 0.48390368E+03</pdfrwt>
<totfact> 0.17184408E+01</totfact>
</mgrwt>
</event>
<event>
12    1  0.3166324E-008  0.5669319E+03  0.7818608E-02  0.9976491E-01
         -2   -1    0    0    0  501 -0.00000000000E+00  0.00000000000E+00  0.77160487190E+03  0.77160487190E+03  0.00000000000E+00 0. -1.
          2   -1    0    0  501    0  0.00000000000E+00 -0.00000000000E+00 -0.49624589616E+03  0.49624589616E+03  0.00000000000E+00 0.  1.
         23    2    1    2    0    0 -0.30384088295E+03  0.35537567512E+03  0.13376562540E+03  0.49441759732E+03  0.89131169532E+02 0.  0.
    5000000    2    1    2    0    0  0.30384088295E+03 -0.35537567512E+03  0.14159335035E+03  0.77343317074E+03  0.59961574372E+03 0.  0.
         23    2    4    4    0    0  0.33012259479E+03 -0.43510686440E+02 -0.11045296778E+03  0.36057309982E+03  0.83300629049E+02 0.  0.
         23    2    4    4    0    0 -0.26281711838E+02 -0.31186498868E+03  0.25204631813E+03  0.41286007091E+03  0.94739601701E+02 0.  0.
          3    1    3    3  502    0 -0.10909254728E+02  0.51322260504E+02  0.35544758937E+01  0.52589167714E+02  0.00000000000E+00 0. -1.
         -3    1    3    3    0  502 -0.29293162822E+03  0.30405341462E+03  0.13021114951E+03  0.44182842961E+03  0.00000000000E+00 0.  1.
         11    1    5    5    0    0  0.21663780643E+03 -0.67070340757E+02 -0.63365448121E+02  0.23546878732E+03  0.00000000000E+00 0.  1.
        -11    1    5    5    0    0  0.11348478835E+03  0.23559654317E+02 -0.47087519664E+02  0.12510431250E+03  0.00000000000E+00 0. -1.
          5    1    6    6  503    0 -0.34950174496E+02 -0.14064923897E+03  0.16784380164E+03  0.22180476747E+03  0.47000000000E+01 0. -1.
         -5    1    6    6    0  503  0.86684626577E+01 -0.17121574971E+03  0.84202516488E+02  0.19105530345E+03  0.47000000000E+01 0.  1.
<mgrwt>
<rscale>  0 0.56693187E+03</rscale>
<asrwt>0</asrwt>
<pdfrwt beam="1">  1        2 0.76345523E-01 0.56693187E+03</pdfrwt>
<pdfrwt beam="2">  1       -2 0.11870844E+00 0.56693187E+03</pdfrwt>
<totfact> 0.34833425E+01</totfact>
</mgrwt>
</event>
<event>
12    1  0.3166324E-008  0.1070818E+04  0.7818608E-02  0.9234111E-01
          2   -1    0    0  501    0  0.00000000000E+00  0.00000000000E+00  0.19976315519E+04  0.19976315519E+04  0.00000000000E+00 0. -1.
         -2   -1    0    0    0  501 -0.00000000000E+00 -0.00000000000E+00 -0.69612425712E+03  0.69612425712E+03  0.00000000000E+00 0.  1.
         23    2    1    2    0    0  0.91367021691E+03 -0.40959950183E+03  0.86988060061E+02  0.10091881334E+04  0.91261978617E+02 0.  0.
    5000000    2    1    2    0    0 -0.91367021691E+03  0.40959950183E+03  0.12145192347E+04  0.16845676757E+04  0.60012187536E+03 0.  0.
         23    2    4    4    0    0 -0.42566793380E+02 -0.93457867075E+02  0.64273229976E+02  0.15380621801E+03  0.94757584341E+02 0.  0.
         23    2    4    4    0    0 -0.87110342353E+03  0.50305736890E+03  0.11502460048E+04  0.15307614577E+04  0.90977348672E+02 0.  0.
          1    1    3    3  502    0  0.54171712730E+03 -0.29155100078E+03  0.54781413780E+02  0.61762483382E+03  0.00000000000E+00 0. -1.
         -1    1    3    3    0  502  0.37195308961E+03 -0.11804850105E+03  0.32206646281E+02  0.39156329953E+03  0.00000000000E+00 0.  1.
         13    1    5    5    0    0  0.13385602054E+02 -0.59088291689E+02 -0.18545080382E+01  0.60613857798E+02  0.00000000000E+00 0.  1.
        -13    1    5    5    0    0 -0.55952395434E+02 -0.34369575386E+02  0.66127738014E+02  0.93192360212E+02  0.00000000000E+00 0. -1.
          5    1    6    6  503    0 -0.31590315596E+03  0.13345032005E+03  0.38189237535E+03  0.51329101708E+03  0.47000000000E+01 0. -1.
         -5    1    6    6    0  503 -0.55520026757E+03  0.36960704885E+03  0.76835362942E+03  0.10174704406E+04  0.47000000000E+01 0.  1.
<mgrwt>
<rscale>  0 0.10708183E+04</rscale>
<asrwt>0</asrwt>
<pdfrwt beam="1">  1        2 0.30732793E+00 0.10708183E+04</pdfrwt>
<pdfrwt beam="2">  1       -2 0.10709604E+00 0.10708183E+04</pdfrwt>
<totfact> 0.46577322E+00</totfact>
</mgrwt>
</event>
<event>
12    1  0.3166324E-008  0.5838525E+03  0.7818608E-02  0.9939485E-01
          1   -1    0    0  501    0  0.00000000000E+00  0.00000000000E+00  0.23170656599E+03  0.23170656599E+03  0.00000000000E+00 0. -1.
         -1   -1    0    0    0  501 -0.00000000000E+00 -0.00000000000E+00 -0.16157417370E+04  0.16157417370E+04  0.00000000000E+00 0.  1.
         23    2    1    2    0    0  0.20394133339E+03 -0.39083199836E+03 -0.72344634140E+03  0.85209066405E+03  0.91335493966E+02 0.  0.
    5000000    2    1    2    0    0 -0.20394133339E+03  0.39083199836E+03 -0.66058882960E+03  0.99535763893E+03  0.60001459081E+03 0.  0.
         23    2    4    4    0    0 -0.18766334283E+03  0.52452118357E+03 -0.59405771477E+03  0.81971178262E+03  0.93181735462E+02 0.  0.
         23    2    4    4    0    0 -0.16277990567E+02 -0.13368918521E+03 -0.66531114825E+02  0.17564585632E+03  0.91034643862E+02 0.  0.
          2    1    3    3  502    0  0.80632631385E+02 -0.71385511407E+02 -0.16577520112E+03  0.19768391383E+03  0.00000000000E+00 0. -1.
         -2    1    3    3    0  502  0.12330870201E+03 -0.31944648695E+03 -0.55767114029E+03  0.65440675021E+03  0.00000000000E+00 0.  1.
         11    1    5    5    0    0 -0.10792242439E+02  0.10202611510E+03 -0.72722893076E+02  0.12575539685E+03  0.00000000000E+00 0.  1.
        -11    1    5    5    0    0 -0.17687110039E+03  0.42249506847E+03 -0.52133482170E+03  0.69395638577E+03  0.00000000000E+00 0. -1.
          5    1    6    6  503    0 -0.46802663629E+02 -0.10396242431E+03 -0.26833160776E+02  0.11722108816E+03  0.47000000000E+01 0. -1.
         -5    1    6    6    0  503  0.30524673062E+02 -0.29726760896E+02 -0.39697954049E+02  0.58424768160E+02  0.47000000000E+01 0.  1.
<mgrwt>
<rscale>  0 0.58385246E+03</rscale>
<asrwt>0</asrwt>
<pdfrwt beam="1">  1        1 0.35647164E-01 0.58385246E+03</pdfrwt>
<pdfrwt beam="2">  1       -1 0.24857565E+00 0.58385246E+03</pdfrwt>
<totfact> 0.92639991E+00</totfact>
</mgrwt>
</event>
<event>
12    1  0.3166324E-008  0.6921332E+03  0.7818608E-02  0.9730781E-01
         -2   -1    0    0    0  501 -0.00000000000E+00  0.00000000000E+00  0.88668305829E+03  0.88668305829E+03  0.00000000000E+00 0.  1.
          2   -1    0    0  501    0  0.00000000000E+00 -0.00000000000E+00 -0.65015872421E+03  0.65015872421E+03  0.00000000000E+00 0. -1.
         23    2    1    2    0    0 -0.49761988207E+03 -0.39654723668E+03  0.72398893827E+02  0.64698797138E+03  0.92068329656E+02 0.  0.
    5000000    2    1    2    0    0  0.49761988207E+03  0.39654723668E+03  0.16412544025E+03  0.88985381113E+03  0.60002282214E+03 0.  0.
         23    2    4    4    0    0  0.35397239231E+02  0.21701089252E+03 -0.16100918598E+03  0.28950669050E+03  0.97690705087E+02 0.  0.
         23    2    4    4    0    0  0.46222264284E+03  0.17953634417E+03  0.32513462623E+03  0.60034712063E+03  0.93920549627E+02 0.  0.
          2    1    3    3  502    0 -0.24318456708E+03 -0.14698330211E+03  0.59743147157E+02  0.29036540495E+03  0.00000000000E+00 0. -1.
         -2    1    3    3    0  502 -0.25443531499E+03 -0.24956393458E+03  0.12655746670E+02  0.35662256642E+03  0.00000000000E+00 0.  1.
         11    1    5    5    0    0  0.67278758525E+02  0.11285349601E+03 -0.95084555130E+02  0.16218327761E+03  0.00000000000E+00 0.  1.
        -11    1    5    5    0    0 -0.31881519294E+02  0.10415739651E+03 -0.65924630846E+02  0.12732341290E+03  0.00000000000E+00 0. -1.
          5    1    6    6  503    0  0.20659230840E+03  0.12648398880E+03  0.13516212429E+03  0.27743372389E+03  0.47000000000E+01 0. -1.
         -5    1    6    6    0  503  0.25563033444E+03  0.53052355371E+02  0.18997250194E+03  0.32291339674E+03  0.47000000000E+01 0.  1.
<mgrwt>
<rscale>  0 0.69213320E+03</rscale>
<asrwt>0</asrwt>
<pdfrwt beam="1">  1        2 0.10002442E+00 0.69213320E+03</pdfrwt>
<pdfrwt beam="2">  1       -2 0.13641278E+00 0.69213320E+03</pdfrwt>
<totfact> 0.17608260E+01</totfact>
</mgrwt>
</event>
<event>
12    1  0.3166324E-008  0.8672431E+03  0.7818608E-02  0.9467482E-01
         -1   -1    0    0    0  501 -0.00000000000E+00  0.00000000000E+00  0.22041178967E+04  0.22041178967E+04  0.00000000000E+00 0.  1.
          1   -1    0    0  501    0  0.00000000000E+00 -0.00000000000E+00 -0.37019691961E+03  0.37019691961E+03  0.00000000000E+00 0. -1.
         23    2    1    2    0    0 -0.19387724373E+02  0.80027496561E+03  0.84643197362E+03  0.11685573786E+04  0.90903007210E+02 0.  0.
    5000000    2    1    2    0    0  0.19387724373E+02 -0.80027496561E+03  0.98748900348E+03  0.14057574377E+04  0.60016959039E+03 0.  0.
         23    2    4    4    0    0  0.20331684260E+03 -0.14510290117E+03  0.49064009626E+03  0.55808773314E+03  0.91332488262E+02 0.  0.
         23    2    4    4    0    0 -0.18392911822E+03 -0.65517206444E+03  0.49684890723E+03  0.84766970457E+03  0.92761720986E+02 0.  0.
          3    1    3    3  502    0  0.23454914268E+02  0.31992019907E+03  0.38473884228E+03  0.50092219309E+03  0.00000000000E+00 0. -1.
         -3    1    3    3    0  502 -0.42842638641E+02  0.48035476654E+03  0.46169313135E+03  0.66763518552E+03  0.00000000000E+00 0.  1.
         13    1    5    5    0    0  0.41700484500E+01 -0.72849940187E+01 -0.24400522740E+01  0.87415271565E+01  0.00000000000E+00 0.  1.
        -13    1    5    5    0    0  0.19914679415E+03 -0.13781790715E+03  0.49308014853E+03  0.54934620598E+03  0.00000000000E+00 0. -1.
          5    1    6    6  503    0 -0.16763386357E+03 -0.57696037516E+03  0.39896772521E+03  0.72123624595E+03  0.47000000000E+01 0. -1.
         -5    1    6    6    0  503 -0.16295254657E+02 -0.78211689280E+02  0.97881182020E+02  0.12643345862E+03  0.47000000000E+01 0.  1.
<mgrwt>
<rscale>  0 0.86724310E+03</rscale>
<asrwt>0</asrwt>
<pdfrwt beam="1">  1        1 0.56953373E-01 0.86724310E+03</pdfrwt>
<pdfrwt beam="2">  1       -1 0.33909505E+00 0.86724310E+03</pdfrwt>
<totfact> 0.12674563E+00</totfact>
</mgrwt>
</event>
<event>
12    1  0.3166324E-008  0.6119624E+03  0.7818608E-02  0.9880894E-01
         -1   -1    0    0    0  501 -0.00000000000E+00  0.00000000000E+00  0.39440048808E+03  0.39440048808E+03  0.00000000000E+00 0.  1.
          1   -1    0    0  501    0  0.00000000000E+00 -0.00000000000E+00 -0.10879505788E+04  0.10879505788E+04  0.00000000000E+00 0. -1.
         23    2    1    2    0    0  0.40239523288E+03 -0.23768663732E+03 -0.51461325759E+03  0.70105272236E+03  0.90726256595E+02 0.  0.
    5000000    2    1    2    0    0 -0.40239523288E+03  0.23768663732E+03 -0.17893683313E+03  0.78129834452E+03  0.59999320988E+03 0.  0.
         23    2    4    4    0    0 -0.34099707550E+03 -0.13002153342E+03 -0.11423599380E+03  0.39298461173E+03  0.90567312655E+02 0.  0.
         23    2    4    4    0    0 -0.61398157376E+02  0.36770817074E+03 -0.64700839333E+02  0.38831373279E+03  0.87305921379E+02 0.  0.
          4    1    3    3  502    0  0.18042669142E+03 -0.66403848213E+02 -0.16865424715E+03  0.25574893376E+03  0.00000000000E+00 0.  1.
         -4    1    3    3    0  502  0.22196854146E+03 -0.17128278910E+03 -0.34595901044E+03  0.44530378860E+03  0.00000000000E+00 0. -1.
         11    1    5    5    0    0 -0.34833859113E+02  0.57114372738E+01 -0.33109007730E+02  0.48396535509E+02  0.00000000000E+00 0. -1.
        -11    1    5    5    0    0 -0.30616321639E+03 -0.13573297069E+03 -0.81126986066E+02  0.34458807622E+03  0.00000000000E+00 0.  1.
          5    1    6    6  503    0 -0.80032500034E+02  0.27673382052E+03 -0.64898244880E+02  0.29533147593E+03  0.47000000000E+01 0. -1.
         -5    1    6    6    0  503  0.18634342658E+02  0.90974350214E+02  0.19740554649E+00  0.92982256867E+02  0.47000000000E+01 0.  1.
<mgrwt>
<rscale>  0 0.61196244E+03</rscale>
<asrwt>0</asrwt>
<pdfrwt beam="1">  1        1 0.16737701E+00 0.61196244E+03</pdfrwt>
<pdfrwt beam="2">  1       -1 0.60676999E-01 0.61196244E+03</pdfrwt>
<totfact> 0.37223077E+01</totfact>
</mgrwt>
</event>
<event>
12    1  0.3166324E-008  0.7090364E+03  0.7818608E-02  0.9701902E-01
         -1   -1    0    0    0  501 -0.00000000000E+00  0.00000000000E+00  0.11430673993E+04  0.11430673993E+04  0.00000000000E+00 0.  1.
          1   -1    0    0  501    0  0.00000000000E+00 -0.00000000000E+00 -0.48474643864E+03  0.48474643864E+03  0.00000000000E+00 0. -1.
         23    2    1    2    0    0 -0.22191454294E+03 -0.54512579669E+03  0.48870612081E+03  0.77028116424E+03  0.89951102688E+02 0.  0.
    5000000    2    1    2    0    0  0.22191454294E+03  0.54512579669E+03  0.16961483985E+03  0.85753267370E+03  0.60015405854E+03 0.  0.
         23    2    4    4    0    0  0.38161384671E+03  0.17893053016E+03  0.86903859323E+02  0.43954256707E+03  0.89443417193E+02 0.  0.
         23    2    4    4    0    0 -0.15969930378E+03  0.36619526654E+03  0.82710980529E+02  0.41799010663E+03  0.90949337972E+02 0.  0.
          3    1    3    3  502    0 -0.14361892169E+03 -0.35817333026E+03  0.26338093110E+03  0.46720877993E+03  0.00000000000E+00 0. -1.
         -3    1    3    3    0  502 -0.78295621252E+02 -0.18695246643E+03  0.22532518971E+03  0.30307238431E+03  0.00000000000E+00 0.  1.
         11    1    5    5    0    0  0.19376691038E+03  0.47519477438E+02  0.62126717925E+02  0.20895799907E+03  0.00000000000E+00 0. -1.
        -11    1    5    5    0    0  0.18784693633E+03  0.13141105272E+03  0.24777141399E+02  0.23058456800E+03  0.00000000000E+00 0.  1.
          5    1    6    6  503    0 -0.12245784310E+03  0.24634119533E+03  0.96655922409E+02  0.29162367049E+03  0.47000000000E+01 0. -1.
         -5    1    6    6    0  503 -0.37241460679E+02  0.11985407120E+03 -0.13944941881E+02  0.12636643613E+03  0.47000000000E+01 0.  1.
<mgrwt>
<rscale>  0 0.70903640E+03</rscale>
<asrwt>0</asrwt>
<pdfrwt beam="1">  1        1 0.74576375E-01 0.70903640E+03</pdfrwt>
<pdfrwt beam="2">  1       -1 0.17585652E+00 0.70903640E+03</pdfrwt>
<totfact> 0.10681086E+01</totfact>
</mgrwt>
</event>
<event>
12    1  0.3166324E-008  0.9360757E+03  0.7818608E-02  0.9381576E-01
          1   -1    0    0  501    0  0.00000000000E+00  0.00000000000E+00  0.15057999339E+04  0.15057999339E+04  0.00000000000E+00 0. -1.
         -1   -1    0    0    0  501 -0.00000000000E+00 -0.00000000000E+00 -0.73511339904E+03  0.73511339904E+03  0.00000000000E+00 0.  1.
         23    2    1    2    0    0 -0.84079342942E+02 -0.91381231838E+03  0.39298152193E+02  0.92293006088E+03  0.90184607185E+02 0.  0.
    5000000    2    1    2    0    0  0.84079342942E+02  0.91381231838E+03  0.73138838266E+03  0.13179832721E+04  0.60002387451E+03 0.  0.
         23    2    4    4    0    0  0.63860860185E+02  0.12668852764E+03  0.44373323209E+03  0.47474712991E+03  0.91419164286E+02 0.  0.
         23    2    4    4    0    0  0.20218482757E+02  0.78712379074E+03  0.28765515058E+03  0.84323614215E+03  0.91263666194E+02 0.  0.
          3    1    3    3  502    0 -0.75625319386E+02 -0.67347941533E+03 -0.83982745852E+01  0.67776414985E+03  0.00000000000E+00 0. -1.
         -3    1    3    3    0  502 -0.84540235557E+01 -0.24033290305E+03  0.47696426778E+02  0.24516591103E+03  0.00000000000E+00 0.  1.
         11    1    5    5    0    0  0.23305619094E+02  0.12033620900E+03  0.37673614394E+03  0.39617430158E+03  0.00000000000E+00 0.  1.
        -11    1    5    5    0    0  0.40555241090E+02  0.63523186382E+01  0.66997088144E+02  0.78572828330E+02  0.00000000000E+00 0. -1.
          5    1    6    6  503    0  0.17769779069E+02  0.51310584432E+02  0.40919635704E+01  0.54656886929E+02  0.47000000000E+01 0. -1.
         -5    1    6    6    0  503  0.24487036878E+01  0.73581320631E+03  0.28356318701E+03  0.78857925522E+03  0.47000000000E+01 0.  1.
<mgrwt>
<rscale>  0 0.93607571E+03</rscale>
<asrwt>0</asrwt>
<pdfrwt beam="1">  1        1 0.23166153E+00 0.93607571E+03</pdfrwt>
<pdfrwt beam="2">  1       -1 0.11309437E+00 0.93607571E+03</pdfrwt>
<totfact> 0.46945127E+00</totfact>
</mgrwt>
</event>
<event>
12    1  0.3166324E-008  0.9952786E+03  0.7818608E-02  0.9313738E-01
         -1   -1    0    0    0  501 -0.00000000000E+00  0.00000000000E+00  0.13527489058E+04  0.13527489058E+04  0.00000000000E+00 0.  1.
          1   -1    0    0  501    0  0.00000000000E+00 -0.00000000000E+00 -0.10052489078E+04  0.10052489078E+04  0.00000000000E+00 0. -1.
         23    2    1    2    0    0 -0.74821156998E+03  0.61477022410E+03 -0.33566833592E+03  0.10296415268E+04  0.98617747483E+02 0.  0.
    5000000    2    1    2    0    0  0.74821156998E+03 -0.61477022410E+03  0.68316833390E+03  0.13283562868E+04  0.60004039071E+03 0.  0.
         23    2    4    4    0    0  0.51381974835E+03 -0.21852647787E+03  0.64587940594E+03  0.85806180440E+03  0.85704712965E+02 0.  0.
         23    2    4    4    0    0  0.23439182163E+03 -0.39624374623E+03  0.37288927968E+02  0.47029448245E+03  0.88531370749E+02 0.  0.
          1    1    3    3  502    0 -0.29985193185E+03  0.23685533409E+03 -0.18319039061E+03  0.42375741826E+03  0.00000000000E+00 0. -1.
         -1    1    3    3    0  502 -0.44835963813E+03  0.37791489001E+03 -0.15247794532E+03  0.60588410856E+03  0.00000000000E+00 0.  1.
         11    1    5    5    0    0  0.10403628816E+03 -0.19314508586E+02  0.16131226095E+03  0.19292030745E+03  0.00000000000E+00 0. -1.
        -11    1    5    5    0    0  0.40978346019E+03 -0.19921196928E+03  0.48456714499E+03  0.66514149694E+03  0.00000000000E+00 0.  1.
          5    1    6    6  503    0  0.42256134674E+02 -0.77701474780E+02 -0.27328199622E+02  0.92693152903E+02  0.47000000000E+01 0. -1.
         -5    1    6    6    0  503  0.19213568695E+03 -0.31854227145E+03  0.64617127590E+02  0.37760132955E+03  0.47000000000E+01 0.  1.
<mgrwt>
<rscale>  0 0.99527857E+03</rscale>
<asrwt>0</asrwt>
<pdfrwt beam="1">  1        1 0.15465368E+00 0.99527857E+03</pdfrwt>
<pdfrwt beam="2">  1       -1 0.20811522E+00 0.99527857E+03</pdfrwt>
<totfact> 0.19953918E+00</totfact>
</mgrwt>
</event>
<event>
12    1  0.3166324E-008  0.4365090E+03  0.7818608E-02  0.1031823E+00
          1   -1    0    0  501    0  0.00000000000E+00  0.00000000000E+00  0.46791811575E+03  0.46791811575E+03  0.00000000000E+00 0. -1.
         -1   -1    0    0    0  501 -0.00000000000E+00 -0.00000000000E+00 -0.48161688583E+03  0.48161688583E+03  0.00000000000E+00 0.  1.
         23    2    1    2    0    0 -0.14100184825E+03 -0.21248816150E+03 -0.10538443437E+03  0.29104824880E+03  0.92576801261E+02 0.  0.
    5000000    2    1    2    0    0  0.14100184825E+03  0.21248816150E+03  0.91685664296E+02  0.65848675279E+03  0.60013815291E+03 0.  0.
         23    2    4    4    0    0 -0.16525616625E+03  0.23325622683E+03 -0.49277893154E+02  0.30738390153E+03  0.10167833754E+03 0.  0.
         23    2    4    4    0    0  0.30625801450E+03 -0.20768065334E+02  0.14096355745E+03  0.35110285126E+03  0.95797722565E+02 0.  0.
          3    1    3    3  502    0 -0.10005020729E+03 -0.10562031099E+03 -0.99880598541E+02  0.17647047356E+03  0.00000000000E+00 0. -1.
         -3    1    3    3    0  502 -0.40951640959E+02 -0.10686785051E+03 -0.55038358339E+01  0.11457777524E+03  0.00000000000E+00 0.  1.
         13    1    5    5    0    0 -0.12321166790E+03  0.21276791129E+03 -0.96095321000E+01  0.24605617710E+03  0.00000000000E+00 0.  1.
        -13    1    5    5    0    0 -0.42044498351E+02  0.20488315547E+02 -0.39668361054E+02  0.61327724435E+02  0.00000000000E+00 0. -1.
          5    1    6    6  503    0  0.19081961307E+03  0.31816223035E+02  0.99305210840E+02  0.21750404980E+03  0.47000000000E+01 0.  1.
         -5    1    6    6    0  503  0.11543840143E+03 -0.52584288368E+02  0.41658346610E+02  0.13359880146E+03  0.47000000000E+01 0. -1.
<mgrwt>
<rscale>  0 0.43650898E+03</rscale>
<asrwt>0</asrwt>
<pdfrwt beam="1">  1        1 0.71987403E-01 0.43650898E+03</pdfrwt>
<pdfrwt beam="2">  1       -1 0.74094905E-01 0.43650898E+03</pdfrwt>
<totfact> 0.93186667E+01</totfact>
</mgrwt>
</event>
<event>
12    1  0.3166324E-008  0.6539260E+03  0.7818608E-02  0.9799440E-01
         -2   -1    0    0    0  501 -0.00000000000E+00  0.00000000000E+00  0.84871152128E+03  0.84871152128E+03  0.00000000000E+00 0.  1.
          2   -1    0    0  501    0  0.00000000000E+00 -0.00000000000E+00 -0.99021372884E+03  0.99021372884E+03  0.00000000000E+00 0. -1.
         23    2    1    2    0    0 -0.56282408737E+03 -0.89475189514E+02  0.52190774441E+03  0.77825918103E+03  0.92319533781E+02 0.  0.
    5000000    2    1    2    0    0  0.56282408737E+03  0.89475189514E+02 -0.66340995197E+03  0.10606660691E+04  0.60010247697E+03 0.  0.
         23    2    4    4    0    0  0.26119817283E+02 -0.13057390389E+03 -0.37028439715E+03  0.40418930777E+03  0.92339983292E+02 0.  0.
         23    2    4    4    0    0  0.53670427009E+03  0.22004909340E+03 -0.29312555482E+03  0.65647676131E+03  0.92553067011E+02 0.  0.
          2    1    3    3  502    0 -0.31949870707E+03 -0.94793185908E+02  0.28297596653E+03  0.43719625976E+03  0.00000000000E+00 0. -1.
         -2    1    3    3    0  502 -0.24332538030E+03  0.53179963938E+01  0.23893177788E+03  0.34106292127E+03  0.00000000000E+00 0.  1.
         11    1    5    5    0    0 -0.11258975721E+02  0.31886142106E+01 -0.38526738983E+01  0.12319695250E+02  0.00000000000E+00 0. -1.
        -11    1    5    5    0    0  0.37378793004E+02 -0.13376251810E+03 -0.36643172325E+03  0.39186961252E+03  0.00000000000E+00 0.  1.
          5    1    6    6  503    0  0.46496302955E+03  0.18263753428E+03 -0.28468743034E+03  0.57499227018E+03  0.47000000000E+01 0. -1.
         -5    1    6    6    0  503  0.71741240533E+02  0.37411559127E+02 -0.84381244876E+01  0.81484491127E+02  0.47000000000E+01 0.  1.
<mgrwt>
<rscale>  0 0.65392602E+03</rscale>
<asrwt>0</asrwt>
<pdfrwt beam="1">  1        2 0.15234057E+00 0.65392602E+03</pdfrwt>
<pdfrwt beam="2">  1       -2 0.13057100E+00 0.65392602E+03</pdfrwt>
<totfact> 0.11300942E+01</totfact>
</mgrwt>
</event>
<event>
12    1  0.3166324E-008  0.1985473E+04  0.7818608E-02  0.8613443E-01
         -1   -1    0    0    0  501 -0.00000000000E+00  0.00000000000E+00  0.14521002789E+04  0.14521002789E+04  0.00000000000E+00 0.  1.
          1   -1    0    0  501    0  0.00000000000E+00 -0.00000000000E+00 -0.29443611168E+04  0.29443611168E+04  0.00000000000E+00 0. -1.
         23    2    1    2    0    0 -0.11215050012E+04 -0.16021946489E+04 -0.17977732966E+03  0.19660793803E+04  0.91362359582E+02 0.  0.
    5000000    2    1    2    0    0  0.11215050012E+04  0.16021946489E+04 -0.13124835083E+04  0.24303820155E+04  0.59945193398E+03 0.  0.
         23    2    4    4    0    0  0.10903441997E+04  0.13142270582E+04 -0.94645296999E+03  0.19545117199E+04  0.91102166074E+02 0.  0.
         23    2    4    4    0    0  0.31160801519E+02  0.28796759069E+03 -0.36603053827E+03  0.47587029557E+03  0.92616707029E+02 0.  0.
          3    1    3    3  502    0 -0.17511950470E+03 -0.20635113651E+03 -0.44029900464E+02  0.27420113895E+03  0.00000000000E+00 0. -1.
         -3    1    3    3    0  502 -0.94638549647E+03 -0.13958435124E+04 -0.13574742919E+03  0.16918782413E+04  0.00000000000E+00 0.  1.
         13    1    5    5    0    0  0.60775815291E+03  0.66513823016E+03 -0.51552839662E+03  0.10380502711E+04  0.00000000000E+00 0. -1.
        -13    1    5    5    0    0  0.48258604674E+03  0.64908882803E+03 -0.43092457337E+03  0.91646144879E+03  0.00000000000E+00 0.  1.
          5    1    6    6  503    0  0.56731120524E+02  0.25880769519E+03 -0.31657293613E+03  0.41284422851E+03  0.47000000000E+01 0. -1.
         -5    1    6    6    0  503 -0.25570319005E+02  0.29159895507E+02 -0.49457602139E+02  0.63026067063E+02  0.47000000000E+01 0.  1.
<mgrwt>
<rscale>  0 0.19854727E+04</rscale>
<asrwt>0</asrwt>
<pdfrwt beam="1">  1        1 0.45297863E+00 0.19854727E+04</pdfrwt>
<pdfrwt beam="2">  1       -1 0.22340004E+00 0.19854727E+04</pdfrwt>
<totfact> 0.61231292E-02</totfact>
</mgrwt>
</event>
<event>
12    1  0.3166324E-008  0.7781539E+03  0.7818608E-02  0.9592188E-01
         -1   -1    0    0    0  501 -0.00000000000E+00  0.00000000000E+00  0.42887960485E+03  0.42887960485E+03  0.00000000000E+00 0.  1.
          1   -1    0    0  501    0  0.00000000000E+00 -0.00000000000E+00 -0.15598877614E+04  0.15598877614E+04  0.00000000000E+00 0. -1.
         23    2    1    2    0    0  0.29523835603E+03  0.63986403388E+03 -0.49156626016E+03  0.86384042044E+03  0.89393596729E+02 0.  0.
    5000000    2    1    2    0    0 -0.29523835603E+03 -0.63986403388E+03 -0.63944189638E+03  0.11249269458E+04  0.59998585469E+03 0.  0.
         23    2    4    4    0    0 -0.24986462182E+03 -0.74946579298E+02 -0.14700279095E+02  0.27667464127E+03  0.91013405218E+02 0.  0.
         23    2    4    4    0    0 -0.45373734203E+02 -0.56491745458E+03 -0.62474161729E+03  0.84825230454E+03  0.89662575957E+02 0.  0.
          1    1    3    3  502    0  0.45266514527E+02  0.41617740384E+02 -0.51786814321E+02  0.80392585414E+02  0.00000000000E+00 0. -1.
         -1    1    3    3    0  502  0.24997184150E+03  0.59824629350E+03 -0.43977944584E+03  0.78344783503E+03  0.00000000000E+00 0.  1.
         13    1    5    5    0    0 -0.56598606542E+02  0.17771778479E+02 -0.18950939783E+02  0.62276612717E+02  0.00000000000E+00 0. -1.
        -13    1    5    5    0    0 -0.19326601528E+03 -0.92718357777E+02  0.42506606887E+01  0.21439802855E+03  0.00000000000E+00 0.  1.
          5    1    6    6  503    0 -0.59597571424E+02 -0.54263097261E+03 -0.60521183963E+03  0.81504828310E+03  0.47000000000E+01 0. -1.
         -5    1    6    6    0  503  0.14223837221E+02 -0.22286481972E+02 -0.19529777657E+02  0.33204021433E+02  0.47000000000E+01 0.  1.
<mgrwt>
<rscale>  0 0.77815388E+03</rscale>
<asrwt>0</asrwt>
<pdfrwt beam="1">  1        1 0.23998273E+00 0.77815388E+03</pdfrwt>
<pdfrwt beam="2">  1       -1 0.65981477E-01 0.77815388E+03</pdfrwt>
<totfact> 0.14304341E+01</totfact>
</mgrwt>
</event>
<event>
12    1  0.3166324E-008  0.7222661E+03  0.7818608E-02  0.9679894E-01
         -2   -1    0    0    0  501 -0.00000000000E+00  0.00000000000E+00  0.64009543313E+03  0.64009543313E+03  0.00000000000E+00 0. -1.
          2   -1    0    0  501    0  0.00000000000E+00 -0.00000000000E+00 -0.21255216963E+04  0.21255216963E+04  0.00000000000E+00 0.  1.
         23    2    1    2    0    0  0.56832711059E+03  0.25506982662E+03  0.36122576873E+03  0.72637012410E+03  0.95253241966E+02 0.  0.
    5000000    2    1    2    0    0 -0.56832711059E+03 -0.25506982662E+03 -0.18466520319E+04  0.20392470054E+04  0.60029018049E+03 0.  0.
         23    2    4    4    0    0 -0.63305426944E+03 -0.31907265390E+03 -0.16957962613E+04  0.18402440968E+04  0.90599721338E+02 0.  0.
         23    2    4    4    0    0  0.64727158852E+02  0.64002827285E+02 -0.15085577068E+03  0.19900290859E+03  0.92513388699E+02 0.  0.
          3    1    3    3  502    0  0.34975061555E+03  0.19086463500E+03  0.19022443873E+03  0.44152025895E+03  0.00000000000E+00 0. -1.
         -3    1    3    3    0  502  0.21857649504E+03  0.64205191619E+02  0.17100133000E+03  0.28484986515E+03  0.00000000000E+00 0.  1.
         13    1    5    5    0    0 -0.17434593938E+03 -0.11374626220E+03 -0.58856983994E+03  0.62429894700E+03  0.00000000000E+00 0. -1.
        -13    1    5    5    0    0 -0.45870833006E+03 -0.20532639171E+03 -0.11072264213E+04  0.12159451498E+04  0.00000000000E+00 0.  1.
          5    1    6    6  503    0  0.64596914409E+02  0.26877765857E+02 -0.37271727823E+02  0.79413143393E+02  0.47000000000E+01 0. -1.
         -5    1    6    6    0  503  0.13024444247E+00  0.37125061428E+02 -0.11358404285E+03  0.11958976520E+03  0.47000000000E+01 0.  1.
<mgrwt>
<rscale>  0 0.72226610E+03</rscale>
<asrwt>0</asrwt>
<pdfrwt beam="1">  1        2 0.32700334E+00 0.72226610E+03</pdfrwt>
<pdfrwt beam="2">  1       -2 0.98476221E-01 0.72226610E+03</pdfrwt>
<totfact> 0.50852725E+00</totfact>
</mgrwt>
</event>
<event>
12    1  0.3166324E-008  0.6795324E+03  0.7818608E-02  0.9752889E-01
         -2   -1    0    0    0  501 -0.00000000000E+00  0.00000000000E+00  0.24862306710E+03  0.24862306710E+03  0.00000000000E+00 0. -1.
          2   -1    0    0  501    0  0.00000000000E+00 -0.00000000000E+00 -0.31516905960E+04  0.31516905960E+04  0.00000000000E+00 0.  1.
         23    2    1    2    0    0  0.28361864158E+03  0.59672988205E+03 -0.49045990957E+03  0.82789526686E+03  0.91288356384E+02 0.  0.
    5000000    2    1    2    0    0 -0.28361864158E+03 -0.59672988205E+03 -0.24126076193E+04  0.25724183963E+04  0.60011231823E+03 0.  0.
         23    2    4    4    0    0 -0.10474632720E+03 -0.41674857343E+03 -0.21584810877E+04  0.22026284670E+04  0.88771567552E+02 0.  0.
         23    2    4    4    0    0 -0.17887231437E+03 -0.17998130863E+03 -0.25412653161E+03  0.36978992921E+03  0.88180050891E+02 0.  0.
          2    1    3    3  502    0  0.16162499678E+03  0.31172969909E+03 -0.20572189186E+03  0.40696380879E+03  0.00000000000E+00 0. -1.
         -2    1    3    3    0  502  0.12199364479E+03  0.28500018297E+03 -0.28473801771E+03  0.42093145807E+03  0.00000000000E+00 0.  1.
         11    1    5    5    0    0 -0.58573554178E+01 -0.12786641234E+03 -0.80666847640E+03  0.81676077210E+03  0.00000000000E+00 0. -1.
        -11    1    5    5    0    0 -0.98888971786E+02 -0.28888216109E+03 -0.13518126113E+04  0.13858676949E+04  0.00000000000E+00 0.  1.
          5    1    6    6  503    0 -0.67669878510E+02 -0.12073833147E+03 -0.10085396825E+03  0.17132008071E+03  0.47000000000E+01 0.  1.
         -5    1    6    6    0  503 -0.11120243586E+03 -0.59242977154E+02 -0.15327256336E+03  0.19846984850E+03  0.47000000000E+01 0. -1.
<mgrwt>
<rscale>  0 0.67953243E+03</rscale>
<asrwt>0</asrwt>
<pdfrwt beam="1">  1        2 0.48487551E+00 0.67953243E+03</pdfrwt>
<pdfrwt beam="2">  1       -2 0.38249700E-01 0.67953243E+03</pdfrwt>
<totfact> 0.97426836E+00</totfact>
</mgrwt>
</event>
<event>
12    1  0.3166324E-008  0.6033624E+03  0.7818608E-02  0.9898455E-01
          2   -1    0    0  501    0  0.00000000000E+00  0.00000000000E+00  0.59021250531E+03  0.59021250531E+03  0.00000000000E+00 0.  1.
         -2   -1    0    0    0  501 -0.00000000000E+00 -0.00000000000E+00 -0.12660748635E+04  0.12660748635E+04  0.00000000000E+00 0. -1.
         23    2    1    2    0    0 -0.36873454205E+03  0.41979422140E+03 -0.84683668140E+03  0.10185971529E+04  0.90639086846E+02 0.  0.
    5000000    2    1    2    0    0  0.36873454205E+03 -0.41979422140E+03  0.17097432323E+03  0.83769021590E+03  0.60025022098E+03 0.  0.
         23    2    4    4    0    0  0.20430495955E+03 -0.29491029980E+02  0.30886248301E+03  0.38290513103E+03  0.92790455397E+02 0.  0.
         23    2    4    4    0    0  0.16442958250E+03 -0.39030319142E+03 -0.13788815978E+03  0.45478508487E+03  0.91883948418E+02 0.  0.
          1    1    3    3  502    0 -0.19279924244E+03  0.20786359275E+03 -0.50974490779E+03  0.58328268626E+03  0.00000000000E+00 0. -1.
         -1    1    3    3    0  502 -0.17593529961E+03  0.21193062865E+03 -0.33709177361E+03  0.43531446661E+03  0.00000000000E+00 0.  1.
         13    1    5    5    0    0  0.72056303917E+01  0.17545207271E+02  0.54438568332E+02  0.57648184096E+02  0.00000000000E+00 0. -1.
        -13    1    5    5    0    0  0.19709932916E+03 -0.47036237251E+02  0.25442391468E+03  0.32525694694E+03  0.00000000000E+00 0.  1.
          5    1    6    6  503    0  0.53936991711E+02 -0.78704968070E+02 -0.66854550031E+02  0.11659885048E+03  0.47000000000E+01 0. -1.
         -5    1    6    6    0  503  0.11049259078E+03 -0.31159822335E+03 -0.71033609748E+02  0.33818623439E+03  0.47000000000E+01 0.  1.
<mgrwt>
<rscale>  0 0.60336243E+03</rscale>
<asrwt>0</asrwt>
<pdfrwt beam="1">  1        2 0.90801925E-01 0.60336243E+03</pdfrwt>
<pdfrwt beam="2">  1       -2 0.19478075E+00 0.60336243E+03</pdfrwt>
<totfact> 0.75678232E+00</totfact>
</mgrwt>
</event>
<event>
12    1  0.3166324E-008  0.5965886E+03  0.7818608E-02  0.9912509E-01
         -1   -1    0    0    0  501 -0.00000000000E+00  0.00000000000E+00  0.55275846581E+03  0.55275846581E+03  0.00000000000E+00 0.  1.
          1   -1    0    0  501    0  0.00000000000E+00 -0.00000000000E+00 -0.15895130180E+04  0.15895130180E+04  0.00000000000E+00 0. -1.
         23    2    1    2    0    0 -0.79138244472E+02 -0.46433173512E+03 -0.12597624561E+04  0.13475356908E+04  0.83571348959E+02 0.  0.
    5000000    2    1    2    0    0  0.79138244472E+02  0.46433173512E+03  0.22300790388E+03  0.79473579297E+03  0.60000469453E+03 0.  0.
         23    2    4    4    0    0  0.23013008746E+03 -0.30194884975E+01 -0.48964808718E+01  0.24569026874E+03  0.85853119703E+02 0.  0.
         23    2    4    4    0    0 -0.15099184299E+03  0.46735122361E+03  0.22790438475E+03  0.54904552424E+03  0.91076211118E+02 0.  0.
          3    1    3    3  502    0 -0.34100379093E+02 -0.17356147033E+03 -0.59111841362E+03  0.61701490967E+03  0.00000000000E+00 0. -1.
         -3    1    3    3    0  502 -0.45037865379E+02 -0.29077026478E+03 -0.66864404245E+03  0.73052078116E+03  0.00000000000E+00 0.  1.
         13    1    5    5    0    0  0.18292634165E+03 -0.51118594841E+01  0.31957335003E+02  0.18576718988E+03  0.00000000000E+00 0. -1.
        -13    1    5    5    0    0  0.47203745809E+02  0.20923709867E+01 -0.36853815875E+02  0.59923078854E+02  0.00000000000E+00 0.  1.
          5    1    6    6  503    0 -0.14613569218E+03  0.44089435777E+03  0.23537322753E+03  0.52073613421E+03  0.47000000000E+01 0. -1.
         -5    1    6    6    0  503 -0.48561508102E+01  0.26456865846E+02 -0.74688427724E+01  0.28309390022E+02  0.47000000000E+01 0.  1.
<mgrwt>
<rscale>  0 0.59658860E+03</rscale>
<asrwt>0</asrwt>
<pdfrwt beam="1">  1        1 0.24454046E+00 0.59658860E+03</pdfrwt>
<pdfrwt beam="2">  1       -1 0.85039764E-01 0.59658860E+03</pdfrwt>
<totfact> 0.82970352E+00</totfact>
</mgrwt>
</event>
<event>
12    1  0.3166324E-008  0.9069099E+03  0.7818608E-02  0.9416985E-01
          2   -1    0    0  501    0  0.00000000000E+00  0.00000000000E+00  0.37606218736E+04  0.37606218736E+04  0.00000000000E+00 0. -1.
         -2   -1    0    0    0  501 -0.00000000000E+00 -0.00000000000E+00 -0.26237062323E+03  0.26237062323E+03  0.00000000000E+00 0.  1.
         23    2    1    2    0    0  0.77410907707E+03  0.43594418656E+03  0.18913916683E+04  0.20913669804E+04  0.84623914228E+02 0.  0.
    5000000    2    1    2    0    0 -0.77410907707E+03 -0.43594418656E+03  0.16068595821E+04  0.19316255165E+04  0.59990601110E+03 0.  0.
         23    2    4    4    0    0 -0.12401495948E+03 -0.25374499516E+02  0.79367934816E+03  0.80881453704E+03  0.90721950098E+02 0.  0.
         23    2    4    4    0    0 -0.65009411759E+03 -0.41056968705E+03  0.81318023397E+03  0.11228109794E+04  0.90843673115E+02 0.  0.
          1    1    3    3  502    0  0.40606323272E+03  0.24466932579E+03  0.11016697609E+04  0.11993442750E+04  0.00000000000E+00 0. -1.
         -1    1    3    3    0  502  0.36804584435E+03  0.19127486077E+03  0.78972190736E+03  0.89202270536E+03  0.00000000000E+00 0.  1.
         13    1    5    5    0    0 -0.80917411959E+02  0.28123837291E+02  0.38642651346E+03  0.39580806976E+03  0.00000000000E+00 0. -1.
        -13    1    5    5    0    0 -0.43097547525E+02 -0.53498336807E+02  0.40725283470E+03  0.41300646728E+03  0.00000000000E+00 0.  1.
          5    1    6    6  503    0 -0.38765716662E+03 -0.21538118605E+03  0.52119263380E+03  0.68434712366E+03  0.47000000000E+01 0. -1.
         -5    1    6    6    0  503 -0.26243695097E+03 -0.19518850100E+03  0.29198760018E+03  0.43846385577E+03  0.47000000000E+01 0.  1.
<mgrwt>
<rscale>  0 0.90690985E+03</rscale>
<asrwt>0</asrwt>
<pdfrwt beam="1">  1        2 0.57855717E+00 0.90690985E+03</pdfrwt>
<pdfrwt beam="2">  1       -2 0.40364714E-01 0.90690985E+03</pdfrwt>
<totfact> 0.32471390E+00</totfact>
</mgrwt>
</event>
<event>
12    1  0.3166324E-008  0.1292344E+04  0.7818608E-02  0.9035658E-01
          2   -1    0    0  501    0  0.00000000000E+00  0.00000000000E+00  0.45660242275E+04  0.45660242275E+04  0.00000000000E+00 0. -1.
         -2   -1    0    0    0  501 -0.00000000000E+00 -0.00000000000E+00 -0.39823897891E+03  0.39823897891E+03  0.00000000000E+00 0.  1.
         23    2    1    2    0    0  0.12005725369E+04 -0.44200452273E+03  0.20626593394E+04  0.24288926663E+04  0.90629021232E+02 0.  0.
    5000000    2    1    2    0    0 -0.12005725369E+04  0.44200452273E+03  0.21051259091E+04  0.25353705401E+04  0.59983853468E+03 0.  0.
         23    2    4    4    0    0 -0.12865345044E+03 -0.73405893538E+01  0.66108073255E+03  0.67963765772E+03  0.90961619843E+02 0.  0.
         23    2    4    4    0    0 -0.10719190864E+04  0.44934511209E+03  0.14440451766E+04  0.18557328823E+04  0.86928136737E+02 0.  0.
          4    1    3    3  502    0  0.40021530504E+03 -0.19160059976E+03  0.69200320676E+03  0.82204106855E+03  0.00000000000E+00 0.  1.
         -4    1    3    3    0  502  0.80035723184E+03 -0.25040392298E+03  0.13706561326E+04  0.16068515977E+04  0.00000000000E+00 0. -1.
         13    1    5    5    0    0 -0.42593847348E+02  0.21126030532E+02  0.40900827910E+03  0.41176245260E+03  0.00000000000E+00 0.  1.
        -13    1    5    5    0    0 -0.86059603092E+02 -0.28466619886E+02  0.25207245345E+03  0.26787520513E+03  0.00000000000E+00 0. -1.
          5    1    6    6  503    0 -0.70027974130E+03  0.25957479860E+03  0.96904552233E+03  0.12234549875E+04  0.47000000000E+01 0. -1.
         -5    1    6    6    0  503 -0.37163934514E+03  0.18977031348E+03  0.47499965426E+03  0.63227789483E+03  0.47000000000E+01 0.  1.
<mgrwt>
<rscale>  0 0.12923445E+04</rscale>
<asrwt>0</asrwt>
<pdfrwt beam="1">  1        2 0.70246523E+00 0.12923445E+04</pdfrwt>
<pdfrwt beam="2">  1       -2 0.61267538E-01 0.12923445E+04</pdfrwt>
<totfact> 0.26801759E-01</totfact>
</mgrwt>
</event>
<event>
12    1  0.3166324E-008  0.7732885E+03  0.7818608E-02  0.9599507E-01
         -1   -1    0    0    0  501 -0.00000000000E+00  0.00000000000E+00  0.62089536942E+03  0.62089536942E+03  0.00000000000E+00 0.  1.
          1   -1    0    0  501    0  0.00000000000E+00 -0.00000000000E+00 -0.12907659532E+04  0.12907659532E+04  0.00000000000E+00 0. -1.
         23    2    1    2    0    0  0.27943766616E+03  0.62220359508E+03  0.12978158227E+03  0.70122698908E+03  0.98251249975E+02 0.  0.
    5000000    2    1    2    0    0 -0.27943766616E+03 -0.62220359508E+03 -0.79965216604E+03  0.12104343335E+04  0.60040400242E+03 0.  0.
         23    2    4    4    0    0 -0.42089910582E+03 -0.44490269605E+03 -0.72711774098E+03  0.95520975769E+03  0.92903206089E+02 0.  0.
         23    2    4    4    0    0  0.14146143966E+03 -0.17730089903E+03 -0.72534425057E+02  0.25522457583E+03  0.91822620226E+02 0.  0.
          4    1    3    3  502    0  0.11952243315E+03  0.19091421417E+03  0.77882057869E+02  0.23832638154E+03  0.00000000000E+00 0. -1.
         -4    1    3    3    0  502  0.15991523302E+03  0.43128938090E+03  0.51899524400E+02  0.46290060754E+03  0.00000000000E+00 0.  1.
         11    1    5    5    0    0 -0.40465708157E+03 -0.44684975464E+03 -0.70323872882E+03  0.92626495486E+03  0.00000000000E+00 0.  1.
        -11    1    5    5    0    0 -0.16242024251E+02  0.19470585967E+01 -0.23879012156E+02  0.28944802824E+02  0.00000000000E+00 0. -1.
          5    1    6    6  503    0  0.70379088663E+01  0.90090128257E+01  0.40530562955E+01  0.13008141245E+02  0.47000000000E+01 0. -1.
         -5    1    6    6    0  503  0.13442353079E+03 -0.18630991185E+03 -0.76587481352E+02  0.24221643459E+03  0.47000000000E+01 0.  1.
<mgrwt>
<rscale>  0 0.77328849E+03</rscale>
<asrwt>0</asrwt>
<pdfrwt beam="1">  1        1 0.19857937E+00 0.77328849E+03</pdfrwt>
<pdfrwt beam="2">  1       -1 0.95522366E-01 0.77328849E+03</pdfrwt>
<totfact> 0.10027058E+01</totfact>
</mgrwt>
</event>
<event>
12    1  0.3166324E-008  0.5432455E+03  0.7818608E-02  0.1003070E+00
          2   -1    0    0  501    0  0.00000000000E+00  0.00000000000E+00  0.26750495236E+04  0.26750495236E+04  0.00000000000E+00 0. -1.
         -2   -1    0    0    0  501 -0.00000000000E+00 -0.00000000000E+00 -0.22264882506E+03  0.22264882506E+03  0.00000000000E+00 0.  1.
         23    2    1    2    0    0 -0.36868667574E+03 -0.24764033742E+03  0.19398934993E+04  0.19921545770E+04  0.90760500824E+02 0.  0.
    5000000    2    1    2    0    0  0.36868667574E+03  0.24764033742E+03  0.51250719925E+03  0.90554377166E+03  0.60007523822E+03 0.  0.
         23    2    4    4    0    0  0.38805550754E+03  0.16063421688E+02  0.81038622428E+02  0.40705166387E+03  0.90987297391E+02 0.  0.
         23    2    4    4    0    0 -0.19368831807E+02  0.23157691573E+03  0.43146857682E+03  0.49849210779E+03  0.91248173667E+02 0.  0.
          3    1    3    3  502    0 -0.18347639015E+03 -0.12087419711E+03  0.11592753952E+04  0.11799125388E+04  0.00000000000E+00 0. -1.
         -3    1    3    3    0  502 -0.18521028559E+03 -0.12676614031E+03  0.78061810410E+03  0.81224203823E+03  0.00000000000E+00 0.  1.
         13    1    5    5    0    0  0.28337926968E+03  0.39708820450E+02  0.28489438997E+02  0.28756260021E+03  0.00000000000E+00 0.  1.
        -13    1    5    5    0    0  0.10467623787E+03 -0.23645398762E+02  0.52549183431E+02  0.11948906367E+03  0.00000000000E+00 0. -1.
          5    1    6    6  503    0 -0.54951000813E+02  0.13376525602E+03  0.23118685062E+03  0.27273101421E+03  0.47000000000E+01 0. -1.
         -5    1    6    6    0  503  0.35582169006E+02  0.97811659709E+02  0.20028172619E+03  0.22576109358E+03  0.47000000000E+01 0.  1.
<mgrwt>
<rscale>  0 0.54324555E+03</rscale>
<asrwt>0</asrwt>
<pdfrwt beam="1">  1        2 0.41154606E+00 0.54324555E+03</pdfrwt>
<pdfrwt beam="2">  1       -2 0.34253667E-01 0.54324555E+03</pdfrwt>
<totfact> 0.23900473E+01</totfact>
</mgrwt>
</event>
<event>
12    1  0.3166324E-008  0.5482983E+03  0.7818608E-02  0.1001889E+00
         -2   -1    0    0    0  501 -0.00000000000E+00  0.00000000000E+00  0.18716841432E+03  0.18716841432E+03  0.00000000000E+00 0.  1.
          2   -1    0    0  501    0  0.00000000000E+00 -0.00000000000E+00 -0.17431087346E+04  0.17431087346E+04  0.00000000000E+00 0. -1.
         23    2    1    2    0    0  0.13584678397E+03  0.38438182936E+03 -0.54978929509E+03  0.68988896789E+03  0.86456807498E+02 0.  0.
    5000000    2    1    2    0    0 -0.13584678397E+03 -0.38438182936E+03 -0.10061510252E+04  0.12403881810E+04  0.60001601202E+03 0.  0.
         23    2    4    4    0    0 -0.81775531762E+02  0.13917210501E+03 -0.33219514948E+03  0.38039364687E+03  0.91047223082E+02 0.  0.
         23    2    4    4    0    0 -0.54071252210E+02 -0.52355393436E+03 -0.67395587571E+03  0.85999453416E+03  0.91332655065E+02 0.  0.
          1    1    3    3  502    0  0.75278119843E+02  0.18126504103E+03 -0.33409709087E+03  0.38748506623E+03  0.00000000000E+00 0. -1.
         -1    1    3    3    0  502  0.60568664130E+02  0.20311678833E+03 -0.21569220422E+03  0.30240390166E+03  0.00000000000E+00 0.  1.
         11    1    5    5    0    0 -0.11600853906E+02  0.14001688946E+02  0.37296641204E+00  0.18186979096E+02  0.00000000000E+00 0.  1.
        -11    1    5    5    0    0 -0.70174677856E+02  0.12517041606E+03 -0.33256811589E+03  0.36220666777E+03  0.00000000000E+00 0. -1.
          5    1    6    6  503    0 -0.22085668532E+02 -0.29382120853E+03 -0.44736708327E+03  0.53570334750E+03  0.47000000000E+01 0. -1.
         -5    1    6    6    0  503 -0.31985583678E+02 -0.22973272584E+03 -0.22658879244E+03  0.32429118665E+03  0.47000000000E+01 0.  1.
<mgrwt>
<rscale>  0 0.54829830E+03</rscale>
<asrwt>0</asrwt>
<pdfrwt beam="1">  1        2 0.26817059E+00 0.54829830E+03</pdfrwt>
<pdfrwt beam="2">  1       -2 0.28795139E-01 0.54829830E+03</pdfrwt>
<totfact> 0.10728149E+02</totfact>
</mgrwt>
</event>
<event>
12    1  0.3166324E-008  0.9361773E+03  0.7818608E-02  0.9381455E-01
         -1   -1    0    0    0  501 -0.00000000000E+00  0.00000000000E+00  0.26449533456E+03  0.26449533456E+03  0.00000000000E+00 0.  1.
          1   -1    0    0  501    0  0.00000000000E+00 -0.00000000000E+00 -0.40163050898E+04  0.40163050898E+04  0.00000000000E+00 0. -1.
         23    2    1    2    0    0 -0.83662230777E+03 -0.41137512767E+03 -0.14560473447E+04  0.17313485585E+04  0.91255572054E+02 0.  0.
    5000000    2    1    2    0    0  0.83662230777E+03  0.41137512767E+03 -0.22957624105E+04  0.25494518659E+04  0.60001115763E+03 0.  0.
         23    2    4    4    0    0  0.49914314507E+03  0.30007526971E+03 -0.19815940530E+04  0.20674302524E+04  0.91453872841E+02 0.  0.
         23    2    4    4    0    0  0.33747916269E+03  0.11129985795E+03 -0.31416835750E+03  0.48202161345E+03  0.85809296383E+02 0.  0.
          1    1    3    3  502    0 -0.48023651663E+03 -0.25427802096E+03 -0.92470993410E+03  0.10725543744E+04  0.00000000000E+00 0. -1.
         -1    1    3    3    0  502 -0.35638579114E+03 -0.15709710671E+03 -0.53133741062E+03  0.65879418409E+03  0.00000000000E+00 0.  1.
         11    1    5    5    0    0  0.23005446435E+03  0.16140325444E+03 -0.81026854895E+03  0.85761948936E+03  0.00000000000E+00 0.  1.
        -11    1    5    5    0    0  0.26908868073E+03  0.13867201527E+03 -0.11713255041E+04  0.12098107631E+04  0.00000000000E+00 0. -1.
          5    1    6    6  503    0  0.10504599111E+03  0.28455385410E+02 -0.15087465347E+03  0.18609035511E+03  0.47000000000E+01 0. -1.
         -5    1    6    6    0  503  0.23243317159E+03  0.82844472544E+02 -0.16329370403E+03  0.29593125834E+03  0.47000000000E+01 0.  1.
<mgrwt>
<rscale>  0 0.93617727E+03</rscale>
<asrwt>0</asrwt>
<pdfrwt beam="1">  1        1 0.61789305E+00 0.93617727E+03</pdfrwt>
<pdfrwt beam="2">  1       -1 0.40691593E-01 0.93617727E+03</pdfrwt>
<totfact> 0.58432769E-01</totfact>
</mgrwt>
</event>
<event>
12    1  0.3166324E-008  0.6285142E+03  0.7818608E-02  0.9847953E-01
          3   -1    0    0  501    0  0.00000000000E+00  0.00000000000E+00  0.26467467228E+03  0.26467467228E+03  0.00000000000E+00 0. -1.
         -3   -1    0    0    0  501 -0.00000000000E+00 -0.00000000000E+00 -0.20923374799E+04  0.20923374799E+04  0.00000000000E+00 0.  1.
         23    2    1    2    0    0 -0.57105502465E+03 -0.17918791428E+03 -0.50981024130E+03  0.79027939774E+03  0.80142963277E+02 0.  0.
    5000000    2    1    2    0    0  0.57105502465E+03  0.17918791428E+03 -0.13178525663E+04  0.15667327545E+04  0.59975327219E+03 0.  0.
         23    2    4    4    0    0  0.41507043848E+03  0.27229811340E+02 -0.29878117188E+03  0.52067885288E+03  0.93868778842E+02 0.  0.
         23    2    4    4    0    0  0.15598458617E+03  0.15195810294E+03 -0.10190713945E+04  0.10460539016E+04  0.91103248236E+02 0.  0.
          4    1    3    3  502    0 -0.96803966263E+02 -0.11688401806E+01 -0.93611168364E+02  0.13466783177E+03  0.00000000000E+00 0. -1.
         -4    1    3    3    0  502 -0.47425105838E+03 -0.17801907410E+03 -0.41619907294E+03  0.65561156597E+03  0.00000000000E+00 0.  1.
         11    1    5    5    0    0  0.14230505191E+03  0.53573795676E+02 -0.11654038336E+03  0.19157907071E+03  0.00000000000E+00 0.  1.
        -11    1    5    5    0    0  0.27276538657E+03 -0.26343984335E+02 -0.18224078852E+03  0.32909978217E+03  0.00000000000E+00 0. -1.
          5    1    6    6  503    0  0.32053719213E+02  0.74770439314E+02 -0.24142168076E+03  0.25480301696E+03  0.47000000000E+01 0. -1.
         -5    1    6    6    0  503  0.12393086695E+03  0.77187663624E+02 -0.77764971369E+03  0.79125088461E+03  0.47000000000E+01 0.  1.
<mgrwt>
<rscale>  0 0.62851420E+03</rscale>
<asrwt>0</asrwt>
<pdfrwt beam="1">  1        3 0.40719178E-01 0.62851420E+03</pdfrwt>
<pdfrwt beam="2">  1       -3 0.32189809E+00 0.62851420E+03</pdfrwt>
<totfact> 0.46561892E-01</totfact>
</mgrwt>
</event>
<event>
12    1  0.3166324E-008  0.9011459E+03  0.7818608E-02  0.9424150E-01
          2   -1    0    0  501    0  0.00000000000E+00  0.00000000000E+00  0.18183941805E+04  0.18183941805E+04  0.00000000000E+00 0. -1.
         -2   -1    0    0    0  501 -0.00000000000E+00 -0.00000000000E+00 -0.53928113293E+03  0.53928113293E+03  0.00000000000E+00 0.  1.
         23    2    1    2    0    0 -0.57862237317E+03  0.60827885042E+03  0.20664734886E+03  0.86949908047E+03  0.92295793766E+02 0.  0.
    5000000    2    1    2    0    0  0.57862237317E+03 -0.60827885042E+03  0.10724656987E+04  0.14881762330E+04  0.59973228598E+03 0.  0.
         23    2    4    4    0    0 -0.10741159777E+02 -0.27572775387E+03  0.57413464481E+03  0.64291460895E+03  0.86991018224E+02 0.  0.
         23    2    4    4    0    0  0.58936353295E+03 -0.33255109654E+03  0.49833105391E+03  0.84526162403E+03  0.90519434237E+02 0.  0.
          3    1    3    3  502    0 -0.57943285764E+03  0.59367901865E+03  0.20643250529E+03  0.85487519143E+03  0.00000000000E+00 0. -1.
         -3    1    3    3    0  502  0.81048446309E+00  0.14599831771E+02  0.21484357203E+00  0.14623889037E+02  0.00000000000E+00 0.  1.
         13    1    5    5    0    0  0.16351906798E+02 -0.63971201763E+02  0.21714836856E+03  0.22696500496E+03  0.00000000000E+00 0.  1.
        -13    1    5    5    0    0 -0.27093066575E+02 -0.21175655211E+03  0.35698627626E+03  0.41594960398E+03  0.00000000000E+00 0. -1.
          5    1    6    6  503    0  0.32716583715E+03 -0.15628198388E+03  0.21961974622E+03  0.42392978948E+03  0.47000000000E+01 0. -1.
         -5    1    6    6    0  503  0.26219769581E+03 -0.17626911267E+03  0.27871130769E+03  0.42133183455E+03  0.47000000000E+01 0.  1.
<mgrwt>
<rscale>  0 0.90114590E+03</rscale>
<asrwt>0</asrwt>
<pdfrwt beam="1">  1        2 0.27975295E+00 0.90114590E+03</pdfrwt>
<pdfrwt beam="2">  1       -2 0.82966329E-01 0.90114590E+03</pdfrwt>
<totfact> 0.10846870E+01</totfact>
</mgrwt>
</event>
<event>
12    1  0.3166324E-008  0.1093598E+04  0.7818608E-02  0.9211455E-01
         -1   -1    0    0    0  501 -0.00000000000E+00  0.00000000000E+00  0.21797749629E+04  0.21797749629E+04  0.00000000000E+00 0.  1.
          1   -1    0    0  501    0  0.00000000000E+00 -0.00000000000E+00 -0.63494817463E+03  0.63494817463E+03  0.00000000000E+00 0. -1.
         23    2    1    2    0    0 -0.50685419301E+03  0.87918632624E+03  0.22172354818E+03  0.10425951239E+04  0.89294408782E+02 0.  0.
    5000000    2    1    2    0    0  0.50685419301E+03 -0.87918632624E+03  0.13231032401E+04  0.17721280136E+04  0.59997145216E+03 0.  0.
         23    2    4    4    0    0  0.56454163265E+03 -0.44409575023E+03  0.90521376145E+03  0.11591820693E+04  0.91448485175E+02 0.  0.
         23    2    4    4    0    0 -0.57687439640E+02 -0.43509057601E+03  0.41788947869E+03  0.61294594436E+03  0.91866556900E+02 0.  0.
          4    1    3    3  502    0 -0.42739790701E+03  0.78577811690E+03  0.21391823275E+03  0.91971584210E+03  0.00000000000E+00 0. -1.
         -4    1    3    3    0  502 -0.79456285998E+02  0.93408209339E+02  0.78053154300E+01  0.12287928184E+03  0.00000000000E+00 0.  1.
         13    1    5    5    0    0  0.12261030641E+03 -0.13500807118E+03  0.18913221824E+03  0.26273839175E+03  0.00000000000E+00 0. -1.
        -13    1    5    5    0    0  0.44193132624E+03 -0.30908767905E+03  0.71608154320E+03  0.89644367752E+03  0.00000000000E+00 0.  1.
          5    1    6    6  503    0 -0.80669140381E+02 -0.27577852357E+03  0.26940264857E+03  0.39390504100E+03  0.47000000000E+01 0. -1.
         -5    1    6    6    0  503  0.22981700741E+02 -0.15931205244E+03  0.14848683013E+03  0.21904090336E+03  0.47000000000E+01 0.  1.
<mgrwt>
<rscale>  0 0.10935976E+04</rscale>
<asrwt>0</asrwt>
<pdfrwt beam="1">  1        1 0.97684336E-01 0.10935976E+04</pdfrwt>
<pdfrwt beam="2">  1       -1 0.33534999E+00 0.10935976E+04</pdfrwt>
<totfact> 0.61538990E-01</totfact>
</mgrwt>
</event>
<event>
12    1  0.3166324E-008  0.4618773E+03  0.7818608E-02  0.1024238E+00
          1   -1    0    0  501    0  0.00000000000E+00  0.00000000000E+00  0.31627861250E+04  0.31627861250E+04  0.00000000000E+00 0. -1.
         -1   -1    0    0    0  501 -0.00000000000E+00 -0.00000000000E+00 -0.14822329875E+03  0.14822329875E+03  0.00000000000E+00 0.  1.
         23    2    1    2    0    0  0.36355556139E+01  0.45002305073E+03  0.19871120211E+04  0.20389883442E+04  0.79531878222E+02 0.  0.
    5000000    2    1    2    0    0 -0.36355556139E+01 -0.45002305073E+03  0.10274508051E+04  0.12720210796E+04  0.59987374216E+03 0.  0.
         23    2    4    4    0    0  0.26272355012E+02 -0.22764807185E+03  0.34053595628E+02  0.24957329024E+03  0.92807858354E+02 0.  0.
         23    2    4    4    0    0 -0.29907910625E+02 -0.22237497888E+03  0.99339720950E+03  0.10224477894E+04  0.90644093958E+02 0.  0.
          3    1    3    3  502    0  0.17526559744E+02  0.34056841525E+03  0.13507888370E+04  0.13931706672E+04  0.00000000000E+00 0. -1.
         -3    1    3    3    0  502 -0.13891004130E+02  0.10945463547E+03  0.63632318411E+03  0.64581767695E+03  0.00000000000E+00 0.  1.
         13    1    5    5    0    0 -0.19057229569E+02 -0.13217723794E+03  0.50187645086E+02  0.14266323965E+03  0.00000000000E+00 0.  1.
        -13    1    5    5    0    0  0.45329584580E+02 -0.95470833912E+02 -0.16134049458E+02  0.10691005059E+03  0.00000000000E+00 0. -1.
          5    1    6    6  503    0 -0.48543660641E+02 -0.18256081755E+03  0.89258156908E+03  0.91236444832E+03  0.47000000000E+01 0. -1.
         -5    1    6    6    0  503  0.18635750015E+02 -0.39814161332E+02  0.10081564042E+03  0.11008334104E+03  0.47000000000E+01 0.  1.
<mgrwt>
<rscale>  0 0.46187731E+03</rscale>
<asrwt>0</asrwt>
<pdfrwt beam="1">  1        1 0.48658243E+00 0.46187731E+03</pdfrwt>
<pdfrwt beam="2">  1       -1 0.22803587E-01 0.46187731E+03</pdfrwt>
<totfact> 0.84531258E+00</totfact>
</mgrwt>
</event>
<event>
12    1  0.3166324E-008  0.9160131E+03  0.7818608E-02  0.9405783E-01
          1   -1    0    0  501    0  0.00000000000E+00  0.00000000000E+00  0.20164348000E+04  0.20164348000E+04  0.00000000000E+00 0. -1.
         -1   -1    0    0    0  501 -0.00000000000E+00 -0.00000000000E+00 -0.43025506410E+03  0.43025506410E+03  0.00000000000E+00 0.  1.
         23    2    1    2    0    0 -0.81135647477E+03  0.18288207708E+03  0.74520091452E+03  0.11204280557E+04  0.91046371623E+02 0.  0.
    5000000    2    1    2    0    0  0.81135647477E+03 -0.18288207708E+03  0.84097882134E+03  0.13262618083E+04  0.59998318565E+03 0.  0.
         23    2    4    4    0    0 -0.11646699208E+02  0.92882777062E+02  0.28299071191E+02  0.13354135326E+03  0.90937339543E+02 0.  0.
         23    2    4    4    0    0  0.82300317398E+03 -0.27576485414E+03  0.81267975015E+03  0.11927204551E+04  0.93558690208E+02 0.  0.
          2    1    3    3  502    0 -0.38335880049E+03  0.12692833377E+03  0.33005796341E+03  0.52154868521E+03  0.00000000000E+00 0. -1.
         -2    1    3    3    0  502 -0.42799767428E+03  0.55953743306E+02  0.41514295111E+03  0.59887937052E+03  0.00000000000E+00 0.  1.
         11    1    5    5    0    0 -0.26274714491E+02  0.10266666638E+03  0.39024295517E+02  0.11293228346E+03  0.00000000000E+00 0. -1.
        -11    1    5    5    0    0  0.14628015282E+02 -0.97838893158E+01 -0.10725224326E+02  0.20609069802E+02  0.00000000000E+00 0.  1.
          5    1    6    6  503    0  0.52363942563E+03 -0.12784835617E+03  0.49837640072E+03  0.73412844724E+03  0.47000000000E+01 0. -1.
         -5    1    6    6    0  503  0.29936374834E+03 -0.14791649797E+03  0.31430334943E+03  0.45859200784E+03  0.47000000000E+01 0.  1.
<mgrwt>
<rscale>  0 0.91601311E+03</rscale>
<asrwt>0</asrwt>
<pdfrwt beam="1">  1        1 0.31022073E+00 0.91601311E+03</pdfrwt>
<pdfrwt beam="2">  1       -1 0.66193088E-01 0.91601311E+03</pdfrwt>
<totfact> 0.68694267E+00</totfact>
</mgrwt>
</event>
<event>
12    1  0.3166324E-008  0.9624136E+03  0.7818608E-02  0.9350758E-01
         -2   -1    0    0    0  501 -0.00000000000E+00  0.00000000000E+00  0.68800758617E+03  0.68800758617E+03  0.00000000000E+00 0. -1.
          2   -1    0    0  501    0  0.00000000000E+00 -0.00000000000E+00 -0.45786168531E+04  0.45786168531E+04  0.00000000000E+00 0.  1.
         23    2    1    2    0    0  0.11347705948E+03 -0.88559524395E+03 -0.40771720986E+04  0.41748526186E+04  0.94372061980E+02 0.  0.
    5000000    2    1    2    0    0 -0.11347705948E+03  0.88559524395E+03  0.18656283167E+03  0.10917718207E+04  0.60000336598E+03 0.  0.
         23    2    4    4    0    0  0.18804697247E+03  0.27844658104E+03 -0.82215667515E+02  0.35741981252E+03  0.89974129846E+02 0.  0.
         23    2    4    4    0    0 -0.30152403195E+03  0.60714866290E+03  0.26877849919E+03  0.73435200819E+03  0.86514447318E+02 0.  0.
          2    1    3    3  502    0 -0.12463294107E+02 -0.21365379500E+03 -0.93983294374E+03  0.96389275335E+03  0.00000000000E+00 0. -1.
         -2    1    3    3    0  502  0.12594035359E+03 -0.67194144895E+03 -0.31373391549E+04  0.32109598653E+04  0.00000000000E+00 0.  1.
         13    1    5    5    0    0  0.10666346100E+02  0.74588677711E+02 -0.35081962139E+02  0.83114293893E+02  0.00000000000E+00 0. -1.
        -13    1    5    5    0    0  0.17738062637E+03  0.20385790333E+03 -0.47133705376E+02  0.27430551862E+03  0.00000000000E+00 0.  1.
          5    1    6    6  503    0 -0.14115121425E+03  0.20807746880E+03  0.73636206274E+02  0.26203869787E+03  0.47000000000E+01 0. -1.
         -5    1    6    6    0  503 -0.16037281770E+03  0.39907119410E+03  0.19514229291E+03  0.47231331031E+03  0.47000000000E+01 0.  1.
<mgrwt>
<rscale>  0 0.96241361E+03</rscale>
<asrwt>0</asrwt>
<pdfrwt beam="1">  1        2 0.70440257E+00 0.96241361E+03</pdfrwt>
<pdfrwt beam="2">  1       -2 0.10584732E+00 0.96241361E+03</pdfrwt>
<totfact> 0.80444926E-02</totfact>
</mgrwt>
</event>
<event>
12    1  0.4162802E-008  0.1298223E+04  0.7818608E-02  0.9030976E-01
          1   -1    0    0  501    0  0.00000000000E+00  0.00000000000E+00  0.25036435694E+04  0.25036435694E+04  0.00000000000E+00 0. -1.
         -1   -1    0    0    0  501 -0.00000000000E+00 -0.00000000000E+00 -0.85248382168E+03  0.85248382168E+03  0.00000000000E+00 0.  1.
         23    2    1    2    0    0  0.85716755470E+03  0.90587373593E+03  0.66498875484E+02  0.12522212638E+04  0.91063444128E+02 0.  0.
    5000000    2    1    2    0    0 -0.85716755470E+03 -0.90587373593E+03  0.15846608722E+04  0.21039061272E+04  0.59993955531E+03 0.  0.
         23    2    4    4    0    0 -0.34764947357E+03 -0.72607667554E+03  0.74240609752E+03  0.10989450664E+04  0.92010598152E+02 0.  0.
         23    2    4    4    0    0 -0.50951808112E+03 -0.17979706039E+03  0.84225477467E+03  0.10049610608E+04  0.92833023819E+02 0.  0.
          2    1    3    3  502    0  0.63480377191E+03  0.63741393202E+03  0.14047306055E+02  0.89970532752E+03  0.00000000000E+00 0. -1.
         -2    1    3    3    0  502  0.22236378279E+03  0.26845980391E+03  0.52451569429E+02  0.35251593630E+03  0.00000000000E+00 0.  1.
         11    1    5    5    0    0 -0.95186708969E+02 -0.27277560029E+03  0.22494224085E+03  0.36615030984E+03  0.00000000000E+00 0.  1.
        -11    1    5    5    0    0 -0.25246276460E+03 -0.45330107525E+03  0.51746385667E+03  0.73279475659E+03  0.00000000000E+00 0. -1.
          5    1    6    6  503    0 -0.25805203481E+03 -0.85688077760E+02  0.33957128367E+03  0.43504487818E+03  0.47000000000E+01 0. -1.
         -5    1    6    6    0  503 -0.25146604631E+03 -0.94108982628E+02  0.50268349101E+03  0.56991618260E+03  0.47000000000E+01 0.  1.
<mgrwt>
<rscale>  0 0.12982226E+04</rscale>
<asrwt>0</asrwt>
<pdfrwt beam="1">  1        1 0.38517593E+00 0.12982226E+04</pdfrwt>
<pdfrwt beam="2">  1       -1 0.13115136E+00 0.12982226E+04</pdfrwt>
<totfact> 0.65133980E-01</totfact>
</mgrwt>
</event>
<event>
12    1  0.3166324E-008  0.5034214E+03  0.7818608E-02  0.1012890E+00
         -3   -1    0    0    0  501 -0.00000000000E+00  0.00000000000E+00  0.40589212268E+03  0.40589212268E+03  0.00000000000E+00 0.  1.
          3   -1    0    0  501    0  0.00000000000E+00 -0.00000000000E+00 -0.92864271532E+03  0.92864271532E+03  0.00000000000E+00 0. -1.
         23    2    1    2    0    0 -0.15741942685E+03 -0.36267251486E+03 -0.45994439331E+03  0.61326539657E+03  0.90737934197E+02 0.  0.
    5000000    2    1    2    0    0  0.15741942685E+03  0.36267251486E+03 -0.62806199335E+02  0.72126944144E+03  0.59997729914E+03 0.  0.
         23    2    4    4    0    0  0.29495460999E+03  0.35922614048E+03 -0.19303292839E+03  0.51100386625E+03  0.88439798260E+02 0.  0.
         23    2    4    4    0    0 -0.13753518314E+03  0.34463743817E+01  0.13022672906E+03  0.21026557519E+03  0.91240380598E+02 0.  0.
          2    1    3    3  502    0 -0.14838126891E+03 -0.32876121178E+03 -0.37002168296E+03  0.51673685875E+03  0.00000000000E+00 0. -1.
         -2    1    3    3    0  502 -0.90381579465E+01 -0.33911303083E+02 -0.89922710354E+02  0.96528537818E+02  0.00000000000E+00 0.  1.
         13    1    5    5    0    0  0.17547957889E+03  0.27729761869E+03 -0.13914400170E+03  0.35643808039E+03  0.00000000000E+00 0.  1.
        -13    1    5    5    0    0  0.11947503110E+03  0.81928521786E+02 -0.53888926692E+02  0.15456578586E+03  0.00000000000E+00 0. -1.
          5    1    6    6  503    0 -0.81033341119E+02 -0.78765936858E+00  0.13017575622E+03  0.15341069157E+03  0.47000000000E+01 0. -1.
         -5    1    6    6    0  503 -0.56501842019E+02  0.42340337503E+01  0.50972838051E-01  0.56854883621E+02  0.47000000000E+01 0.  1.
<mgrwt>
<rscale>  0 0.50342141E+03</rscale>
<asrwt>0</asrwt>
<pdfrwt beam="1">  1        3 0.14286811E+00 0.50342141E+03</pdfrwt>
<pdfrwt beam="2">  1       -3 0.62444943E-01 0.50342141E+03</pdfrwt>
<totfact> 0.24004658E+00</totfact>
</mgrwt>
</event>
<event>
12    1  0.3166324E-008  0.1275822E+04  0.7818608E-02  0.9048961E-01
         -2   -1    0    0    0  501 -0.00000000000E+00  0.00000000000E+00  0.94421928139E+03  0.94421928139E+03  0.00000000000E+00 0. -1.
          2   -1    0    0  501    0  0.00000000000E+00 -0.00000000000E+00 -0.18279187166E+04  0.18279187166E+04  0.00000000000E+00 0.  1.
         23    2    1    2    0    0 -0.12267574764E+04 -0.75879552931E+01 -0.63565488039E+03  0.13841237868E+04  0.82158671269E+02 0.  0.
    5000000    2    1    2    0    0  0.12267574764E+04  0.75879552931E+01 -0.24804455484E+03  0.13880142112E+04  0.60005488622E+03 0.  0.
         23    2    4    4    0    0  0.25560319049E+02  0.11019359932E+03 -0.85277918875E+02  0.16849434301E+03  0.91225330570E+02 0.  0.
         23    2    4    4    0    0  0.12011971573E+04 -0.10260564403E+03 -0.16276663596E+03  0.12195198682E+04  0.85634118400E+02 0.  0.
          3    1    3    3  502    0 -0.90582233827E+03  0.39964163845E+01 -0.42943472857E+03  0.10024690848E+04  0.00000000000E+00 0. -1.
         -3    1    3    3    0  502 -0.32093513811E+03 -0.11584371678E+02 -0.20622015182E+03  0.38165470200E+03  0.00000000000E+00 0.  1.
         13    1    5    5    0    0 -0.49112959101E+01  0.34013733148E+02 -0.79065461624E+02  0.86211380293E+02  0.00000000000E+00 0. -1.
        -13    1    5    5    0    0  0.30471614959E+02  0.76179866176E+02 -0.62124572507E+01  0.82282962719E+02  0.00000000000E+00 0.  1.
          5    1    6    6  503    0  0.65001655906E+03 -0.95479891407E+02 -0.10320167205E+03  0.66506436668E+03  0.47000000000E+01 0. -1.
         -5    1    6    6    0  503  0.55118059827E+03 -0.71257526238E+01 -0.59564963913E+02  0.55445550153E+03  0.47000000000E+01 0.  1.
<mgrwt>
<rscale>  0 0.12758225E+04</rscale>
<asrwt>0</asrwt>
<pdfrwt beam="1">  1        2 0.28121826E+00 0.12758225E+04</pdfrwt>
<pdfrwt beam="2">  1       -2 0.14526451E+00 0.12758225E+04</pdfrwt>
<totfact> 0.26212102E+00</totfact>
</mgrwt>
</event>
<event>
12    1  0.3166324E-008  0.1481501E+04  0.7818608E-02  0.8896848E-01
         -1   -1    0    0    0  501 -0.00000000000E+00  0.00000000000E+00  0.87686509285E+03  0.87686509285E+03  0.00000000000E+00 0.  1.
          1   -1    0    0  501    0  0.00000000000E+00 -0.00000000000E+00 -0.25951914353E+04  0.25951914353E+04  0.00000000000E+00 0. -1.
         23    2    1    2    0    0  0.11790764718E+03 -0.14419309729E+04 -0.88695866701E+03  0.16994036993E+04  0.90609669787E+02 0.  0.
    5000000    2    1    2    0    0 -0.11790764718E+03  0.14419309729E+04 -0.83136767545E+03  0.17726528289E+04  0.59838005984E+03 0.  0.
         23    2    4    4    0    0 -0.24787346507E+03  0.12115151662E+04 -0.83136469013E+03  0.14928517668E+04  0.90713268397E+02 0.  0.
         23    2    4    4    0    0  0.12996581789E+03  0.23041580674E+03 -0.29853171122E-02  0.27980106207E+03  0.91137678906E+02 0.  0.
          1    1    3    3  502    0  0.10774087077E+03 -0.11810580772E+04 -0.76469531038E+03  0.14111219631E+04  0.00000000000E+00 0. -1.
         -1    1    3    3    0  502  0.10166776416E+02 -0.26087289570E+03 -0.12226335663E+03  0.28828173621E+03  0.00000000000E+00 0.  1.
         11    1    5    5    0    0 -0.49116915623E+02  0.22445028930E+03 -0.19823537281E+03  0.30345949779E+03  0.00000000000E+00 0.  1.
        -11    1    5    5    0    0 -0.19875654945E+03  0.98706487687E+03 -0.63312931732E+03  0.11893922690E+04  0.00000000000E+00 0. -1.
          5    1    6    6  503    0  0.48528871769E+02  0.17258173039E+03  0.77731875721E+01  0.17950492334E+03  0.47000000000E+01 0. -1.
         -5    1    6    6    0  503  0.81436946118E+02  0.57834076349E+02 -0.77761728892E+01  0.10029613873E+03  0.47000000000E+01 0.  1.
<mgrwt>
<rscale>  0 0.14815012E+04</rscale>
<asrwt>0</asrwt>
<pdfrwt beam="1">  1        1 0.39926022E+00 0.14815012E+04</pdfrwt>
<pdfrwt beam="2">  1       -1 0.13490232E+00 0.14815012E+04</pdfrwt>
<totfact> 0.51195994E-01</totfact>
</mgrwt>
</event>
<event>
12    1  0.3166324E-008  0.2174491E+04  0.7818608E-02  0.8529121E-01
         -1   -1    0    0    0  501 -0.00000000000E+00  0.00000000000E+00  0.15680755519E+04  0.15680755519E+04  0.00000000000E+00 0.  1.
          1   -1    0    0  501    0  0.00000000000E+00 -0.00000000000E+00 -0.32700900634E+04  0.32700900634E+04  0.00000000000E+00 0. -1.
         23    2    1    2    0    0 -0.20872217836E+04  0.50135773921E+03 -0.21607921663E+03  0.21594304506E+04  0.92710766489E+02 0.  0.
    5000000    2    1    2    0    0  0.20872217836E+04 -0.50135773921E+03 -0.14859352948E+04  0.26787351647E+04  0.59980332243E+03 0.  0.
         23    2    4    4    0    0  0.70766715037E+03 -0.39080987645E+03 -0.75993185958E+03  0.11132505229E+04  0.91132542051E+02 0.  0.
         23    2    4    4    0    0  0.13795546333E+04 -0.11054786276E+03 -0.72600343527E+03  0.15654846419E+04  0.90936020338E+02 0.  0.
          2    1    3    3  502    0 -0.17677526775E+04  0.45858061060E+03 -0.18174572116E+03  0.18352866840E+04  0.00000000000E+00 0. -1.
         -2    1    3    3    0  502 -0.31946910609E+03  0.42777128609E+02 -0.34333495472E+02  0.32414376654E+03  0.00000000000E+00 0.  1.
         11    1    5    5    0    0  0.12585981723E+03 -0.11152215555E+03 -0.15694925627E+03  0.23002381141E+03  0.00000000000E+00 0. -1.
        -11    1    5    5    0    0  0.58180733314E+03 -0.27928772090E+03 -0.60298260330E+03  0.88322671145E+03  0.00000000000E+00 0.  1.
          5    1    6    6  503    0  0.35780500964E+03 -0.67872297928E+02 -0.19870765827E+03  0.41489504360E+03  0.47000000000E+01 0. -1.
         -5    1    6    6    0  503  0.10217496236E+04 -0.42675564836E+02 -0.52729577700E+03  0.11505895983E+04  0.47000000000E+01 0.  1.
<mgrwt>
<rscale>  0 0.21744912E+04</rscale>
<asrwt>0</asrwt>
<pdfrwt beam="1">  1        1 0.50309078E+00 0.21744912E+04</pdfrwt>
<pdfrwt beam="2">  1       -1 0.24124239E+00 0.21744912E+04</pdfrwt>
<totfact> 0.26160420E-02</totfact>
</mgrwt>
</event>
<event>
12    1  0.3166324E-008  0.8393028E+03  0.7818608E-02  0.9504808E-01
         -2   -1    0    0    0  501 -0.00000000000E+00  0.00000000000E+00  0.49274561552E+03  0.49274561552E+03  0.00000000000E+00 0.  1.
          2   -1    0    0  501    0  0.00000000000E+00 -0.00000000000E+00 -0.14853691616E+04  0.14853691616E+04  0.00000000000E+00 0. -1.
         23    2    1    2    0    0 -0.60142447239E+03 -0.44396051482E+03 -0.43571258174E+03  0.86960830745E+03  0.86952974609E+02 0.  0.
    5000000    2    1    2    0    0  0.60142447239E+03  0.44396051482E+03 -0.55691096436E+03  0.11085064697E+04  0.59985367916E+03 0.  0.
         23    2    4    4    0    0  0.29754271879E+03  0.52648110388E+03 -0.46165447861E+03  0.76630727203E+03  0.91585781019E+02 0.  0.
         23    2    4    4    0    0  0.30388175359E+03 -0.82520589065E+02 -0.95256485743E+02  0.34219919765E+03  0.94195143257E+02 0.  0.
          4    1    3    3  502    0 -0.22774035177E+03 -0.22136527506E+03 -0.18717108575E+03  0.36864789186E+03  0.00000000000E+00 0.  1.
         -4    1    3    3    0  502 -0.37368412062E+03 -0.22259523976E+03 -0.24854149599E+03  0.50096041559E+03  0.00000000000E+00 0. -1.
         13    1    5    5    0    0  0.26406742669E+03  0.39859359685E+03 -0.34041035605E+03  0.58693072146E+03  0.00000000000E+00 0. -1.
        -13    1    5    5    0    0  0.33475292101E+02  0.12788750703E+03 -0.12124412257E+03  0.17937655057E+03  0.00000000000E+00 0.  1.
          5    1    6    6  503    0  0.10782818548E+03 -0.39646206668E+02 -0.81598111541E+02  0.14099319520E+03  0.47000000000E+01 0. -1.
         -5    1    6    6    0  503  0.19605356812E+03 -0.42874382397E+02 -0.13658374202E+02  0.20120600245E+03  0.47000000000E+01 0.  1.
<mgrwt>
<rscale>  0 0.83930283E+03</rscale>
<asrwt>0</asrwt>
<pdfrwt beam="1">  1        2 0.22851833E+00 0.83930283E+03</pdfrwt>
<pdfrwt beam="2">  1       -2 0.75807020E-01 0.83930283E+03</pdfrwt>
<totfact> 0.20441740E+01</totfact>
</mgrwt>
</event>
<event>
12    1  0.3166324E-008  0.6684269E+03  0.7818608E-02  0.9772804E-01
         -3   -1    0    0    0  501 -0.00000000000E+00  0.00000000000E+00  0.76523869255E+03  0.76523869255E+03  0.00000000000E+00 0.  1.
          3   -1    0    0  501    0  0.00000000000E+00 -0.00000000000E+00 -0.60870834870E+03  0.60870834870E+03  0.00000000000E+00 0. -1.
         23    2    1    2    0    0 -0.38560084987E+03 -0.38478633509E+03  0.20787399499E+02  0.55218461333E+03  0.87904448846E+02 0.  0.
    5000000    2    1    2    0    0  0.38560084987E+03  0.38478633509E+03  0.13574294435E+03  0.82176242792E+03  0.60009899342E+03 0.  0.
         23    2    4    4    0    0  0.35262510593E+03  0.51373727204E+03  0.31976620486E+02  0.63045512870E+03  0.90447305331E+02 0.  0.
         23    2    4    4    0    0  0.32975743944E+02 -0.12895093694E+03  0.10376632386E+03  0.19130729922E+03  0.90084898510E+02 0.  0.
          1    1    3    3  502    0 -0.36668478564E+03 -0.32892623354E+03  0.13717137858E+02  0.49278632185E+03  0.00000000000E+00 0. -1.
         -1    1    3    3    0  502 -0.18916064234E+02 -0.55860101554E+02  0.70702616411E+01  0.59398291486E+02  0.00000000000E+00 0.  1.
         13    1    5    5    0    0  0.15712813445E+03  0.29891744665E+03 -0.43906428958E+01  0.33772795012E+03  0.00000000000E+00 0. -1.
        -13    1    5    5    0    0  0.19549697147E+03  0.21481982538E+03  0.36367263382E+02  0.29272717858E+03  0.00000000000E+00 0.  1.
          5    1    6    6  503    0 -0.27576890553E+02 -0.52461728149E+02  0.59368542420E+02  0.84020423957E+02  0.47000000000E+01 0. -1.
         -5    1    6    6    0  503  0.60552634497E+02 -0.76489208793E+02  0.44397781442E+02  0.10728687526E+03  0.47000000000E+01 0.  1.
<mgrwt>
<rscale>  0 0.66842688E+03</rscale>
<asrwt>0</asrwt>
<pdfrwt beam="1">  1        3 0.93647438E-01 0.66842688E+03</pdfrwt>
<pdfrwt beam="2">  1       -3 0.11772903E+00 0.66842688E+03</pdfrwt>
<totfact> 0.15717819E+00</totfact>
</mgrwt>
</event>
<event>
12    1  0.3166324E-008  0.5817232E+03  0.7818608E-02  0.9944067E-01
          2   -1    0    0  501    0  0.00000000000E+00  0.00000000000E+00  0.16683163556E+04  0.16683163556E+04  0.00000000000E+00 0. -1.
         -2   -1    0    0    0  501 -0.00000000000E+00 -0.00000000000E+00 -0.23715893020E+03  0.23715893020E+03  0.00000000000E+00 0.  1.
         23    2    1    2    0    0 -0.17173295465E+03  0.44735402453E+03  0.60862253879E+03  0.78044836536E+03  0.95186266352E+02 0.  0.
    5000000    2    1    2    0    0  0.17173295465E+03 -0.44735402453E+03  0.82253488657E+03  0.11250269204E+04  0.59958660843E+03 0.  0.
         23    2    4    4    0    0  0.30195618265E+03 -0.40919336493E+03  0.34734233211E+03  0.62248114284E+03  0.90660528196E+02 0.  0.
         23    2    4    4    0    0 -0.13022322799E+03 -0.38160659596E+02  0.47519255446E+03  0.50254577756E+03  0.91268667554E+02 0.  0.
          3    1    3    3  502    0 -0.38923505506E+02  0.20010568636E+03  0.30626731377E+03  0.36790894591E+03  0.00000000000E+00 0. -1.
         -3    1    3    3    0  502 -0.13280944915E+03  0.24724833817E+03  0.30235522502E+03  0.41253941945E+03  0.00000000000E+00 0.  1.
         11    1    5    5    0    0  0.20569893889E+03 -0.20474109224E+03  0.20674850550E+03  0.35633679692E+03  0.00000000000E+00 0.  1.
        -11    1    5    5    0    0  0.96257243752E+02 -0.20445227269E+03  0.14059382662E+03  0.26614434592E+03  0.00000000000E+00 0. -1.
          5    1    6    6  503    0 -0.11395390629E+03 -0.64789363865E+02  0.36178234221E+03  0.38482685400E+03  0.47000000000E+01 0. -1.
         -5    1    6    6    0  503 -0.16269321702E+02  0.26628704268E+02  0.11341021225E+03  0.11771892355E+03  0.47000000000E+01 0.  1.
<mgrwt>
<rscale>  0 0.58172320E+03</rscale>
<asrwt>0</asrwt>
<pdfrwt beam="1">  1        2 0.25666405E+00 0.58172320E+03</pdfrwt>
<pdfrwt beam="2">  1       -2 0.36485990E-01 0.58172320E+03</pdfrwt>
<totfact> 0.75287141E+01</totfact>
</mgrwt>
</event>
<event>
12    1  0.3166324E-008  0.9169225E+03  0.7818608E-02  0.9404671E-01
          2   -1    0    0  501    0  0.00000000000E+00  0.00000000000E+00  0.86666006901E+03  0.86666006901E+03  0.00000000000E+00 0.  1.
         -2   -1    0    0    0  501 -0.00000000000E+00 -0.00000000000E+00 -0.11647723918E+04  0.11647723918E+04  0.00000000000E+00 0. -1.
         23    2    1    2    0    0  0.66901578817E+03 -0.58874032933E+03 -0.33512515214E+03  0.95627449050E+03  0.89189312152E+02 0.  0.
    5000000    2    1    2    0    0 -0.66901578817E+03  0.58874032933E+03  0.37012829358E+02  0.10751579703E+04  0.60033108478E+03 0.  0.
         23    2    4    4    0    0 -0.62196306481E+03  0.45709652564E+03 -0.18393157063E+03  0.79817618941E+03  0.86481899412E+02 0.  0.
         23    2    4    4    0    0 -0.47052723359E+02  0.13164380369E+03  0.22094439999E+03  0.27698178088E+03  0.91424445483E+02 0.  0.
          4    1    3    3  502    0  0.15830173735E+03 -0.14008026973E+03 -0.12094077864E+03  0.24353355817E+03  0.00000000000E+00 0. -1.
         -4    1    3    3    0  502  0.51071405081E+03 -0.44866005960E+03 -0.21418437350E+03  0.71274093234E+03  0.00000000000E+00 0.  1.
         11    1    5    5    0    0 -0.49541010336E+03  0.40192018974E+03 -0.13819788310E+03  0.65274012006E+03  0.00000000000E+00 0. -1.
        -11    1    5    5    0    0 -0.12655296144E+03  0.55176335896E+02 -0.45733687529E+02  0.14543606935E+03  0.00000000000E+00 0.  1.
          5    1    6    6  503    0 -0.41660662175E+02  0.78358499407E+01  0.48683005328E+02  0.64723537642E+02  0.47000000000E+01 0. -1.
         -5    1    6    6    0  503 -0.53920611847E+01  0.12380795375E+03  0.17226139466E+03  0.21225824324E+03  0.47000000000E+01 0.  1.
<mgrwt>
<rscale>  0 0.91692245E+03</rscale>
<asrwt>0</asrwt>
<pdfrwt beam="1">  1        2 0.13333232E+00 0.91692245E+03</pdfrwt>
<pdfrwt beam="2">  1       -2 0.17919575E+00 0.91692245E+03</pdfrwt>
<totfact> 0.56761396E+00</totfact>
</mgrwt>
</event>
<event>
12    1  0.3166324E-008  0.5097006E+03  0.7818608E-02  0.1011277E+00
         -2   -1    0    0    0  501 -0.00000000000E+00  0.00000000000E+00  0.25382922901E+03  0.25382922901E+03  0.00000000000E+00 0.  1.
          2   -1    0    0  501    0  0.00000000000E+00 -0.00000000000E+00 -0.25492236083E+04  0.25492236083E+04  0.00000000000E+00 0. -1.
         23    2    1    2    0    0  0.23289317060E+03  0.24395981652E+03 -0.20387345252E+04  0.20684583696E+04  0.91246596901E+02 0.  0.
    5000000    2    1    2    0    0 -0.23289317060E+03 -0.24395981652E+03 -0.25665985406E+03  0.73459446770E+03  0.59999927525E+03 0.  0.
         23    2    4    4    0    0  0.56255881461E+02 -0.33875554188E+03 -0.21194830623E+03  0.41370532747E+03  0.91159048428E+02 0.  0.
         23    2    4    4    0    0 -0.28914905206E+03  0.94795725364E+02 -0.44711547826E+02  0.32088914023E+03  0.91527667693E+02 0.  0.
          2    1    3    3  502    0  0.54625217792E+02  0.10523734027E+02 -0.31187761335E+03  0.31680010907E+03  0.00000000000E+00 0.  1.
         -2    1    3    3    0  502  0.17826795281E+03  0.23343608249E+03 -0.17268569119E+04  0.17516582605E+04  0.00000000000E+00 0. -1.
         13    1    5    5    0    0  0.53308810472E+02 -0.81376663256E+02 -0.47483688491E+02  0.10825290421E+03  0.00000000000E+00 0. -1.
        -13    1    5    5    0    0  0.29470709893E+01 -0.25737887862E+03 -0.16446461774E+03  0.30545242326E+03  0.00000000000E+00 0.  1.
          5    1    6    6  503    0 -0.30337430369E+02  0.40608492902E+02  0.70911467543E+01  0.51398285375E+02  0.47000000000E+01 0. -1.
         -5    1    6    6    0  503 -0.25881162169E+03  0.54187232462E+02 -0.51802694580E+02  0.26949085485E+03  0.47000000000E+01 0.  1.
<mgrwt>
<rscale>  0 0.50970056E+03</rscale>
<asrwt>0</asrwt>
<pdfrwt beam="1">  1        2 0.39218826E+00 0.50970056E+03</pdfrwt>
<pdfrwt beam="2">  1       -2 0.39050649E-01 0.50970056E+03</pdfrwt>
<totfact> 0.22109460E+01</totfact>
</mgrwt>
</event>
<event>
12    1  0.3166324E-008  0.1885998E+04  0.7818608E-02  0.8661858E-01
         -2   -1    0    0    0  501 -0.00000000000E+00  0.00000000000E+00  0.12043410271E+04  0.12043410271E+04  0.00000000000E+00 0.  1.
          2   -1    0    0  501    0  0.00000000000E+00 -0.00000000000E+00 -0.33626894120E+04  0.33626894120E+04  0.00000000000E+00 0. -1.
         23    2    1    2    0    0  0.16189001929E+04  0.92552252220E+03 -0.17645444340E+04  0.25689376679E+04  0.91618274372E+02 0.  0.
    5000000    2    1    2    0    0 -0.16189001929E+04 -0.92552252220E+03 -0.39380395095E+03  0.19980927712E+04  0.59988615325E+03 0.  0.
         23    2    4    4    0    0 -0.91583103140E+03 -0.31428029363E+03 -0.42295557165E+03  0.10607069052E+04  0.93215567457E+02 0.  0.
         23    2    4    4    0    0 -0.70306916151E+03 -0.61124222857E+03  0.29151620699E+02  0.93738586605E+03  0.99594864482E+02 0.  0.
          2    1    3    3  502    0  0.11379125664E+04  0.64903822264E+03 -0.12963340076E+04  0.18429805974E+04  0.00000000000E+00 0. -1.
         -2    1    3    3    0  502  0.48098762652E+03  0.27648429956E+03 -0.46821042641E+03  0.72595707047E+03  0.00000000000E+00 0.  1.
         13    1    5    5    0    0 -0.64416760898E+03 -0.26524520663E+03 -0.29863007578E+03  0.75794910796E+03  0.00000000000E+00 0.  1.
        -13    1    5    5    0    0 -0.27166342242E+03 -0.49035086994E+02 -0.12432549586E+03  0.30275779719E+03  0.00000000000E+00 0. -1.
          5    1    6    6  503    0 -0.57530779837E+03 -0.46101648178E+03 -0.45524741880E+01  0.73726391093E+03  0.47000000000E+01 0. -1.
         -5    1    6    6    0  503 -0.12776136314E+03 -0.15022574679E+03  0.33704094887E+02  0.20012195512E+03  0.47000000000E+01 0.  1.
<mgrwt>
<rscale>  0 0.18859976E+04</rscale>
<asrwt>0</asrwt>
<pdfrwt beam="1">  1        2 0.51733683E+00 0.18859976E+04</pdfrwt>
<pdfrwt beam="2">  1       -2 0.18528323E+00 0.18859976E+04</pdfrwt>
<totfact> 0.15279392E-01</totfact>
</mgrwt>
</event>
<event>
12    1  0.3166324E-008  0.4826585E+03  0.7818608E-02  0.1018407E+00
          1   -1    0    0  501    0  0.00000000000E+00  0.00000000000E+00  0.15996557684E+04  0.15996557684E+04  0.00000000000E+00 0. -1.
         -1   -1    0    0    0  501 -0.00000000000E+00 -0.00000000000E+00 -0.31485741132E+03  0.31485741132E+03  0.00000000000E+00 0.  1.
         23    2    1    2    0    0 -0.33086256510E+03  0.96317146734E+02  0.11575725608E+04  0.12109715161E+04  0.87924681353E+02 0.  0.
    5000000    2    1    2    0    0  0.33086256510E+03 -0.96317146734E+02  0.12722579634E+03  0.70354166366E+03  0.60003119878E+03 0.  0.
         23    2    4    4    0    0  0.58767060304E+02  0.19392941976E+03  0.18924179461E+03  0.29082632596E+03  0.87779882781E+02 0.  0.
         23    2    4    4    0    0  0.27209550480E+03 -0.29024656649E+03 -0.62015998266E+02  0.41271533770E+03  0.90603161324E+02 0.  0.
          1    1    3    3  502    0 -0.21350360888E+03  0.69265572859E+02  0.88419979057E+03  0.91224491241E+03  0.00000000000E+00 0. -1.
         -1    1    3    3    0  502 -0.11735895622E+03  0.27051573875E+02  0.27337277021E+03  0.29872660368E+03  0.00000000000E+00 0.  1.
         11    1    5    5    0    0  0.69727957469E+02  0.95491242891E+02  0.12857423905E+03  0.17467655959E+03  0.00000000000E+00 0.  1.
        -11    1    5    5    0    0 -0.10960897165E+02  0.98438176865E+02  0.60667555559E+02  0.11614976637E+03  0.00000000000E+00 0. -1.
          5    1    6    6  503    0  0.22750047736E+03 -0.27223988234E+03 -0.75053074380E+02  0.36266523780E+03  0.47000000000E+01 0. -1.
         -5    1    6    6    0  503  0.44595027438E+02 -0.18006684149E+02  0.13037076114E+02  0.50050099898E+02  0.47000000000E+01 0.  1.
<mgrwt>
<rscale>  0 0.48265855E+03</rscale>
<asrwt>0</asrwt>
<pdfrwt beam="1">  1        1 0.24610088E+00 0.48265855E+03</pdfrwt>
<pdfrwt beam="2">  1       -1 0.48439603E-01 0.48265855E+03</pdfrwt>
<totfact> 0.25700292E+01</totfact>
</mgrwt>
</event>
<event>
12    1  0.3166324E-008  0.5034582E+03  0.7818608E-02  0.1012880E+00
         -2   -1    0    0    0  501 -0.00000000000E+00  0.00000000000E+00  0.21735127369E+03  0.21735127369E+03  0.00000000000E+00 0.  1.
          2   -1    0    0  501    0  0.00000000000E+00 -0.00000000000E+00 -0.18620599935E+04  0.18620599935E+04  0.00000000000E+00 0. -1.
         23    2    1    2    0    0  0.47851210259E+03  0.96758309087E+02 -0.69150937516E+03  0.85183955613E+03  0.95443233113E+02 0.  0.
    5000000    2    1    2    0    0 -0.47851210259E+03 -0.96758309087E+02 -0.95319934462E+03  0.12275717110E+04  0.60000609366E+03 0.  0.
         23    2    4    4    0    0 -0.15224997048E+03 -0.73932763008E+02 -0.85123153400E+03  0.87275098955E+03  0.91940515179E+02 0.  0.
         23    2    4    4    0    0 -0.32626213211E+03 -0.22825546079E+02 -0.10196781062E+03  0.35482072147E+03  0.92370588300E+02 0.  0.
          1    1    3    3  502    0  0.11002938306E+03  0.22382071384E+02 -0.23521706137E+03  0.26064245282E+03  0.00000000000E+00 0. -1.
         -1    1    3    3    0  502  0.36848271954E+03  0.74376237703E+02 -0.45629231379E+03  0.59119710331E+03  0.00000000000E+00 0.  1.
         13    1    5    5    0    0 -0.10183422888E+03 -0.45109368766E+01 -0.36310502743E+03  0.37714164404E+03  0.00000000000E+00 0.  1.
        -13    1    5    5    0    0 -0.50415741603E+02 -0.69421826131E+02 -0.48812650657E+03  0.49560934551E+03  0.00000000000E+00 0. -1.
          5    1    6    6  503    0 -0.25883633145E+03  0.22745710794E+01 -0.44643966852E+02  0.26271009483E+03  0.47000000000E+01 0. -1.
         -5    1    6    6    0  503 -0.67425800662E+02 -0.25100117158E+02 -0.57323843765E+02  0.92110626641E+02  0.47000000000E+01 0.  1.
<mgrwt>
<rscale>  0 0.50345824E+03</rscale>
<asrwt>0</asrwt>
<pdfrwt beam="1">  1        2 0.28647076E+00 0.50345824E+03</pdfrwt>
<pdfrwt beam="2">  1       -2 0.33438658E-01 0.50345824E+03</pdfrwt>
<totfact> 0.70601287E+01</totfact>
</mgrwt>
</event>
<event>
12    1  0.3166324E-008  0.1363240E+04  0.7818608E-02  0.8980866E-01
          2   -1    0    0  501    0  0.00000000000E+00  0.00000000000E+00  0.26054276358E+04  0.26054276358E+04  0.00000000000E+00 0. -1.
         -2   -1    0    0    0  501 -0.00000000000E+00 -0.00000000000E+00 -0.79112406702E+03  0.79112406702E+03  0.00000000000E+00 0.  1.
         23    2    1    2    0    0 -0.96847222222E+03  0.91421122734E+03  0.48096955003E+03  0.14187395346E+04  0.88145026443E+02 0.  0.
    5000000    2    1    2    0    0  0.96847222222E+03 -0.91421122734E+03  0.13333340188E+04  0.19778121682E+04  0.60020059452E+03 0.  0.
         23    2    4    4    0    0  0.95119233353E+02 -0.29605160367E+03  0.58618592755E+03  0.66975859957E+03  0.90930849862E+02 0.  0.
         23    2    4    4    0    0  0.87335298886E+03 -0.61815962367E+03  0.74714809122E+03  0.13080535686E+04  0.88921902191E+02 0.  0.
          3    1    3    3  502    0 -0.84823151175E+03  0.83146887511E+03  0.44503696994E+03  0.12684222847E+04  0.00000000000E+00 0. -1.
         -3    1    3    3    0  502 -0.12024071046E+03  0.82742352233E+02  0.35932580091E+02  0.15031724990E+03  0.00000000000E+00 0.  1.
         13    1    5    5    0    0  0.10437437491E+03 -0.23237770592E+03  0.41581896846E+03  0.48764620667E+03  0.00000000000E+00 0.  1.
        -13    1    5    5    0    0 -0.92551415601E+01 -0.63673897745E+02  0.17036695909E+03  0.18211239290E+03  0.00000000000E+00 0. -1.
          5    1    6    6  503    0  0.38351026258E+03 -0.21834113792E+03  0.31146051528E+03  0.54016915553E+03  0.47000000000E+01 0. -1.
         -5    1    6    6    0  503  0.48984272628E+03 -0.39981848576E+03  0.43568757595E+03  0.76788441310E+03  0.47000000000E+01 0.  1.
<mgrwt>
<rscale>  0 0.13632398E+04</rscale>
<asrwt>0</asrwt>
<pdfrwt beam="1">  1        2 0.40083502E+00 0.13632398E+04</pdfrwt>
<pdfrwt beam="2">  1       -2 0.12171140E+00 0.13632398E+04</pdfrwt>
<totfact> 0.14918301E+00</totfact>
</mgrwt>
</event>
<event>
12    1  0.3166324E-008  0.6228289E+03  0.7818608E-02  0.9859143E-01
         -1   -1    0    0    0  501 -0.00000000000E+00  0.00000000000E+00  0.34561591183E+03  0.34561591183E+03  0.00000000000E+00 0.  1.
          1   -1    0    0  501    0  0.00000000000E+00 -0.00000000000E+00 -0.12240592786E+04  0.12240592786E+04  0.00000000000E+00 0. -1.
         23    2    1    2    0    0 -0.18358418421E+03  0.46301791114E+03 -0.23171607018E+03  0.55659117758E+03  0.89513479749E+02 0.  0.
    5000000    2    1    2    0    0  0.18358418421E+03 -0.46301791114E+03 -0.64672729660E+03  0.10130840128E+04  0.59999523515E+03 0.  0.
         23    2    4    4    0    0 -0.13427707109E+03  0.29098281975E+02 -0.25026415826E+03  0.29980838221E+03  0.91519808236E+02 0.  0.
         23    2    4    4    0    0  0.31786125530E+03 -0.49211619311E+03 -0.39646313834E+03  0.71327563064E+03  0.91460264924E+02 0.  0.
          1    1    3    3  502    0 -0.76950360236E+02  0.27824889419E+03 -0.16767588389E+03  0.33385476947E+03  0.00000000000E+00 0. -1.
         -1    1    3    3    0  502 -0.10663382398E+03  0.18476901694E+03 -0.64040186285E+02  0.22273640811E+03  0.00000000000E+00 0.  1.
         13    1    5    5    0    0 -0.12294490381E+03  0.48279311868E+02 -0.24263961289E+03  0.27626133112E+03  0.00000000000E+00 0.  1.
        -13    1    5    5    0    0 -0.11332167284E+02 -0.19181029893E+02 -0.76245453672E+01  0.23547051092E+02  0.00000000000E+00 0. -1.
          5    1    6    6  503    0  0.11782510476E+03 -0.23998043711E+03 -0.14066772879E+03  0.30213054369E+03  0.47000000000E+01 0. -1.
         -5    1    6    6    0  503  0.20003615054E+03 -0.25213575600E+03 -0.25579540955E+03  0.41114508695E+03  0.47000000000E+01 0.  1.
<mgrwt>
<rscale>  0 0.62282888E+03</rscale>
<asrwt>0</asrwt>
<pdfrwt beam="1">  1        1 0.18831681E+00 0.62282888E+03</pdfrwt>
<pdfrwt beam="2">  1       -1 0.53171680E-01 0.62282888E+03</pdfrwt>
<totfact> 0.38203709E+01</totfact>
</mgrwt>
</event>
<event>
12    1  0.3166324E-008  0.4574753E+03  0.7818608E-02  0.1025516E+00
          1   -1    0    0  501    0  0.00000000000E+00  0.00000000000E+00  0.48537273788E+03  0.48537273788E+03  0.00000000000E+00 0. -1.
         -1   -1    0    0    0  501 -0.00000000000E+00 -0.00000000000E+00 -0.71203618729E+03  0.71203618729E+03  0.00000000000E+00 0.  1.
         23    2    1    2    0    0  0.28718710571E+03  0.28425676584E+03 -0.23002584980E+03  0.47402710779E+03  0.92257599874E+02 0.  0.
    5000000    2    1    2    0    0 -0.28718710571E+03 -0.28425676584E+03  0.33624003865E+01  0.72338181738E+03  0.59999300443E+03 0.  0.
         23    2    4    4    0    0 -0.20513750343E+03 -0.91051815236E+01 -0.24544681369E+03  0.33248170084E+03  0.90197801505E+02 0.  0.
         23    2    4    4    0    0 -0.82049602276E+02 -0.27515158431E+03  0.24880921408E+03  0.39090011654E+03  0.91958384693E+02 0.  0.
          3    1    3    3  502    0  0.16139653226E+03  0.11128256410E+03 -0.75105495420E+02  0.20993685989E+03  0.00000000000E+00 0. -1.
         -3    1    3    3    0  502  0.12579057345E+03  0.17297420174E+03 -0.15492035438E+03  0.26409024790E+03  0.00000000000E+00 0.  1.
         13    1    5    5    0    0 -0.14743094354E+03  0.18296714258E+02 -0.21595508591E+03  0.26212068213E+03  0.00000000000E+00 0.  1.
        -13    1    5    5    0    0 -0.57706559893E+02 -0.27401895781E+02 -0.29491727777E+02  0.70361018713E+02  0.00000000000E+00 0. -1.
          5    1    6    6  503    0  0.66043334324E+01 -0.94707691636E+01 -0.44784611548E+01  0.13246105199E+02  0.47000000000E+01 0. -1.
         -5    1    6    6    0  503 -0.88653935708E+02 -0.26568081515E+03  0.25328767523E+03  0.37765401134E+03  0.47000000000E+01 0.  1.
<mgrwt>
<rscale>  0 0.45747533E+03</rscale>
<asrwt>0</asrwt>
<pdfrwt beam="1">  1        1 0.74672729E-01 0.45747533E+03</pdfrwt>
<pdfrwt beam="2">  1       -1 0.10954403E+00 0.45747533E+03</pdfrwt>
<totfact> 0.37660531E+01</totfact>
</mgrwt>
</event>
<event>
12    1  0.3166324E-008  0.5576505E+03  0.7818608E-02  0.9997385E-01
         -1   -1    0    0    0  501 -0.00000000000E+00  0.00000000000E+00  0.18556560289E+03  0.18556560289E+03  0.00000000000E+00 0.  1.
          1   -1    0    0  501    0  0.00000000000E+00 -0.00000000000E+00 -0.17368765584E+04  0.17368765584E+04  0.00000000000E+00 0. -1.
         23    2    1    2    0    0 -0.39492988854E+03  0.89464509848E+02 -0.55175435727E+03  0.68824771156E+03  0.72653467343E+02 0.  0.
    5000000    2    1    2    0    0  0.39492988854E+03 -0.89464509848E+02 -0.99955659826E+03  0.12341944497E+04  0.60012417989E+03 0.  0.
         23    2    4    4    0    0  0.12481516888E+03  0.24180102693E+03 -0.40206468114E+03  0.49399349521E+03  0.91252410831E+02 0.  0.
         23    2    4    4    0    0  0.27011471966E+03 -0.33126553677E+03 -0.59749191712E+03  0.74020095454E+03  0.90565139270E+02 0.  0.
          2    1    3    3  502    0 -0.31654434393E+02 -0.97347816014E+01 -0.63766773299E+02  0.71853813862E+02  0.00000000000E+00 0. -1.
         -2    1    3    3    0  502 -0.36327545414E+03  0.99199291449E+02 -0.48798758397E+03  0.61639389770E+03  0.00000000000E+00 0.  1.
         13    1    5    5    0    0  0.10861169247E+03  0.15398198624E+03 -0.32667170432E+03  0.37712246583E+03  0.00000000000E+00 0. -1.
        -13    1    5    5    0    0  0.16203476412E+02  0.87819040686E+02 -0.75392976817E+02  0.11687102938E+03  0.00000000000E+00 0.  1.
          5    1    6    6  503    0  0.22889785141E+03 -0.27194068726E+03 -0.54537831347E+03  0.65100350120E+03  0.47000000000E+01 0. -1.
         -5    1    6    6    0  503  0.41216868247E+02 -0.59324849509E+02 -0.52113603649E+02  0.89197453341E+02  0.47000000000E+01 0.  1.
<mgrwt>
<rscale>  0 0.55765051E+03</rscale>
<asrwt>0</asrwt>
<pdfrwt beam="1">  1        1 0.26721178E+00 0.55765051E+03</pdfrwt>
<pdfrwt beam="2">  1       -1 0.28548554E-01 0.55765051E+03</pdfrwt>
<totfact> 0.52872195E+01</totfact>
</mgrwt>
</event>
<event>
12    1  0.3166324E-008  0.1099083E+04  0.7818608E-02  0.9206086E-01
          2   -1    0    0  501    0  0.00000000000E+00  0.00000000000E+00  0.18582403777E+04  0.18582403777E+04  0.00000000000E+00 0. -1.
         -2   -1    0    0    0  501 -0.00000000000E+00 -0.00000000000E+00 -0.78258272828E+03  0.78258272828E+03  0.00000000000E+00 0.  1.
         23    2    1    2    0    0 -0.58402185026E+03 -0.90973415031E+03  0.86104152638E+03  0.13860467159E+04  0.10504876404E+03 0.  0.
    5000000    2    1    2    0    0  0.58402185026E+03  0.90973415031E+03  0.21461612301E+03  0.12547763900E+04  0.59975491896E+03 0.  0.
         23    2    4    4    0    0  0.57594360411E+03  0.75023955978E+03  0.36436885538E+03  0.10178005617E+04  0.92643879684E+02 0.  0.
         23    2    4    4    0    0  0.80782461588E+01  0.15949459053E+03 -0.14975273236E+03  0.23697582831E+03  0.90707661652E+02 0.  0.
          3    1    3    3  502    0 -0.52234197508E+03 -0.77455609000E+03  0.70344524370E+03  0.11694500786E+04  0.00000000000E+00 0.  1.
         -3    1    3    3    0  502 -0.61679875185E+02 -0.13517806031E+03  0.15759628268E+03  0.21659663734E+03  0.00000000000E+00 0. -1.
         13    1    5    5    0    0  0.16324056614E+03  0.18171777922E+03  0.56179947175E+02  0.25064919745E+03  0.00000000000E+00 0.  1.
        -13    1    5    5    0    0  0.41270303796E+03  0.56852178056E+03  0.30818890820E+03  0.76715136424E+03  0.00000000000E+00 0. -1.
          5    1    6    6  503    0  0.30834339739E+02  0.96441790571E+02 -0.41424868324E+02  0.10949833419E+03  0.47000000000E+01 0. -1.
         -5    1    6    6    0  503 -0.22756093580E+02  0.63052799955E+02 -0.10832786404E+03  0.12747749411E+03  0.47000000000E+01 0.  1.
<mgrwt>
<rscale>  0 0.10990830E+04</rscale>
<asrwt>0</asrwt>
<pdfrwt beam="1">  1        2 0.28588313E+00 0.10990830E+04</pdfrwt>
<pdfrwt beam="2">  1       -2 0.12039734E+00 0.10990830E+04</pdfrwt>
<totfact> 0.41590106E+00</totfact>
</mgrwt>
</event>
<event>
12    1  0.3166324E-008  0.5141849E+03  0.7818608E-02  0.1010141E+00
          2   -1    0    0  501    0  0.00000000000E+00  0.00000000000E+00  0.48297123294E+03  0.48297123294E+03  0.00000000000E+00 0. -1.
         -2   -1    0    0    0  501 -0.00000000000E+00 -0.00000000000E+00 -0.71702122496E+03  0.71702122496E+03  0.00000000000E+00 0.  1.
         23    2    1    2    0    0 -0.40726207783E+03  0.13558580158E+03 -0.10378203385E+03  0.45078102134E+03  0.90481539657E+02 0.  0.
    5000000    2    1    2    0    0  0.40726207783E+03 -0.13558580158E+03 -0.13026795817E+03  0.74921143655E+03  0.60008509905E+03 0.  0.
         23    2    4    4    0    0  0.23170371592E+03  0.13669142328E+03  0.14020723589E+03  0.31717348101E+03  0.92573165052E+02 0.  0.
         23    2    4    4    0    0  0.17555836191E+03 -0.27227722486E+03 -0.27047519406E+03  0.43203795554E+03  0.92435592784E+02 0.  0.
          1    1    3    3  502    0 -0.23600327631E+03  0.78941858356E+02 -0.13898245091E+02  0.24924390594E+03  0.00000000000E+00 0. -1.
         -1    1    3    3    0  502 -0.17125880153E+03  0.56643943228E+02 -0.89883788763E+02  0.20153711541E+03  0.00000000000E+00 0.  1.
         13    1    5    5    0    0  0.24703896689E+02 -0.16257936139E+01  0.43578085323E+02  0.50119609306E+02  0.00000000000E+00 0. -1.
        -13    1    5    5    0    0  0.20699981923E+03  0.13831721689E+03  0.96629150569E+02  0.26705387170E+03  0.00000000000E+00 0.  1.
          5    1    6    6  503    0  0.15572431893E+03 -0.25433434677E+03 -0.20715641051E+03  0.36314169668E+03  0.47000000000E+01 0. -1.
         -5    1    6    6    0  503  0.19834042986E+02 -0.17942878093E+02 -0.63318783549E+02  0.68896258865E+02  0.47000000000E+01 0.  1.
<mgrwt>
<rscale>  0 0.51418487E+03</rscale>
<asrwt>0</asrwt>
<pdfrwt beam="1">  1        2 0.74303266E-01 0.51418487E+03</pdfrwt>
<pdfrwt beam="2">  1       -2 0.11031096E+00 0.51418487E+03</pdfrwt>
<totfact> 0.43162564E+01</totfact>
</mgrwt>
</event>
<event>
12    1  0.3166324E-008  0.1038509E+04  0.7818608E-02  0.9267289E-01
         -2   -1    0    0    0  501 -0.00000000000E+00  0.00000000000E+00  0.23648304181E+04  0.23648304181E+04  0.00000000000E+00 0.  1.
          2   -1    0    0  501    0  0.00000000000E+00 -0.00000000000E+00 -0.55336737361E+03  0.55336737361E+03  0.00000000000E+00 0. -1.
         23    2    1    2    0    0 -0.54621354832E+03 -0.82462064328E+03  0.34755618118E+03  0.10523341794E+04  0.90903687232E+02 0.  0.
    5000000    2    1    2    0    0  0.54621354832E+03  0.82462064328E+03  0.14639068633E+04  0.18658636123E+04  0.60006272142E+03 0.  0.
         23    2    4    4    0    0  0.14605364995E+03 -0.18450042166E+02  0.72177641694E+02  0.18781060065E+03  0.91603149700E+02 0.  0.
         23    2    4    4    0    0  0.40015989837E+03  0.84307068545E+03  0.13917292216E+04  0.16780530117E+04  0.89752764607E+02 0.  0.
          1    1    3    3  502    0 -0.31985481575E+03 -0.51714295460E+03  0.25561263959E+03  0.65960727722E+03  0.00000000000E+00 0. -1.
         -1    1    3    3    0  502 -0.22635873257E+03 -0.30747768868E+03  0.91943541595E+02  0.39272690217E+03  0.00000000000E+00 0.  1.
         13    1    5    5    0    0  0.77718337098E+02  0.10541130129E+02 -0.76510411434E+01  0.78802244742E+02  0.00000000000E+00 0.  1.
        -13    1    5    5    0    0  0.68335312856E+02 -0.28991172295E+02  0.79828682838E+02  0.10900835591E+03  0.00000000000E+00 0. -1.
          5    1    6    6  503    0  0.10272154096E+03  0.17135285639E+03  0.35569981443E+03  0.40799260331E+03  0.47000000000E+01 0. -1.
         -5    1    6    6    0  503  0.29743835741E+03  0.67171782905E+03  0.10360294072E+04  0.12700604083E+04  0.47000000000E+01 0.  1.
<mgrwt>
<rscale>  0 0.10385091E+04</rscale>
<asrwt>0</asrwt>
<pdfrwt beam="1">  1        2 0.85133443E-01 0.10385091E+04</pdfrwt>
<pdfrwt beam="2">  1       -2 0.36382006E+00 0.10385091E+04</pdfrwt>
<totfact> 0.70226286E-01</totfact>
</mgrwt>
</event>
<event>
12    1  0.3462939E-008  0.8628677E+03  0.7818608E-02  0.9473227E-01
          2   -1    0    0  501    0  0.00000000000E+00  0.00000000000E+00  0.17734316457E+04  0.17734316457E+04  0.00000000000E+00 0. -1.
         -2   -1    0    0    0  501 -0.00000000000E+00 -0.00000000000E+00 -0.49984820658E+03  0.49984820658E+03  0.00000000000E+00 0.  1.
         23    2    1    2    0    0 -0.24991676893E+03  0.80274239740E+03  0.49472806807E+03  0.97966361380E+03  0.90173094039E+02 0.  0.
    5000000    2    1    2    0    0  0.24991676893E+03 -0.80274239740E+03  0.77885537101E+03  0.12936162384E+04  0.59997794578E+03 0.  0.
         23    2    4    4    0    0  0.18279068009E+03 -0.75373404449E+03  0.84943236696E+03  0.11538284752E+04  0.90870025858E+02 0.  0.
         23    2    4    4    0    0  0.67126088841E+02 -0.49008352912E+02 -0.70576995943E+02  0.13978776324E+03  0.87474430188E+02 0.  0.
          1    1    3    3  502    0 -0.29316399267E+02  0.22644853425E+03  0.14203144708E+03  0.26890764565E+03  0.00000000000E+00 0. -1.
         -1    1    3    3    0  502 -0.22060036966E+03  0.57629386315E+03  0.35269662100E+03  0.71075596815E+03  0.00000000000E+00 0.  1.
         11    1    5    5    0    0  0.14086741804E+03 -0.43539975204E+03  0.54121984396E+03  0.70875630017E+03  0.00000000000E+00 0. -1.
        -11    1    5    5    0    0  0.41923262052E+02 -0.31833429245E+03  0.30821252300E+03  0.44507217503E+03  0.00000000000E+00 0.  1.
          5    1    6    6  503    0 -0.28101914734E+01  0.90677404603E+01 -0.43568784603E+02  0.44838042831E+02  0.47000000000E+01 0. -1.
         -5    1    6    6    0  503  0.69936280315E+02 -0.58076093372E+02 -0.27008211340E+02  0.94949720407E+02  0.47000000000E+01 0.  1.
<mgrwt>
<rscale>  0 0.86286769E+03</rscale>
<asrwt>0</asrwt>
<pdfrwt beam="1">  1        2 0.27283564E+00 0.86286769E+03</pdfrwt>
<pdfrwt beam="2">  1       -2 0.76899725E-01 0.86286769E+03</pdfrwt>
<totfact> 0.13684620E+01</totfact>
</mgrwt>
</event>
<event>
12    1  0.3166324E-008  0.4938927E+03  0.7818608E-02  0.1015385E+00
          1   -1    0    0  501    0  0.00000000000E+00  0.00000000000E+00  0.13534093731E+04  0.13534093731E+04  0.00000000000E+00 0. -1.
         -1   -1    0    0    0  501 -0.00000000000E+00 -0.00000000000E+00 -0.25482240854E+03  0.25482240854E+03  0.00000000000E+00 0.  1.
         23    2    1    2    0    0 -0.28414044025E+03  0.17061821547E+03  0.78026282711E+03  0.85254179941E+03  0.90393999385E+02 0.  0.
    5000000    2    1    2    0    0  0.28414044025E+03 -0.17061821547E+03  0.31832413740E+03  0.75568998219E+03  0.59990893266E+03 0.  0.
         23    2    4    4    0    0  0.62278241895E+02 -0.34225881901E+03  0.62646431910E+02  0.36507459434E+03  0.91297346069E+02 0.  0.
         23    2    4    4    0    0  0.22186219836E+03  0.17164060354E+03  0.25567770549E+03  0.39061538785E+03  0.92336126718E+02 0.  0.
          3    1    3    3  502    0 -0.24794273903E+03  0.11010752477E+03  0.58228802420E+03  0.64238509632E+03  0.00000000000E+00 0. -1.
         -3    1    3    3    0  502 -0.36197701217E+02  0.60510690708E+02  0.19797480291E+03  0.21015670308E+03  0.00000000000E+00 0.  1.
         11    1    5    5    0    0 -0.11525638724E+02 -0.56955808838E+02  0.37825589525E+02  0.69336712723E+02  0.00000000000E+00 0. -1.
        -11    1    5    5    0    0  0.73803880619E+02 -0.28530301017E+03  0.24820842386E+02  0.29573788162E+03  0.00000000000E+00 0.  1.
          5    1    6    6  503    0  0.16850713908E+03  0.78995716858E+02  0.13927305621E+03  0.23249527606E+03  0.47000000000E+01 0. -1.
         -5    1    6    6    0  503  0.53355059271E+02  0.92644886677E+02  0.11640464928E+03  0.15812011179E+03  0.47000000000E+01 0.  1.
<mgrwt>
<rscale>  0 0.49389273E+03</rscale>
<asrwt>0</asrwt>
<pdfrwt beam="1">  1        1 0.20821682E+00 0.49389273E+03</pdfrwt>
<pdfrwt beam="2">  1       -1 0.39203448E-01 0.49389273E+03</pdfrwt>
<totfact> 0.55529847E+01</totfact>
</mgrwt>
</event>
<event>
12    1  0.3166324E-008  0.5572593E+03  0.7818608E-02  0.9998275E-01
          2   -1    0    0  501    0  0.00000000000E+00  0.00000000000E+00  0.52280493864E+03  0.52280493864E+03  0.00000000000E+00 0. -1.
         -2   -1    0    0    0  501 -0.00000000000E+00 -0.00000000000E+00 -0.94914235732E+03  0.94914235732E+03  0.00000000000E+00 0.  1.
         23    2    1    2    0    0  0.51014207859E+03 -0.40506403778E+02 -0.44217086584E+03  0.68366777744E+03  0.10000423097E+03 0.  0.
    5000000    2    1    2    0    0 -0.51014207859E+03  0.40506403778E+02  0.15833447161E+02  0.78827951852E+03  0.59937316605E+03 0.  0.
         23    2    4    4    0    0 -0.24987818244E+03  0.15295543230E+03  0.26059646284E+03  0.40283280099E+03  0.92354094517E+02 0.  0.
         23    2    4    4    0    0 -0.26026389615E+03 -0.11244902853E+03 -0.24476301568E+03  0.38544671753E+03  0.90984386326E+02 0.  0.
          2    1    3    3  502    0  0.35014483332E+03  0.37098319766E+01 -0.34373037907E+03  0.49067885694E+03  0.00000000000E+00 0. -1.
         -2    1    3    3    0  502  0.15999724527E+03 -0.44216235755E+02 -0.98440486772E+02  0.19298892050E+03  0.00000000000E+00 0.  1.
         11    1    5    5    0    0 -0.84638730375E+02  0.10054286130E+03  0.87714081569E+02  0.15800741041E+03  0.00000000000E+00 0. -1.
        -11    1    5    5    0    0 -0.16523945207E+03  0.52412571005E+02  0.17288238128E+03  0.24482539058E+03  0.00000000000E+00 0.  1.
          5    1    6    6  503    0 -0.19305771914E+03 -0.45080284095E+02 -0.19431491500E+03  0.27763985867E+03  0.47000000000E+01 0. -1.
         -5    1    6    6    0  503 -0.67206177014E+02 -0.67368744431E+02 -0.50448100686E+02  0.10780685886E+03  0.47000000000E+01 0.  1.
<mgrwt>
<rscale>  0 0.55725934E+03</rscale>
<asrwt>0</asrwt>
<pdfrwt beam="1">  1        2 0.80431529E-01 0.55725934E+03</pdfrwt>
<pdfrwt beam="2">  1       -2 0.14602190E+00 0.55725934E+03</pdfrwt>
<totfact> 0.19436949E+01</totfact>
</mgrwt>
</event>
<event>
12    1  0.3166324E-008  0.4509385E+03  0.7818608E-02  0.1027443E+00
          1   -1    0    0  501    0  0.00000000000E+00  0.00000000000E+00  0.19990893850E+03  0.19990893850E+03  0.00000000000E+00 0. -1.
         -1   -1    0    0    0  501 -0.00000000000E+00 -0.00000000000E+00 -0.13858268097E+04  0.13858268097E+04  0.00000000000E+00 0.  1.
         23    2    1    2    0    0  0.58117648604E+02  0.24812434122E+03 -0.50260631023E+02  0.27628895526E+03  0.94160002027E+02 0.  0.
    5000000    2    1    2    0    0 -0.58117648604E+02 -0.24812434122E+03 -0.11356572401E+04  0.13094467929E+04  0.59999182209E+03 0.  0.
         23    2    4    4    0    0 -0.30074857638E+03 -0.53784337794E+02 -0.65721658651E+03  0.73050452284E+03  0.91437164883E+02 0.  0.
         23    2    4    4    0    0  0.24263092778E+03 -0.19434000342E+03 -0.47844065363E+03  0.57894227006E+03  0.98137092742E+02 0.  0.
          3    1    3    3  502    0  0.78910790369E+02  0.13775517859E+03 -0.20282955756E+02  0.16004624444E+03  0.00000000000E+00 0. -1.
         -3    1    3    3    0  502 -0.20793141765E+02  0.11036916263E+03 -0.29977675267E+02  0.11624271082E+03  0.00000000000E+00 0.  1.
         13    1    5    5    0    0 -0.27506607066E+03 -0.72192063465E+02 -0.61680153328E+03  0.67920333385E+03  0.00000000000E+00 0. -1.
        -13    1    5    5    0    0 -0.25682505721E+02  0.18407725671E+02 -0.40415053230E+02  0.51301188992E+02  0.00000000000E+00 0.  1.
          5    1    6    6  503    0  0.16848254291E+03 -0.10477092813E+03 -0.22472665458E+03  0.29981239788E+03  0.47000000000E+01 0. -1.
         -5    1    6    6    0  503  0.74148384868E+02 -0.89569075298E+02 -0.25371399905E+03  0.27912987217E+03  0.47000000000E+01 0.  1.
<mgrwt>
<rscale>  0 0.45093854E+03</rscale>
<asrwt>0</asrwt>
<pdfrwt beam="1">  1        1 0.30755220E-01 0.45093854E+03</pdfrwt>
<pdfrwt beam="2">  1       -1 0.21320413E+00 0.45093854E+03</pdfrwt>
<totfact> 0.19445901E+01</totfact>
</mgrwt>
</event>
<event>
12    1  0.3166324E-008  0.7842644E+03  0.7818608E-02  0.9583077E-01
          1   -1    0    0  501    0  0.00000000000E+00  0.00000000000E+00  0.18659738019E+04  0.18659738019E+04  0.00000000000E+00 0. -1.
         -1   -1    0    0    0  501 -0.00000000000E+00 -0.00000000000E+00 -0.75172308373E+03  0.75172308373E+03  0.00000000000E+00 0.  1.
         23    2    1    2    0    0  0.59839545239E+03  0.32040466099E+03 -0.44337639168E+03  0.81578034402E+03  0.90436058988E+02 0.  0.
    5000000    2    1    2    0    0 -0.59839545239E+03 -0.32040466099E+03  0.15576271098E+04  0.18019165416E+04  0.59997062043E+03 0.  0.
         23    2    4    4    0    0 -0.23698278979E+03  0.15277769363E+03  0.40235731555E+03  0.49927934585E+03  0.88806472078E+02 0.  0.
         23    2    4    4    0    0 -0.36141266259E+03 -0.47318235462E+03  0.11552697943E+04  0.13026371957E+04  0.87719511894E+02 0.  0.
          2    1    3    3  502    0  0.33530313675E+03  0.18179673431E+03 -0.30206770695E+03  0.48654202871E+03  0.00000000000E+00 0. -1.
         -2    1    3    3    0  502  0.26309231564E+03  0.13860792667E+03 -0.14130868473E+03  0.32923831530E+03  0.00000000000E+00 0.  1.
         13    1    5    5    0    0 -0.15920228372E+03  0.13495562530E+03  0.23781267594E+03  0.31640679003E+03  0.00000000000E+00 0.  1.
        -13    1    5    5    0    0 -0.77780506079E+02  0.17822068328E+02  0.16454463962E+03  0.18287255582E+03  0.00000000000E+00 0. -1.
          5    1    6    6  503    0 -0.26419310612E+03 -0.28043679675E+03  0.71203432461E+03  0.80960346078E+03  0.47000000000E+01 0. -1.
         -5    1    6    6    0  503 -0.97219556477E+02 -0.19274555787E+03  0.44323546966E+03  0.49303373496E+03  0.47000000000E+01 0.  1.
<mgrwt>
<rscale>  0 0.78426440E+03</rscale>
<asrwt>0</asrwt>
<pdfrwt beam="1">  1        1 0.28707289E+00 0.78426440E+03</pdfrwt>
<pdfrwt beam="2">  1       -1 0.11564971E+00 0.78426440E+03</pdfrwt>
<totfact> 0.25984121E+00</totfact>
</mgrwt>
</event>
<event>
12    1  0.3166324E-008  0.1234591E+04  0.7818608E-02  0.9083107E-01
          1   -1    0    0  501    0  0.00000000000E+00  0.00000000000E+00  0.27013510900E+04  0.27013510900E+04  0.00000000000E+00 0. -1.
         -1   -1    0    0    0  501 -0.00000000000E+00 -0.00000000000E+00 -0.57483364810E+03  0.57483364810E+03  0.00000000000E+00 0.  1.
         23    2    1    2    0    0  0.11275797306E+04 -0.30889240987E+03  0.11108341479E+04  0.16153033740E+04  0.91661966622E+02 0.  0.
    5000000    2    1    2    0    0 -0.11275797306E+04  0.30889240987E+03  0.10156832939E+04  0.16608813641E+04  0.60005314950E+03 0.  0.
         23    2    4    4    0    0 -0.20789175935E+03 -0.15664293756E+03  0.26233323629E+03  0.38073695732E+03  0.91574616093E+02 0.  0.
         23    2    4    4    0    0 -0.91968797124E+03  0.46553534742E+03  0.75335005765E+03  0.12801444068E+04  0.93189423438E+02 0.  0.
          4    1    3    3  502    0  0.10177264306E+04 -0.29487805660E+03  0.97364891991E+03  0.14389970032E+04  0.00000000000E+00 0. -1.
         -4    1    3    3    0  502  0.10985329995E+03 -0.14014353268E+02  0.13718522802E+03  0.17630637083E+03  0.00000000000E+00 0.  1.
         13    1    5    5    0    0 -0.12322052214E+03 -0.53065148850E+02  0.17683541825E+03  0.22196840371E+03  0.00000000000E+00 0. -1.
        -13    1    5    5    0    0 -0.84671237206E+02 -0.10357778871E+03  0.85497818038E+02  0.15876855360E+03  0.00000000000E+00 0.  1.
          5    1    6    6  503    0 -0.28874992912E+03  0.14037776646E+03  0.18305960806E+03  0.36961513631E+03  0.47000000000E+01 0. -1.
         -5    1    6    6    0  503 -0.63093804212E+03  0.32515758096E+03  0.57029044959E+03  0.91052927045E+03  0.47000000000E+01 0.  1.
<mgrwt>
<rscale>  0 0.12345910E+04</rscale>
<asrwt>0</asrwt>
<pdfrwt beam="1">  1        1 0.41559247E+00 0.12345910E+04</pdfrwt>
<pdfrwt beam="2">  1       -1 0.88435948E-01 0.12345910E+04</pdfrwt>
<totfact> 0.12158536E+00</totfact>
</mgrwt>
</event>
<event>
12    1  0.3166324E-008  0.6013914E+03  0.7818608E-02  0.9902523E-01
          3   -1    0    0  501    0  0.00000000000E+00  0.00000000000E+00  0.12970997428E+04  0.12970997428E+04  0.00000000000E+00 0. -1.
         -3   -1    0    0    0  501 -0.00000000000E+00 -0.00000000000E+00 -0.32183613684E+03  0.32183613684E+03  0.00000000000E+00 0.  1.
         23    2    1    2    0    0  0.86982607459E+02 -0.45488631912E+03  0.62698835256E+03  0.78474882660E+03  0.90712674325E+02 0.  0.
    5000000    2    1    2    0    0 -0.86982607459E+02  0.45488631912E+03  0.34827525342E+03  0.83418705304E+03  0.60007070417E+03 0.  0.
         23    2    4    4    0    0 -0.27112563653E+03  0.47139066849E+03  0.24994439982E+03  0.60543506476E+03  0.91439277783E+02 0.  0.
         23    2    4    4    0    0  0.18414302907E+03 -0.16504349362E+02  0.98330853595E+02  0.22875198828E+03  0.92073159354E+02 0.  0.
          2    1    3    3  502    0 -0.95163369944E+00 -0.80354859455E+02  0.63337013021E+02  0.10232001888E+03  0.00000000000E+00 0. -1.
         -2    1    3    3    0  502  0.87934241158E+02 -0.37453145967E+03  0.56365133954E+03  0.68242880772E+03  0.00000000000E+00 0.  1.
         11    1    5    5    0    0 -0.24343736672E+03  0.45512619213E+03  0.21848021861E+03  0.56047766075E+03  0.00000000000E+00 0. -1.
        -11    1    5    5    0    0 -0.27688269801E+02  0.16264476360E+02  0.31464181214E+02  0.44957404009E+02  0.00000000000E+00 0.  1.
          5    1    6    6  503    0  0.13730083008E+03  0.54919154477E+01  0.26379277355E+02  0.13999869767E+03  0.47000000000E+01 0. -1.
         -5    1    6    6    0  503  0.46842198992E+02 -0.21996264809E+02  0.71951576240E+02  0.88753290617E+02  0.47000000000E+01 0.  1.
<mgrwt>
<rscale>  0 0.60139144E+03</rscale>
<asrwt>0</asrwt>
<pdfrwt beam="1">  1        3 0.19955380E+00 0.60139144E+03</pdfrwt>
<pdfrwt beam="2">  1       -3 0.49513252E-01 0.60139144E+03</pdfrwt>
<totfact> 0.15830371E+00</totfact>
</mgrwt>
</event>
<event>
12    1  0.3166324E-008  0.4314343E+03  0.7818608E-02  0.1033408E+00
          2   -1    0    0  501    0  0.00000000000E+00  0.00000000000E+00  0.55486462765E+03  0.55486462765E+03  0.00000000000E+00 0.  1.
         -2   -1    0    0    0  501 -0.00000000000E+00 -0.00000000000E+00 -0.45381298281E+03  0.45381298281E+03  0.00000000000E+00 0. -1.
         23    2    1    2    0    0  0.11478440330E+03  0.25982834386E+03 -0.10091878378E+03  0.31467856001E+03  0.90287140249E+02 0.  0.
    5000000    2    1    2    0    0 -0.11478440330E+03 -0.25982834386E+03  0.20197042862E+03  0.69399905046E+03  0.60013031958E+03 0.  0.
         23    2    4    4    0    0 -0.15698773085E+03 -0.37298648959E+03  0.30041692012E+03  0.51108060563E+03  0.84787914863E+02 0.  0.
         23    2    4    4    0    0  0.42203327550E+02  0.11315814573E+03 -0.98446491497E+02  0.18291844482E+03  0.95820451717E+02 0.  0.
          1    1    3    3  502    0  0.12220716471E+02  0.13064760773E+03 -0.62380193898E+02  0.14529085280E+03  0.00000000000E+00 0. -1.
         -1    1    3    3    0  502  0.10256368683E+03  0.12918073613E+03 -0.38538589882E+02  0.16938770721E+03  0.00000000000E+00 0.  1.
         13    1    5    5    0    0 -0.15727045486E+03 -0.28561013580E+03  0.23400032753E+03  0.40132692275E+03  0.00000000000E+00 0. -1.
        -13    1    5    5    0    0  0.28272400759E+00 -0.87376353795E+02  0.66416592585E+02  0.10975368288E+03  0.00000000000E+00 0.  1.
          5    1    6    6  503    0  0.27404809918E+02  0.12848750196E+03 -0.90913221135E+02  0.15983543269E+03  0.47000000000E+01 0. -1.
         -5    1    6    6    0  503  0.14798517633E+02 -0.15329356233E+02 -0.75332703621E+01  0.23083012130E+02  0.47000000000E+01 0.  1.
<mgrwt>
<rscale>  0 0.43143430E+03</rscale>
<asrwt>0</asrwt>
<pdfrwt beam="1">  1        2 0.85363789E-01 0.43143430E+03</pdfrwt>
<pdfrwt beam="2">  1       -2 0.69817382E-01 0.43143430E+03</pdfrwt>
<totfact> 0.10532192E+02</totfact>
</mgrwt>
</event>
<event>
12    1  0.3166324E-008  0.1055021E+04  0.7818608E-02  0.9250175E-01
         -2   -1    0    0    0  501 -0.00000000000E+00  0.00000000000E+00  0.21241768463E+04  0.21241768463E+04  0.00000000000E+00 0. -1.
          2   -1    0    0  501    0  0.00000000000E+00 -0.00000000000E+00 -0.59232248560E+03  0.59232248560E+03  0.00000000000E+00 0.  1.
         23    2    1    2    0    0 -0.88559018065E+03 -0.48788831591E+03  0.42193071245E+03  0.10993528350E+04  0.90808330407E+02 0.  0.
    5000000    2    1    2    0    0  0.88559018065E+03  0.48788831591E+03  0.11099236483E+04  0.16171464969E+04  0.60077226185E+03 0.  0.
         23    2    4    4    0    0  0.31589751844E+02  0.18976608255E+03  0.47448397358E+02  0.21864860858E+03  0.92448824280E+02 0.  0.
         23    2    4    4    0    0  0.85400042881E+03  0.29812223335E+03  0.10624752509E+04  0.13984978883E+04  0.93536551404E+02 0.  0.
          4    1    3    3  502    0 -0.38790876629E+03 -0.21283237468E+03  0.23363145207E+03  0.50035436050E+03  0.00000000000E+00 0. -1.
         -4    1    3    3    0  502 -0.49768141436E+03 -0.27505594123E+03  0.18829926039E+03  0.59899847451E+03  0.00000000000E+00 0.  1.
         11    1    5    5    0    0  0.15181668836E+02  0.28862199583E+02 -0.25327255338E+02  0.41291397365E+02  0.00000000000E+00 0. -1.
        -11    1    5    5    0    0  0.16408083009E+02  0.16090388297E+03  0.72775652696E+02  0.17735721121E+03  0.00000000000E+00 0.  1.
          5    1    6    6  503    0  0.54546054255E+03  0.18862349153E+03  0.60764040340E+03  0.83806621151E+03  0.47000000000E+01 0. -1.
         -5    1    6    6    0  503  0.30853988626E+03  0.10949874182E+03  0.45483484751E+03  0.56043167682E+03  0.47000000000E+01 0.  1.
<mgrwt>
<rscale>  0 0.10550211E+04</rscale>
<asrwt>0</asrwt>
<pdfrwt beam="1">  1        2 0.91126537E-01 0.10550211E+04</pdfrwt>
<pdfrwt beam="2">  1       -2 0.32679644E+00 0.10550211E+04</pdfrwt>
<totfact> 0.10982538E+00</totfact>
</mgrwt>
</event>
<event>
12    1  0.3166324E-008  0.6094109E+03  0.7818608E-02  0.9886072E-01
          1   -1    0    0  501    0  0.00000000000E+00  0.00000000000E+00  0.20362068627E+04  0.20362068627E+04  0.00000000000E+00 0. -1.
         -1   -1    0    0    0  501 -0.00000000000E+00 -0.00000000000E+00 -0.21433375474E+03  0.21433375474E+03  0.00000000000E+00 0.  1.
         23    2    1    2    0    0 -0.26082014409E+03  0.38434318435E+03  0.11241511355E+04  0.12197571839E+04  0.91350869692E+02 0.  0.
    5000000    2    1    2    0    0  0.26082014409E+03 -0.38434318435E+03  0.69772197245E+03  0.10307834335E+04  0.59995975283E+03 0.  0.
         23    2    4    4    0    0 -0.17993139961E+03 -0.14222053390E+03  0.20666948141E+03  0.32180843348E+03  0.90809715800E+02 0.  0.
         23    2    4    4    0    0  0.44075154370E+03 -0.24212265045E+03  0.49105249104E+03  0.70897500002E+03  0.92885416316E+02 0.  0.
          4    1    3    3  502    0 -0.22577067794E+03  0.32383975087E+03  0.10253158068E+04  0.10986888035E+04  0.00000000000E+00 0. -1.
         -4    1    3    3    0  502 -0.35049466152E+02  0.60503433484E+02  0.98835328650E+02  0.12106838039E+03  0.00000000000E+00 0.  1.
         13    1    5    5    0    0 -0.72857536897E+02 -0.11013448542E+03  0.13601167804E+03  0.18957057294E+03  0.00000000000E+00 0. -1.
        -13    1    5    5    0    0 -0.10707386271E+03 -0.32086048481E+02  0.70657803376E+02  0.13223786054E+03  0.00000000000E+00 0.  1.
          5    1    6    6  503    0  0.60562971387E+02 -0.70731811881E+02  0.10825129730E+03  0.14286810730E+03  0.47000000000E+01 0. -1.
         -5    1    6    6    0  503  0.38018857231E+03 -0.17139083857E+03  0.38280119374E+03  0.56610689273E+03  0.47000000000E+01 0.  1.
<mgrwt>
<rscale>  0 0.60941086E+03</rscale>
<asrwt>0</asrwt>
<pdfrwt beam="1">  1        1 0.31326258E+00 0.60941086E+03</pdfrwt>
<pdfrwt beam="2">  1       -1 0.32974425E-01 0.60941086E+03</pdfrwt>
<totfact> 0.25803923E+01</totfact>
</mgrwt>
</event>
<event>
12    1  0.3166324E-008  0.9406978E+03  0.7818608E-02  0.9376090E-01
         -1   -1    0    0    0  501 -0.00000000000E+00  0.00000000000E+00  0.45101743764E+03  0.45101743764E+03  0.00000000000E+00 0.  1.
          1   -1    0    0  501    0  0.00000000000E+00 -0.00000000000E+00 -0.32962657152E+04  0.32962657152E+04  0.00000000000E+00 0. -1.
         23    2    1    2    0    0  0.35825598833E+03 -0.77335210617E+03 -0.16696155375E+03  0.87333248281E+03  0.91720400148E+02 0.  0.
    5000000    2    1    2    0    0 -0.35825598833E+03  0.77335210617E+03 -0.26782867238E+04  0.28739506700E+04  0.59995986998E+03 0.  0.
         23    2    4    4    0    0 -0.41734979916E+03  0.23930531192E+03 -0.14390199148E+04  0.15200718986E+04  0.91609904715E+02 0.  0.
         23    2    4    4    0    0  0.59093810836E+02  0.53404679426E+03 -0.12392668090E+04  0.13538787714E+04  0.92235821773E+02 0.  0.
          4    1    3    3  502    0  0.19038114062E+03 -0.39452732957E+03 -0.13194674106E+03  0.45750053001E+03  0.00000000000E+00 0. -1.
         -4    1    3    3    0  502  0.16787484770E+03 -0.37882477660E+03 -0.35014812685E+02  0.41583195280E+03  0.00000000000E+00 0.  1.
         11    1    5    5    0    0 -0.36945637082E+03  0.17767192835E+03 -0.11585825083E+04  0.12289746753E+04  0.00000000000E+00 0. -1.
        -11    1    5    5    0    0 -0.47893428343E+02  0.61633383565E+02 -0.28043740655E+03  0.29109722335E+03  0.00000000000E+00 0.  1.
          5    1    6    6  503    0  0.64354584156E+02  0.30209690158E+03 -0.62331173705E+03  0.69566059396E+03  0.47000000000E+01 0. -1.
         -5    1    6    6    0  503 -0.52607733200E+01  0.23194989268E+03 -0.61595507191E+03  0.65821817740E+03  0.47000000000E+01 0.  1.
<mgrwt>
<rscale>  0 0.94069782E+03</rscale>
<asrwt>0</asrwt>
<pdfrwt beam="1">  1        1 0.50711780E+00 0.94069782E+03</pdfrwt>
<pdfrwt beam="2">  1       -1 0.69387298E-01 0.94069782E+03</pdfrwt>
<totfact> 0.78972685E-01</totfact>
</mgrwt>
</event>
<event>
12    1  0.3166324E-008  0.3697133E+03  0.7818608E-02  0.1054803E+00
         -2   -1    0    0    0  501 -0.00000000000E+00  0.00000000000E+00  0.57382926489E+03  0.57382926489E+03  0.00000000000E+00 0.  1.
          2   -1    0    0  501    0  0.00000000000E+00 -0.00000000000E+00 -0.60207876051E+03  0.60207876051E+03  0.00000000000E+00 0. -1.
         23    2    1    2    0    0  0.69657560625E+02  0.34510210672E+03 -0.25473412092E+03  0.44420952364E+03  0.92113998449E+02 0.  0.
    5000000    2    1    2    0    0 -0.69657560625E+02 -0.34510210672E+03  0.22648462530E+03  0.73169850176E+03  0.60011646550E+03 0.  0.
         23    2    4    4    0    0 -0.17641359805E+02 -0.65181073091E+02 -0.18866252270E+03  0.22011462577E+03  0.91088479723E+02 0.  0.
         23    2    4    4    0    0 -0.52016200820E+02 -0.27992103363E+03  0.41514714801E+03  0.51158387599E+03  0.91156115865E+02 0.  0.
          1    1    3    3  502    0  0.45064260281E+02  0.27460250798E+03 -0.15161961254E+03  0.31690035004E+03  0.00000000000E+00 0. -1.
         -1    1    3    3    0  502  0.24593300344E+02  0.70499598741E+02 -0.10311450838E+03  0.12730917360E+03  0.00000000000E+00 0.  1.
         11    1    5    5    0    0  0.12345227098E+02  0.71133088031E+01 -0.10339695340E+03  0.10437400906E+03  0.00000000000E+00 0.  1.
        -11    1    5    5    0    0 -0.29986586903E+02 -0.72294381894E+02 -0.85265569303E+02  0.11574061671E+03  0.00000000000E+00 0. -1.
          5    1    6    6  503    0 -0.66195776888E+02 -0.16138458741E+03  0.19944424983E+03  0.26500370700E+03  0.47000000000E+01 0. -1.
         -5    1    6    6    0  503  0.14179576068E+02 -0.11853644622E+03  0.21570289818E+03  0.24658016900E+03  0.47000000000E+01 0.  1.
<mgrwt>
<rscale>  0 0.36971332E+03</rscale>
<asrwt>0</asrwt>
<pdfrwt beam="1">  1        2 0.92627501E-01 0.36971332E+03</pdfrwt>
<pdfrwt beam="2">  1       -2 0.88281426E-01 0.36971332E+03</pdfrwt>
<totfact> 0.57264683E+01</totfact>
</mgrwt>
</event>
<event>
12    1  0.3166324E-008  0.4191608E+03  0.7818608E-02  0.1037340E+00
          1   -1    0    0  501    0  0.00000000000E+00  0.00000000000E+00  0.78094888540E+03  0.78094888540E+03  0.00000000000E+00 0. -1.
         -1   -1    0    0    0  501 -0.00000000000E+00 -0.00000000000E+00 -0.25812950924E+03  0.25812950924E+03  0.00000000000E+00 0.  1.
         23    2    1    2    0    0 -0.17049420153E+03  0.15837064018E+03  0.10913622038E+03  0.27418606189E+03  0.95486907531E+02 0.  0.
    5000000    2    1    2    0    0  0.17049420153E+03 -0.15837064018E+03  0.41368315579E+03  0.76489233275E+03  0.59981413362E+03 0.  0.
         23    2    4    4    0    0  0.22806772878E+03  0.15616568675E+03  0.99409465296E+02  0.30724603362E+03  0.90084808688E+02 0.  0.
         23    2    4    4    0    0 -0.57573527254E+02 -0.31453632693E+03  0.31427369049E+03  0.45764629913E+03  0.91784369975E+02 0.  0.
          4    1    3    3  502    0 -0.54357487667E+02  0.54817658396E+02  0.88154578219E+02  0.11717910137E+03  0.00000000000E+00 0. -1.
         -4    1    3    3    0  502 -0.11613671386E+03  0.10355298179E+03  0.20981642160E+02  0.15700696052E+03  0.00000000000E+00 0.  1.
         13    1    5    5    0    0  0.19794665654E+03  0.99820380023E+02  0.52059058641E+02  0.22772161226E+03  0.00000000000E+00 0.  1.
        -13    1    5    5    0    0  0.30121072246E+02  0.56345306725E+02  0.47350406655E+02  0.79524421366E+02  0.00000000000E+00 0. -1.
          5    1    6    6  503    0 -0.29588813610E+02 -0.17549478516E+03  0.23587769570E+03  0.29552376357E+03  0.47000000000E+01 0. -1.
         -5    1    6    6    0  503 -0.27984713644E+02 -0.13904154177E+03  0.78395994796E+02  0.16212253555E+03  0.47000000000E+01 0.  1.
<mgrwt>
<rscale>  0 0.41916078E+03</rscale>
<asrwt>0</asrwt>
<pdfrwt beam="1">  1        1 0.12014598E+00 0.41916078E+03</pdfrwt>
<pdfrwt beam="2">  1       -1 0.39712232E-01 0.41916078E+03</pdfrwt>
<totfact> 0.14820543E+02</totfact>
</mgrwt>
</event>
<event>
12    1  0.3498181E-008  0.9551672E+03  0.7818608E-02  0.9359131E-01
         -1   -1    0    0    0  501 -0.00000000000E+00  0.00000000000E+00  0.40818530487E+03  0.40818530487E+03  0.00000000000E+00 0.  1.
          1   -1    0    0  501    0  0.00000000000E+00 -0.00000000000E+00 -0.28145029639E+04  0.28145029639E+04  0.00000000000E+00 0. -1.
         23    2    1    2    0    0  0.91286497951E+03 -0.41638250903E+02 -0.16673260303E+04  0.19031809348E+04  0.84055721904E+02 0.  0.
    5000000    2    1    2    0    0 -0.91286497951E+03  0.41638250903E+02 -0.73899162872E+03  0.13195073340E+04  0.59994563287E+03 0.  0.
         23    2    4    4    0    0 -0.52609417711E+03  0.20435324462E+03 -0.15145874575E+03  0.59157940961E+03  0.92147243201E+02 0.  0.
         23    2    4    4    0    0 -0.38677080241E+03 -0.16271499372E+03 -0.58753288297E+03  0.72792792440E+03  0.92824305927E+02 0.  0.
          3    1    3    3  502    0  0.57553477572E+03 -0.66055032682E+02 -0.10690403911E+04  0.12159156645E+04  0.00000000000E+00 0. -1.
         -3    1    3    3    0  502  0.33733020380E+03  0.24416781779E+02 -0.59828563918E+03  0.68726527024E+03  0.00000000000E+00 0.  1.
         11    1    5    5    0    0 -0.20707766023E+03  0.12542867532E+03 -0.45957765838E+02  0.24642570118E+03  0.00000000000E+00 0.  1.
        -11    1    5    5    0    0 -0.31901651688E+03  0.78924569304E+02 -0.10550097992E+03  0.34515370843E+03  0.00000000000E+00 0. -1.
          5    1    6    6  503    0 -0.28446581533E+03 -0.97925720288E+02 -0.35219779957E+03  0.46322308536E+03  0.47000000000E+01 0. -1.
         -5    1    6    6    0  503 -0.10230498707E+03 -0.64789273431E+02 -0.23533508340E+03  0.26470483904E+03  0.47000000000E+01 0.  1.
<mgrwt>
<rscale>  0 0.95516721E+03</rscale>
<asrwt>0</asrwt>
<pdfrwt beam="1">  1        1 0.43300047E+00 0.95516721E+03</pdfrwt>
<pdfrwt beam="2">  1       -1 0.62797738E-01 0.95516721E+03</pdfrwt>
<totfact> 0.21590428E+00</totfact>
</mgrwt>
</event>
<event>
12    1  0.3166324E-008  0.1105315E+04  0.7818608E-02  0.9200027E-01
         -2   -1    0    0    0  501 -0.00000000000E+00  0.00000000000E+00  0.67529414738E+03  0.67529414738E+03  0.00000000000E+00 0.  1.
          2   -1    0    0  501    0  0.00000000000E+00 -0.00000000000E+00 -0.39124123948E+04  0.39124123948E+04  0.00000000000E+00 0. -1.
         23    2    1    2    0    0 -0.38412624153E+03 -0.99450651725E+03 -0.31886004088E+04  0.33633611991E+04  0.91813974764E+02 0.  0.
    5000000    2    1    2    0    0  0.38412624153E+03  0.99450651725E+03 -0.48517838545E+02  0.12243453431E+04  0.60005946048E+03 0.  0.
         23    2    4    4    0    0  0.13110919345E+03  0.50099785423E+02  0.14637597254E+03  0.22266960928E+03  0.91957710117E+02 0.  0.
         23    2    4    4    0    0  0.25301704808E+03  0.94440673183E+03 -0.19489381109E+03  0.10016757338E+04  0.97205844973E+02 0.  0.
          1    1    3    3  502    0 -0.22232182586E+02 -0.90711668996E+02 -0.35955639523E+03  0.37148846306E+03  0.00000000000E+00 0. -1.
         -1    1    3    3    0  502 -0.36189405894E+03 -0.90379484825E+03 -0.28290440136E+04  0.29918727360E+04  0.00000000000E+00 0.  1.
         13    1    5    5    0    0  0.13173890022E+03  0.17150247252E+02  0.10250306623E+03  0.16779793622E+03  0.00000000000E+00 0. -1.
        -13    1    5    5    0    0 -0.62970676406E+00  0.32949538170E+02  0.43872906313E+02  0.54871673061E+02  0.00000000000E+00 0.  1.
          5    1    6    6  503    0  0.21567131444E+03  0.81924839359E+03 -0.20151824753E+03  0.87081211542E+03  0.47000000000E+01 0. -1.
         -5    1    6    6    0  503  0.37345733641E+02  0.12515833824E+03  0.66244364443E+01  0.13086361836E+03  0.47000000000E+01 0.  1.
<mgrwt>
<rscale>  0 0.11053145E+04</rscale>
<asrwt>0</asrwt>
<pdfrwt beam="1">  1        2 0.60190960E+00 0.11053145E+04</pdfrwt>
<pdfrwt beam="2">  1       -2 0.10389141E+00 0.11053145E+04</pdfrwt>
<totfact> 0.31124370E-01</totfact>
</mgrwt>
</event>
<event>
12    1  0.3166324E-008  0.5540703E+03  0.7818608E-02  0.1000556E+00
          2   -1    0    0  501    0  0.00000000000E+00  0.00000000000E+00  0.87864946110E+03  0.87864946110E+03  0.00000000000E+00 0. -1.
         -2   -1    0    0    0  501 -0.00000000000E+00 -0.00000000000E+00 -0.64464736003E+03  0.64464736003E+03  0.00000000000E+00 0.  1.
         23    2    1    2    0    0  0.33342819527E+03  0.24882176647E+03 -0.37920453080E+03  0.56979976361E+03  0.88255660200E+02 0.  0.
    5000000    2    1    2    0    0 -0.33342819527E+03 -0.24882176647E+03  0.61320663187E+03  0.95349705752E+03  0.60003969240E+03 0.  0.
         23    2    4    4    0    0  0.10527378122E+03 -0.21690511250E+03  0.11361800224E+03  0.28182224337E+03  0.91565984862E+02 0.  0.
         23    2    4    4    0    0 -0.43870197650E+03 -0.31916653971E+02  0.49958862962E+03  0.67167481415E+03  0.89889710933E+02 0.  0.
          2    1    3    3  502    0  0.22510394811E+03  0.20707387286E+03 -0.24163679249E+03  0.38979445322E+03  0.00000000000E+00 0. -1.
         -2    1    3    3    0  502  0.10832424716E+03  0.41747893607E+02 -0.13756773831E+03  0.18000531039E+03  0.00000000000E+00 0.  1.
         11    1    5    5    0    0  0.10523213305E+03 -0.21587921823E+03  0.12475942320E+03  0.27063361278E+03  0.00000000000E+00 0. -1.
        -11    1    5    5    0    0  0.41648171261E-01 -0.10258942648E+01 -0.11141420952E+02  0.11188630588E+02  0.00000000000E+00 0.  1.
          5    1    6    6  503    0 -0.33529825245E+03 -0.52633222649E+02  0.34081897708E+03  0.48101438581E+03  0.47000000000E+01 0. -1.
         -5    1    6    6    0  503 -0.10340372405E+03  0.20716568678E+02  0.15876965254E+03  0.19066042834E+03  0.47000000000E+01 0.  1.
<mgrwt>
<rscale>  0 0.55407033E+03</rscale>
<asrwt>0</asrwt>
<pdfrwt beam="1">  1        2 0.13517684E+00 0.55407033E+03</pdfrwt>
<pdfrwt beam="2">  1       -2 0.99176517E-01 0.55407033E+03</pdfrwt>
<totfact> 0.26489552E+01</totfact>
</mgrwt>
</event>
<event>
12    1  0.3166324E-008  0.8639105E+03  0.7818608E-02  0.9471855E-01
          2   -1    0    0  501    0  0.00000000000E+00  0.00000000000E+00  0.26982355118E+04  0.26982355118E+04  0.00000000000E+00 0. -1.
         -2   -1    0    0    0  501 -0.00000000000E+00 -0.00000000000E+00 -0.43101364190E+03  0.43101364190E+03  0.00000000000E+00 0.  1.
         23    2    1    2    0    0 -0.23558109727E+03 -0.78135413847E+03  0.22819667535E+03  0.85256957422E+03  0.93746536758E+02 0.  0.
    5000000    2    1    2    0    0  0.23558109727E+03  0.78135413847E+03  0.20390251945E+04  0.22766795795E+04  0.59969443929E+03 0.  0.
         23    2    4    4    0    0 -0.96157433535E+02  0.32520576451E+03  0.35889787542E+03  0.50214065987E+03  0.91282616189E+02 0.  0.
         23    2    4    4    0    0  0.33173853080E+03  0.45614837397E+03  0.16801273191E+04  0.17745389196E+04  0.89659226258E+02 0.  0.
          2    1    3    3  502    0 -0.10232872671E+03 -0.29188414445E+03  0.13177814769E+03  0.33620381066E+03  0.00000000000E+00 0. -1.
         -2    1    3    3    0  502 -0.13325237056E+03 -0.48946999402E+03  0.96418527653E+02  0.51636576357E+03  0.00000000000E+00 0.  1.
         11    1    5    5    0    0 -0.69809270306E+02  0.12574229155E+03  0.19690133147E+03  0.24383312417E+03  0.00000000000E+00 0. -1.
        -11    1    5    5    0    0 -0.26348163229E+02  0.19946347295E+03  0.16199654395E+03  0.25830753570E+03  0.00000000000E+00 0.  1.
          5    1    6    6  503    0  0.14385877002E+03  0.23938967126E+03  0.71322969162E+03  0.76597744316E+03  0.47000000000E+01 0. -1.
         -5    1    6    6    0  503  0.18787976079E+03  0.21675870270E+03  0.96689762751E+03  0.10085614765E+04  0.47000000000E+01 0.  1.
<mgrwt>
<rscale>  0 0.86391048E+03</rscale>
<asrwt>0</asrwt>
<pdfrwt beam="1">  1        2 0.41511315E+00 0.86391048E+03</pdfrwt>
<pdfrwt beam="2">  1       -2 0.66309792E-01 0.86391048E+03</pdfrwt>
<totfact> 0.57645371E+00</totfact>
</mgrwt>
</event>
<event>
12    1  0.3166324E-008  0.5708087E+03  0.7818608E-02  0.9967891E-01
         -2   -1    0    0    0  501 -0.00000000000E+00  0.00000000000E+00  0.29079492561E+03  0.29079492561E+03  0.00000000000E+00 0.  1.
          2   -1    0    0  501    0  0.00000000000E+00 -0.00000000000E+00 -0.13660405720E+04  0.13660405720E+04  0.00000000000E+00 0. -1.
         23    2    1    2    0    0 -0.29677856640E+03 -0.37586814916E+03 -0.47011906260E+03  0.67933697681E+03  0.10551024596E+03 0.  0.
    5000000    2    1    2    0    0  0.29677856640E+03  0.37586814916E+03 -0.60512658383E+03  0.97749852085E+03  0.59997566015E+03 0.  0.
         23    2    4    4    0    0  0.15201833300E+02 -0.85325529836E+02 -0.35175136996E+03  0.37421829295E+03  0.93801720305E+02 0.  0.
         23    2    4    4    0    0  0.28157673310E+03  0.46119367900E+03 -0.25337521387E+03  0.60328022790E+03  0.88107707924E+02 0.  0.
          3    1    3    3  502    0 -0.21376770679E+03 -0.28865926484E+03 -0.28507978304E+03  0.45857527882E+03  0.00000000000E+00 0. -1.
         -3    1    3    3    0  502 -0.83010859618E+02 -0.87208884328E+02 -0.18503927956E+03  0.22076169799E+03  0.00000000000E+00 0.  1.
         13    1    5    5    0    0  0.35423131881E+02 -0.93233550434E+02 -0.23223559121E+03  0.25274624235E+03  0.00000000000E+00 0. -1.
        -13    1    5    5    0    0 -0.20221298581E+02  0.79080205981E+01 -0.11951577875E+03  0.12147205060E+03  0.00000000000E+00 0.  1.
          5    1    6    6  503    0  0.15489950692E+03  0.24212688741E+03 -0.86833172684E+02  0.30030214240E+03  0.47000000000E+01 0. -1.
         -5    1    6    6    0  503  0.12667722619E+03  0.21906679159E+03 -0.16654204119E+03  0.30297808550E+03  0.47000000000E+01 0.  1.
<mgrwt>
<rscale>  0 0.57080869E+03</rscale>
<asrwt>0</asrwt>
<pdfrwt beam="1">  1        2 0.21016009E+00 0.57080869E+03</pdfrwt>
<pdfrwt beam="2">  1       -2 0.44737680E-01 0.57080869E+03</pdfrwt>
<totfact> 0.74429812E+01</totfact>
</mgrwt>
</event>
<event>
12    1  0.3166324E-008  0.8207103E+03  0.7818608E-02  0.9530514E-01
         -1   -1    0    0    0  501 -0.00000000000E+00  0.00000000000E+00  0.17574719607E+03  0.17574719607E+03  0.00000000000E+00 0.  1.
          1   -1    0    0  501    0  0.00000000000E+00 -0.00000000000E+00 -0.41386812072E+04  0.41386812072E+04  0.00000000000E+00 0. -1.
         23    2    1    2    0    0 -0.51247693605E+03 -0.53873697832E+03 -0.16566901285E+04  0.18180818330E+04  0.89046212199E+02 0.  0.
    5000000    2    1    2    0    0  0.51247693605E+03  0.53873697832E+03 -0.23062438826E+04  0.24963465702E+04  0.60009600136E+03 0.  0.
         23    2    4    4    0    0 -0.57143036917E+02  0.52408090795E+01 -0.76806838235E+02  0.13235830764E+03  0.91250416179E+02 0.  0.
         23    2    4    4    0    0  0.56961997297E+03  0.53349616924E+03 -0.22294370444E+04  0.23639882626E+04  0.94688408311E+02 0.  0.
          3    1    3    3  502    0 -0.29119486318E+03 -0.24165147430E+03 -0.83029544441E+03  0.91245844200E+03  0.00000000000E+00 0. -1.
         -3    1    3    3    0  502 -0.22128207288E+03 -0.29708550402E+03 -0.82639468407E+03  0.90562339100E+03  0.00000000000E+00 0.  1.
         13    1    5    5    0    0 -0.91805221770E+01 -0.39748554223E+02 -0.39340259510E+02  0.56673499703E+02  0.00000000000E+00 0. -1.
        -13    1    5    5    0    0 -0.47962514740E+02  0.44989363303E+02 -0.37466578726E+02  0.75684807934E+02  0.00000000000E+00 0.  1.
          5    1    6    6  503    0  0.91795928918E+02  0.13761852206E+03 -0.48788166646E+03  0.51518536532E+03  0.47000000000E+01 0. -1.
         -5    1    6    6    0  503  0.47782404405E+03  0.39587764718E+03 -0.17415553779E+04  0.18488028973E+04  0.47000000000E+01 0.  1.
<mgrwt>
<rscale>  0 0.82071035E+03</rscale>
<asrwt>0</asrwt>
<pdfrwt beam="1">  1        1 0.63672019E+00 0.82071035E+03</pdfrwt>
<pdfrwt beam="2">  1       -1 0.27038030E-01 0.82071035E+03</pdfrwt>
<totfact> 0.96311230E-01</totfact>
</mgrwt>
</event>
<event>
12    1  0.3166324E-008  0.4545573E+03  0.7818608E-02  0.1026372E+00
          2   -1    0    0  501    0  0.00000000000E+00  0.00000000000E+00  0.19136574068E+03  0.19136574068E+03  0.00000000000E+00 0. -1.
         -2   -1    0    0    0  501 -0.00000000000E+00 -0.00000000000E+00 -0.15227991674E+04  0.15227991674E+04  0.00000000000E+00 0.  1.
         23    2    1    2    0    0  0.13717558732E+03 -0.23499198903E+03 -0.78004193714E+02  0.29813426640E+03  0.93600266553E+02 0.  0.
    5000000    2    1    2    0    0 -0.13717558732E+03  0.23499198903E+03 -0.12534292330E+04  0.14160306417E+04  0.60001629924E+03 0.  0.
         23    2    4    4    0    0 -0.32311222429E+03  0.17172298193E+02 -0.84214982882E+03  0.90680389662E+03  0.91545482826E+02 0.  0.
         23    2    4    4    0    0  0.18593663697E+03  0.21781969084E+03 -0.41127940418E+03  0.50922674506E+03  0.90240117992E+02 0.  0.
          1    1    3    3  502    0  0.65153387334E+02 -0.19252901947E+03 -0.44536889838E+02  0.20807672088E+03  0.00000000000E+00 0. -1.
         -1    1    3    3    0  502  0.72022199989E+02 -0.42462969565E+02 -0.33467303876E+02  0.90057545515E+02  0.00000000000E+00 0.  1.
         13    1    5    5    0    0 -0.70390103925E+02  0.17805136364E+02 -0.29973556056E+03  0.30840427344E+03  0.00000000000E+00 0.  1.
        -13    1    5    5    0    0 -0.25272212036E+03 -0.63283817081E+00 -0.54241426826E+03  0.59839962317E+03  0.00000000000E+00 0. -1.
          5    1    6    6  503    0  0.14223865146E+03  0.20776991511E+03 -0.31816873814E+03  0.40577531655E+03  0.47000000000E+01 0. -1.
         -5    1    6    6    0  503  0.43697985504E+02  0.10049775732E+02 -0.93110666037E+02  0.10345142850E+03  0.47000000000E+01 0.  1.
<mgrwt>
<rscale>  0 0.45455733E+03</rscale>
<asrwt>0</asrwt>
<pdfrwt beam="1">  1        2 0.29440883E-01 0.45455733E+03</pdfrwt>
<pdfrwt beam="2">  1       -2 0.23427679E+00 0.45455733E+03</pdfrwt>
<totfact> 0.15464743E+01</totfact>
</mgrwt>
</event>
<event>
12    1  0.3166324E-008  0.8387056E+03  0.7818608E-02  0.9505622E-01
          2   -1    0    0  501    0  0.00000000000E+00  0.00000000000E+00  0.42862585050E+03  0.42862585050E+03  0.00000000000E+00 0. -1.
         -2   -1    0    0    0  501 -0.00000000000E+00 -0.00000000000E+00 -0.17494194546E+04  0.17494194546E+04  0.00000000000E+00 0.  1.
         23    2    1    2    0    0  0.49706997860E+03  0.56482408167E+03 -0.45871923334E+03  0.88606547509E+03  0.92649253870E+02 0.  0.
    5000000    2    1    2    0    0 -0.49706997860E+03 -0.56482408167E+03 -0.86207437081E+03  0.12919798301E+04  0.59994570887E+03 0.  0.
         23    2    4    4    0    0 -0.60206537902E+03 -0.54484245154E+03 -0.76018027696E+03  0.11160830738E+04  0.91822418381E+02 0.  0.
         23    2    4    4    0    0  0.10499540041E+03 -0.19981630134E+02 -0.10189409385E+03  0.17589675626E+03  0.95571768067E+02 0.  0.
          4    1    3    3  502    0  0.33555784986E+03  0.42054975331E+03 -0.36467314703E+03  0.64995974473E+03  0.00000000000E+00 0. -1.
         -4    1    3    3    0  502  0.16151212874E+03  0.14427432836E+03 -0.94046086312E+02  0.23610573036E+03  0.00000000000E+00 0.  1.
         11    1    5    5    0    0 -0.46685956703E+03 -0.46037431863E+03 -0.64192503131E+03  0.91758929506E+03  0.00000000000E+00 0.  1.
        -11    1    5    5    0    0 -0.13520581199E+03 -0.84468132903E+02 -0.11825524565E+03  0.19849377873E+03  0.00000000000E+00 0. -1.
          5    1    6    6  503    0  0.19109116185E+02 -0.13345323865E+01 -0.83739547547E+02  0.86031047427E+02  0.47000000000E+01 0. -1.
         -5    1    6    6    0  503  0.85886284227E+02 -0.18647097748E+02 -0.18154546300E+02  0.89865708834E+02  0.47000000000E+01 0.  1.
<mgrwt>
<rscale>  0 0.83870565E+03</rscale>
<asrwt>0</asrwt>
<pdfrwt beam="1">  1        2 0.65942437E-01 0.83870565E+03</pdfrwt>
<pdfrwt beam="2">  1       -2 0.26914146E+00 0.83870565E+03</pdfrwt>
<totfact> 0.36840727E+00</totfact>
</mgrwt>
</event>
<event>
12    1  0.3166324E-008  0.6652615E+03  0.7818608E-02  0.9778556E-01
          1   -1    0    0  501    0  0.00000000000E+00  0.00000000000E+00  0.27117684567E+04  0.27117684567E+04  0.00000000000E+00 0. -1.
         -1   -1    0    0    0  501 -0.00000000000E+00 -0.00000000000E+00 -0.28013168546E+03  0.28013168546E+03  0.00000000000E+00 0.  1.
         23    2    1    2    0    0  0.43114311408E+03  0.43741955971E+03  0.28706602737E+03  0.68183080511E+03  0.72567807540E+02 0.  0.
    5000000    2    1    2    0    0 -0.43114311408E+03 -0.43741955971E+03  0.21445707439E+04  0.23100693371E+04  0.60001367524E+03 0.  0.
         23    2    4    4    0    0 -0.15610367568E+03  0.40959886007E+02  0.11859646506E+04  0.12002815077E+04  0.90097033859E+02 0.  0.
         23    2    4    4    0    0 -0.27503943840E+03 -0.47837944572E+03  0.95860609330E+03  0.11097878293E+04  0.90607931678E+02 0.  0.
          3    1    3    3  502    0  0.37479429695E+03  0.40241608160E+03  0.27327986346E+03  0.61407764292E+03  0.00000000000E+00 0. -1.
         -3    1    3    3    0  502  0.56348817133E+02  0.35003478110E+02  0.13786163908E+02  0.67753162195E+02  0.00000000000E+00 0.  1.
         13    1    5    5    0    0 -0.60208077634E+02  0.21937029061E+02  0.21334381601E+03  0.22275957821E+03  0.00000000000E+00 0.  1.
        -13    1    5    5    0    0 -0.95895598045E+02  0.19022856946E+02  0.97262083460E+03  0.97752192953E+03  0.00000000000E+00 0. -1.
          5    1    6    6  503    0 -0.16794925981E+03 -0.26800967519E+03  0.63243850089E+03  0.70713272254E+03  0.47000000000E+01 0. -1.
         -5    1    6    6    0  503 -0.10709017860E+03 -0.21036977053E+03  0.32616759241E+03  0.40265510681E+03  0.47000000000E+01 0.  1.
<mgrwt>
<rscale>  0 0.66526150E+03</rscale>
<asrwt>0</asrwt>
<pdfrwt beam="1">  1        1 0.41719513E+00 0.66526150E+03</pdfrwt>
<pdfrwt beam="2">  1       -1 0.43097184E-01 0.66526150E+03</pdfrwt>
<totfact> 0.55159191E+00</totfact>
</mgrwt>
</event>
<event>
12    1  0.3166324E-008  0.4966483E+03  0.7818608E-02  0.1014657E+00
         -2   -1    0    0    0  501 -0.00000000000E+00  0.00000000000E+00  0.22586818898E+03  0.22586818898E+03  0.00000000000E+00 0.  1.
          2   -1    0    0  501    0  0.00000000000E+00 -0.00000000000E+00 -0.17313765479E+04  0.17313765479E+04  0.00000000000E+00 0. -1.
         23    2    1    2    0    0  0.21299117559E+01  0.36286178863E+03 -0.10660469185E+04  0.11297785110E+04  0.90940845439E+02 0.  0.
    5000000    2    1    2    0    0 -0.21299117559E+01 -0.36286178863E+03 -0.43946144050E+03  0.82746622594E+03  0.59991731365E+03 0.  0.
         23    2    4    4    0    0  0.16969251705E+03  0.37115165119E+02  0.80454960879E+01  0.19644365206E+03  0.91390878129E+02 0.  0.
         23    2    4    4    0    0 -0.17182242880E+03 -0.39997695375E+03 -0.44750693659E+03  0.63102257388E+03  0.91774287677E+02 0.  0.
          2    1    3    3  502    0 -0.36347966031E+02  0.10599701318E+03 -0.38141164729E+03  0.39753161651E+03  0.00000000000E+00 0. -1.
         -2    1    3    3    0  502  0.38477877787E+02  0.25686477545E+03 -0.68463527117E+03  0.73224689448E+03  0.00000000000E+00 0.  1.
         11    1    5    5    0    0  0.10133209040E+03  0.40506584078E+02 -0.36162146238E+02  0.11496380613E+03  0.00000000000E+00 0. -1.
        -11    1    5    5    0    0  0.68360426642E+02 -0.33914189595E+01  0.44207642326E+02  0.81479845933E+02  0.00000000000E+00 0.  1.
          5    1    6    6  503    0 -0.63222596094E+02 -0.61079796116E+02 -0.10579658318E+03  0.13763300899E+03  0.47000000000E+01 0. -1.
         -5    1    6    6    0  503 -0.10859983271E+03 -0.33889715763E+03 -0.34171035341E+03  0.49338956489E+03  0.47000000000E+01 0.  1.
<mgrwt>
<rscale>  0 0.49664832E+03</rscale>
<asrwt>0</asrwt>
<pdfrwt beam="1">  1        2 0.26636562E+00 0.49664832E+03</pdfrwt>
<pdfrwt beam="2">  1       -2 0.34748953E-01 0.49664832E+03</pdfrwt>
<totfact> 0.77294735E+01</totfact>
</mgrwt>
</event>
<event>
12    1  0.3166324E-008  0.4386572E+03  0.7818608E-02  0.1031160E+00
          2   -1    0    0  501    0  0.00000000000E+00  0.00000000000E+00  0.18806311305E+04  0.18806311305E+04  0.00000000000E+00 0. -1.
         -2   -1    0    0    0  501 -0.00000000000E+00 -0.00000000000E+00 -0.21495338795E+03  0.21495338795E+03  0.00000000000E+00 0.  1.
         23    2    1    2    0    0 -0.27802588862E+03  0.17781924300E+03  0.12467648826E+04  0.12928837415E+04  0.90595908091E+02 0.  0.
    5000000    2    1    2    0    0  0.27802588862E+03 -0.17781924300E+03  0.41891285996E+03  0.80270077699E+03  0.59993539254E+03 0.  0.
         23    2    4    4    0    0  0.13652886417E+03  0.11369630763E+03 -0.68248364971E+02  0.21050343110E+03  0.89927048584E+02 0.  0.
         23    2    4    4    0    0  0.14149702446E+03 -0.29151555062E+03  0.48716122493E+03  0.59219734589E+03  0.91481764400E+02 0.  0.
          2    1    3    3  502    0 -0.20772160552E+03  0.17510902780E+03  0.10076301117E+04  0.10436138553E+04  0.00000000000E+00 0. -1.
         -2    1    3    3    0  502 -0.70304283107E+02  0.27102151928E+01  0.23913477097E+03  0.24926988622E+03  0.00000000000E+00 0.  1.
         11    1    5    5    0    0  0.29578998371E+02 -0.13389861019E+02 -0.54187660650E+01  0.32917602410E+02  0.00000000000E+00 0. -1.
        -11    1    5    5    0    0  0.10694986579E+03  0.12708616864E+03 -0.62829598906E+02  0.17758582869E+03  0.00000000000E+00 0.  1.
          5    1    6    6  503    0  0.10717894325E+03 -0.11680781128E+03  0.22972172353E+03  0.27915148381E+03  0.47000000000E+01 0. -1.
         -5    1    6    6    0  503  0.34318081212E+02 -0.17470773934E+03  0.25743950140E+03  0.31304586208E+03  0.47000000000E+01 0.  1.
<mgrwt>
<rscale>  0 0.43865722E+03</rscale>
<asrwt>0</asrwt>
<pdfrwt beam="1">  1        2 0.28932785E+00 0.43865722E+03</pdfrwt>
<pdfrwt beam="2">  1       -2 0.33069753E-01 0.43865722E+03</pdfrwt>
<totfact> 0.71260666E+01</totfact>
</mgrwt>
</event>
<event>
12    1  0.3166324E-008  0.1141386E+04  0.7818608E-02  0.9165767E-01
         -2   -1    0    0    0  501 -0.00000000000E+00  0.00000000000E+00  0.11455759018E+04  0.11455759018E+04  0.00000000000E+00 0.  1.
          2   -1    0    0  501    0  0.00000000000E+00 -0.00000000000E+00 -0.17414657442E+04  0.17414657442E+04  0.00000000000E+00 0. -1.
         23    2    1    2    0    0 -0.78565240178E+03  0.73752853125E+03 -0.11089934080E+04  0.15512900604E+04  0.12424347693E+03 0.  0.
    5000000    2    1    2    0    0  0.78565240178E+03 -0.73752853125E+03  0.51310356566E+03  0.13357515856E+04  0.59979913190E+03 0.  0.
         23    2    4    4    0    0  0.40093993528E+03 -0.40318405572E+02  0.28179205898E+03  0.50138329819E+03  0.97979802336E+02 0.  0.
         23    2    4    4    0    0  0.38471246650E+03 -0.69721012568E+03  0.23131150668E+03  0.83436828746E+03  0.92519104862E+02 0.  0.
          1    1    3    3  502    0 -0.30121443723E+03  0.35129091068E+03 -0.42331631422E+03  0.62716197509E+03  0.00000000000E+00 0. -1.
         -1    1    3    3    0  502 -0.48443796455E+03  0.38623762057E+03 -0.68567709382E+03  0.92412808529E+03  0.00000000000E+00 0.  1.
         11    1    5    5    0    0  0.28820909436E+03 -0.40058202500E+02  0.25162072615E+03  0.38468445704E+03  0.00000000000E+00 0. -1.
        -11    1    5    5    0    0  0.11273084093E+03 -0.26020307213E+00  0.30171332830E+02  0.11669884115E+03  0.00000000000E+00 0.  1.
          5    1    6    6  503    0  0.35080431716E+03 -0.62214689170E+03  0.23463192383E+03  0.75180094005E+03  0.47000000000E+01 0. -1.
         -5    1    6    6    0  503  0.33908149331E+02 -0.75063233983E+02 -0.33204171460E+01  0.82567347402E+02  0.47000000000E+01 0.  1.
<mgrwt>
<rscale>  0 0.11413864E+04</rscale>
<asrwt>0</asrwt>
<pdfrwt beam="1">  1        2 0.26791781E+00 0.11413864E+04</pdfrwt>
<pdfrwt beam="2">  1       -2 0.17624245E+00 0.11413864E+04</pdfrwt>
<totfact> 0.17501605E+00</totfact>
</mgrwt>
</event>
<event>
12    1  0.3166324E-008  0.6169674E+03  0.7818608E-02  0.9870816E-01
         -2   -1    0    0    0  501 -0.00000000000E+00  0.00000000000E+00  0.13120636733E+04  0.13120636733E+04  0.00000000000E+00 0.  1.
          2   -1    0    0  501    0  0.00000000000E+00 -0.00000000000E+00 -0.39707216845E+03  0.39707216845E+03  0.00000000000E+00 0. -1.
         23    2    1    2    0    0 -0.42191159142E+03  0.38844597352E+03  0.56094878894E+03  0.80658142170E+03  0.83728016228E+02 0.  0.
    5000000    2    1    2    0    0  0.42191159142E+03 -0.38844597352E+03  0.35404271588E+03  0.90255442002E+03  0.60029873489E+03 0.  0.
         23    2    4    4    0    0  0.12020058813E+03  0.20850551636E+02 -0.12748923740E+03  0.19651201667E+03  0.86490115932E+02 0.  0.
         23    2    4    4    0    0  0.30171100330E+03 -0.40929652515E+03  0.48153195328E+03  0.70604240335E+03  0.89831388044E+02 0.  0.
          2    1    3    3  502    0 -0.16934389851E+03  0.16716732744E+03  0.17734961061E+03  0.29677458737E+03  0.00000000000E+00 0. -1.
         -2    1    3    3    0  502 -0.25256769291E+03  0.22127864608E+03  0.38359917834E+03  0.50980683433E+03  0.00000000000E+00 0.  1.
         11    1    5    5    0    0  0.66893882676E+02 -0.31698003759E+02 -0.54121281238E+02  0.91698789875E+02  0.00000000000E+00 0.  1.
        -11    1    5    5    0    0  0.53306705451E+02  0.52548555394E+02 -0.73367956163E+02  0.10481322680E+03  0.00000000000E+00 0. -1.
          5    1    6    6  503    0  0.14749683484E+03 -0.24436758923E+03  0.31717747498E+03  0.42672529289E+03  0.47000000000E+01 0. -1.
         -5    1    6    6    0  503  0.15421416846E+03 -0.16492893592E+03  0.16435447830E+03  0.27931711046E+03  0.47000000000E+01 0.  1.
<mgrwt>
<rscale>  0 0.61696743E+03</rscale>
<asrwt>0</asrwt>
<pdfrwt beam="1">  1        2 0.61088026E-01 0.61696743E+03</pdfrwt>
<pdfrwt beam="2">  1       -2 0.20185595E+00 0.61696743E+03</pdfrwt>
<totfact> 0.10723606E+01</totfact>
</mgrwt>
</event>
<event>
12    1  0.3166324E-008  0.6113281E+03  0.7818608E-02  0.9882179E-01
         -1   -1    0    0    0  501 -0.00000000000E+00  0.00000000000E+00  0.27027138224E+03  0.27027138224E+03  0.00000000000E+00 0.  1.
          1   -1    0    0  501    0  0.00000000000E+00 -0.00000000000E+00 -0.14944574216E+04  0.14944574216E+04  0.00000000000E+00 0. -1.
         23    2    1    2    0    0  0.42586391261E+03  0.19895813196E+03 -0.28951745248E+03  0.55868711245E+03  0.85828456742E+02 0.  0.
    5000000    2    1    2    0    0 -0.42586391261E+03 -0.19895813196E+03 -0.93466858690E+03  0.12060416914E+04  0.59998898637E+03 0.  0.
         23    2    4    4    0    0  0.12487794033E+03  0.26347382126E+02 -0.15838724602E+03  0.22353708657E+03  0.92701806068E+02 0.  0.
         23    2    4    4    0    0 -0.55074185294E+03 -0.22530551409E+03 -0.77628134089E+03  0.98250460485E+03  0.92862344819E+02 0.  0.
          4    1    3    3  502    0  0.20228903564E+03  0.14079715351E+03 -0.13892844879E+03  0.28292367568E+03  0.00000000000E+00 0.  1.
         -4    1    3    3    0  502  0.22357487697E+03  0.58160978459E+02 -0.15058900369E+03  0.27576343677E+03  0.00000000000E+00 0. -1.
         13    1    5    5    0    0 -0.30621659220E+01 -0.97031005525E+01 -0.52827837393E+02  0.53798767868E+02  0.00000000000E+00 0. -1.
        -13    1    5    5    0    0  0.12794010625E+03  0.36050482679E+02 -0.10555940862E+03  0.16973831871E+03  0.00000000000E+00 0.  1.
          5    1    6    6  503    0 -0.74188014123E+02 -0.66496323073E+02 -0.13740121969E+03  0.16978459174E+03  0.47000000000E+01 0. -1.
         -5    1    6    6    0  503 -0.47655383881E+03 -0.15880919102E+03 -0.63888012120E+03  0.81272001311E+03  0.47000000000E+01 0.  1.
<mgrwt>
<rscale>  0 0.61132811E+03</rscale>
<asrwt>0</asrwt>
<pdfrwt beam="1">  1        1 0.22991653E+00 0.61132811E+03</pdfrwt>
<pdfrwt beam="2">  1       -1 0.41580213E-01 0.61132811E+03</pdfrwt>
<totfact> 0.39246101E+01</totfact>
</mgrwt>
</event>
<event>
12    1  0.3166324E-008  0.5616322E+03  0.7818608E-02  0.9988368E-01
          1   -1    0    0  501    0  0.00000000000E+00  0.00000000000E+00  0.16145711537E+04  0.16145711537E+04  0.00000000000E+00 0. -1.
         -1   -1    0    0    0  501 -0.00000000000E+00 -0.00000000000E+00 -0.26663998614E+03  0.26663998614E+03  0.00000000000E+00 0.  1.
         23    2    1    2    0    0  0.93414619807E+02  0.48469110859E+03  0.73946081690E+03  0.89428848320E+03  0.96425253482E+02 0.  0.
    5000000    2    1    2    0    0 -0.93414619807E+02 -0.48469110859E+03  0.60847035068E+03  0.98692265666E+03  0.60010699099E+03 0.  0.
         23    2    4    4    0    0 -0.16902091710E+03 -0.49419012904E+03  0.20740424414E+03  0.56930816101E+03  0.91122486994E+02 0.  0.
         23    2    4    4    0    0  0.75606297296E+02  0.94990204548E+01  0.40106610653E+03  0.41761449565E+03  0.87984666790E+02 0.  0.
          2    1    3    3  502    0  0.43734635407E+02  0.13913041969E+03  0.15007964344E+03  0.20926990083E+03  0.00000000000E+00 0. -1.
         -2    1    3    3    0  502  0.49679984400E+02  0.34556068890E+03  0.58938117346E+03  0.68501858237E+03  0.00000000000E+00 0.  1.
         11    1    5    5    0    0 -0.10035779583E+01 -0.64106651171E+02  0.25431566387E+01  0.64164924521E+02  0.00000000000E+00 0. -1.
        -11    1    5    5    0    0 -0.16801733914E+03 -0.43008347787E+03  0.20486108751E+03  0.50514323649E+03  0.00000000000E+00 0.  1.
          5    1    6    6  503    0  0.57328476963E+02 -0.25323533583E+02  0.13869033830E+03  0.15226600265E+03  0.47000000000E+01 0. -1.
         -5    1    6    6    0  503  0.18277820333E+02  0.34822554038E+02  0.26237576823E+03  0.26534849300E+03  0.47000000000E+01 0.  1.
<mgrwt>
<rscale>  0 0.56163215E+03</rscale>
<asrwt>0</asrwt>
<pdfrwt beam="1">  1        1 0.24839556E+00 0.56163215E+03</pdfrwt>
<pdfrwt beam="2">  1       -1 0.41021537E-01 0.56163215E+03</pdfrwt>
<totfact> 0.33619505E+01</totfact>
</mgrwt>
</event>
<event>
12    1  0.3166324E-008  0.1299055E+04  0.7818608E-02  0.9030315E-01
         -2   -1    0    0    0  501 -0.00000000000E+00  0.00000000000E+00  0.73892102404E+03  0.73892102404E+03  0.00000000000E+00 0.  1.
          2   -1    0    0  501    0  0.00000000000E+00 -0.00000000000E+00 -0.26639117909E+04  0.26639117909E+04  0.00000000000E+00 0. -1.
         23    2    1    2    0    0 -0.75908972078E+03 -0.10367704024E+04 -0.47082274148E+03  0.13715387962E+04  0.91293724263E+02 0.  0.
    5000000    2    1    2    0    0  0.75908972078E+03  0.10367704024E+04 -0.14541680254E+04  0.20312940188E+04  0.60036711527E+03 0.  0.
         23    2    4    4    0    0  0.66397075233E+03  0.75701818298E+03 -0.73762116518E+03  0.12515687455E+04  0.91682343715E+02 0.  0.
         23    2    4    4    0    0  0.95118968459E+02  0.27975221942E+03 -0.71654686023E+03  0.77972527325E+03  0.84989272309E+02 0.  0.
          1    1    3    3  502    0 -0.58001152790E+03 -0.72302983468E+03 -0.33527258115E+03  0.98569428222E+03  0.00000000000E+00 0. -1.
         -1    1    3    3    0  502 -0.17907819288E+03 -0.31374056772E+03 -0.13555016033E+03  0.38584451398E+03  0.00000000000E+00 0.  1.
         11    1    5    5    0    0  0.41051310731E+03  0.52584256986E+03 -0.51261577601E+03  0.84131228052E+03  0.00000000000E+00 0. -1.
        -11    1    5    5    0    0  0.25345764502E+03  0.23117561312E+03 -0.22500538917E+03  0.41025646500E+03  0.00000000000E+00 0.  1.
          5    1    6    6  503    0  0.55548507880E+02  0.89828234985E+02 -0.34085307966E+03  0.35687205052E+03  0.47000000000E+01 0. -1.
         -5    1    6    6    0  503  0.39570460579E+02  0.18992398443E+03 -0.37569378056E+03  0.42285322272E+03  0.47000000000E+01 0.  1.
<mgrwt>
<rscale>  0 0.12990548E+04</rscale>
<asrwt>0</asrwt>
<pdfrwt beam="1">  1        2 0.40983259E+00 0.12990548E+04</pdfrwt>
<pdfrwt beam="2">  1       -2 0.11368016E+00 0.12990548E+04</pdfrwt>
<totfact> 0.16448359E+00</totfact>
</mgrwt>
</event>
<event>
12    1  0.3166324E-008  0.6712384E+03  0.7818608E-02  0.9767723E-01
         -2   -1    0    0    0  501 -0.00000000000E+00  0.00000000000E+00  0.18569911654E+03  0.18569911654E+03  0.00000000000E+00 0.  1.
          2   -1    0    0  501    0  0.00000000000E+00 -0.00000000000E+00 -0.26170674726E+04  0.26170674726E+04  0.00000000000E+00 0. -1.
         23    2    1    2    0    0 -0.44127268956E+03 -0.33831386961E+03 -0.81145206917E+03  0.98800245123E+03  0.92285005010E+02 0.  0.
    5000000    2    1    2    0    0  0.44127268956E+03  0.33831386961E+03 -0.16199162869E+04  0.18147641380E+04  0.60005186345E+03 0.  0.
         23    2    4    4    0    0  0.16398157766E+03 -0.14535359439E+03 -0.64897839204E+03  0.69093397226E+03  0.90549298565E+02 0.  0.
         23    2    4    4    0    0  0.27729111190E+03  0.48366746399E+03 -0.97093789489E+03  0.11238301657E+04  0.97207351263E+02 0.  0.
          4    1    3    3  502    0 -0.12582300406E+03 -0.15136099917E+03 -0.27347334801E+03  0.33694102227E+03  0.00000000000E+00 0. -1.
         -4    1    3    3    0  502 -0.31544968550E+03 -0.18695287044E+03 -0.53797872116E+03  0.65106142896E+03  0.00000000000E+00 0.  1.
         11    1    5    5    0    0  0.45516559811E+02 -0.49553574766E+02 -0.33810104338E+03  0.34473124246E+03  0.00000000000E+00 0. -1.
        -11    1    5    5    0    0  0.11846501785E+03 -0.95800019619E+02 -0.31087734866E+03  0.34620272980E+03  0.00000000000E+00 0.  1.
          5    1    6    6  503    0  0.23136428588E+03  0.43167200119E+03 -0.78443315277E+03  0.92478516994E+03  0.47000000000E+01 0. -1.
         -5    1    6    6    0  503  0.45926826026E+02  0.51995462805E+02 -0.18650474213E+03  0.19904499576E+03  0.47000000000E+01 0.  1.
<mgrwt>
<rscale>  0 0.67123836E+03</rscale>
<asrwt>0</asrwt>
<pdfrwt beam="1">  1        2 0.40262574E+00 0.67123836E+03</pdfrwt>
<pdfrwt beam="2">  1       -2 0.28569097E-01 0.67123836E+03</pdfrwt>
<totfact> 0.35325935E+01</totfact>
</mgrwt>
</event>
<event>
12    1  0.3166324E-008  0.5313571E+03  0.7818608E-02  0.1005904E+00
          1   -1    0    0  501    0  0.00000000000E+00  0.00000000000E+00  0.16434917339E+04  0.16434917339E+04  0.00000000000E+00 0. -1.
         -1   -1    0    0    0  501 -0.00000000000E+00 -0.00000000000E+00 -0.30545888208E+03  0.30545888208E+03  0.00000000000E+00 0.  1.
         23    2    1    2    0    0  0.19481610131E+03 -0.40530843599E+03  0.55507949690E+02  0.46246974392E+03  0.92568298846E+02 0.  0.
    5000000    2    1    2    0    0 -0.19481610131E+03  0.40530843599E+03  0.12825249022E+04  0.14864808721E+04  0.60210216475E+03 0.  0.
         23    2    4    4    0    0 -0.29687280377E+03  0.31969089050E+03  0.43343660117E+03  0.62157274706E+03  0.90275498112E+02 0.  0.
         23    2    4    4    0    0  0.10205670246E+03  0.85617545483E+02  0.84908830101E+03  0.86490812504E+03  0.96794562064E+02 0.  0.
          3    1    3    3  502    0  0.13613262342E+03 -0.35648523756E+03  0.33705017585E+02  0.38307942253E+03  0.00000000000E+00 0. -1.
         -3    1    3    3    0  502  0.58683477890E+02 -0.48823198431E+02  0.21802932105E+02  0.79390321392E+02  0.00000000000E+00 0.  1.
         13    1    5    5    0    0 -0.20776403529E+03  0.26176152487E+03  0.36638461205E+03  0.49590591266E+03  0.00000000000E+00 0. -1.
        -13    1    5    5    0    0 -0.89108768480E+02  0.57929365637E+02  0.67051989122E+02  0.12566683440E+03  0.00000000000E+00 0.  1.
          5    1    6    6  503    0  0.65309456337E+02  0.10404145525E+03  0.60950010940E+03  0.62177361062E+03  0.47000000000E+01 0. -1.
         -5    1    6    6    0  503  0.36747246123E+02 -0.18423909765E+02  0.23958819161E+03  0.24313451443E+03  0.47000000000E+01 0.  1.
<mgrwt>
<rscale>  0 0.53135707E+03</rscale>
<asrwt>0</asrwt>
<pdfrwt beam="1">  1        1 0.25284488E+00 0.53135707E+03</pdfrwt>
<pdfrwt beam="2">  1       -1 0.46993675E-01 0.53135707E+03</pdfrwt>
<totfact> 0.25178010E+01</totfact>
</mgrwt>
</event>
<event>
12    1  0.3166324E-008  0.1058995E+04  0.7818608E-02  0.9246106E-01
         -1   -1    0    0    0  501 -0.00000000000E+00  0.00000000000E+00  0.54166231863E+03  0.54166231863E+03  0.00000000000E+00 0.  1.
          1   -1    0    0  501    0  0.00000000000E+00 -0.00000000000E+00 -0.25405980619E+04  0.25405980619E+04  0.00000000000E+00 0. -1.
         23    2    1    2    0    0  0.44142495911E+03  0.94858804060E+03 -0.13570358283E+04  0.17160135554E+04  0.92092440673E+02 0.  0.
    5000000    2    1    2    0    0 -0.44142495911E+03 -0.94858804060E+03 -0.64189991494E+03  0.13662468251E+04  0.59993301382E+03 0.  0.
         23    2    4    4    0    0 -0.19567966905E+03 -0.31955206960E+03 -0.55738805701E+03  0.67786668121E+03  0.91748206196E+02 0.  0.
         23    2    4    4    0    0 -0.24574529006E+03 -0.62903597100E+03 -0.84511857936E+02  0.68838014391E+03  0.10318899168E+03 0.  0.
          4    1    3    3  502    0  0.26232104483E+03  0.47132903715E+03 -0.73765582885E+03  0.91383779395E+03  0.00000000000E+00 0. -1.
         -4    1    3    3    0  502  0.17910391428E+03  0.47725900345E+03 -0.61937999943E+03  0.80217576140E+03  0.00000000000E+00 0.  1.
         11    1    5    5    0    0 -0.10843324442E+02 -0.91765322775E+02 -0.13686805155E+03  0.16514029091E+03  0.00000000000E+00 0.  1.
        -11    1    5    5    0    0 -0.18483634461E+03 -0.22778674683E+03 -0.42052000546E+03  0.51272639030E+03  0.00000000000E+00 0. -1.
          5    1    6    6  503    0  0.16848887602E+01 -0.87801806119E+02 -0.69378597277E+01  0.88216891271E+02  0.47000000000E+01 0. -1.
         -5    1    6    6    0  503 -0.24743017882E+03 -0.54123416488E+03 -0.77573998208E+02  0.60016325264E+03  0.47000000000E+01 0.  1.
<mgrwt>
<rscale>  0 0.10589952E+04</rscale>
<asrwt>0</asrwt>
<pdfrwt beam="1">  1        1 0.39086124E+00 0.10589952E+04</pdfrwt>
<pdfrwt beam="2">  1       -1 0.83332665E-01 0.10589952E+04</pdfrwt>
<totfact> 0.18336101E+00</totfact>
</mgrwt>
</event>
<event>
12    1  0.3166324E-008  0.9652628E+03  0.7818608E-02  0.9347487E-01
         -1   -1    0    0    0  501 -0.00000000000E+00  0.00000000000E+00  0.49435128744E+03  0.49435128744E+03  0.00000000000E+00 0.  1.
          1   -1    0    0  501    0  0.00000000000E+00 -0.00000000000E+00 -0.20235201579E+04  0.20235201579E+04  0.00000000000E+00 0. -1.
         23    2    1    2    0    0  0.22630548843E+02  0.88354665331E+03 -0.95825492597E+03  0.13066543691E+04  0.89029808642E+02 0.  0.
    5000000    2    1    2    0    0 -0.22630548843E+02 -0.88354665331E+03 -0.57091394448E+03  0.12112170762E+04  0.59994770060E+03 0.  0.
         23    2    4    4    0    0  0.25526987122E+03 -0.54387072421E+03 -0.41585469026E+03  0.73620591926E+03  0.90033106880E+02 0.  0.
         23    2    4    4    0    0 -0.27790042006E+03 -0.33967592910E+03 -0.15505925422E+03  0.47501115698E+03  0.94783155966E+02 0.  0.
          1    1    3    3  502    0  0.36420842963E+02  0.48091536425E+03 -0.57655947651E+03  0.75168270921E+03  0.00000000000E+00 0. -1.
         -1    1    3    3    0  502 -0.13790294121E+02  0.40263128905E+03 -0.38169544946E+03  0.55497165989E+03  0.00000000000E+00 0.  1.
         13    1    5    5    0    0  0.25931527027E+02 -0.12390589079E+03 -0.11466698980E+03  0.17080290517E+03  0.00000000000E+00 0. -1.
        -13    1    5    5    0    0  0.22933834419E+03 -0.41996483342E+03 -0.30118770046E+03  0.56540301408E+03  0.00000000000E+00 0.  1.
          5    1    6    6  503    0 -0.13663254802E+03 -0.19360016251E+03 -0.12969034666E+03  0.27016874748E+03  0.47000000000E+01 0. -1.
         -5    1    6    6    0  503 -0.14126787204E+03 -0.14607576659E+03 -0.25368907568E+02  0.20484240950E+03  0.47000000000E+01 0.  1.
<mgrwt>
<rscale>  0 0.96526277E+03</rscale>
<asrwt>0</asrwt>
<pdfrwt beam="1">  1        1 0.31131079E+00 0.96526277E+03</pdfrwt>
<pdfrwt beam="2">  1       -1 0.76054046E-01 0.96526277E+03</pdfrwt>
<totfact> 0.50687296E+00</totfact>
</mgrwt>
</event>
<event>
12    1  0.3166324E-008  0.1004333E+04  0.7818608E-02  0.9303806E-01
         -2   -1    0    0    0  501 -0.00000000000E+00  0.00000000000E+00  0.48287645473E+03  0.48287645473E+03  0.00000000000E+00 0.  1.
          2   -1    0    0  501    0  0.00000000000E+00 -0.00000000000E+00 -0.33328580888E+04  0.33328580888E+04  0.00000000000E+00 0. -1.
         23    2    1    2    0    0  0.58534976295E+03  0.80592269337E+03 -0.35021603518E+03  0.10587567059E+04  0.78541443503E+02 0.  0.
    5000000    2    1    2    0    0 -0.58534976295E+03 -0.80592269337E+03 -0.24997655989E+04  0.27569778376E+04  0.59996084452E+03 0.  0.
         23    2    4    4    0    0 -0.29424965425E+03 -0.41157018096E+03 -0.19415203705E+04  0.20082268742E+04  0.86608062349E+02 0.  0.
         23    2    4    4    0    0 -0.29110010870E+03 -0.39435251241E+03 -0.55824522837E+03  0.74875096334E+03  0.93472417245E+02 0.  0.
          1    1    3    3  502    0  0.21800301020E+03  0.34469495363E+03 -0.11322173202E+03  0.42327187967E+03  0.00000000000E+00 0. -1.
         -1    1    3    3    0  502  0.36734675275E+03  0.46122773974E+03 -0.23699430316E+03  0.63548482625E+03  0.00000000000E+00 0.  1.
         13    1    5    5    0    0 -0.15464728433E+03 -0.28584967143E+03 -0.11904086099E+04  0.12339766918E+04  0.00000000000E+00 0. -1.
        -13    1    5    5    0    0 -0.13960236992E+03 -0.12572050954E+03 -0.75111176056E+03  0.77425018247E+03  0.00000000000E+00 0.  1.
          5    1    6    6  503    0 -0.12980360657E+03 -0.25031808860E+03 -0.29645127645E+03  0.40916203522E+03  0.47000000000E+01 0. -1.
         -5    1    6    6    0  503 -0.16129650213E+03 -0.14403442381E+03 -0.26179395192E+03  0.33958892813E+03  0.47000000000E+01 0.  1.
<mgrwt>
<rscale>  0 0.10043326E+04</rscale>
<asrwt>0</asrwt>
<pdfrwt beam="1">  1        2 0.51274741E+00 0.10043326E+04</pdfrwt>
<pdfrwt beam="2">  1       -2 0.74288684E-01 0.10043326E+04</pdfrwt>
<totfact> 0.17784482E+00</totfact>
</mgrwt>
</event>
<event>
12    1  0.3166324E-008  0.5480753E+03  0.7818608E-02  0.1001940E+00
          2   -1    0    0  501    0  0.00000000000E+00  0.00000000000E+00  0.13963336310E+04  0.13963336310E+04  0.00000000000E+00 0. -1.
         -2   -1    0    0    0  501 -0.00000000000E+00 -0.00000000000E+00 -0.32761806350E+03  0.32761806350E+03  0.00000000000E+00 0.  1.
         23    2    1    2    0    0  0.91827762175E+02 -0.44332465000E+03  0.58612258397E+02  0.46501400363E+03  0.88507307759E+02 0.  0.
    5000000    2    1    2    0    0 -0.91827762175E+02  0.44332465000E+03  0.10101033091E+04  0.12589376909E+04  0.59970520361E+03 0.  0.
         23    2    4    4    0    0  0.10650320680E+03 -0.25658886656E+02  0.54404039369E+03  0.56261393251E+03  0.92483379972E+02 0.  0.
         23    2    4    4    0    0 -0.19833096897E+03  0.46898353666E+03  0.46606291540E+03  0.69632375835E+03  0.91495379243E+02 0.  0.
          1    1    3    3  502    0  0.76730997388E+02 -0.39475206897E+03  0.22760076310E+02  0.40278389117E+03  0.00000000000E+00 0. -1.
         -1    1    3    3    0  502  0.15096764787E+02 -0.48572581034E+02  0.35852182087E+02  0.62230112451E+02  0.00000000000E+00 0.  1.
         11    1    5    5    0    0  0.41611142431E+02 -0.43135258034E+02  0.12994704157E+03  0.14310265991E+03  0.00000000000E+00 0. -1.
        -11    1    5    5    0    0  0.64892064366E+02  0.17476371378E+02  0.41409335211E+03  0.41951127260E+03  0.00000000000E+00 0.  1.
          5    1    6    6  503    0  0.21878375224E+01  0.62669032804E+02  0.74176332733E+02  0.97244087961E+02  0.47000000000E+01 0. -1.
         -5    1    6    6    0  503 -0.20051880649E+03  0.40631450386E+03  0.39188658267E+03  0.59907967039E+03  0.47000000000E+01 0.  1.
<mgrwt>
<rscale>  0 0.54807533E+03</rscale>
<asrwt>0</asrwt>
<pdfrwt beam="1">  1        2 0.21482056E+00 0.54807533E+03</pdfrwt>
<pdfrwt beam="2">  1       -2 0.50402780E-01 0.54807533E+03</pdfrwt>
<totfact> 0.56512462E+01</totfact>
</mgrwt>
</event>
<event>
12    1  0.3166324E-008  0.7202751E+03  0.7818608E-02  0.9683174E-01
          1   -1    0    0  501    0  0.00000000000E+00  0.00000000000E+00  0.16412773469E+04  0.16412773469E+04  0.00000000000E+00 0. -1.
         -1   -1    0    0    0  501 -0.00000000000E+00 -0.00000000000E+00 -0.46997761225E+03  0.46997761225E+03  0.00000000000E+00 0.  1.
         23    2    1    2    0    0  0.56183559131E+03  0.19803117491E+03 -0.72451685639E+02  0.60734927083E+03  0.93532412194E+02 0.  0.
    5000000    2    1    2    0    0 -0.56183559131E+03 -0.19803117491E+03  0.12437514203E+04  0.15039056884E+04  0.59994928622E+03 0.  0.
         23    2    4    4    0    0 -0.65665579088E+03 -0.79347442256E+02  0.97898339937E+03  0.11850110996E+04  0.91378146022E+02 0.  0.
         23    2    4    4    0    0  0.94820199575E+02 -0.11868373266E+03  0.26476802097E+03  0.31889458880E+03  0.92276514865E+02 0.  0.
          4    1    3    3  502    0  0.43918443012E+03  0.15471412798E+03 -0.95276405494E+02  0.47528624901E+03  0.00000000000E+00 0. -1.
         -4    1    3    3    0  502  0.12265116118E+03  0.43317046934E+02  0.22824719855E+02  0.13206302182E+03  0.00000000000E+00 0.  1.
         11    1    5    5    0    0 -0.46540745058E+03 -0.14229813714E+02  0.67545059504E+03  0.82039020533E+03  0.00000000000E+00 0. -1.
        -11    1    5    5    0    0 -0.19124834030E+03 -0.65117628542E+02  0.30353280432E+03  0.36462089423E+03  0.00000000000E+00 0.  1.
          5    1    6    6  503    0  0.11173804931E+03 -0.90016781216E+02  0.22395236710E+03  0.26601722743E+03  0.47000000000E+01 0. -1.
         -5    1    6    6    0  503 -0.16917849731E+02 -0.28666951441E+02  0.40815653873E+02  0.52877361371E+02  0.47000000000E+01 0.  1.
<mgrwt>
<rscale>  0 0.72027505E+03</rscale>
<asrwt>0</asrwt>
<pdfrwt beam="1">  1        1 0.25250420E+00 0.72027505E+03</pdfrwt>
<pdfrwt beam="2">  1       -1 0.72304249E-01 0.72027505E+03</pdfrwt>
<totfact> 0.10541211E+01</totfact>
</mgrwt>
</event>
<event>
12    1  0.3166324E-008  0.4512467E+03  0.7818608E-02  0.1027351E+00
         -2   -1    0    0    0  501 -0.00000000000E+00  0.00000000000E+00  0.11211775056E+03  0.11211775056E+03  0.00000000000E+00 0.  1.
          2   -1    0    0  501    0  0.00000000000E+00 -0.00000000000E+00 -0.21767123257E+04  0.21767123257E+04  0.00000000000E+00 0. -1.
         23    2    1    2    0    0 -0.26502205219E+03  0.42692779320E+02 -0.98357993558E+03  0.10236085254E+04  0.91025062366E+02 0.  0.
    5000000    2    1    2    0    0  0.26502205219E+03 -0.42692779320E+02 -0.10810146396E+04  0.12652215509E+04  0.60011128997E+03 0.  0.
         23    2    4    4    0    0 -0.14084130779E+03  0.10634309646E+03 -0.21222709495E+03  0.29126329014E+03  0.92999119396E+02 0.  0.
         23    2    4    4    0    0  0.40586335998E+03 -0.14903587578E+03 -0.86878754465E+03  0.97395826079E+03  0.82862155220E+02 0.  0.
          4    1    3    3  502    0 -0.12080401407E+03 -0.71780353595E+01 -0.30606671009E+03  0.32912302416E+03  0.00000000000E+00 0. -1.
         -4    1    3    3    0  502 -0.14421803812E+03  0.49870814679E+02 -0.67751322549E+03  0.69448550121E+03  0.00000000000E+00 0.  1.
         11    1    5    5    0    0 -0.14037251844E+03  0.11784892957E+03 -0.21129349566E+03  0.27971012752E+03  0.00000000000E+00 0. -1.
        -11    1    5    5    0    0 -0.46878935632E+00 -0.11505833107E+02 -0.93359929774E+00  0.11553162623E+02  0.00000000000E+00 0.  1.
          5    1    6    6  503    0  0.17041419838E+03 -0.43032448112E+02 -0.27451333707E+03  0.32599455951E+03  0.47000000000E+01 0. -1.
         -5    1    6    6    0  503  0.23544916160E+03 -0.10600342767E+03 -0.59427420759E+03  0.64796370128E+03  0.47000000000E+01 0.  1.
<mgrwt>
<rscale>  0 0.45124674E+03</rscale>
<asrwt>0</asrwt>
<pdfrwt beam="1">  1        2 0.33487877E+00 0.45124674E+03</pdfrwt>
<pdfrwt beam="2">  1       -2 0.17248887E-01 0.45124674E+03</pdfrwt>
<totfact> 0.15699788E+02</totfact>
</mgrwt>
</event>
<event>
12    1  0.3166324E-008  0.1242938E+04  0.7818608E-02  0.9076081E-01
          1   -1    0    0  501    0  0.00000000000E+00  0.00000000000E+00  0.92612465471E+03  0.92612465471E+03  0.00000000000E+00 0. -1.
         -1   -1    0    0    0  501 -0.00000000000E+00 -0.00000000000E+00 -0.19884693521E+04  0.19884693521E+04  0.00000000000E+00 0.  1.
         23    2    1    2    0    0 -0.11987281552E+04 -0.12032817271E+03 -0.13639770904E+02  0.12083409432E+04  0.92052879315E+02 0.  0.
    5000000    2    1    2    0    0  0.11987281552E+04  0.12032817271E+03 -0.10487049265E+04  0.17062530636E+04  0.60007452449E+03 0.  0.
         23    2    4    4    0    0  0.25803284688E+03 -0.13945388170E+03 -0.48950134036E+03  0.57776680068E+03  0.90413376020E+02 0.  0.
         23    2    4    4    0    0  0.94069530830E+03  0.25978205440E+03 -0.55920358612E+03  0.11284862629E+04  0.91532594993E+02 0.  0.
          4    1    3    3  502    0 -0.88573304143E+03 -0.61760187968E+02  0.20253572001E+02  0.88811460335E+03  0.00000000000E+00 0. -1.
         -4    1    3    3    0  502 -0.31299511374E+03 -0.58567984739E+02 -0.33893342906E+02  0.32022633989E+03  0.00000000000E+00 0.  1.
         13    1    5    5    0    0  0.26035190511E+03 -0.14263826270E+03 -0.45654060781E+03  0.54457149674E+03  0.00000000000E+00 0. -1.
        -13    1    5    5    0    0 -0.23190582306E+01  0.31843810029E+01 -0.32960732553E+02  0.33195303943E+02  0.00000000000E+00 0.  1.
          5    1    6    6  503    0  0.68430458052E+03  0.15443236625E+03 -0.42791787782E+03  0.82174078323E+03  0.47000000000E+01 0. -1.
         -5    1    6    6    0  503  0.25639072779E+03  0.10534968815E+03 -0.13128570830E+03  0.30674547966E+03  0.47000000000E+01 0.  1.
<mgrwt>
<rscale>  0 0.12429381E+04</rscale>
<asrwt>0</asrwt>
<pdfrwt beam="1">  1        1 0.14248072E+00 0.12429381E+04</pdfrwt>
<pdfrwt beam="2">  1       -1 0.30591836E+00 0.12429381E+04</pdfrwt>
<totfact> 0.51368991E-01</totfact>
</mgrwt>
</event>
<event>
12    1  0.3166324E-008  0.2031399E+04  0.7818608E-02  0.8592080E-01
         -1   -1    0    0    0  501 -0.00000000000E+00  0.00000000000E+00  0.15753150675E+04  0.15753150675E+04  0.00000000000E+00 0.  1.
          1   -1    0    0  501    0  0.00000000000E+00 -0.00000000000E+00 -0.27503443705E+04  0.27503443705E+04  0.00000000000E+00 0. -1.
         23    2    1    2    0    0 -0.72095028995E+02  0.20277882397E+04 -0.76473392343E+03  0.21699819283E+04  0.82950329521E+02 0.  0.
    5000000    2    1    2    0    0  0.72095028995E+02 -0.20277882397E+04 -0.41029537961E+03  0.21556775097E+04  0.60123239180E+03 0.  0.
         23    2    4    4    0    0 -0.13666503140E+02 -0.33262136786E+03 -0.29387681648E+03  0.45187969357E+03  0.83713359330E+02 0.  0.
         23    2    4    4    0    0  0.85761532136E+02 -0.16951668718E+04 -0.11641856313E+03  0.17037978161E+04  0.91803881065E+02 0.  0.
          4    1    3    3  502    0 -0.79387365302E+01  0.11749729111E+04 -0.46725489004E+03  0.12644965392E+04  0.00000000000E+00 0. -1.
         -4    1    3    3    0  502 -0.64156292465E+02  0.85281532861E+03 -0.29747903339E+03  0.90548538911E+03  0.00000000000E+00 0.  1.
         11    1    5    5    0    0  0.96171037244E+01 -0.13585445285E+03 -0.17147782195E+03  0.21898302323E+03  0.00000000000E+00 0.  1.
        -11    1    5    5    0    0 -0.23283606865E+02 -0.19676691502E+03 -0.12239899453E+03  0.23289667034E+03  0.00000000000E+00 0. -1.
          5    1    6    6  503    0  0.14170090733E+01 -0.52680653963E+03 -0.70094451056E+02  0.53147197497E+03  0.47000000000E+01 0. -1.
         -5    1    6    6    0  503  0.84344523062E+02 -0.11683603322E+04 -0.46324112076E+02  0.11723258411E+04  0.47000000000E+01 0.  1.
<mgrwt>
<rscale>  0 0.20313993E+04</rscale>
<asrwt>0</asrwt>
<pdfrwt beam="1">  1        1 0.42312990E+00 0.20313993E+04</pdfrwt>
<pdfrwt beam="2">  1       -1 0.24235617E+00 0.20313993E+04</pdfrwt>
<totfact> 0.62822049E-02</totfact>
</mgrwt>
</event>
<event>
12    1  0.3166324E-008  0.7259881E+03  0.7818608E-02  0.9673793E-01
         -1   -1    0    0    0  501 -0.00000000000E+00  0.00000000000E+00  0.95320548963E+03  0.95320548963E+03  0.00000000000E+00 0. -1.
          1   -1    0    0  501    0  0.00000000000E+00 -0.00000000000E+00 -0.67000690496E+03  0.67000690496E+03  0.00000000000E+00 0.  1.
         23    2    1    2    0    0  0.38411737029E+03 -0.48825413737E+03 -0.16674083553E+03  0.64934027458E+03  0.88893358220E+02 0.  0.
    5000000    2    1    2    0    0 -0.38411737029E+03  0.48825413737E+03  0.44993942020E+03  0.97387212002E+03  0.60003597182E+03 0.  0.
         23    2    4    4    0    0 -0.27937717921E+03  0.60110865767E+03  0.27171792290E+03  0.72217107166E+03  0.91198687082E+02 0.  0.
         23    2    4    4    0    0 -0.10474019109E+03 -0.11285452030E+03  0.17822149730E+03  0.25170104836E+03  0.88791132803E+02 0.  0.
          2    1    3    3  502    0  0.13706833286E+03 -0.24488419282E+03 -0.67677129477E+02  0.28868008178E+03  0.00000000000E+00 0. -1.
         -2    1    3    3    0  502  0.24704903744E+03 -0.24336994455E+03 -0.99063706049E+02  0.36066019279E+03  0.00000000000E+00 0.  1.
         11    1    5    5    0    0 -0.25447254483E+03  0.54292730558E+03  0.21439440653E+03  0.63678198527E+03  0.00000000000E+00 0.  1.
        -11    1    5    5    0    0 -0.24904634380E+02  0.58181352091E+02  0.57323516372E+02  0.85389086387E+02  0.00000000000E+00 0. -1.
          5    1    6    6  503    0 -0.14572217953E+02 -0.48293011248E+02  0.11079501145E+03  0.12182852307E+03  0.47000000000E+01 0. -1.
         -5    1    6    6    0  503 -0.90167973136E+02 -0.64561509053E+02  0.67426485845E+02  0.12987252529E+03  0.47000000000E+01 0.  1.
<mgrwt>
<rscale>  0 0.72598805E+03</rscale>
<asrwt>0</asrwt>
<pdfrwt beam="1">  1        1 0.10307799E+00 0.72598805E+03</pdfrwt>
<pdfrwt beam="2">  1       -1 0.14664700E+00 0.72598805E+03</pdfrwt>
<totfact> 0.11150024E+01</totfact>
</mgrwt>
</event>
<event>
12    1  0.3166324E-008  0.2311557E+03  0.7818608E-02  0.1125829E+00
         -1   -1    0    0    0  501 -0.00000000000E+00  0.00000000000E+00  0.19503746146E+03  0.19503746146E+03  0.00000000000E+00 0. -1.
          1   -1    0    0  501    0  0.00000000000E+00 -0.00000000000E+00 -0.73686592927E+03  0.73686592927E+03  0.00000000000E+00 0.  1.
         23    2    1    2    0    0 -0.97898812994E+02  0.43285634242E+02 -0.58252336167E+02  0.15388988108E+03  0.93973065885E+02 0.  0.
    5000000    2    1    2    0    0  0.97898812994E+02 -0.43285634242E+02 -0.48357613164E+03  0.77801350965E+03  0.60000110198E+03 0.  0.
         23    2    4    4    0    0 -0.45993673941E+02 -0.11750696883E+03 -0.55796869691E+03  0.57940308994E+03  0.91954163203E+02 0.  0.
         23    2    4    4    0    0  0.14389248693E+03  0.74221334591E+02  0.74392565268E+02  0.19861041971E+03  0.87738194333E+02 0.  0.
          1    1    3    3  502    0 -0.74918758073E+02  0.21086671691E+01 -0.72857011121E+02  0.10452469018E+03  0.00000000000E+00 0. -1.
         -1    1    3    3    0  502 -0.22980054920E+02  0.41176967073E+02  0.14604674954E+02  0.49365190894E+02  0.00000000000E+00 0.  1.
         13    1    5    5    0    0 -0.34880911687E+02  0.30334544266E+01 -0.11792124871E+03  0.12300935226E+03  0.00000000000E+00 0.  1.
        -13    1    5    5    0    0 -0.11112762254E+02 -0.12054042326E+03 -0.44004744820E+03  0.45639373768E+03  0.00000000000E+00 0. -1.
          5    1    6    6  503    0  0.15753256996E+02 -0.19362030432E+02  0.10910191175E+02  0.27643726231E+02  0.47000000000E+01 0. -1.
         -5    1    6    6    0  503  0.12813922994E+03  0.93583365022E+02  0.63482374093E+02  0.17096669348E+03  0.47000000000E+01 0.  1.
<mgrwt>
<rscale>  0 0.23115570E+03</rscale>
<asrwt>0</asrwt>
<pdfrwt beam="1">  1        1 0.11336399E+00 0.23115570E+03</pdfrwt>
<pdfrwt beam="2">  1       -1 0.30005764E-01 0.23115570E+03</pdfrwt>
<totfact> 0.27053591E+02</totfact>
</mgrwt>
</event>
<event>
12    1  0.4040262E-008  0.8884801E+03  0.7818608E-02  0.9440097E-01
         -1   -1    0    0    0  501 -0.00000000000E+00  0.00000000000E+00  0.65283923196E+03  0.65283923196E+03  0.00000000000E+00 0.  1.
          1   -1    0    0  501    0  0.00000000000E+00 -0.00000000000E+00 -0.14672399736E+04  0.14672399736E+04  0.00000000000E+00 0. -1.
         23    2    1    2    0    0 -0.75493353337E+03  0.42209434531E+03 -0.56841269222E+03  0.10390563833E+04  0.91961420315E+02 0.  0.
    5000000    2    1    2    0    0  0.75493353337E+03 -0.42209434531E+03 -0.24598804945E+03  0.10810228223E+04  0.60000995468E+03 0.  0.
         23    2    4    4    0    0  0.10669839621E+03 -0.21289865175E+01  0.15368823858E+03  0.20676798232E+03  0.87999110769E+02 0.  0.
         23    2    4    4    0    0  0.64823513716E+03 -0.41996535879E+03 -0.39967628802E+03  0.87425483999E+03  0.89446600817E+02 0.  0.
          2    1    3    3  502    0 -0.33685636844E+03  0.22082338571E+03 -0.22120222545E+03  0.45952758914E+03  0.00000000000E+00 0. -1.
         -2    1    3    3    0  502 -0.41807716493E+03  0.20127095959E+03 -0.34721046677E+03  0.57952879415E+03  0.00000000000E+00 0.  1.
         13    1    5    5    0    0  0.23457261330E+02  0.34529986505E+02  0.77881776262E+02  0.88363647225E+02  0.00000000000E+00 0.  1.
        -13    1    5    5    0    0  0.83241134883E+02 -0.36658973023E+02  0.75806462316E+02  0.11840433509E+03  0.00000000000E+00 0. -1.
          5    1    6    6  503    0  0.36923891050E+03 -0.18672159790E+03 -0.20668699066E+03  0.46254073362E+03  0.47000000000E+01 0. -1.
         -5    1    6    6    0  503  0.27899622666E+03 -0.23324376089E+03 -0.19298929736E+03  0.41171410637E+03  0.47000000000E+01 0.  1.
<mgrwt>
<rscale>  0 0.88848013E+03</rscale>
<asrwt>0</asrwt>
<pdfrwt beam="1">  1        1 0.22572922E+00 0.88848013E+03</pdfrwt>
<pdfrwt beam="2">  1       -1 0.10043681E+00 0.88848013E+03</pdfrwt>
<totfact> 0.66311107E+00</totfact>
</mgrwt>
</event>
<event>
12    1  0.3166324E-008  0.8370789E+03  0.7818608E-02  0.9507845E-01
          2   -1    0    0  501    0  0.00000000000E+00  0.00000000000E+00  0.11844122099E+04  0.11844122099E+04  0.00000000000E+00 0. -1.
         -2   -1    0    0    0  501 -0.00000000000E+00 -0.00000000000E+00 -0.84843337593E+03  0.84843337593E+03  0.00000000000E+00 0.  1.
         23    2    1    2    0    0  0.38362411311E+03  0.72824724429E+03  0.54667892842E+03  0.99267470665E+03  0.95045849343E+02 0.  0.
    5000000    2    1    2    0    0 -0.38362411311E+03 -0.72824724429E+03 -0.21070009445E+03  0.10401708792E+04  0.60004118117E+03 0.  0.
         23    2    4    4    0    0 -0.32394231288E+03 -0.53408459199E+03  0.11824217868E+03  0.64283510814E+03  0.95240694918E+02 0.  0.
         23    2    4    4    0    0 -0.59681800239E+02 -0.19416265230E+03 -0.32894227313E+03  0.39733577103E+03  0.91715009994E+02 0.  0.
          2    1    3    3  502    0  0.20108800387E+03  0.44183256010E+03  0.27635151737E+03  0.55858979369E+03  0.00000000000E+00 0. -1.
         -2    1    3    3    0  502  0.18253610924E+03  0.28641468419E+03  0.27032741105E+03  0.43408491296E+03  0.00000000000E+00 0.  1.
         13    1    5    5    0    0 -0.14831857962E+03 -0.17082557356E+03  0.68030407994E+02  0.23623698706E+03  0.00000000000E+00 0.  1.
        -13    1    5    5    0    0 -0.17562373326E+03 -0.36325901843E+03  0.50211770688E+02  0.40659812108E+03  0.00000000000E+00 0. -1.
          5    1    6    6  503    0 -0.80529840149E+02 -0.15626974443E+03 -0.23236077959E+03  0.29140849347E+03  0.47000000000E+01 0. -1.
         -5    1    6    6    0  503  0.20848039909E+02 -0.37892907871E+02 -0.96581493547E+02  0.10592727756E+03  0.47000000000E+01 0.  1.
<mgrwt>
<rscale>  0 0.83707894E+03</rscale>
<asrwt>0</asrwt>
<pdfrwt beam="1">  1        2 0.18221726E+00 0.83707894E+03</pdfrwt>
<pdfrwt beam="2">  1       -2 0.13052821E+00 0.83707894E+03</pdfrwt>
<totfact> 0.83954447E+00</totfact>
</mgrwt>
</event>
<event>
12    1  0.3166324E-008  0.7922342E+03  0.7818608E-02  0.9571326E-01
         -2   -1    0    0    0  501 -0.00000000000E+00  0.00000000000E+00  0.50421890634E+03  0.50421890634E+03  0.00000000000E+00 0.  1.
          2   -1    0    0  501    0  0.00000000000E+00 -0.00000000000E+00 -0.16833085278E+04  0.16833085278E+04  0.00000000000E+00 0. -1.
         23    2    1    2    0    0 -0.68713238912E+03 -0.34415744356E+03 -0.87013954459E+03  0.11646016007E+04  0.92513756943E+02 0.  0.
    5000000    2    1    2    0    0  0.68713238912E+03  0.34415744356E+03 -0.30895007691E+03  0.10229258334E+04  0.60027647344E+03 0.  0.
         23    2    4    4    0    0  0.23345461604E+03  0.25886716910E+03  0.12638310569E+03  0.38186925773E+03  0.91313589377E+02 0.  0.
         23    2    4    4    0    0  0.45367777308E+03  0.85290274460E+02 -0.43533318261E+03  0.64105657572E+03  0.91326889187E+02 0.  0.
          2    1    3    3  502    0 -0.64553115345E+03 -0.32115652242E+03 -0.84509152866E+03  0.11108697826E+04  0.00000000000E+00 0.  1.
         -2    1    3    3    0  502 -0.41601235677E+02 -0.23000921140E+02 -0.25048015926E+02  0.53731818180E+02  0.00000000000E+00 0. -1.
         13    1    5    5    0    0 -0.18871353525E+01  0.67088223273E+01  0.19594110264E+02  0.20796603903E+02  0.00000000000E+00 0. -1.
        -13    1    5    5    0    0  0.23534175139E+03  0.25215834677E+03  0.10678899543E+03  0.36107265382E+03  0.00000000000E+00 0.  1.
          5    1    6    6  503    0  0.29253835744E+03  0.32357987015E+02 -0.22320159733E+03  0.36941409414E+03  0.47000000000E+01 0. -1.
         -5    1    6    6    0  503  0.16113941564E+03  0.52932287445E+02 -0.21213158527E+03  0.27164248158E+03  0.47000000000E+01 0.  1.
<mgrwt>
<rscale>  0 0.79223425E+03</rscale>
<asrwt>0</asrwt>
<pdfrwt beam="1">  1        2 0.25897054E+00 0.79223425E+03</pdfrwt>
<pdfrwt beam="2">  1       -2 0.77572139E-01 0.79223425E+03</pdfrwt>
<totfact> 0.15170493E+01</totfact>
</mgrwt>
</event>
<event>
12    1  0.3166324E-008  0.7239302E+03  0.7818608E-02  0.9677162E-01
         -2   -1    0    0    0  501 -0.00000000000E+00  0.00000000000E+00  0.55210695963E+03  0.55210695963E+03  0.00000000000E+00 0.  1.
          2   -1    0    0  501    0  0.00000000000E+00 -0.00000000000E+00 -0.12148079302E+04  0.12148079302E+04  0.00000000000E+00 0. -1.
         23    2    1    2    0    0 -0.61035866779E+02  0.62018018745E+03 -0.64525211411E+03  0.90164137381E+03  0.90873727016E+02 0.  0.
    5000000    2    1    2    0    0  0.61035866779E+02 -0.62018018745E+03 -0.17448856492E+02  0.86527351605E+03  0.60003745971E+03 0.  0.
         23    2    4    4    0    0  0.15589634066E+03  0.48044087525E+01 -0.11958879949E+03  0.21779133021E+03  0.93834061917E+02 0.  0.
         23    2    4    4    0    0 -0.94860473883E+02 -0.62498459620E+03  0.10213994300E+03  0.64748218585E+03  0.95897643557E+02 0.  0.
          3    1    3    3  502    0 -0.52801527436E+02  0.16634851212E+03 -0.20608386790E+03  0.27005627079E+03  0.00000000000E+00 0. -1.
         -3    1    3    3    0  502 -0.82343393435E+01  0.45383167532E+03 -0.43916824621E+03  0.63158510302E+03  0.00000000000E+00 0.  1.
         11    1    5    5    0    0  0.96502750382E+02  0.46998728313E+02 -0.55900960189E+02  0.12102305005E+03  0.00000000000E+00 0. -1.
        -11    1    5    5    0    0  0.59393590280E+02 -0.42194319560E+02 -0.63687839300E+02  0.96768280155E+02  0.00000000000E+00 0.  1.
          5    1    6    6  503    0 -0.11293913702E+01 -0.32220092354E+03  0.58345148188E+02  0.32747665103E+03  0.47000000000E+01 0. -1.
         -5    1    6    6    0  503 -0.93731082513E+02 -0.30278367266E+03  0.43794794809E+02  0.32000553482E+03  0.47000000000E+01 0.  1.
<mgrwt>
<rscale>  0 0.72393016E+03</rscale>
<asrwt>0</asrwt>
<pdfrwt beam="1">  1        2 0.18689353E+00 0.72393016E+03</pdfrwt>
<pdfrwt beam="2">  1       -2 0.84939533E-01 0.72393016E+03</pdfrwt>
<totfact> 0.22894361E+01</totfact>
</mgrwt>
</event>
<event>
12    1  0.3166324E-008  0.6581080E+03  0.7818608E-02  0.9791683E-01
          2   -1    0    0  501    0  0.00000000000E+00  0.00000000000E+00  0.25304410192E+03  0.25304410192E+03  0.00000000000E+00 0. -1.
         -2   -1    0    0    0  501 -0.00000000000E+00 -0.00000000000E+00 -0.17833032989E+04  0.17833032989E+04  0.00000000000E+00 0.  1.
         23    2    1    2    0    0 -0.34964747229E+03 -0.39061104086E+03 -0.46856228505E+03  0.70897306063E+03  0.90894695223E+02 0.  0.
    5000000    2    1    2    0    0  0.34964747229E+03  0.39061104086E+03 -0.10616969119E+04  0.13273743402E+04  0.59990996497E+03 0.  0.
         23    2    4    4    0    0 -0.10973500705E+03  0.27844428751E+03 -0.43483246524E+03  0.53614902709E+03  0.93827039827E+02 0.  0.
         23    2    4    4    0    0  0.45938247934E+03  0.11216675335E+03 -0.62686444669E+03  0.79122531310E+03  0.97287299721E+02 0.  0.
          4    1    3    3  502    0 -0.20929832464E+03 -0.17347182415E+03 -0.26819877462E+03  0.38187543149E+03  0.00000000000E+00 0. -1.
         -4    1    3    3    0  502 -0.14034914765E+03 -0.21713921671E+03 -0.20036351042E+03  0.32709762914E+03  0.00000000000E+00 0.  1.
         11    1    5    5    0    0 -0.43663995504E+02  0.17534827118E+03 -0.18886915758E+03  0.26139074084E+03  0.00000000000E+00 0.  1.
        -11    1    5    5    0    0 -0.66071011547E+02  0.10309601633E+03 -0.24596330766E+03  0.27475828625E+03  0.00000000000E+00 0. -1.
          5    1    6    6  503    0  0.16283126378E+03 -0.69729489551E+01 -0.21981234922E+03  0.27368266542E+03  0.47000000000E+01 0. -1.
         -5    1    6    6    0  503  0.29655121556E+03  0.11913970230E+03 -0.40705209747E+03  0.51754264768E+03  0.47000000000E+01 0.  1.
<mgrwt>
<rscale>  0 0.65810796E+03</rscale>
<asrwt>0</asrwt>
<pdfrwt beam="1">  1        2 0.38929862E-01 0.65810796E+03</pdfrwt>
<pdfrwt beam="2">  1       -2 0.27435435E+00 0.65810796E+03</pdfrwt>
<totfact> 0.63223887E+00</totfact>
</mgrwt>
</event>
<event>
12    1  0.3166324E-008  0.1806624E+04  0.7818608E-02  0.8702785E-01
          3   -1    0    0  501    0  0.00000000000E+00  0.00000000000E+00  0.21523878664E+04  0.21523878664E+04  0.00000000000E+00 0. -1.
         -3   -1    0    0    0  501 -0.00000000000E+00 -0.00000000000E+00 -0.17103494339E+04  0.17103494339E+04  0.00000000000E+00 0.  1.
         23    2    1    2    0    0  0.62508833899E+03  0.16520510018E+04 -0.40419078845E+03  0.18142772499E+04  0.90685179487E+02 0.  0.
    5000000    2    1    2    0    0 -0.62508833899E+03 -0.16520510018E+04  0.84622922095E+03  0.20484600504E+04  0.60006394603E+03 0.  0.
         23    2    4    4    0    0 -0.29529501724E+03 -0.20332695503E+03  0.10130249814E+03  0.38410224143E+03  0.93441628272E+02 0.  0.
         23    2    4    4    0    0 -0.32979332175E+03 -0.14487240468E+04  0.74492672281E+03  0.16643578089E+04  0.87212928666E+02 0.  0.
          2    1    3    3  502    0  0.39215292165E+03  0.10360205597E+04 -0.20836354389E+03  0.11271813875E+04  0.00000000000E+00 0. -1.
         -2    1    3    3    0  502  0.23293541734E+03  0.61603044216E+03 -0.19582724456E+03  0.68709586233E+03  0.00000000000E+00 0.  1.
         11    1    5    5    0    0 -0.35629735033E+02 -0.95674730594E+01  0.39908096894E+02  0.54347684008E+02  0.00000000000E+00 0.  1.
        -11    1    5    5    0    0 -0.25966528220E+03 -0.19375948197E+03  0.61394401245E+02  0.32975455742E+03  0.00000000000E+00 0. -1.
          5    1    6    6  503    0 -0.15693882701E+03 -0.74379678574E+03  0.33450124379E+03  0.83052792005E+03  0.47000000000E+01 0. -1.
         -5    1    6    6    0  503 -0.17285449475E+03 -0.70492726106E+03  0.41042547903E+03  0.83382988887E+03  0.47000000000E+01 0.  1.
<mgrwt>
<rscale>  0 0.18066245E+04</rscale>
<asrwt>0</asrwt>
<pdfrwt beam="1">  1        3 0.33113660E+00 0.18066245E+04</pdfrwt>
<pdfrwt beam="2">  1       -3 0.26313068E+00 0.18066245E+04</pdfrwt>
<totfact> 0.37125122E-03</totfact>
</mgrwt>
</event>
<event>
12    1  0.3166324E-008  0.1279994E+04  0.7818608E-02  0.9045582E-01
          2   -1    0    0  501    0  0.00000000000E+00  0.00000000000E+00  0.14021250686E+04  0.14021250686E+04  0.00000000000E+00 0. -1.
         -2   -1    0    0    0  501 -0.00000000000E+00 -0.00000000000E+00 -0.12825344689E+04  0.12825344689E+04  0.00000000000E+00 0.  1.
         23    2    1    2    0    0  0.83701234416E+03  0.94427607594E+03 -0.10582122994E+03  0.12694623109E+04  0.89941393828E+02 0.  0.
    5000000    2    1    2    0    0 -0.83701234416E+03 -0.94427607594E+03  0.22541182964E+03  0.14151972267E+04  0.59977139438E+03 0.  0.
         23    2    4    4    0    0 -0.70530763669E+03 -0.65470283659E+03  0.39257780847E+03  0.10433536768E+04  0.91514438943E+02 0.  0.
         23    2    4    4    0    0 -0.13170470746E+03 -0.28957323936E+03 -0.16716597883E+03  0.37184354987E+03  0.95521569209E+02 0.  0.
          3    1    3    3  502    0  0.29103913736E+03  0.39435823827E+03 -0.39805930151E+02  0.49173845858E+03  0.00000000000E+00 0. -1.
         -3    1    3    3    0  502  0.54597320680E+03  0.54991783767E+03 -0.66015299790E+02  0.77772385237E+03  0.00000000000E+00 0.  1.
         13    1    5    5    0    0 -0.45690339431E+03 -0.45244367736E+03  0.30238593890E+03  0.71056544313E+03  0.00000000000E+00 0. -1.
        -13    1    5    5    0    0 -0.24840424238E+03 -0.20225915923E+03  0.90191869571E+02  0.33278823365E+03  0.00000000000E+00 0.  1.
          5    1    6    6  503    0 -0.55301592753E+02 -0.22410278068E+03 -0.10644603247E+03  0.25423054556E+03  0.47000000000E+01 0. -1.
         -5    1    6    6    0  503 -0.76403114711E+02 -0.65470458682E+02 -0.60719946357E+02  0.11761300431E+03  0.47000000000E+01 0.  1.
<mgrwt>
<rscale>  0 0.12799941E+04</rscale>
<asrwt>0</asrwt>
<pdfrwt beam="1">  1        2 0.21571155E+00 0.12799941E+04</pdfrwt>
<pdfrwt beam="2">  1       -2 0.19731299E+00 0.12799941E+04</pdfrwt>
<totfact> 0.19239191E+00</totfact>
</mgrwt>
</event>
<event>
12    1  0.3166324E-008  0.3734134E+03  0.7818608E-02  0.1053395E+00
         -1   -1    0    0    0  501 -0.00000000000E+00  0.00000000000E+00  0.48597260780E+03  0.48597260780E+03  0.00000000000E+00 0.  1.
          1   -1    0    0  501    0  0.00000000000E+00 -0.00000000000E+00 -0.37009193034E+03  0.37009193034E+03  0.00000000000E+00 0. -1.
         23    2    1    2    0    0  0.18968384045E+03  0.45551569277E+02  0.38947111278E+02  0.22047846526E+03  0.95073505129E+02 0.  0.
    5000000    2    1    2    0    0 -0.18968384045E+03 -0.45551569277E+02  0.76933566185E+02  0.63558607288E+03  0.59999664802E+03 0.  0.
         23    2    4    4    0    0 -0.35733829173E+01 -0.23603642742E+03  0.20626924545E+03  0.32649644396E+03  0.91252189925E+02 0.  0.
         23    2    4    4    0    0 -0.18611045753E+03  0.19048485815E+03 -0.12933567926E+03  0.30908962891E+03  0.88809330506E+02 0.  0.
          1    1    3    3  502    0  0.81888683278E+02 -0.24655172100E+02 -0.17956771944E+01  0.85538636983E+02  0.00000000000E+00 0. -1.
         -1    1    3    3    0  502  0.10779515717E+03  0.70206741377E+02  0.40742788473E+02  0.13493982828E+03  0.00000000000E+00 0.  1.
         13    1    5    5    0    0  0.42619969009E+02 -0.11385213496E+03  0.11315798108E+03  0.16608280789E+03  0.00000000000E+00 0.  1.
        -13    1    5    5    0    0 -0.46193351926E+02 -0.12218429246E+03  0.93111264369E+02  0.16041363608E+03  0.00000000000E+00 0. -1.
          5    1    6    6  503    0 -0.15443904479E+03  0.98900874424E+02 -0.78274954834E+02  0.19945390463E+03  0.47000000000E+01 0. -1.
         -5    1    6    6    0  503 -0.31671412738E+02  0.91583983724E+02 -0.51060724430E+02  0.10963572428E+03  0.47000000000E+01 0.  1.
<mgrwt>
<rscale>  0 0.37341342E+03</rscale>
<asrwt>0</asrwt>
<pdfrwt beam="1">  1        1 0.56937220E-01 0.37341342E+03</pdfrwt>
<pdfrwt beam="2">  1       -1 0.74765017E-01 0.37341342E+03</pdfrwt>
<totfact> 0.12532881E+02</totfact>
</mgrwt>
</event>
<event>
12    1  0.3166324E-008  0.1145709E+04  0.7818608E-02  0.9161752E-01
         -2   -1    0    0    0  501 -0.00000000000E+00  0.00000000000E+00  0.54267000103E+03  0.54267000103E+03  0.00000000000E+00 0.  1.
          2   -1    0    0  501    0  0.00000000000E+00 -0.00000000000E+00 -0.24829804150E+04  0.24829804150E+04  0.00000000000E+00 0. -1.
         23    2    1    2    0    0  0.10095863423E+04 -0.37902076726E+03 -0.10086336579E+04  0.14793786324E+04  0.91093125479E+02 0.  0.
    5000000    2    1    2    0    0 -0.10095863423E+04  0.37902076726E+03 -0.93167675606E+03  0.15462717837E+04  0.60001127202E+03 0.  0.
         23    2    4    4    0    0 -0.66322629773E+03  0.50652326775E+03 -0.52726116543E+03  0.99157167973E+03  0.93675592861E+02 0.  0.
         23    2    4    4    0    0 -0.34636004457E+03 -0.12750250049E+03 -0.40441559063E+03  0.55470010392E+03  0.88983522301E+02 0.  0.
          4    1    3    3  502    0  0.27933849950E+03 -0.64761006580E+02 -0.28710853397E+03  0.40577739655E+03  0.00000000000E+00 0. -1.
         -4    1    3    3    0  502  0.73024784281E+03 -0.31425976068E+03 -0.72152512397E+03  0.10736012359E+04  0.00000000000E+00 0.  1.
         13    1    5    5    0    0 -0.30770200932E+03  0.27864180062E+03 -0.22422085966E+03  0.47180162515E+03  0.00000000000E+00 0.  1.
        -13    1    5    5    0    0 -0.35552428842E+03  0.22788146713E+03 -0.30304030577E+03  0.51977005458E+03  0.00000000000E+00 0. -1.
          5    1    6    6  503    0 -0.18283310828E+03 -0.41907122129E+02 -0.14931702747E+03  0.23979536497E+03  0.47000000000E+01 0. -1.
         -5    1    6    6    0  503 -0.16352693630E+03 -0.85595378358E+02 -0.25509856316E+03  0.31490473896E+03  0.47000000000E+01 0.  1.
<mgrwt>
<rscale>  0 0.11457085E+04</rscale>
<asrwt>0</asrwt>
<pdfrwt beam="1">  1        2 0.38199699E+00 0.11457085E+04</pdfrwt>
<pdfrwt beam="2">  1       -2 0.83487693E-01 0.11457085E+04</pdfrwt>
<totfact> 0.44322167E+00</totfact>
</mgrwt>
</event>
<event>
12    1  0.3166324E-008  0.1090065E+04  0.7818608E-02  0.9214929E-01
         -2   -1    0    0    0  501 -0.00000000000E+00  0.00000000000E+00  0.39007313706E+03  0.39007313706E+03  0.00000000000E+00 0. -1.
          2   -1    0    0  501    0  0.00000000000E+00 -0.00000000000E+00 -0.37505918180E+04  0.37505918180E+04  0.00000000000E+00 0.  1.
         23    2    1    2    0    0 -0.87630404518E+02  0.10153380484E+04 -0.24273633933E+04  0.26342156954E+04  0.91699762785E+02 0.  0.
    5000000    2    1    2    0    0  0.87630404518E+02 -0.10153380484E+04 -0.93315528756E+03  0.15064492596E+04  0.60001678361E+03 0.  0.
         23    2    4    4    0    0  0.31782906816E+03 -0.47563476092E+03 -0.36911368251E+03  0.68704663390E+03  0.92436054536E+02 0.  0.
         23    2    4    4    0    0 -0.23019866364E+03 -0.53970328749E+03 -0.56404160505E+03  0.81940262567E+03  0.94903463898E+02 0.  0.
          4    1    3    3  502    0 -0.50392747165E+02  0.49444931785E+03 -0.10675711938E+04  0.11775940772E+04  0.00000000000E+00 0. -1.
         -4    1    3    3    0  502 -0.37237657353E+02  0.52088873055E+03 -0.13597921995E+04  0.14566216182E+04  0.00000000000E+00 0.  1.
         13    1    5    5    0    0  0.90857519268E+02 -0.12396707599E+03 -0.53164970996E+02  0.16263283456E+03  0.00000000000E+00 0. -1.
        -13    1    5    5    0    0  0.22697154889E+03 -0.35166768493E+03 -0.31594871151E+03  0.52441379934E+03  0.00000000000E+00 0.  1.
          5    1    6    6  503    0 -0.14958778855E+03 -0.40285598533E+03 -0.35883251353E+03  0.55986812212E+03  0.47000000000E+01 0.  1.
         -5    1    6    6    0  503 -0.80610875086E+02 -0.13684730216E+03 -0.20520909152E+03  0.25953450355E+03  0.47000000000E+01 0.  1.
<mgrwt>
<rscale>  0 0.10900653E+04</rscale>
<asrwt>0</asrwt>
<pdfrwt beam="1">  1        2 0.57701412E+00 0.10900653E+04</pdfrwt>
<pdfrwt beam="2">  1       -2 0.60011252E-01 0.10900653E+04</pdfrwt>
<totfact> 0.14265756E+00</totfact>
</mgrwt>
</event>
<event>
12    1  0.3166324E-008  0.4293330E+03  0.7818608E-02  0.1034071E+00
         -1   -1    0    0    0  501 -0.00000000000E+00  0.00000000000E+00  0.56815474039E+03  0.56815474039E+03  0.00000000000E+00 0.  1.
          1   -1    0    0  501    0  0.00000000000E+00 -0.00000000000E+00 -0.79830260693E+03  0.79830260693E+03  0.00000000000E+00 0. -1.
         23    2    1    2    0    0 -0.18356588285E+03 -0.17782426822E+03 -0.56989890588E+03  0.63114101151E+03  0.90754117096E+02 0.  0.
    5000000    2    1    2    0    0  0.18356588285E+03  0.17782426822E+03  0.33975103934E+03  0.73531633581E+03  0.59995119907E+03 0.  0.
         23    2    4    4    0    0 -0.17822556815E+03  0.15430018412E+03  0.24316144488E+03  0.34928769431E+03  0.85448845290E+02 0.  0.
         23    2    4    4    0    0  0.36179145101E+03  0.23524084100E+02  0.96589594461E+02  0.38602864150E+03  0.90786153923E+02 0.  0.
          1    1    3    3  502    0 -0.10676041788E+03 -0.12939445468E+03 -0.27066234607E+03  0.31843180951E+03  0.00000000000E+00 0. -1.
         -1    1    3    3    0  502 -0.76805464978E+02 -0.48429813548E+02 -0.29923655981E+03  0.31270920200E+03  0.00000000000E+00 0.  1.
         11    1    5    5    0    0 -0.50158904632E+02  0.60917530608E+02  0.13834268284E+03  0.15926568728E+03  0.00000000000E+00 0. -1.
        -11    1    5    5    0    0 -0.12806666352E+03  0.93382653515E+02  0.10481876204E+03  0.19002200704E+03  0.00000000000E+00 0.  1.
          5    1    6    6  503    0  0.10558394254E+03  0.60683661369E+01  0.71963381571E+02  0.12800629780E+03  0.47000000000E+01 0. -1.
         -5    1    6    6    0  503  0.25620750847E+03  0.17455717964E+02  0.24626212889E+02  0.25802234370E+03  0.47000000000E+01 0.  1.
<mgrwt>
<rscale>  0 0.42933305E+03</rscale>
<asrwt>0</asrwt>
<pdfrwt beam="1">  1        1 0.12281578E+00 0.42933305E+03</pdfrwt>
<pdfrwt beam="2">  1       -1 0.87408422E-01 0.42933305E+03</pdfrwt>
<totfact> 0.30649103E+01</totfact>
</mgrwt>
</event>
<event>
12    1  0.3166324E-008  0.1308783E+04  0.7818608E-02  0.9022629E-01
          1   -1    0    0  501    0  0.00000000000E+00  0.00000000000E+00  0.13693310890E+04  0.13693310890E+04  0.00000000000E+00 0. -1.
         -1   -1    0    0    0  501 -0.00000000000E+00 -0.00000000000E+00 -0.14165348371E+04  0.14165348371E+04  0.00000000000E+00 0.  1.
         23    2    1    2    0    0  0.50155420762E+03 -0.11842049750E+04  0.30348671699E+03  0.13245477847E+04  0.91785622317E+02 0.  0.
    5000000    2    1    2    0    0 -0.50155420762E+03  0.11842049750E+04 -0.35069046511E+03  0.14613181413E+04  0.59880619725E+03 0.  0.
         23    2    4    4    0    0 -0.12750466026E+03  0.11685637328E+03  0.12383995887E+03  0.23115892612E+03  0.90472445239E+02 0.  0.
         23    2    4    4    0    0 -0.37404954736E+03  0.10673486017E+04 -0.47453042398E+03  0.12301592152E+04  0.94691446277E+02 0.  0.
          1    1    3    3  502    0  0.34723689984E+03 -0.73261443905E+03  0.16176485029E+03  0.82671957017E+03  0.00000000000E+00 0. -1.
         -1    1    3    3    0  502  0.15431730778E+03 -0.45159053597E+03  0.14172186670E+03  0.49782821451E+03  0.00000000000E+00 0.  1.
         11    1    5    5    0    0  0.10290748336E+02 -0.47883971077E+01  0.62687883188E+01  0.12966339312E+02  0.00000000000E+00 0. -1.
        -11    1    5    5    0    0 -0.13779540860E+03  0.12164477038E+03  0.11757117055E+03  0.21819258681E+03  0.00000000000E+00 0.  1.
          5    1    6    6  503    0 -0.34940519839E+03  0.90419265061E+03 -0.39231020817E+03  0.10457426698E+04  0.47000000000E+01 0.  1.
         -5    1    6    6    0  503 -0.24644348975E+02  0.16315595114E+03 -0.82220215808E+02  0.18441654539E+03  0.47000000000E+01 0. -1.
<mgrwt>
<rscale>  0 0.13087825E+04</rscale>
<asrwt>0</asrwt>
<pdfrwt beam="1">  1        1 0.21066632E+00 0.13087825E+04</pdfrwt>
<pdfrwt beam="2">  1       -1 0.21792843E+00 0.13087825E+04</pdfrwt>
<totfact> 0.88762104E-01</totfact>
</mgrwt>
</event>
<event>
12    1  0.3166324E-008  0.5413926E+03  0.7818608E-02  0.1003506E+00
         -2   -1    0    0    0  501 -0.00000000000E+00  0.00000000000E+00  0.14645860057E+03  0.14645860057E+03  0.00000000000E+00 0.  1.
          2   -1    0    0  501    0  0.00000000000E+00 -0.00000000000E+00 -0.22781099898E+04  0.22781099898E+04  0.00000000000E+00 0. -1.
         23    2    1    2    0    0  0.33829334565E+03 -0.22386803436E+03 -0.59512956043E+03  0.72591629407E+03  0.90642086092E+02 0.  0.
    5000000    2    1    2    0    0 -0.33829334565E+03  0.22386803436E+03 -0.15365218288E+04  0.16986522963E+04  0.59996750648E+03 0.  0.
         23    2    4    4    0    0 -0.49539053317E+02 -0.17168728858E+03 -0.66690997877E+03  0.69668906143E+03  0.93145507990E+02 0.  0.
         23    2    4    4    0    0 -0.28875429233E+03  0.39555532294E+03 -0.86961185001E+03  0.10019632349E+04  0.88670736359E+02 0.  0.
          4    1    3    3  502    0  0.13798404803E+03 -0.76379861738E+02 -0.30792984551E+03  0.34596859763E+03  0.00000000000E+00 0. -1.
         -4    1    3    3    0  502  0.20030929762E+03 -0.14748817263E+03 -0.28719971492E+03  0.37994769644E+03  0.00000000000E+00 0.  1.
         13    1    5    5    0    0 -0.28380954697E+02 -0.10119394480E+03 -0.22066250478E+03  0.24441283532E+03  0.00000000000E+00 0. -1.
        -13    1    5    5    0    0 -0.21158098620E+02 -0.70493343780E+02 -0.44624747399E+03  0.45227622610E+03  0.00000000000E+00 0.  1.
          5    1    6    6  503    0 -0.26827587804E+03  0.31219011107E+03 -0.72594440044E+03  0.83453698223E+03  0.47000000000E+01 0. -1.
         -5    1    6    6    0  503 -0.20478414295E+02  0.83365211873E+02 -0.14366744958E+03  0.16742625263E+03  0.47000000000E+01 0.  1.
<mgrwt>
<rscale>  0 0.54139264E+03</rscale>
<asrwt>0</asrwt>
<pdfrwt beam="1">  1        2 0.35047843E+00 0.54139264E+03</pdfrwt>
<pdfrwt beam="2">  1       -2 0.22532094E-01 0.54139264E+03</pdfrwt>
<totfact> 0.85690493E+01</totfact>
</mgrwt>
</event>
<event>
12    1  0.3166324E-008  0.5396315E+03  0.7818608E-02  0.1003923E+00
         -1   -1    0    0    0  501 -0.00000000000E+00  0.00000000000E+00  0.16396038624E+03  0.16396038624E+03  0.00000000000E+00 0.  1.
          1   -1    0    0  501    0  0.00000000000E+00 -0.00000000000E+00 -0.18600096880E+04  0.18600096880E+04  0.00000000000E+00 0. -1.
         23    2    1    2    0    0 -0.25917608954E+03 -0.26500888025E+03 -0.77278779202E+03  0.86188779009E+03  0.90816513988E+02 0.  0.
    5000000    2    1    2    0    0  0.25917608954E+03  0.26500888025E+03 -0.92326150971E+03  0.11620822841E+04  0.60051766650E+03 0.  0.
         23    2    4    4    0    0  0.40498126981E+03  0.39921462739E+02 -0.61491009472E+03  0.74353322529E+03  0.95517958672E+02 0.  0.
         23    2    4    4    0    0 -0.14580518027E+03  0.22508741751E+03 -0.30835141498E+03  0.41854905884E+03  0.90439059139E+02 0.  0.
          1    1    3    3  502    0 -0.22987978474E+03 -0.18270449664E+03 -0.61581195961E+03  0.68223897435E+03  0.00000000000E+00 0. -1.
         -1    1    3    3    0  502 -0.29296304796E+02 -0.82304383604E+02 -0.15697583241E+03  0.17964881574E+03  0.00000000000E+00 0.  1.
         13    1    5    5    0    0  0.10884345947E+03  0.51167055472E+02 -0.15097298185E+03  0.19302281597E+03  0.00000000000E+00 0.  1.
        -13    1    5    5    0    0  0.29613781034E+03 -0.11245592734E+02 -0.46393711287E+03  0.55051040932E+03  0.00000000000E+00 0. -1.
          5    1    6    6  503    0 -0.37697743339E+02  0.13680824812E+03 -0.13474128415E+03  0.19574197368E+03  0.47000000000E+01 0. -1.
         -5    1    6    6    0  503 -0.10810743693E+03  0.88279169387E+02 -0.17361013083E+03  0.22280708515E+03  0.47000000000E+01 0.  1.
<mgrwt>
<rscale>  0 0.53963147E+03</rscale>
<asrwt>0</asrwt>
<pdfrwt beam="1">  1        1 0.28615533E+00 0.53963147E+03</pdfrwt>
<pdfrwt beam="2">  1       -1 0.25224675E-01 0.53963147E+03</pdfrwt>
<totfact> 0.54263451E+01</totfact>
</mgrwt>
</event>
<event>
12    1  0.3166324E-008  0.4895948E+03  0.7818608E-02  0.1016531E+00
         -2   -1    0    0    0  501 -0.00000000000E+00  0.00000000000E+00  0.19676514429E+03  0.19676514429E+03  0.00000000000E+00 0.  1.
          2   -1    0    0  501    0  0.00000000000E+00 -0.00000000000E+00 -0.21870140733E+04  0.21870140733E+04  0.00000000000E+00 0. -1.
         23    2    1    2    0    0  0.71546648253E+02 -0.46990450743E+03 -0.43984691219E+03  0.65470190101E+03  0.96125459892E+02 0.  0.
    5000000    2    1    2    0    0 -0.71546648253E+02  0.46990450743E+03 -0.15504020169E+04  0.17290773166E+04  0.60002731936E+03 0.  0.
         23    2    4    4    0    0 -0.14612743265E+02  0.27797431837E+03 -0.14662828137E+04  0.14952979831E+04  0.91910360919E+02 0.  0.
         23    2    4    4    0    0 -0.56933904988E+02  0.19193018907E+03 -0.84119203145E+02  0.23377933355E+03  0.86591393584E+02 0.  0.
          1    1    3    3  502    0  0.64453789833E+02 -0.16163311940E+03 -0.19172075216E+03  0.25891389132E+03  0.00000000000E+00 0. -1.
         -1    1    3    3    0  502  0.70928584195E+01 -0.30827138803E+03 -0.24812616003E+03  0.39578800969E+03  0.00000000000E+00 0.  1.
         11    1    5    5    0    0  0.32182046488E+02  0.13019846720E+03 -0.80460900070E+03  0.81571010107E+03  0.00000000000E+00 0.  1.
        -11    1    5    5    0    0 -0.46794789753E+02  0.14777585116E+03 -0.66167381303E+03  0.67958788201E+03  0.00000000000E+00 0. -1.
          5    1    6    6  503    0 -0.49617434234E+02  0.72634257660E+02 -0.95090167526E+00  0.88094377686E+02  0.47000000000E+01 0. -1.
         -5    1    6    6    0  503 -0.73164707536E+01  0.11929593141E+03 -0.83168301470E+02  0.14568495586E+03  0.47000000000E+01 0.  1.
<mgrwt>
<rscale>  0 0.48959482E+03</rscale>
<asrwt>0</asrwt>
<pdfrwt beam="1">  1        2 0.33646370E+00 0.48959482E+03</pdfrwt>
<pdfrwt beam="2">  1       -2 0.30271561E-01 0.48959482E+03</pdfrwt>
<totfact> 0.56895659E+01</totfact>
</mgrwt>
</event>
<event>
12    1  0.3166324E-008  0.6113808E+03  0.7818608E-02  0.9882072E-01
         -2   -1    0    0    0  501 -0.00000000000E+00  0.00000000000E+00  0.29864772954E+03  0.29864772954E+03  0.00000000000E+00 0.  1.
          2   -1    0    0  501    0  0.00000000000E+00 -0.00000000000E+00 -0.14832129996E+04  0.14832129996E+04  0.00000000000E+00 0. -1.
         23    2    1    2    0    0 -0.30842950237E+03 -0.42472796393E+03 -0.45928370227E+03  0.70405231344E+03  0.96049672557E+02 0.  0.
    5000000    2    1    2    0    0  0.30842950237E+03  0.42472796393E+03 -0.72528156776E+03  0.10778084157E+04  0.60009584826E+03 0.  0.
         23    2    4    4    0    0 -0.10784862164E+03  0.90291520512E+02 -0.42845911447E+03  0.45977173480E+03  0.89604416659E+02 0.  0.
         23    2    4    4    0    0  0.41627812401E+03  0.33443644342E+03 -0.29682245329E+03  0.61803668088E+03  0.93437459908E+02 0.  0.
          1    1    3    3  502    0 -0.14467282634E+03 -0.12697880345E+03 -0.14266869404E+03  0.23960008235E+03  0.00000000000E+00 0. -1.
         -1    1    3    3    0  502 -0.16375667603E+03 -0.29774916049E+03 -0.31661500823E+03  0.46445223108E+03  0.00000000000E+00 0.  1.
         11    1    5    5    0    0 -0.11201997183E+03  0.63169181270E+02 -0.40030945957E+03  0.42045984704E+03  0.00000000000E+00 0. -1.
        -11    1    5    5    0    0  0.41713501930E+01  0.27122339242E+02 -0.28149654897E+02  0.39311887760E+02  0.00000000000E+00 0.  1.
          5    1    6    6  503    0  0.27576185284E+03  0.23296567211E+03 -0.24768347225E+03  0.43782050693E+03  0.47000000000E+01 0. -1.
         -5    1    6    6    0  503  0.14051627117E+03  0.10147077132E+03 -0.49138981042E+02  0.18021617395E+03  0.47000000000E+01 0.  1.
<mgrwt>
<rscale>  0 0.61138085E+03</rscale>
<asrwt>0</asrwt>
<pdfrwt beam="1">  1        2 0.22818661E+00 0.61138085E+03</pdfrwt>
<pdfrwt beam="2">  1       -2 0.45945805E-01 0.61138085E+03</pdfrwt>
<totfact> 0.60411330E+01</totfact>
</mgrwt>
</event>
<event>
12    1  0.3166324E-008  0.4745104E+03  0.7818608E-02  0.1020655E+00
         -2   -1    0    0    0  501 -0.00000000000E+00  0.00000000000E+00  0.11599252269E+03  0.11599252269E+03  0.00000000000E+00 0.  1.
          2   -1    0    0  501    0  0.00000000000E+00 -0.00000000000E+00 -0.23480583068E+04  0.23480583068E+04  0.00000000000E+00 0. -1.
         23    2    1    2    0    0  0.29384801077E+03  0.80799997609E+02 -0.38462087253E+03  0.49766603429E+03  0.82843062743E+02 0.  0.
    5000000    2    1    2    0    0 -0.29384801077E+03 -0.80799997609E+02 -0.18474449116E+04  0.19663847952E+04  0.60061732280E+03 0.  0.
         23    2    4    4    0    0 -0.22634891554E+03  0.22527910576E+03 -0.11335343429E+04  0.11812317829E+04  0.91781868819E+02 0.  0.
         23    2    4    4    0    0 -0.67499095235E+02 -0.30607910337E+03 -0.71391056869E+03  0.78515301227E+03  0.92500849817E+02 0.  0.
          4    1    3    3  502    0  0.13686491957E+03 -0.48563725468E+01 -0.17027202046E+03  0.21851350419E+03  0.00000000000E+00 0. -1.
         -4    1    3    3    0  502  0.15698309120E+03  0.85656370156E+02 -0.21434885208E+03  0.27915253009E+03  0.00000000000E+00 0.  1.
         11    1    5    5    0    0 -0.18502886323E+03  0.18809324212E+03 -0.10349739374E+04  0.10680757460E+04  0.00000000000E+00 0. -1.
        -11    1    5    5    0    0 -0.41320052307E+02  0.37185863639E+02 -0.98560405429E+02  0.11315603694E+03  0.00000000000E+00 0.  1.
          5    1    6    6  503    0 -0.20566743859E+02 -0.11992416625E+03 -0.17621139147E+03  0.21418996496E+03  0.47000000000E+01 0. -1.
         -5    1    6    6    0  503 -0.46932351376E+02 -0.18615493712E+03 -0.53769917722E+03  0.57096304731E+03  0.47000000000E+01 0.  1.
<mgrwt>
<rscale>  0 0.47451040E+03</rscale>
<asrwt>0</asrwt>
<pdfrwt beam="1">  1        2 0.36123972E+00 0.47451040E+03</pdfrwt>
<pdfrwt beam="2">  1       -2 0.17845005E-01 0.47451040E+03</pdfrwt>
<totfact> 0.11900250E+02</totfact>
</mgrwt>
</event>
<event>
12    1  0.3166324E-008  0.2028561E+04  0.7818608E-02  0.8593383E-01
         -2   -1    0    0    0  501 -0.00000000000E+00  0.00000000000E+00  0.96084209383E+03  0.96084209383E+03  0.00000000000E+00 0.  1.
          2   -1    0    0  501    0  0.00000000000E+00 -0.00000000000E+00 -0.43171728005E+04  0.43171728005E+04  0.00000000000E+00 0. -1.
         23    2    1    2    0    0 -0.12296247664E+04  0.15611906930E+04 -0.18064955798E+04  0.26872522828E+04  0.92763709051E+02 0.  0.
    5000000    2    1    2    0    0  0.12296247664E+04 -0.15611906930E+04 -0.15498351268E+04  0.25907626115E+04  0.60064011076E+03 0.  0.
         23    2    4    4    0    0 -0.49407584064E+01 -0.26705184620E+03 -0.25954364710E+03  0.38336599499E+03  0.90914694670E+02 0.  0.
         23    2    4    4    0    0  0.12345655248E+04 -0.12941388468E+04 -0.12902914797E+04  0.22073966165E+04  0.93810074290E+02 0.  0.
          3    1    3    3  502    0 -0.11372110910E+04  0.14548568197E+04 -0.16459961236E+04  0.24736937301E+04  0.00000000000E+00 0. -1.
         -3    1    3    3    0  502 -0.92413675364E+02  0.10633387323E+03 -0.16049945622E+03  0.21355855271E+03  0.00000000000E+00 0.  1.
         11    1    5    5    0    0 -0.28550278829E+02 -0.31922430780E+02 -0.21412319886E+02  0.47881598251E+02  0.00000000000E+00 0. -1.
        -11    1    5    5    0    0  0.23609520423E+02 -0.23512941542E+03 -0.23813132722E+03  0.33548439673E+03  0.00000000000E+00 0.  1.
          5    1    6    6  503    0  0.34864790633E+03 -0.31257253003E+03 -0.36045872861E+03  0.59093953510E+03  0.47000000000E+01 0. -1.
         -5    1    6    6    0  503  0.88591761848E+03 -0.98156631675E+03 -0.92983275111E+03  0.16164570814E+04  0.47000000000E+01 0.  1.
<mgrwt>
<rscale>  0 0.20285605E+04</rscale>
<asrwt>0</asrwt>
<pdfrwt beam="1">  1        2 0.66418044E+00 0.20285605E+04</pdfrwt>
<pdfrwt beam="2">  1       -2 0.14782186E+00 0.20285605E+04</pdfrwt>
<totfact> 0.51590225E-02</totfact>
</mgrwt>
</event>
<event>
12    1  0.3166324E-008  0.5619289E+03  0.7818608E-02  0.9987700E-01
          1   -1    0    0  501    0  0.00000000000E+00  0.00000000000E+00  0.11055343016E+04  0.11055343016E+04  0.00000000000E+00 0. -1.
         -1   -1    0    0    0  501 -0.00000000000E+00 -0.00000000000E+00 -0.49218129834E+03  0.49218129834E+03  0.00000000000E+00 0.  1.
         23    2    1    2    0    0 -0.23760162580E+03  0.36609803746E+03 -0.20805973040E+03  0.49084089713E+03  0.84579130220E+02 0.  0.
    5000000    2    1    2    0    0  0.23760162580E+03 -0.36609803746E+03  0.82141273370E+03  0.11068747029E+04  0.59997535210E+03 0.  0.
         23    2    4    4    0    0 -0.15118248068E+03 -0.59133188337E+02  0.43366338321E+03  0.47043268724E+03  0.83006667500E+02 0.  0.
         23    2    4    4    0    0  0.38878410648E+03 -0.30696484912E+03  0.38774935048E+03  0.63644201562E+03  0.96583541016E+02 0.  0.
          1    1    3    3  502    0 -0.21182619779E+03  0.26716631079E+03 -0.14343865865E+03  0.36989569406E+03  0.00000000000E+00 0. -1.
         -1    1    3    3    0  502 -0.25775428006E+02  0.98931726671E+02 -0.64621071746E+02  0.12094520307E+03  0.00000000000E+00 0.  1.
         11    1    5    5    0    0 -0.61090009301E+02  0.15981718836E+02  0.18528639974E+03  0.19575100128E+03  0.00000000000E+00 0. -1.
        -11    1    5    5    0    0 -0.90092471383E+02 -0.75114907172E+02  0.24837698348E+03  0.27468168596E+03  0.00000000000E+00 0.  1.
          5    1    6    6  503    0  0.21513446354E+03 -0.12591415647E+03  0.15105830963E+03  0.29150971701E+03  0.47000000000E+01 0. -1.
         -5    1    6    6    0  503  0.17364964294E+03 -0.18105069265E+03  0.23669104086E+03  0.34493229861E+03  0.47000000000E+01 0.  1.
<mgrwt>
<rscale>  0 0.56192888E+03</rscale>
<asrwt>0</asrwt>
<pdfrwt beam="1">  1        1 0.17008220E+00 0.56192888E+03</pdfrwt>
<pdfrwt beam="2">  1       -1 0.75720200E-01 0.56192888E+03</pdfrwt>
<totfact> 0.23256705E+01</totfact>
</mgrwt>
</event>
<event>
12    1  0.3166324E-008  0.7457114E+03  0.7818608E-02  0.9642103E-01
          1   -1    0    0  501    0  0.00000000000E+00  0.00000000000E+00  0.79071198294E+03  0.79071198294E+03  0.00000000000E+00 0. -1.
         -1   -1    0    0    0  501 -0.00000000000E+00 -0.00000000000E+00 -0.97863644955E+03  0.97863644955E+03  0.00000000000E+00 0.  1.
         23    2    1    2    0    0 -0.67699342203E+03  0.11475034009E+03 -0.44103404255E+03  0.82350440742E+03  0.11027578303E+03 0.  0.
    5000000    2    1    2    0    0  0.67699342203E+03 -0.11475034009E+03  0.25310957594E+03  0.94584402506E+03  0.59922343770E+03 0.  0.
         23    2    4    4    0    0  0.14569203187E+03  0.12423808577E+03 -0.12511079031E+03  0.24616967084E+03  0.91024869572E+02 0.  0.
         23    2    4    4    0    0  0.53130139016E+03 -0.23898842586E+03  0.37822036625E+03  0.69967435422E+03  0.84243228970E+02 0.  0.
          3    1    3    3  502    0 -0.15731560744E+03  0.61910675597E+02 -0.14727427461E+03  0.22421160554E+03  0.00000000000E+00 0. -1.
         -3    1    3    3    0  502 -0.51967781459E+03  0.52839664495E+02 -0.29375976794E+03  0.59929280188E+03  0.00000000000E+00 0.  1.
         11    1    5    5    0    0  0.13422477859E+03  0.60963680814E+02 -0.92872994307E+02  0.17423620358E+03  0.00000000000E+00 0. -1.
        -11    1    5    5    0    0  0.11467253280E+02  0.63274404956E+02 -0.32237796007E+02  0.71933467258E+02  0.00000000000E+00 0.  1.
          5    1    6    6  503    0  0.37221009772E+03 -0.12559425343E+03  0.24102730547E+03  0.46090186083E+03  0.47000000000E+01 0. -1.
         -5    1    6    6    0  503  0.15909129244E+03 -0.11339417243E+03  0.13719306079E+03  0.23877249339E+03  0.47000000000E+01 0.  1.
<mgrwt>
<rscale>  0 0.74571141E+03</rscale>
<asrwt>0</asrwt>
<pdfrwt beam="1">  1        1 0.12164800E+00 0.74571141E+03</pdfrwt>
<pdfrwt beam="2">  1       -1 0.15055945E+00 0.74571141E+03</pdfrwt>
<totfact> 0.80385116E+00</totfact>
</mgrwt>
</event>
<event>
12    1  0.3166324E-008  0.8289373E+03  0.7818608E-02  0.9519051E-01
         -2   -1    0    0    0  501 -0.00000000000E+00  0.00000000000E+00  0.17568801439E+04  0.17568801439E+04  0.00000000000E+00 0.  1.
          2   -1    0    0  501    0  0.00000000000E+00 -0.00000000000E+00 -0.13401036894E+04  0.13401036894E+04  0.00000000000E+00 0. -1.
         23    2    1    2    0    0  0.54746166606E+03  0.48706643762E+03 -0.10901588352E+04  0.13171472817E+04  0.97379080544E+02 0.  0.
    5000000    2    1    2    0    0 -0.54746166606E+03 -0.48706643762E+03  0.15069352896E+04  0.17798365516E+04  0.60001349403E+03 0.  0.
         23    2    4    4    0    0 -0.48936627857E+03 -0.68415019909E+02  0.67238999857E+03  0.83929973097E+03  0.90309239102E+02 0.  0.
         23    2    4    4    0    0 -0.58095387484E+02 -0.41865141772E+03  0.83454529101E+03  0.94053682065E+03  0.97465812707E+02 0.  0.
          4    1    3    3  502    0  0.35787219446E+03  0.34044824994E+03 -0.80712812418E+03  0.94627338930E+03  0.00000000000E+00 0. -1.
         -4    1    3    3    0  502  0.18958947159E+03  0.14661818769E+03 -0.28303071098E+03  0.37087389239E+03  0.00000000000E+00 0.  1.
         13    1    5    5    0    0 -0.43402202861E+03 -0.64666636340E+02  0.54038069292E+03  0.69610932220E+03  0.00000000000E+00 0.  1.
        -13    1    5    5    0    0 -0.55344249960E+02 -0.37483835683E+01  0.13200930566E+03  0.14319040877E+03  0.00000000000E+00 0. -1.
          5    1    6    6  503    0  0.17478964171E+02 -0.14219791685E+03  0.33905345986E+03  0.36811017425E+03  0.47000000000E+01 0. -1.
         -5    1    6    6    0  503 -0.75574351655E+02 -0.27645350086E+03  0.49549183115E+03  0.57242664640E+03  0.47000000000E+01 0.  1.
<mgrwt>
<rscale>  0 0.82893731E+03</rscale>
<asrwt>0</asrwt>
<pdfrwt beam="1">  1        2 0.20616980E+00 0.82893731E+03</pdfrwt>
<pdfrwt beam="2">  1       -2 0.27028925E+00 0.82893731E+03</pdfrwt>
<totfact> 0.77781629E-01</totfact>
</mgrwt>
</event>
<event>
12    1  0.3166324E-008  0.3462828E+03  0.7818608E-02  0.1064151E+00
         -2   -1    0    0    0  501 -0.00000000000E+00  0.00000000000E+00  0.17095854228E+03  0.17095854228E+03  0.00000000000E+00 0. -1.
          2   -1    0    0  501    0  0.00000000000E+00 -0.00000000000E+00 -0.14682790491E+04  0.14682790491E+04  0.00000000000E+00 0.  1.
         23    2    1    2    0    0  0.30161959713E+03 -0.67274242864E+02 -0.49339712929E+03  0.58955082583E+03  0.92893723761E+02 0.  0.
    5000000    2    1    2    0    0 -0.30161959713E+03  0.67274242864E+02 -0.80392337751E+03  0.10496867655E+04  0.60004108500E+03 0.  0.
         23    2    4    4    0    0 -0.14216558591E+03 -0.53930454150E+02  0.36244311717E+02  0.18109247807E+03  0.91440077547E+02 0.  0.
         23    2    4    4    0    0 -0.15945401123E+03  0.12120469701E+03 -0.84016768923E+03  0.86859428746E+03  0.91968091763E+02 0.  0.
          1    1    3    3  502    0  0.20642602703E+03 -0.30471532566E+01 -0.29005689442E+03  0.35602526846E+03  0.00000000000E+00 0. -1.
         -1    1    3    3    0  502  0.95193570098E+02 -0.64227089607E+02 -0.20334023487E+03  0.23352555737E+03  0.00000000000E+00 0.  1.
         11    1    5    5    0    0 -0.14979170398E+03 -0.58655152675E+02  0.46514171092E+02  0.16745611255E+03  0.00000000000E+00 0.  1.
        -11    1    5    5    0    0  0.76261180776E+01  0.47246985257E+01 -0.10269859376E+02  0.13636365523E+02  0.00000000000E+00 0. -1.
          5    1    6    6  503    0 -0.12356154675E+03  0.10297982622E+03 -0.77739834662E+03  0.79387818950E+03  0.47000000000E+01 0. -1.
         -5    1    6    6    0  503 -0.35892464473E+02  0.18224870796E+02 -0.62769342608E+02  0.74716097950E+02  0.47000000000E+01 0.  1.
<mgrwt>
<rscale>  0 0.34628275E+03</rscale>
<asrwt>0</asrwt>
<pdfrwt beam="1">  1        2 0.22588909E+00 0.34628275E+03</pdfrwt>
<pdfrwt beam="2">  1       -2 0.26301313E-01 0.34628275E+03</pdfrwt>
<totfact> 0.18343721E+02</totfact>
</mgrwt>
</event>
<event>
12    1  0.3166324E-008  0.4024581E+03  0.7818608E-02  0.1042932E+00
         -2   -1    0    0    0  501 -0.00000000000E+00  0.00000000000E+00  0.51186776086E+03  0.51186776086E+03  0.00000000000E+00 0.  1.
          2   -1    0    0  501    0  0.00000000000E+00 -0.00000000000E+00 -0.35670008100E+03  0.35670008100E+03  0.00000000000E+00 0. -1.
         23    2    1    2    0    0  0.10954691142E+03 -0.13796364923E+03  0.14061316957E+03  0.24312625188E+03  0.91125279624E+02 0.  0.
    5000000    2    1    2    0    0 -0.10954691142E+03  0.13796364923E+03  0.14554510295E+02  0.62544158998E+03  0.59994237590E+03 0.  0.
         23    2    4    4    0    0 -0.51031527055E+02 -0.22222400532E+03  0.37909195084E+02  0.24850674698E+03  0.91273056955E+02 0.  0.
         23    2    4    4    0    0 -0.58515384364E+02  0.36018765456E+03 -0.23354684789E+02  0.37693484300E+03  0.91516325679E+02 0.  0.
          2    1    3    3  502    0  0.72841772505E+02 -0.37955346623E+02  0.24870780054E+02  0.85820090068E+02  0.00000000000E+00 0. -1.
         -2    1    3    3    0  502  0.36705138915E+02 -0.10000830261E+03  0.11574238952E+03  0.15730616181E+03  0.00000000000E+00 0.  1.
         11    1    5    5    0    0  0.17317913509E+02 -0.12775408881E+03  0.22929026777E+02  0.13094562843E+03  0.00000000000E+00 0. -1.
        -11    1    5    5    0    0 -0.68349440565E+02 -0.94469916511E+02  0.14980168307E+02  0.11756111855E+03  0.00000000000E+00 0.  1.
          5    1    6    6  503    0 -0.32163896226E+02  0.51660376617E+02 -0.28142438020E+02  0.67211587917E+02  0.47000000000E+01 0. -1.
         -5    1    6    6    0  503 -0.26351488138E+02  0.30852727794E+03  0.47877532311E+01  0.30972325508E+03  0.47000000000E+01 0.  1.
<mgrwt>
<rscale>  0 0.40245812E+03</rscale>
<asrwt>0</asrwt>
<pdfrwt beam="1">  1        2 0.54876935E-01 0.40245812E+03</pdfrwt>
<pdfrwt beam="2">  1       -2 0.78748887E-01 0.40245812E+03</pdfrwt>
<totfact> 0.13329579E+02</totfact>
</mgrwt>
</event>
<event>
12    1  0.3166324E-008  0.1365511E+04  0.7818608E-02  0.8979169E-01
         -2   -1    0    0    0  501 -0.00000000000E+00  0.00000000000E+00  0.14180138996E+04  0.14180138996E+04  0.00000000000E+00 0.  1.
          2   -1    0    0  501    0  0.00000000000E+00 -0.00000000000E+00 -0.23151317878E+04  0.23151317878E+04  0.00000000000E+00 0. -1.
         23    2    1    2    0    0  0.78005105147E+03  0.10552554078E+04 -0.16463335209E+04  0.21072990315E+04  0.90837919056E+02 0.  0.
    5000000    2    1    2    0    0 -0.78005105147E+03 -0.10552554078E+04  0.74921563273E+03  0.16258466559E+04  0.60000805454E+03 0.  0.
         23    2    4    4    0    0 -0.41877436894E+02 -0.45552659513E+03  0.12066190428E+03  0.48214299899E+03  0.92975145823E+02 0.  0.
         23    2    4    4    0    0 -0.73817361457E+03 -0.59972881264E+03  0.62855372845E+03  0.11437036569E+04  0.91669685373E+02 0.  0.
          1    1    3    3  502    0  0.32359225342E+03  0.48316965718E+03 -0.67130169486E+03  0.88815022919E+03  0.00000000000E+00 0. -1.
         -1    1    3    3    0  502  0.45645879805E+03  0.57208575060E+03 -0.97503182605E+03  0.12191488023E+04  0.00000000000E+00 0.  1.
         13    1    5    5    0    0  0.99069632137E+01 -0.25126783731E+03  0.31853582399E+02  0.25347253243E+03  0.00000000000E+00 0. -1.
        -13    1    5    5    0    0 -0.51784400108E+02 -0.20425875782E+03  0.88808321881E+02  0.22867046656E+03  0.00000000000E+00 0.  1.
          5    1    6    6  503    0 -0.46097837267E+03 -0.31701237383E+03  0.36214682076E+03  0.66646103789E+03  0.47000000000E+01 0. -1.
         -5    1    6    6    0  503 -0.27719524190E+03 -0.28271643881E+03  0.26640690768E+03  0.47724261898E+03  0.47000000000E+01 0.  1.
<mgrwt>
<rscale>  0 0.13655109E+04</rscale>
<asrwt>0</asrwt>
<pdfrwt beam="1">  1        2 0.35617412E+00 0.13655109E+04</pdfrwt>
<pdfrwt beam="2">  1       -2 0.21815599E+00 0.13655109E+04</pdfrwt>
<totfact> 0.43014245E-01</totfact>
</mgrwt>
</event>
<event>
12    1  0.3166324E-008  0.5964218E+03  0.7818608E-02  0.9912858E-01
          2   -1    0    0  501    0  0.00000000000E+00  0.00000000000E+00  0.40077763257E+03  0.40077763257E+03  0.00000000000E+00 0. -1.
         -2   -1    0    0    0  501 -0.00000000000E+00 -0.00000000000E+00 -0.93696091160E+03  0.93696091160E+03  0.00000000000E+00 0.  1.
         23    2    1    2    0    0 -0.45518047500E+03 -0.27954532651E+02 -0.27572720533E+03  0.54051676757E+03  0.90344692996E+02 0.  0.
    5000000    2    1    2    0    0  0.45518047500E+03  0.27954532651E+02 -0.26045607370E+03  0.79722177659E+03  0.59979536013E+03 0.  0.
         23    2    4    4    0    0  0.31756431764E+03 -0.24779940916E+03 -0.57295433699E+02  0.41687222007E+03  0.90818710229E+02 0.  0.
         23    2    4    4    0    0  0.13761615736E+03  0.27575394181E+03 -0.20316064000E+03  0.38034955653E+03  0.91722932323E+02 0.  0.
          2    1    3    3  502    0 -0.29492970287E+03 -0.47110336642E+02 -0.21531275749E+03  0.36818812717E+03  0.00000000000E+00 0.  1.
         -2    1    3    3    0  502 -0.16025077212E+03  0.19155803991E+02 -0.60414447841E+02  0.17232864040E+03  0.00000000000E+00 0. -1.
         13    1    5    5    0    0  0.12290440431E+03 -0.15332158703E+03 -0.30102116338E+02  0.19879421284E+03  0.00000000000E+00 0.  1.
        -13    1    5    5    0    0  0.19465991332E+03 -0.94477822124E+02 -0.27193317361E+02  0.21807800723E+03  0.00000000000E+00 0. -1.
          5    1    6    6  503    0  0.64305503255E+02  0.47396977572E+02 -0.67980215287E+02  0.10500033763E+03  0.47000000000E+01 0. -1.
         -5    1    6    6    0  503  0.73310654104E+02  0.22835696424E+03 -0.13518042472E+03  0.27534921890E+03  0.47000000000E+01 0.  1.
<mgrwt>
<rscale>  0 0.59642184E+03</rscale>
<asrwt>0</asrwt>
<pdfrwt beam="1">  1        2 0.61658098E-01 0.59642184E+03</pdfrwt>
<pdfrwt beam="2">  1       -2 0.14414783E+00 0.59642184E+03</pdfrwt>
<totfact> 0.27087601E+01</totfact>
</mgrwt>
</event>
<event>
12    1  0.3166324E-008  0.5121741E+03  0.7818608E-02  0.1010649E+00
          1   -1    0    0  501    0  0.00000000000E+00  0.00000000000E+00  0.14416780811E+04  0.14416780811E+04  0.00000000000E+00 0. -1.
         -1   -1    0    0    0  501 -0.00000000000E+00 -0.00000000000E+00 -0.36861833890E+03  0.36861833890E+03  0.00000000000E+00 0.  1.
         23    2    1    2    0    0  0.37154819208E+03 -0.45069261049E+02 -0.13682356901E+03  0.40886661575E+03  0.91498213676E+02 0.  0.
    5000000    2    1    2    0    0 -0.37154819208E+03  0.45069261049E+02  0.12098833112E+04  0.14014298043E+04  0.60009047001E+03 0.  0.
         23    2    4    4    0    0 -0.31158926040E+03  0.25534770837E+03  0.47940761260E+03  0.63262385888E+03  0.89949810688E+02 0.  0.
         23    2    4    4    0    0 -0.59958931681E+02 -0.21027844732E+03  0.73047569864E+03  0.76880594541E+03  0.98263607138E+02 0.  0.
          4    1    3    3  502    0  0.16093665228E+03 -0.56530869904E+02 -0.32857306616E+02  0.17371225604E+03  0.00000000000E+00 0. -1.
         -4    1    3    3    0  502  0.21061153980E+03  0.11461608855E+02 -0.10396626239E+03  0.23515435971E+03  0.00000000000E+00 0.  1.
         11    1    5    5    0    0 -0.23877342474E+03  0.21149224774E+03  0.42619861099E+03  0.53234103282E+03  0.00000000000E+00 0.  1.
        -11    1    5    5    0    0 -0.72815835667E+02  0.43855460627E+02  0.53209001606E+02  0.10028282606E+03  0.00000000000E+00 0. -1.
          5    1    6    6  503    0  0.23136567904E+02 -0.86900499129E+02  0.24468108234E+03  0.26072575549E+03  0.47000000000E+01 0. -1.
         -5    1    6    6    0  503 -0.83095499585E+02 -0.12337794819E+03  0.48579461630E+03  0.50808018991E+03  0.47000000000E+01 0.  1.
<mgrwt>
<rscale>  0 0.51217410E+03</rscale>
<asrwt>0</asrwt>
<pdfrwt beam="1">  1        1 0.22179663E+00 0.51217410E+03</pdfrwt>
<pdfrwt beam="2">  1       -1 0.56710514E-01 0.51217410E+03</pdfrwt>
<totfact> 0.24222536E+01</totfact>
</mgrwt>
</event>
<event>
12    1  0.3166324E-008  0.4978494E+03  0.7818608E-02  0.1014342E+00
          1   -1    0    0  501    0  0.00000000000E+00  0.00000000000E+00  0.68074920404E+03  0.68074920404E+03  0.00000000000E+00 0. -1.
         -1   -1    0    0    0  501 -0.00000000000E+00 -0.00000000000E+00 -0.56653377432E+03  0.56653377432E+03  0.00000000000E+00 0.  1.
         23    2    1    2    0    0  0.15281229582E+03 -0.38076147750E+03 -0.18699940399E+03  0.46042551498E+03  0.93230774160E+02 0.  0.
    5000000    2    1    2    0    0 -0.15281229582E+03  0.38076147750E+03  0.30121483371E+03  0.78685746338E+03  0.60006948859E+03 0.  0.
         23    2    4    4    0    0 -0.28890306649E+03  0.29075727229E+03 -0.12622535709E+02  0.42008244967E+03  0.91132666483E+02 0.  0.
         23    2    4    4    0    0  0.13609077067E+03  0.90004205211E+02  0.31383736942E+03  0.36677501371E+03  0.96997739269E+02 0.  0.
          4    1    3    3  502    0  0.82156322380E+02 -0.20714940335E+03 -0.15199410960E+03  0.26974570611E+03  0.00000000000E+00 0. -1.
         -4    1    3    3    0  502  0.70655973440E+02 -0.17361207415E+03 -0.35005294394E+02  0.19067980887E+03  0.00000000000E+00 0.  1.
         11    1    5    5    0    0 -0.24143428579E+03  0.28064598242E+03 -0.11361903000E+01  0.37020801278E+03  0.00000000000E+00 0. -1.
        -11    1    5    5    0    0 -0.47468780700E+02  0.10111289870E+02 -0.11486345409E+02  0.49874436888E+02  0.00000000000E+00 0.  1.
          5    1    6    6  503    0  0.11072395304E+02  0.19929618168E+02  0.13767455621E+03  0.13962865410E+03  0.47000000000E+01 0. -1.
         -5    1    6    6    0  503  0.12501837536E+03  0.70074587043E+02  0.17616281321E+03  0.22714635961E+03  0.47000000000E+01 0.  1.
<mgrwt>
<rscale>  0 0.49784942E+03</rscale>
<asrwt>0</asrwt>
<pdfrwt beam="1">  1        1 0.10473065E+00 0.49784942E+03</pdfrwt>
<pdfrwt beam="2">  1       -1 0.87159042E-01 0.49784942E+03</pdfrwt>
<totfact> 0.38848604E+01</totfact>
</mgrwt>
</event>
<event>
12    1  0.3166324E-008  0.8979515E+03  0.7818608E-02  0.9428146E-01
          1   -1    0    0  501    0  0.00000000000E+00  0.00000000000E+00  0.25624571017E+04  0.25624571017E+04  0.00000000000E+00 0. -1.
         -1   -1    0    0    0  501 -0.00000000000E+00 -0.00000000000E+00 -0.34452701880E+03  0.34452701880E+03  0.00000000000E+00 0.  1.
         23    2    1    2    0    0 -0.31962497071E+01  0.81408578277E+03  0.67206701623E+03  0.10595592600E+04  0.90806791738E+02 0.  0.
    5000000    2    1    2    0    0  0.31962497071E+01 -0.81408578277E+03  0.15458630667E+04  0.18474248605E+04  0.60044992849E+03 0.  0.
         23    2    4    4    0    0  0.25684173973E+03 -0.34968826522E+03  0.92541795464E+03  0.10262416592E+04  0.92325458489E+02 0.  0.
         23    2    4    4    0    0 -0.25364549003E+03 -0.46439751754E+03  0.62044511204E+03  0.82118320128E+03  0.96894912647E+02 0.  0.
          1    1    3    3  502    0 -0.20429934651E+02  0.43947686572E+03  0.30922923806E+03  0.53775460891E+03  0.00000000000E+00 0. -1.
         -1    1    3    3    0  502  0.17233684944E+02  0.37460891704E+03  0.36283777817E+03  0.52180465109E+03  0.00000000000E+00 0.  1.
         11    1    5    5    0    0  0.21879523635E+03 -0.22778522010E+03  0.65230119246E+03  0.72474430500E+03  0.00000000000E+00 0. -1.
        -11    1    5    5    0    0  0.38046503386E+02 -0.12190304512E+03  0.27311676219E+03  0.30149735425E+03  0.00000000000E+00 0.  1.
          5    1    6    6  503    0 -0.13781298337E+03 -0.15748370854E+03  0.25990364326E+03  0.33371474438E+03  0.47000000000E+01 0. -1.
         -5    1    6    6    0  503 -0.11583250666E+03 -0.30691380900E+03  0.36054146878E+03  0.48746845689E+03  0.47000000000E+01 0.  1.
<mgrwt>
<rscale>  0 0.89795154E+03</rscale>
<asrwt>0</asrwt>
<pdfrwt beam="1">  1        1 0.39422416E+00 0.89795154E+03</pdfrwt>
<pdfrwt beam="2">  1       -1 0.53004158E-01 0.89795154E+03</pdfrwt>
<totfact> 0.45510482E+00</totfact>
</mgrwt>
</event>
<event>
12    1  0.3166324E-008  0.1343534E+04  0.7818608E-02  0.8995737E-01
         -2   -1    0    0    0  501 -0.00000000000E+00  0.00000000000E+00  0.62426045183E+03  0.62426045183E+03  0.00000000000E+00 0.  1.
          2   -1    0    0  501    0  0.00000000000E+00 -0.00000000000E+00 -0.30593331520E+04  0.30593331520E+04  0.00000000000E+00 0. -1.
         23    2    1    2    0    0  0.61679682439E+03  0.11229293265E+04 -0.76570136508E+03  0.14953968782E+04  0.92220647533E+02 0.  0.
    5000000    2    1    2    0    0 -0.61679682439E+03 -0.11229293265E+04 -0.16693713351E+04  0.21881967256E+04  0.59999638409E+03 0.  0.
         23    2    4    4    0    0  0.60973041129E+02 -0.39491577119E+03 -0.57750596760E+03  0.70822102894E+03  0.91584415338E+02 0.  0.
         23    2    4    4    0    0 -0.67776986552E+03 -0.72801355530E+03 -0.10918653675E+04  0.14799756967E+04  0.93714219203E+02 0.  0.
          1    1    3    3  502    0  0.14619379285E+03  0.22175222658E+03 -0.12367126022E+03  0.29298678412E+03  0.00000000000E+00 0. -1.
         -1    1    3    3    0  502  0.47060303154E+03  0.90117709991E+03 -0.64203010486E+03  0.12024100940E+04  0.00000000000E+00 0.  1.
         11    1    5    5    0    0  0.48401365284E+02 -0.94956078578E+02 -0.19204312877E+03  0.21963586303E+03  0.00000000000E+00 0.  1.
        -11    1    5    5    0    0  0.12571675844E+02 -0.29995969261E+03 -0.38546283883E+03  0.48858516591E+03  0.00000000000E+00 0. -1.
          5    1    6    6  503    0 -0.25463152661E+03 -0.21749944259E+03 -0.33439042032E+03  0.47326764634E+03  0.47000000000E+01 0. -1.
         -5    1    6    6    0  503 -0.42313833891E+03 -0.51051411271E+03 -0.75747494714E+03  0.10067080504E+04  0.47000000000E+01 0.  1.
<mgrwt>
<rscale>  0 0.13435344E+04</rscale>
<asrwt>0</asrwt>
<pdfrwt beam="1">  1        2 0.47066664E+00 0.13435344E+04</pdfrwt>
<pdfrwt beam="2">  1       -2 0.96040069E-01 0.13435344E+04</pdfrwt>
<totfact> 0.14144567E+00</totfact>
</mgrwt>
</event>
<event>
12    1  0.4241504E-008  0.1586443E+04  0.7818608E-02  0.8828920E-01
          2   -1    0    0  501    0  0.00000000000E+00  0.00000000000E+00  0.20384424345E+04  0.20384424345E+04  0.00000000000E+00 0. -1.
         -2   -1    0    0    0  501 -0.00000000000E+00 -0.00000000000E+00 -0.19115304087E+04  0.19115304087E+04  0.00000000000E+00 0.  1.
         23    2    1    2    0    0  0.14831314673E+04  0.38668897301E+03 -0.11068445981E+04  0.18927198520E+04  0.89867471480E+02 0.  0.
    5000000    2    1    2    0    0 -0.14831314673E+04 -0.38668897301E+03  0.12337566239E+04  0.20572529912E+04  0.60077212958E+03 0.  0.
         23    2    4    4    0    0 -0.86534842233E+03 -0.51243723345E+03  0.75266508418E+03  0.12590008817E+04  0.84608988630E+02 0.  0.
         23    2    4    4    0    0 -0.61778304501E+03  0.12574826044E+03  0.48109153971E+03  0.79825210952E+03  0.91043094555E+02 0.  0.
          4    1    3    3  502    0  0.76224433526E+03  0.15231175510E+03 -0.56140313788E+03  0.95884763158E+03  0.00000000000E+00 0. -1.
         -4    1    3    3    0  502  0.72088713208E+03  0.23437721791E+03 -0.54544146020E+03  0.93387222037E+03  0.00000000000E+00 0.  1.
         13    1    5    5    0    0 -0.35902357230E+03 -0.22433702193E+03  0.26659739674E+03  0.50029910736E+03  0.00000000000E+00 0.  1.
        -13    1    5    5    0    0 -0.50632485003E+03 -0.28810021152E+03  0.48606768744E+03  0.75870177436E+03  0.00000000000E+00 0. -1.
          5    1    6    6  503    0 -0.31803417855E+03  0.83889488470E+02  0.19879352896E+03  0.38434898486E+03  0.47000000000E+01 0. -1.
         -5    1    6    6    0  503 -0.29974886646E+03  0.41858771970E+02  0.28229801075E+03  0.41390312466E+03  0.47000000000E+01 0.  1.
<mgrwt>
<rscale>  0 0.15864425E+04</rscale>
<asrwt>0</asrwt>
<pdfrwt beam="1">  1        2 0.31360653E+00 0.15864425E+04</pdfrwt>
<pdfrwt beam="2">  1       -2 0.29408160E+00 0.15864425E+04</pdfrwt>
<totfact> 0.20398484E-01</totfact>
</mgrwt>
</event>
<event>
12    1  0.3166324E-008  0.4292431E+03  0.7818608E-02  0.1034099E+00
         -2   -1    0    0    0  501 -0.00000000000E+00  0.00000000000E+00  0.13340519669E+03  0.13340519669E+03  0.00000000000E+00 0.  1.
          2   -1    0    0  501    0  0.00000000000E+00 -0.00000000000E+00 -0.19450325847E+04  0.19450325847E+04  0.00000000000E+00 0. -1.
         23    2    1    2    0    0  0.30845557048E+03 -0.98839555229E+02 -0.62175931205E+03  0.70694644255E+03  0.90964464869E+02 0.  0.
    5000000    2    1    2    0    0 -0.30845557048E+03  0.98839555229E+02 -0.11898680760E+04  0.13714913388E+04  0.60024024996E+03 0.  0.
         23    2    4    4    0    0 -0.40531880344E+03  0.47980525534E+02 -0.43549233532E+03  0.60383248361E+03  0.91513009345E+02 0.  0.
         23    2    4    4    0    0  0.96863232960E+02  0.50859029695E+02 -0.75437574064E+03  0.76765885523E+03  0.90819783884E+02 0.  0.
          4    1    3    3  502    0  0.72046980689E+02  0.55735494308E+01 -0.19589686083E+03  0.20879993286E+03  0.00000000000E+00 0.  1.
         -4    1    3    3    0  502  0.23640858980E+03 -0.10441310466E+03 -0.42586245122E+03  0.49814650969E+03  0.00000000000E+00 0. -1.
         11    1    5    5    0    0 -0.30008461252E+03  0.19981658568E+02 -0.26131650489E+03  0.39841731523E+03  0.00000000000E+00 0. -1.
        -11    1    5    5    0    0 -0.10523419092E+03  0.27998866965E+02 -0.17417583044E+03  0.20541516838E+03  0.00000000000E+00 0.  1.
          5    1    6    6  503    0  0.67374304347E+02  0.56129098233E+02 -0.30856414521E+03  0.32081722875E+03  0.47000000000E+01 0. -1.
         -5    1    6    6    0  503  0.29488928612E+02 -0.52700685388E+01 -0.44581159543E+03  0.44684162648E+03  0.47000000000E+01 0.  1.
<mgrwt>
<rscale>  0 0.42924310E+03</rscale>
<asrwt>0</asrwt>
<pdfrwt beam="1">  1        2 0.29923576E+00 0.42924310E+03</pdfrwt>
<pdfrwt beam="2">  1       -2 0.20523878E-01 0.42924310E+03</pdfrwt>
<totfact> 0.15564047E+02</totfact>
</mgrwt>
</event>
<event>
12    1  0.3440402E-008  0.1241260E+04  0.7818608E-02  0.9077489E-01
          1   -1    0    0  501    0  0.00000000000E+00  0.00000000000E+00  0.13437513235E+04  0.13437513235E+04  0.00000000000E+00 0. -1.
         -1   -1    0    0    0  501 -0.00000000000E+00 -0.00000000000E+00 -0.12773621249E+04  0.12773621249E+04  0.00000000000E+00 0.  1.
         23    2    1    2    0    0  0.24913634832E+03  0.11501938102E+04 -0.35837024877E+03  0.12335185284E+04  0.90133253954E+02 0.  0.
    5000000    2    1    2    0    0 -0.24913634832E+03 -0.11501938102E+04  0.42475944730E+03  0.13875949201E+04  0.59998696069E+03 0.  0.
         23    2    4    4    0    0  0.17396644487E+03 -0.26821631846E+03  0.48985632079E+02  0.33545389248E+03  0.89024740380E+02 0.  0.
         23    2    4    4    0    0 -0.42310279319E+03 -0.88197749176E+03  0.37577381523E+03  0.10521410276E+04  0.94310721267E+02 0.  0.
          1    1    3    3  502    0  0.22322484474E+03  0.84956530266E+03 -0.27578473128E+03  0.92067787678E+03  0.00000000000E+00 0. -1.
         -1    1    3    3    0  502  0.25911503579E+02  0.30062850756E+03 -0.82585517485E+02  0.31284065157E+03  0.00000000000E+00 0.  1.
         13    1    5    5    0    0  0.68173410458E+02 -0.95820067825E+02  0.61672313074E+02  0.13278770083E+03  0.00000000000E+00 0. -1.
        -13    1    5    5    0    0  0.10579303441E+03 -0.17239625064E+03 -0.12686680995E+02  0.20266619165E+03  0.00000000000E+00 0.  1.
          5    1    6    6  503    0 -0.15924705830E+03 -0.23637115536E+03  0.98504971620E+02  0.30158956895E+03  0.47000000000E+01 0. -1.
         -5    1    6    6    0  503 -0.26385573489E+03 -0.64560633640E+03  0.27726884361E+03  0.75055145864E+03  0.47000000000E+01 0.  1.
<mgrwt>
<rscale>  0 0.12412599E+04</rscale>
<asrwt>0</asrwt>
<pdfrwt beam="1">  1        1 0.20673097E+00 0.12412599E+04</pdfrwt>
<pdfrwt beam="2">  1       -1 0.19651725E+00 0.12412599E+04</pdfrwt>
<totfact> 0.13061663E+00</totfact>
</mgrwt>
</event>
<event>
12    1  0.3166324E-008  0.5487044E+03  0.7818608E-02  0.1001794E+00
          1   -1    0    0  501    0  0.00000000000E+00  0.00000000000E+00  0.65520356864E+03  0.65520356864E+03  0.00000000000E+00 0. -1.
         -1   -1    0    0    0  501 -0.00000000000E+00 -0.00000000000E+00 -0.72657504715E+03  0.72657504715E+03  0.00000000000E+00 0.  1.
         23    2    1    2    0    0 -0.29733111321E+03 -0.42154559360E+03  0.17645584698E+03  0.55250023820E+03  0.89517422422E+02 0.  0.
    5000000    2    1    2    0    0  0.29733111321E+03  0.42154559360E+03 -0.24782732549E+03  0.82927837759E+03  0.60014811997E+03 0.  0.
         23    2    4    4    0    0  0.29772309176E+03  0.40525587040E+03 -0.40208223161E+03  0.64993844535E+03  0.88760925640E+02 0.  0.
         23    2    4    4    0    0 -0.39197854379E+00  0.16289723201E+02  0.15425490611E+03  0.17933993223E+03  0.90015145968E+02 0.  0.
          1    1    3    3  502    0 -0.78532142628E+02 -0.67584743185E+02  0.62703058625E+02  0.12110602173E+03  0.00000000000E+00 0. -1.
         -1    1    3    3    0  502 -0.21879897058E+03 -0.35396085041E+03  0.11375278836E+03  0.43139421648E+03  0.00000000000E+00 0.  1.
         13    1    5    5    0    0  0.52805964981E+02  0.12761923469E+03 -0.82632273921E+02  0.16094480947E+03  0.00000000000E+00 0. -1.
        -13    1    5    5    0    0  0.24491712678E+03  0.27763663570E+03 -0.31944995769E+03  0.48899363589E+03  0.00000000000E+00 0.  1.
          5    1    6    6  503    0 -0.24071941713E+02  0.32158857048E+02  0.26485172131E+02  0.48344646108E+02  0.47000000000E+01 0. -1.
         -5    1    6    6    0  503  0.23679963169E+02 -0.15869133847E+02  0.12776973398E+03  0.13099528612E+03  0.47000000000E+01 0.  1.
<mgrwt>
<rscale>  0 0.54870441E+03</rscale>
<asrwt>0</asrwt>
<pdfrwt beam="1">  1        1 0.10080055E+00 0.54870441E+03</pdfrwt>
<pdfrwt beam="2">  1       -1 0.11178078E+00 0.54870441E+03</pdfrwt>
<totfact> 0.23272198E+01</totfact>
</mgrwt>
</event>
<event>
12    1  0.3166324E-008  0.4551237E+03  0.7818608E-02  0.1026205E+00
         -2   -1    0    0    0  501 -0.00000000000E+00  0.00000000000E+00  0.77244454959E+02  0.77244454959E+02  0.00000000000E+00 0.  1.
          2   -1    0    0  501    0  0.00000000000E+00 -0.00000000000E+00 -0.37512576092E+04  0.37512576092E+04  0.00000000000E+00 0. -1.
         23    2    1    2    0    0  0.88559657027E+02 -0.34693720257E+03 -0.14888607339E+04  0.15342894538E+04  0.95548980121E+02 0.  0.
    5000000    2    1    2    0    0 -0.88559657027E+02  0.34693720257E+03 -0.21851524204E+04  0.22942126104E+04  0.60026008213E+03 0.  0.
         23    2    4    4    0    0 -0.22916481347E+03  0.94115034614E+02 -0.17133187852E+04  0.17335213542E+04  0.90889352174E+02 0.  0.
         23    2    4    4    0    0  0.14060515644E+03  0.25282216796E+03 -0.47183363520E+03  0.56069125624E+03  0.89771080460E+02 0.  0.
          3    1    3    3  502    0  0.36971156002E+01 -0.45380946189E+02 -0.35644576504E+03  0.35934201307E+03  0.00000000000E+00 0. -1.
         -3    1    3    3    0  502  0.84862541427E+02 -0.30155625638E+03 -0.11324149689E+04  0.11749474407E+04  0.00000000000E+00 0.  1.
         13    1    5    5    0    0 -0.14066840361E+03  0.45080485645E+02 -0.12826780618E+04  0.12911556298E+04  0.00000000000E+00 0.  1.
        -13    1    5    5    0    0 -0.88496409859E+02  0.49034548969E+02 -0.43064072333E+03  0.44236572442E+03  0.00000000000E+00 0. -1.
          5    1    6    6  503    0 -0.27193992556E+01  0.69973850919E+02 -0.98504843595E+02  0.12095052359E+03  0.47000000000E+01 0. -1.
         -5    1    6    6    0  503  0.14332455569E+03  0.18284831704E+03 -0.37332879161E+03  0.43974073265E+03  0.47000000000E+01 0.  1.
<mgrwt>
<rscale>  0 0.45512367E+03</rscale>
<asrwt>0</asrwt>
<pdfrwt beam="1">  1        2 0.57711665E+00 0.45512367E+03</pdfrwt>
<pdfrwt beam="2">  1       -2 0.11883760E-01 0.45512367E+03</pdfrwt>
<totfact> 0.32098362E+01</totfact>
</mgrwt>
</event>
<event>
12    1  0.3166324E-008  0.1058358E+04  0.7818608E-02  0.9246757E-01
          2   -1    0    0  501    0  0.00000000000E+00  0.00000000000E+00  0.13444029921E+04  0.13444029921E+04  0.00000000000E+00 0. -1.
         -2   -1    0    0    0  501 -0.00000000000E+00 -0.00000000000E+00 -0.99220935546E+03  0.99220935546E+03  0.00000000000E+00 0.  1.
         23    2    1    2    0    0  0.10106885774E+04  0.26732708843E+03 -0.88622273609E+02  0.10532394248E+04  0.92218251866E+02 0.  0.
    5000000    2    1    2    0    0 -0.10106885774E+04 -0.26732708843E+03  0.44081591029E+03  0.12833729228E+04  0.59981015295E+03 0.  0.
         23    2    4    4    0    0 -0.32827858983E+03  0.51056027629E+01  0.42248690642E+03  0.54271913545E+03  0.90862391391E+02 0.  0.
         23    2    4    4    0    0 -0.68240998753E+03 -0.27243269119E+03  0.18329003874E+02  0.74065378734E+03  0.91264001728E+02 0.  0.
          1    1    3    3  502    0  0.25071642081E+03  0.42496800130E+02 -0.53933204176E+02  0.25994901846E+03  0.00000000000E+00 0. -1.
         -1    1    3    3    0  502  0.75997215654E+03  0.22483028830E+03 -0.34689069433E+02  0.79329040634E+03  0.00000000000E+00 0.  1.
         11    1    5    5    0    0 -0.10903744925E+03  0.19369824420E+02  0.20817683206E+03  0.23580065488E+03  0.00000000000E+00 0.  1.
        -11    1    5    5    0    0 -0.21924114058E+03 -0.14264221657E+02  0.21431007436E+03  0.30691848057E+03  0.00000000000E+00 0. -1.
          5    1    6    6  503    0 -0.61321039008E+03 -0.21644256587E+03  0.36489449898E+01  0.65031513255E+03  0.47000000000E+01 0. -1.
         -5    1    6    6    0  503 -0.69199597443E+02 -0.55990125324E+02  0.14680058884E+02  0.90338654788E+02  0.47000000000E+01 0.  1.
<mgrwt>
<rscale>  0 0.10583581E+04</rscale>
<asrwt>0</asrwt>
<pdfrwt beam="1">  1        2 0.20683123E+00 0.10583581E+04</pdfrwt>
<pdfrwt beam="2">  1       -2 0.15264759E+00 0.10583581E+04</pdfrwt>
<totfact> 0.43908803E+00</totfact>
</mgrwt>
</event>
<event>
12    1  0.3166324E-008  0.1235775E+04  0.7818608E-02  0.9082107E-01
          2   -1    0    0  501    0  0.00000000000E+00  0.00000000000E+00  0.31775810099E+04  0.31775810099E+04  0.00000000000E+00 0.  1.
         -2   -1    0    0    0  501 -0.00000000000E+00 -0.00000000000E+00 -0.54148104673E+03  0.54148104673E+03  0.00000000000E+00 0. -1.
         23    2    1    2    0    0 -0.90252179361E+03 -0.78345085639E+03  0.77461853956E+03  0.14268203777E+04  0.86265149137E+02 0.  0.
    5000000    2    1    2    0    0  0.90252179361E+03  0.78345085639E+03  0.18614814236E+04  0.22922416790E+04  0.60076450628E+03 0.  0.
         23    2    4    4    0    0  0.61233215935E+03  0.75188701248E+03  0.16649265705E+04  0.19289640654E+04  0.92936148066E+02 0.  0.
         23    2    4    4    0    0  0.29018963426E+03  0.31563843914E+02  0.19655485311E+03  0.36327761355E+03  0.90169363695E+02 0.  0.
          1    1    3    3  502    0 -0.87231234160E+03 -0.74055568888E+03  0.72503236739E+03  0.13546303863E+04  0.00000000000E+00 0. -1.
         -1    1    3    3    0  502 -0.30209452011E+02 -0.42895167514E+02  0.49586172173E+02  0.72189991395E+02  0.00000000000E+00 0.  1.
         11    1    5    5    0    0  0.39118611156E+03  0.41621641785E+03  0.93474230725E+03  0.10954477903E+04  0.00000000000E+00 0.  1.
        -11    1    5    5    0    0  0.22114604780E+03  0.33567059463E+03  0.73018426324E+03  0.83351627509E+03  0.00000000000E+00 0. -1.
          5    1    6    6  503    0  0.16795943230E+02 -0.16517365605E+02  0.16773509304E+01  0.24079671544E+02  0.47000000000E+01 0. -1.
         -5    1    6    6    0  503  0.27339369103E+03  0.48081209518E+02  0.19487750218E+03  0.33919794200E+03  0.47000000000E+01 0.  1.
<mgrwt>
<rscale>  0 0.12357747E+04</rscale>
<asrwt>0</asrwt>
<pdfrwt beam="1">  1        2 0.48885861E+00 0.12357747E+04</pdfrwt>
<pdfrwt beam="2">  1       -2 0.83304778E-01 0.12357747E+04</pdfrwt>
<totfact> 0.16773942E+00</totfact>
</mgrwt>
</event>
<event>
12    1  0.3166324E-008  0.9499426E+03  0.7818608E-02  0.9365218E-01
          2   -1    0    0  501    0  0.00000000000E+00  0.00000000000E+00  0.23220342605E+04  0.23220342605E+04  0.00000000000E+00 0.  1.
         -2   -1    0    0    0  501 -0.00000000000E+00 -0.00000000000E+00 -0.46660083812E+03  0.46660083812E+03  0.00000000000E+00 0. -1.
         23    2    1    2    0    0  0.14708143927E+03  0.93264699754E+03  0.10179215069E+04  0.13912343324E+04  0.88912325606E+02 0.  0.
    5000000    2    1    2    0    0 -0.14708143927E+03 -0.93264699754E+03  0.83751191552E+03  0.13974007663E+04  0.59986608598E+03 0.  0.
         23    2    4    4    0    0 -0.16751239186E+03 -0.81841770517E+03  0.39021832703E+03  0.92583733289E+03  0.83883744873E+02 0.  0.
         23    2    4    4    0    0  0.20430952594E+02 -0.11422929237E+03  0.44729358849E+03  0.47156343337E+03  0.93993416428E+02 0.  0.
          2    1    3    3  502    0  0.57778892345E+02  0.33989298820E+03  0.43540790278E+03  0.55537886675E+03  0.00000000000E+00 0. -1.
         -2    1    3    3    0  502  0.89302546923E+02  0.59275400934E+03  0.58251360412E+03  0.83585546565E+03  0.00000000000E+00 0.  1.
         11    1    5    5    0    0 -0.88805364268E+02 -0.47080296886E+03  0.17846348854E+03  0.51126416357E+03  0.00000000000E+00 0.  1.
        -11    1    5    5    0    0 -0.78707027594E+02 -0.34761473631E+03  0.21175483849E+03  0.41457316931E+03  0.00000000000E+00 0. -1.
          5    1    6    6  503    0  0.27523496770E+02 -0.75416802069E+02  0.13795808843E+03  0.15968644612E+03  0.47000000000E+01 0. -1.
         -5    1    6    6    0  503 -0.70925441760E+01 -0.38812490302E+02  0.30933550006E+03  0.31187698726E+03  0.47000000000E+01 0.  1.
<mgrwt>
<rscale>  0 0.94994258E+03</rscale>
<asrwt>0</asrwt>
<pdfrwt beam="1">  1        2 0.35723603E+00 0.94994258E+03</pdfrwt>
<pdfrwt beam="2">  1       -2 0.71784746E-01 0.94994258E+03</pdfrwt>
<totfact> 0.78574573E+00</totfact>
</mgrwt>
</event>
<event>
12    1  0.3166324E-008  0.6480730E+03  0.7818608E-02  0.9810402E-01
         -2   -1    0    0    0  501 -0.00000000000E+00  0.00000000000E+00  0.73678385537E+03  0.73678385537E+03  0.00000000000E+00 0.  1.
          2   -1    0    0  501    0  0.00000000000E+00 -0.00000000000E+00 -0.25497103082E+04  0.25497103082E+04  0.00000000000E+00 0. -1.
         23    2    1    2    0    0 -0.57576962698E+03  0.11690127444E+03  0.53077261311E+03  0.79685210280E+03  0.89872885694E+02 0.  0.
    5000000    2    1    2    0    0  0.57576962698E+03 -0.11690127444E+03 -0.23436990659E+04  0.24896420608E+04  0.60017972954E+03 0.  0.
         23    2    4    4    0    0  0.14179875720E+03 -0.19887257349E+03 -0.15988108079E+04  0.16197962394E+04  0.88806922593E+02 0.  0.
         23    2    4    4    0    0  0.43397086978E+03  0.81971299050E+02 -0.74488825799E+03  0.86984582139E+03  0.81995282761E+02 0.  0.
          3    1    3    3  502    0 -0.21521864684E+03  0.83524598907E+02  0.18026141687E+03  0.29289862237E+03  0.00000000000E+00 0. -1.
         -3    1    3    3    0  502 -0.36055098014E+03  0.33376675530E+02  0.35051119624E+03  0.50395348043E+03  0.00000000000E+00 0.  1.
         11    1    5    5    0    0  0.96867435887E+02 -0.64381485124E+02 -0.81579430469E+03  0.82404406638E+03  0.00000000000E+00 0.  1.
        -11    1    5    5    0    0  0.44931321313E+02 -0.13449108836E+03 -0.78301650323E+03  0.79575217299E+03  0.00000000000E+00 0. -1.
          5    1    6    6  503    0  0.11991988969E+03  0.47669271471E+02 -0.27231121990E+03  0.30137788550E+03  0.47000000000E+01 0. -1.
         -5    1    6    6    0  503  0.31405098010E+03  0.34302027579E+02 -0.47257703810E+03  0.56846793589E+03  0.47000000000E+01 0.  1.
<mgrwt>
<rscale>  0 0.64807300E+03</rscale>
<asrwt>0</asrwt>
<pdfrwt beam="1">  1        2 0.39226312E+00 0.64807300E+03</pdfrwt>
<pdfrwt beam="2">  1       -2 0.11335136E+00 0.64807300E+03</pdfrwt>
<totfact> 0.21394892E+00</totfact>
</mgrwt>
</event>
<event>
12    1  0.3166324E-008  0.9605051E+03  0.7818608E-02  0.9352955E-01
         -1   -1    0    0    0  501 -0.00000000000E+00  0.00000000000E+00  0.38628277359E+03  0.38628277359E+03  0.00000000000E+00 0.  1.
          1   -1    0    0  501    0  0.00000000000E+00 -0.00000000000E+00 -0.25277075799E+04  0.25277075799E+04  0.00000000000E+00 0. -1.
         23    2    1    2    0    0  0.15262483888E+03 -0.88018752303E+03 -0.90693174540E+03  0.12762974554E+04  0.91572848572E+02 0.  0.
    5000000    2    1    2    0    0 -0.15262483888E+03  0.88018752303E+03 -0.12344930609E+04  0.16376928981E+04  0.60003374406E+03 0.  0.
         23    2    4    4    0    0 -0.33683387305E+03  0.55887073329E+03 -0.56889229702E+03  0.87054359396E+03  0.91728669514E+02 0.  0.
         23    2    4    4    0    0  0.18420903418E+03  0.32131678974E+03 -0.66560076389E+03  0.76714930417E+03  0.91193367943E+02 0.  0.
          1    1    3    3  502    0  0.15831249602E+03 -0.79801059689E+03 -0.84696917770E+03  0.11744107234E+04  0.00000000000E+00 0. -1.
         -1    1    3    3    0  502 -0.56876571477E+01 -0.82176926136E+02 -0.59962567692E+02  0.10188673200E+03  0.00000000000E+00 0.  1.
         13    1    5    5    0    0 -0.27042584721E+03  0.43565355051E+03 -0.49300987657E+03  0.71132474532E+03  0.00000000000E+00 0. -1.
        -13    1    5    5    0    0 -0.66408025843E+02  0.12321718277E+03 -0.75882420451E+02  0.15921884863E+03  0.00000000000E+00 0.  1.
          5    1    6    6  503    0  0.12370171897E+03  0.17912847191E+03 -0.30445714635E+03  0.37430651703E+03  0.47000000000E+01 0. -1.
         -5    1    6    6    0  503  0.60507315202E+02  0.14218831783E+03 -0.36114361753E+03  0.39284278714E+03  0.47000000000E+01 0.  1.
<mgrwt>
<rscale>  0 0.96050512E+03</rscale>
<asrwt>0</asrwt>
<pdfrwt beam="1">  1        1 0.38887810E+00 0.96050512E+03</pdfrwt>
<pdfrwt beam="2">  1       -1 0.59428118E-01 0.96050512E+03</pdfrwt>
<totfact> 0.38128067E+00</totfact>
</mgrwt>
</event>
<event>
12    1  0.3166324E-008  0.1020424E+04  0.7818608E-02  0.9286424E-01
          1   -1    0    0  501    0  0.00000000000E+00  0.00000000000E+00  0.24388516921E+04  0.24388516921E+04  0.00000000000E+00 0. -1.
         -1   -1    0    0    0  501 -0.00000000000E+00 -0.00000000000E+00 -0.50165330464E+03  0.50165330464E+03  0.00000000000E+00 0.  1.
         23    2    1    2    0    0 -0.91687544492E+03 -0.30488218075E+03  0.46297933146E+03  0.10785359866E+04  0.12359727913E+03 0.  0.
    5000000    2    1    2    0    0  0.91687544492E+03  0.30488218075E+03  0.14742190560E+04  0.18619690102E+04  0.59999420335E+03 0.  0.
         23    2    4    4    0    0  0.76218064748E+02 -0.81777338665E+02  0.47608461761E+03  0.49784196543E+03  0.93238044326E+02 0.  0.
         23    2    4    4    0    0  0.84065738017E+03  0.38665951941E+03  0.99813443844E+03  0.13641270448E+04  0.91432063554E+02 0.  0.
          1    1    3    3  502    0 -0.39804990466E+03 -0.79140496432E+02  0.15578720067E+03  0.43471438516E+03  0.00000000000E+00 0. -1.
         -1    1    3    3    0  502 -0.51882554026E+03 -0.22574168431E+03  0.30719213079E+03  0.64382160144E+03  0.00000000000E+00 0.  1.
         13    1    5    5    0    0  0.61007868433E+02 -0.99069135259E+02  0.32902616673E+03  0.34899122047E+03  0.00000000000E+00 0. -1.
        -13    1    5    5    0    0  0.15210196315E+02  0.17291796594E+02  0.14705845088E+03  0.14885074496E+03  0.00000000000E+00 0.  1.
          5    1    6    6  503    0  0.56198476350E+03  0.21065025268E+03  0.64311559891E+03  0.87967048769E+03  0.47000000000E+01 0. -1.
         -5    1    6    6    0  503  0.27867261667E+03  0.17600926673E+03  0.35501883953E+03  0.48445655706E+03  0.47000000000E+01 0.  1.
<mgrwt>
<rscale>  0 0.10204237E+04</rscale>
<asrwt>0</asrwt>
<pdfrwt beam="1">  1        1 0.37520795E+00 0.10204237E+04</pdfrwt>
<pdfrwt beam="2">  1       -1 0.77177433E-01 0.10204237E+04</pdfrwt>
<totfact> 0.25516986E+00</totfact>
</mgrwt>
</event>
<event>
12    1  0.3166324E-008  0.5960704E+03  0.7818608E-02  0.9913592E-01
         -1   -1    0    0    0  501 -0.00000000000E+00  0.00000000000E+00  0.37728806774E+03  0.37728806774E+03  0.00000000000E+00 0.  1.
          1   -1    0    0  501    0  0.00000000000E+00 -0.00000000000E+00 -0.12556024590E+04  0.12556024590E+04  0.00000000000E+00 0. -1.
         23    2    1    2    0    0 -0.90414758864E+02 -0.53844357707E+03 -0.25323236073E+03  0.60879885731E+03  0.91722984229E+02 0.  0.
    5000000    2    1    2    0    0  0.90414758864E+02  0.53844357707E+03 -0.62508203053E+03  0.10240916694E+04  0.59994990474E+03 0.  0.
         23    2    4    4    0    0  0.21157959293E+03  0.34656715080E+03 -0.65559150704E+03  0.77660929737E+03  0.91907902279E+02 0.  0.
         23    2    4    4    0    0 -0.12116483407E+03  0.19187642627E+03  0.30509476509E+02  0.24748237206E+03  0.93910682835E+02 0.  0.
          4    1    3    3  502    0 -0.39655678323E+02 -0.16047439747E+03 -0.12215372132E+03  0.20553865013E+03  0.00000000000E+00 0. -1.
         -4    1    3    3    0  502 -0.50759080542E+02 -0.37796917960E+03 -0.13107863941E+03  0.40326020718E+03  0.00000000000E+00 0.  1.
         11    1    5    5    0    0  0.41652480788E+02  0.27133376244E+02 -0.12374658923E+03  0.13335804291E+03  0.00000000000E+00 0. -1.
        -11    1    5    5    0    0  0.16992711215E+03  0.31943377455E+03 -0.53184491781E+03  0.64325125447E+03  0.00000000000E+00 0.  1.
          5    1    6    6  503    0 -0.11597323892E+03  0.14116806757E+03 -0.87566810747E+01  0.18296716894E+03  0.47000000000E+01 0. -1.
         -5    1    6    6    0  503 -0.51915951528E+01  0.50708358703E+02  0.39266157584E+02  0.64515203123E+02  0.47000000000E+01 0.  1.
<mgrwt>
<rscale>  0 0.59607044E+03</rscale>
<asrwt>0</asrwt>
<pdfrwt beam="1">  1        1 0.19316961E+00 0.59607044E+03</pdfrwt>
<pdfrwt beam="2">  1       -1 0.58044317E-01 0.59607044E+03</pdfrwt>
<totfact> 0.30748304E+01</totfact>
</mgrwt>
</event>
<event>
12    1  0.3166324E-008  0.1702510E+04  0.7818608E-02  0.8759934E-01
          2   -1    0    0  501    0  0.00000000000E+00  0.00000000000E+00  0.40714236932E+04  0.40714236932E+04  0.00000000000E+00 0. -1.
         -2   -1    0    0    0  501 -0.00000000000E+00 -0.00000000000E+00 -0.14542018080E+04  0.14542018080E+04  0.00000000000E+00 0.  1.
         23    2    1    2    0    0 -0.14345985430E+04  0.87574217388E+03  0.32270889322E+04  0.36397020959E+04  0.91274509154E+02 0.  0.
    5000000    2    1    2    0    0  0.14345985430E+04 -0.87574217388E+03 -0.60986704698E+03  0.18859234053E+04  0.59980992056E+03 0.  0.
         23    2    4    4    0    0  0.13263784002E+04 -0.87944803386E+03 -0.41438126150E+03  0.16471512955E+04  0.93204374569E+02 0.  0.
         23    2    4    4    0    0  0.10822014283E+03  0.37058599761E+01 -0.19548578548E+03  0.23877210983E+03  0.84095751343E+02 0.  0.
          4    1    3    3  502    0 -0.78952904953E+03  0.43686952238E+03  0.17831050065E+04  0.19984180153E+04  0.00000000000E+00 0. -1.
         -4    1    3    3    0  502 -0.64506949351E+03  0.43887265150E+03  0.14439839257E+04  0.16412840806E+04  0.00000000000E+00 0.  1.
         11    1    5    5    0    0  0.68518407606E+03 -0.46108624098E+03 -0.16724972285E+03  0.84264477065E+03  0.00000000000E+00 0. -1.
        -11    1    5    5    0    0  0.64119432415E+03 -0.41836179288E+03 -0.24713153865E+03  0.80450652481E+03  0.00000000000E+00 0.  1.
          5    1    6    6  503    0 -0.84178685837E+01  0.10249122634E+02 -0.51013168271E+02  0.52918223357E+02  0.47000000000E+01 0. -1.
         -5    1    6    6    0  503  0.11663801141E+03 -0.65432626581E+01 -0.14447261721E+03  0.18585388647E+03  0.47000000000E+01 0.  1.
<mgrwt>
<rscale>  0 0.17025099E+04</rscale>
<asrwt>0</asrwt>
<pdfrwt beam="1">  1        2 0.62637287E+00 0.17025099E+04</pdfrwt>
<pdfrwt beam="2">  1       -2 0.22372336E+00 0.17025099E+04</pdfrwt>
<totfact> 0.25970516E-02</totfact>
</mgrwt>
</event>
<event>
12    1  0.3166324E-008  0.4913700E+03  0.7818608E-02  0.1016056E+00
         -2   -1    0    0    0  501 -0.00000000000E+00  0.00000000000E+00  0.42582908447E+03  0.42582908447E+03  0.00000000000E+00 0.  1.
          2   -1    0    0  501    0  0.00000000000E+00 -0.00000000000E+00 -0.91574484432E+03  0.91574484432E+03  0.00000000000E+00 0. -1.
         23    2    1    2    0    0  0.39284766132E+03 -0.25334460852E+03 -0.98196912919E+02  0.48607225286E+03  0.90060122258E+02 0.  0.
    5000000    2    1    2    0    0 -0.39284766132E+03  0.25334460852E+03 -0.39171884693E+03  0.85550167594E+03  0.59993890257E+03 0.  0.
         23    2    4    4    0    0 -0.29620018272E+03  0.88606560371E+02 -0.51651708770E+03  0.60854296885E+03  0.89157009060E+02 0.  0.
         23    2    4    4    0    0 -0.96647478605E+02  0.16473804815E+03  0.12479824078E+03  0.24695870709E+03  0.94523237759E+02 0.  0.
          1    1    3    3  502    0  0.12490795183E+03 -0.13180112966E+03 -0.29907209156E+02  0.18403253889E+03  0.00000000000E+00 0. -1.
         -1    1    3    3    0  502  0.26793970949E+03 -0.12154347886E+03 -0.68289703763E+02  0.30203971397E+03  0.00000000000E+00 0.  1.
         13    1    5    5    0    0 -0.13610957878E+03  0.38421950303E+02 -0.15401744519E+03  0.20910149957E+03  0.00000000000E+00 0. -1.
        -13    1    5    5    0    0 -0.16009060394E+03  0.50184610068E+02 -0.36249964251E+03  0.39944146928E+03  0.00000000000E+00 0.  1.
          5    1    6    6  503    0 -0.64557603566E+02  0.60620631521E+02  0.10269987272E+03  0.13569045287E+03  0.47000000000E+01 0. -1.
         -5    1    6    6    0  503 -0.32089875039E+02  0.10411741663E+03  0.22098368059E+02  0.11126825422E+03  0.47000000000E+01 0.  1.
<mgrwt>
<rscale>  0 0.49136999E+03</rscale>
<asrwt>0</asrwt>
<pdfrwt beam="1">  1        2 0.14088382E+00 0.49136999E+03</pdfrwt>
<pdfrwt beam="2">  1       -2 0.65512168E-01 0.49136999E+03</pdfrwt>
<totfact> 0.63880171E+01</totfact>
</mgrwt>
</event>
<event>
12    1  0.3166324E-008  0.7782799E+03  0.7818608E-02  0.9591999E-01
          1   -1    0    0  501    0  0.00000000000E+00  0.00000000000E+00  0.70712791910E+03  0.70712791910E+03  0.00000000000E+00 0. -1.
         -1   -1    0    0    0  501 -0.00000000000E+00 -0.00000000000E+00 -0.10487816928E+04  0.10487816928E+04  0.00000000000E+00 0.  1.
         23    2    1    2    0    0  0.81082007652E+02 -0.74173598256E+03 -0.41729022505E+02  0.75287212533E+03  0.91260977330E+02 0.  0.
    5000000    2    1    2    0    0 -0.81082007652E+02  0.74173598256E+03 -0.29992475115E+03  0.10030374865E+04  0.59948543205E+03 0.  0.
         23    2    4    4    0    0  0.41901541258E+02  0.62042099822E+03  0.18425036195E+02  0.62912634890E+03  0.93715136064E+02 0.  0.
         23    2    4    4    0    0 -0.12298354891E+03  0.12131498435E+03 -0.31834978734E+03  0.37391113763E+03  0.92847579478E+02 0.  0.
          4    1    3    3  502    0  0.10782673824E+02 -0.45920452210E+03 -0.44800566842E+01  0.45935294718E+03  0.00000000000E+00 0. -1.
         -4    1    3    3    0  502  0.70299333828E+02 -0.28253146046E+03 -0.37248965821E+02  0.29351917815E+03  0.00000000000E+00 0.  1.
         13    1    5    5    0    0  0.59963002909E+02  0.21992016627E+03  0.69594208674E+01  0.22805454345E+03  0.00000000000E+00 0.  1.
        -13    1    5    5    0    0 -0.18061461652E+02  0.40050083195E+03  0.11465615327E+02  0.40107180544E+03  0.00000000000E+00 0. -1.
          5    1    6    6  503    0 -0.51863142455E+01  0.21972250083E+02 -0.12256035436E+03  0.12471089804E+03  0.47000000000E+01 0. -1.
         -5    1    6    6    0  503 -0.11779723466E+03  0.99342734262E+02 -0.19578943299E+03  0.24920023960E+03  0.47000000000E+01 0.  1.
<mgrwt>
<rscale>  0 0.77827989E+03</rscale>
<asrwt>0</asrwt>
<pdfrwt beam="1">  1        1 0.10878891E+00 0.77827989E+03</pdfrwt>
<pdfrwt beam="2">  1       -1 0.16135103E+00 0.77827989E+03</pdfrwt>
<totfact> 0.78750554E+00</totfact>
</mgrwt>
</event>
<event>
12    1  0.3166324E-008  0.1075868E+04  0.7818608E-02  0.9229037E-01
          2   -1    0    0  501    0  0.00000000000E+00  0.00000000000E+00  0.28422116227E+04  0.28422116227E+04  0.00000000000E+00 0. -1.
         -2   -1    0    0    0  501 -0.00000000000E+00 -0.00000000000E+00 -0.44732781465E+03  0.44732781465E+03  0.00000000000E+00 0.  1.
         23    2    1    2    0    0  0.36165554898E+03 -0.95445242259E+03  0.78322134358E+03  0.12896933137E+04  0.89994484980E+02 0.  0.
    5000000    2    1    2    0    0 -0.36165554898E+03  0.95445242259E+03  0.16116624644E+04  0.19998461236E+04  0.60012869927E+03 0.  0.
         23    2    4    4    0    0 -0.48004621561E+03  0.71466065696E+03  0.97904464752E+03  0.13069344614E+04  0.91460597693E+02 0.  0.
         23    2    4    4    0    0  0.11839066664E+03  0.23979176563E+03  0.63261781692E+03  0.69291166216E+03  0.91677851514E+02 0.  0.
          1    1    3    3  502    0  0.21971400280E+03 -0.54027482989E+03  0.39378240366E+03  0.70372986029E+03  0.00000000000E+00 0. -1.
         -1    1    3    3    0  502  0.14194154618E+03 -0.41417759270E+03  0.38943893992E+03  0.58596345343E+03  0.00000000000E+00 0.  1.
         11    1    5    5    0    0 -0.42555769066E+03  0.60577311277E+03  0.87996411130E+03  0.11499553250E+04  0.00000000000E+00 0.  1.
        -11    1    5    5    0    0 -0.54488524953E+02  0.10888754419E+03  0.99080536221E+02  0.15697913648E+03  0.00000000000E+00 0. -1.
          5    1    6    6  503    0  0.11035338554E+03  0.20848102255E+03  0.45728444724E+03  0.51456132983E+03  0.47000000000E+01 0. -1.
         -5    1    6    6    0  503  0.80372810974E+01  0.31310743077E+02  0.17533336968E+03  0.17835033233E+03  0.47000000000E+01 0.  1.
<mgrwt>
<rscale>  0 0.10758681E+04</rscale>
<asrwt>0</asrwt>
<pdfrwt beam="1">  1        2 0.43726332E+00 0.10758681E+04</pdfrwt>
<pdfrwt beam="2">  1       -2 0.68819665E-01 0.10758681E+04</pdfrwt>
<totfact> 0.42385523E+00</totfact>
</mgrwt>
</event>
<event>
12    1  0.3166324E-008  0.6791405E+03  0.7818608E-02  0.9753585E-01
          1   -1    0    0  501    0  0.00000000000E+00  0.00000000000E+00  0.38593440156E+03  0.38593440156E+03  0.00000000000E+00 0. -1.
         -1   -1    0    0    0  501 -0.00000000000E+00 -0.00000000000E+00 -0.16461296970E+04  0.16461296970E+04  0.00000000000E+00 0.  1.
         23    2    1    2    0    0 -0.12579664243E+02  0.64623872261E+03 -0.81496256877E+03  0.10441531560E+04  0.91154210285E+02 0.  0.
    5000000    2    1    2    0    0  0.12579664243E+02 -0.64623872261E+03 -0.44523272668E+03  0.98791094261E+03  0.59996092796E+03 0.  0.
         23    2    4    4    0    0  0.12436402032E+03 -0.35595126868E+03  0.52228003418E+02  0.39415908700E+03  0.10230301218E+03 0.  0.
         23    2    4    4    0    0 -0.11178435608E+03 -0.29028745393E+03 -0.49746073010E+03  0.59375185561E+03  0.91167647123E+02 0.  0.
          2    1    3    3  502    0  0.42951777152E+01  0.15493138989E+03 -0.13798973638E+03  0.20751711128E+03  0.00000000000E+00 0. -1.
         -2    1    3    3    0  502 -0.16874841958E+02  0.49130733271E+03 -0.67697283238E+03  0.83663604468E+03  0.00000000000E+00 0.  1.
         13    1    5    5    0    0  0.12197992597E+03 -0.21246377685E+03  0.52966117304E+02  0.25064989207E+03  0.00000000000E+00 0. -1.
        -13    1    5    5    0    0  0.23840943480E+01 -0.14348749183E+03 -0.73811388637E+00  0.14350919493E+03  0.00000000000E+00 0.  1.
          5    1    6    6  503    0 -0.34735726247E+02 -0.16512378499E+02 -0.75606793141E+02  0.84957086171E+02  0.47000000000E+01 0. -1.
         -5    1    6    6    0  503 -0.77048629829E+02 -0.27377507543E+03 -0.42185393696E+03  0.50879476944E+03  0.47000000000E+01 0.  1.
<mgrwt>
<rscale>  0 0.67914054E+03</rscale>
<asrwt>0</asrwt>
<pdfrwt beam="1">  1        1 0.59374525E-01 0.67914054E+03</pdfrwt>
<pdfrwt beam="2">  1       -1 0.25325072E+00 0.67914054E+03</pdfrwt>
<totfact> 0.43961220E+00</totfact>
</mgrwt>
</event>
<event>
12    1  0.3166324E-008  0.5672570E+03  0.7818608E-02  0.9975767E-01
         -2   -1    0    0    0  501 -0.00000000000E+00  0.00000000000E+00  0.30937039570E+03  0.30937039570E+03  0.00000000000E+00 0.  1.
          2   -1    0    0  501    0  0.00000000000E+00 -0.00000000000E+00 -0.13631268793E+04  0.13631268793E+04  0.00000000000E+00 0. -1.
         23    2    1    2    0    0  0.48018749660E+03 -0.43056541219E+02 -0.21582371972E+03  0.53471344160E+03  0.83094458354E+02 0.  0.
    5000000    2    1    2    0    0 -0.48018749660E+03  0.43056541219E+02 -0.83793276389E+03  0.11377838334E+04  0.59998903084E+03 0.  0.
         23    2    4    4    0    0 -0.42711764179E+03  0.19416786796E+03 -0.82624035369E+03  0.95422411245E+03  0.87976666495E+02 0.  0.
         23    2    4    4    0    0 -0.53069854807E+02 -0.15111132674E+03 -0.11692410197E+02  0.18355972095E+03  0.88918030462E+02 0.  0.
          2    1    3    3  502    0  0.27862858217E+03  0.57277346505E+01 -0.15353670385E+03  0.31818267265E+03  0.00000000000E+00 0.  1.
         -2    1    3    3    0  502  0.20155891443E+03 -0.48784275869E+02 -0.62287015864E+02  0.21653076895E+03  0.00000000000E+00 0. -1.
         13    1    5    5    0    0 -0.36445199725E+03  0.14470323361E+03 -0.62623891846E+03  0.73887716646E+03  0.00000000000E+00 0. -1.
        -13    1    5    5    0    0 -0.62665644542E+02  0.49464634343E+02 -0.20000143523E+03  0.21534694600E+03  0.00000000000E+00 0.  1.
          5    1    6    6  503    0 -0.67082003191E+02 -0.83173284949E+02  0.17083425581E+02  0.10831308282E+03  0.47000000000E+01 0. -1.
         -5    1    6    6    0  503  0.14012148384E+02 -0.67938041789E+02 -0.28775835778E+02  0.75246638125E+02  0.47000000000E+01 0.  1.
<mgrwt>
<rscale>  0 0.56725703E+03</rscale>
<asrwt>0</asrwt>
<pdfrwt beam="1">  1        2 0.20971182E+00 0.56725703E+03</pdfrwt>
<pdfrwt beam="2">  1       -2 0.47595447E-01 0.56725703E+03</pdfrwt>
<totfact> 0.66058091E+01</totfact>
</mgrwt>
</event>
<event>
12    1  0.3166324E-008  0.7385736E+03  0.7818608E-02  0.9653449E-01
          2   -1    0    0  501    0  0.00000000000E+00  0.00000000000E+00  0.10966242506E+04  0.10966242506E+04  0.00000000000E+00 0. -1.
         -2   -1    0    0    0  501 -0.00000000000E+00 -0.00000000000E+00 -0.54465324385E+03  0.54465324385E+03  0.00000000000E+00 0.  1.
         23    2    1    2    0    0 -0.51069734761E+03  0.40479710689E+03  0.27470336369E+03  0.71308557411E+03  0.91414546869E+02 0.  0.
    5000000    2    1    2    0    0  0.51069734761E+03 -0.40479710689E+03  0.27726764307E+03  0.92819192035E+03  0.59999201371E+03 0.  0.
         23    2    4    4    0    0  0.30641883730E+03  0.57073314411E+02 -0.36258872647E+02  0.32658220171E+03  0.90506140990E+02 0.  0.
         23    2    4    4    0    0  0.20427851031E+03 -0.46187042130E+03  0.31352651572E+03  0.60160971865E+03  0.92635747228E+02 0.  0.
          4    1    3    3  502    0 -0.15838752945E+03  0.14759834067E+03  0.49110050633E+02  0.22199927191E+03  0.00000000000E+00 0. -1.
         -4    1    3    3    0  502 -0.35230981815E+03  0.25719876622E+03  0.22559331305E+03  0.49108630220E+03  0.00000000000E+00 0.  1.
         13    1    5    5    0    0  0.12014784215E+03  0.32925620457E+02  0.28692987347E+02  0.12783930529E+03  0.00000000000E+00 0. -1.
        -13    1    5    5    0    0  0.18627099515E+03  0.24147693954E+02 -0.64951859995E+02  0.19874289641E+03  0.00000000000E+00 0.  1.
          5    1    6    6  503    0  0.77873238572E+02 -0.27885511372E+03  0.15504805063E+03  0.32846065783E+03  0.47000000000E+01 0. -1.
         -5    1    6    6    0  503  0.12640527174E+03 -0.18301530758E+03  0.15847846508E+03  0.27314906082E+03  0.47000000000E+01 0.  1.
<mgrwt>
<rscale>  0 0.73857362E+03</rscale>
<asrwt>0</asrwt>
<pdfrwt beam="1">  1        2 0.16871142E+00 0.73857362E+03</pdfrwt>
<pdfrwt beam="2">  1       -2 0.83792807E-01 0.73857362E+03</pdfrwt>
<totfact> 0.27755688E+01</totfact>
</mgrwt>
</event>
<event>
12    1  0.3166324E-008  0.9539666E+03  0.7818608E-02  0.9360526E-01
         -1   -1    0    0    0  501 -0.00000000000E+00  0.00000000000E+00  0.76572861937E+03  0.76572861937E+03  0.00000000000E+00 0.  1.
          1   -1    0    0  501    0  0.00000000000E+00 -0.00000000000E+00 -0.16580276684E+04  0.16580276684E+04  0.00000000000E+00 0. -1.
         23    2    1    2    0    0 -0.42288448849E+03  0.75718315482E+03 -0.10419363074E+04  0.13587337344E+04  0.91479350957E+02 0.  0.
    5000000    2    1    2    0    0  0.42288448849E+03 -0.75718315482E+03  0.14963725835E+03  0.10650225534E+04  0.59977004736E+03 0.  0.
         23    2    4    4    0    0  0.55369315917E+03 -0.64184010119E+03  0.79165264271E+02  0.85603005519E+03  0.89361548269E+02 0.  0.
         23    2    4    4    0    0 -0.13080867068E+03 -0.11534305363E+03  0.70471994075E+02  0.20899249826E+03  0.91085860763E+02 0.  0.
          4    1    3    3  502    0 -0.11000492064E+03  0.25618299200E+03 -0.28620893469E+03  0.39955770828E+03  0.00000000000E+00 0. -1.
         -4    1    3    3    0  502 -0.31287956785E+03  0.50100016283E+03 -0.75572737273E+03  0.95917602609E+03  0.00000000000E+00 0.  1.
         13    1    5    5    0    0  0.23403950346E+03 -0.26751091506E+03 -0.10956978899E+02  0.35560741590E+03  0.00000000000E+00 0. -1.
        -13    1    5    5    0    0  0.31965365571E+03 -0.37432918613E+03  0.90122243170E+02  0.50042263929E+03  0.00000000000E+00 0.  1.
          5    1    6    6  503    0 -0.11783603526E+03 -0.57291380798E+02  0.23831198310E+02  0.13325783104E+03  0.47000000000E+01 0. -1.
         -5    1    6    6    0  503 -0.12972635418E+02 -0.58051672837E+02  0.46640795764E+02  0.75734667217E+02  0.47000000000E+01 0.  1.
<mgrwt>
<rscale>  0 0.95396663E+03</rscale>
<asrwt>0</asrwt>
<pdfrwt beam="1">  1        1 0.25508118E+00 0.95396663E+03</pdfrwt>
<pdfrwt beam="2">  1       -1 0.11780440E+00 0.95396663E+03</pdfrwt>
<totfact> 0.33411214E+00</totfact>
</mgrwt>
</event>
<event>
12    1  0.3730890E-008  0.1436305E+04  0.7818608E-02  0.8927950E-01
          2   -1    0    0  501    0  0.00000000000E+00  0.00000000000E+00  0.19789355148E+04  0.19789355148E+04  0.00000000000E+00 0. -1.
         -2   -1    0    0    0  501 -0.00000000000E+00 -0.00000000000E+00 -0.11384080361E+04  0.11384080361E+04  0.00000000000E+00 0.  1.
         23    2    1    2    0    0  0.14016786160E+03 -0.13688334180E+04 -0.35073109907E+02  0.13795213727E+04  0.92179928470E+02 0.  0.
    5000000    2    1    2    0    0 -0.14016786160E+03  0.13688334180E+04  0.87560058860E+03  0.17378221781E+04  0.59999798039E+03 0.  0.
         23    2    4    4    0    0  0.21942725232E+03  0.42545597761E+03  0.26042487203E+03  0.55240082423E+03  0.90357338917E+02 0.  0.
         23    2    4    4    0    0 -0.35959511393E+03  0.94337744036E+03  0.61517571657E+03  0.11854213539E+04  0.86677465848E+02 0.  0.
          4    1    3    3  502    0  0.77119054114E+02 -0.41181233958E+03  0.13596510664E+02  0.41919162282E+03  0.00000000000E+00 0. -1.
         -4    1    3    3    0  502  0.63048807491E+02 -0.95702107839E+03 -0.48669620570E+02  0.96032974992E+03  0.00000000000E+00 0.  1.
         11    1    5    5    0    0  0.96225213732E+02  0.13198197193E+03  0.12864360294E+03  0.20791274432E+03  0.00000000000E+00 0.  1.
        -11    1    5    5    0    0  0.12320203859E+03  0.29347400567E+03  0.13178126910E+03  0.34448807991E+03  0.00000000000E+00 0. -1.
          5    1    6    6  503    0 -0.16186684264E+03  0.53844293823E+03  0.32531083238E+03  0.64959287260E+03  0.47000000000E+01 0. -1.
         -5    1    6    6    0  503 -0.19772827128E+03  0.40493450214E+03  0.28986488419E+03  0.53582848130E+03  0.47000000000E+01 0.  1.
<mgrwt>
<rscale>  0 0.14363051E+04</rscale>
<asrwt>0</asrwt>
<pdfrwt beam="1">  1        2 0.30445162E+00 0.14363051E+04</pdfrwt>
<pdfrwt beam="2">  1       -2 0.17513970E+00 0.14363051E+04</pdfrwt>
<totfact> 0.12747864E+00</totfact>
</mgrwt>
</event>
<event>
12    1  0.3166324E-008  0.1396046E+04  0.7818608E-02  0.8956686E-01
         -2   -1    0    0    0  501 -0.00000000000E+00  0.00000000000E+00  0.12802444380E+04  0.12802444380E+04  0.00000000000E+00 0.  1.
          2   -1    0    0  501    0  0.00000000000E+00 -0.00000000000E+00 -0.17759442827E+04  0.17759442827E+04  0.00000000000E+00 0. -1.
         23    2    1    2    0    0 -0.13413045719E+04 -0.23758472549E+03  0.25811460846E+03  0.13876331240E+04  0.57948938413E+02 0.  0.
    5000000    2    1    2    0    0  0.13413045719E+04  0.23758472549E+03 -0.75381445317E+03  0.16685555967E+04  0.60024752651E+03 0.  0.
         23    2    4    4    0    0  0.13683479313E+04  0.22169747594E+03 -0.67486682481E+03  0.15444603423E+04  0.91578851198E+02 0.  0.
         23    2    4    4    0    0 -0.27043359403E+02  0.15887249544E+02 -0.78947628357E+02  0.12409525433E+03  0.90460798903E+02 0.  0.
          1    1    3    3  502    0 -0.71147107393E+03 -0.99450167844E+02  0.14858817729E+03  0.73359380542E+03  0.00000000000E+00 0. -1.
         -1    1    3    3    0  502 -0.62983349794E+03 -0.13813455764E+03  0.10952643117E+03  0.65403931860E+03  0.00000000000E+00 0.  1.
         13    1    5    5    0    0  0.13088649442E+04  0.23011537101E+03 -0.65089358888E+03  0.14797780206E+04  0.00000000000E+00 0. -1.
        -13    1    5    5    0    0  0.59482987086E+02 -0.84178950682E+01 -0.23973235932E+02  0.64682321782E+02  0.00000000000E+00 0.  1.
          5    1    6    6  503    0 -0.96330315353E+01  0.18776870393E+02 -0.96423342940E+02  0.98817595710E+02  0.47000000000E+01 0. -1.
         -5    1    6    6    0  503 -0.17410327868E+02 -0.28896208488E+01  0.17475714583E+02  0.25277658620E+02  0.47000000000E+01 0.  1.
<mgrwt>
<rscale>  0 0.13960455E+04</rscale>
<asrwt>0</asrwt>
<pdfrwt beam="1">  1        2 0.27322220E+00 0.13960455E+04</pdfrwt>
<pdfrwt beam="2">  1       -2 0.19696068E+00 0.13960455E+04</pdfrwt>
<totfact> 0.11774255E+00</totfact>
</mgrwt>
</event>
<event>
12    1  0.3166324E-008  0.1824028E+04  0.7818608E-02  0.8693625E-01
         -2   -1    0    0    0  501 -0.00000000000E+00  0.00000000000E+00  0.16689484452E+04  0.16689484452E+04  0.00000000000E+00 0.  1.
          2   -1    0    0  501    0  0.00000000000E+00 -0.00000000000E+00 -0.21642320525E+04  0.21642320525E+04  0.00000000000E+00 0. -1.
         23    2    1    2    0    0  0.18137575867E+04 -0.26766418691E+02 -0.61821136098E+03  0.19186451413E+04  0.92632969009E+02 0.  0.
    5000000    2    1    2    0    0 -0.18137575867E+04  0.26766418691E+02  0.12292775366E+03  0.19145353564E+04  0.59991780583E+03 0.  0.
         23    2    4    4    0    0 -0.41680218327E+03 -0.91340471734E+02  0.25177036835E+03  0.50373645729E+03  0.91076661483E+02 0.  0.
         23    2    4    4    0    0 -0.13969554034E+04  0.11810689043E+03 -0.12884261469E+03  0.14107988991E+04  0.91211170341E+02 0.  0.
          4    1    3    3  502    0  0.67237306738E+03 -0.36472972185E+02 -0.19146122089E+03  0.70005229700E+03  0.00000000000E+00 0. -1.
         -4    1    3    3    0  502  0.11413845193E+04  0.97065534932E+01 -0.42675014009E+03  0.12185928443E+04  0.00000000000E+00 0.  1.
         11    1    5    5    0    0 -0.24766224282E+03 -0.73438908629E+02  0.10415860569E+03  0.27852984572E+03  0.00000000000E+00 0. -1.
        -11    1    5    5    0    0 -0.16913994045E+03 -0.17901563105E+02  0.14761176266E+03  0.22520661157E+03  0.00000000000E+00 0.  1.
          5    1    6    6  503    0 -0.66317484757E+03  0.10934529908E+02 -0.66206414400E+02  0.66657769367E+03  0.47000000000E+01 0. -1.
         -5    1    6    6    0  503 -0.73378055586E+03  0.10717236052E+03 -0.62636200291E+02  0.74422120542E+03  0.47000000000E+01 0. -1.
<mgrwt>
<rscale>  0 0.18240278E+04</rscale>
<asrwt>0</asrwt>
<pdfrwt beam="1">  1        2 0.33295878E+00 0.18240278E+04</pdfrwt>
<pdfrwt beam="2">  1       -2 0.25676130E+00 0.18240278E+04</pdfrwt>
<totfact> 0.28624948E-01</totfact>
</mgrwt>
</event>
<event>
12    1  0.3166324E-008  0.9874317E+03  0.7818608E-02  0.9322438E-01
          1   -1    0    0  501    0  0.00000000000E+00  0.00000000000E+00  0.15851357985E+04  0.15851357985E+04  0.00000000000E+00 0. -1.
         -1   -1    0    0    0  501 -0.00000000000E+00 -0.00000000000E+00 -0.67107172457E+03  0.67107172457E+03  0.00000000000E+00 0.  1.
         23    2    1    2    0    0  0.27140846784E+03  0.88252513105E+03  0.62318457543E+03  0.11173081283E+04  0.86632991314E+02 0.  0.
    5000000    2    1    2    0    0 -0.27140846784E+03 -0.88252513105E+03  0.29087949845E+03  0.11388993947E+04  0.59997315381E+03 0.  0.
         23    2    4    4    0    0  0.23822565695E+01  0.26877381990E+02  0.14539355127E+03  0.17371554566E+03  0.91157760194E+02 0.  0.
         23    2    4    4    0    0 -0.27379072441E+03 -0.90940251304E+03  0.14548594719E+03  0.96518384905E+03  0.91866262279E+02 0.  0.
          2    1    3    3  502    0  0.78890060368E+02  0.14612172618E+03  0.11967034319E+03  0.20468559188E+03  0.00000000000E+00 0.  1.
         -2    1    3    3    0  502  0.19251840747E+03  0.73640340487E+03  0.50351423225E+03  0.91262253643E+03  0.00000000000E+00 0. -1.
         13    1    5    5    0    0  0.39691381168E+02 -0.11633892705E+02  0.59662766683E+02  0.72597513227E+02  0.00000000000E+00 0. -1.
        -13    1    5    5    0    0 -0.37309124598E+02  0.38511274695E+02  0.85730784583E+02  0.10111803243E+03  0.00000000000E+00 0.  1.
          5    1    6    6  503    0 -0.59352651939E+02 -0.31914944498E+03  0.75162204508E+02  0.33324248305E+03  0.47000000000E+01 0. -1.
         -5    1    6    6    0  503 -0.21443807247E+03 -0.59025306806E+03  0.70323742678E+02  0.63194136600E+03  0.47000000000E+01 0.  1.
<mgrwt>
<rscale>  0 0.98743167E+03</rscale>
<asrwt>0</asrwt>
<pdfrwt beam="1">  1        1 0.24386705E+00 0.98743167E+03</pdfrwt>
<pdfrwt beam="2">  1       -1 0.10324180E+00 0.98743167E+03</pdfrwt>
<totfact> 0.50989560E+00</totfact>
</mgrwt>
</event>
<event>
12    1  0.3166324E-008  0.9312931E+03  0.7818608E-02  0.9387287E-01
          2   -1    0    0  501    0  0.00000000000E+00  0.00000000000E+00  0.75511947432E+03  0.75511947432E+03  0.00000000000E+00 0. -1.
         -2   -1    0    0    0  501 -0.00000000000E+00 -0.00000000000E+00 -0.30915191133E+04  0.30915191133E+04  0.00000000000E+00 0.  1.
         23    2    1    2    0    0 -0.28022131678E+00 -0.91566571696E+03  0.31970416634E+03  0.97376806759E+03  0.87004090377E+02 0.  0.
    5000000    2    1    2    0    0  0.28022131678E+00  0.91566571696E+03 -0.26561038053E+04  0.28728705200E+04  0.60004484535E+03 0.  0.
         23    2    4    4    0    0  0.63824223628E+02  0.28575424908E+03 -0.16670247205E+04  0.16949848707E+04  0.90957522241E+02 0.  0.
         23    2    4    4    0    0 -0.63544002312E+02  0.62991146788E+03 -0.98907908482E+03  0.11778856493E+04  0.91163968674E+02 0.  0.
          1    1    3    3  502    0  0.38187416541E+02 -0.51502618084E+03  0.15865526669E+03  0.54026080682E+03  0.00000000000E+00 0. -1.
         -1    1    3    3    0  502 -0.38467637858E+02 -0.40063953612E+03  0.16104889966E+03  0.43350726078E+03  0.00000000000E+00 0.  1.
         11    1    5    5    0    0 -0.64139279832E+01  0.16714567540E+03 -0.83022404175E+03  0.84690659153E+03  0.00000000000E+00 0. -1.
        -11    1    5    5    0    0  0.70238151612E+02  0.11860857368E+03 -0.83680067873E+03  0.84807827918E+03  0.00000000000E+00 0.  1.
          5    1    6    6  503    0 -0.36496632102E+02  0.58326611672E+03 -0.88464571151E+03  0.10602601058E+04  0.47000000000E+01 0. -1.
         -5    1    6    6    0  503 -0.27047370210E+02  0.46645351165E+02 -0.10443337331E+03  0.11762554349E+03  0.47000000000E+01 0.  1.
<mgrwt>
<rscale>  0 0.93129314E+03</rscale>
<asrwt>0</asrwt>
<pdfrwt beam="1">  1        2 0.11617223E+00 0.93129314E+03</pdfrwt>
<pdfrwt beam="2">  1       -2 0.47561833E+00 0.93129314E+03</pdfrwt>
<totfact> 0.90049974E-02</totfact>
</mgrwt>
</event>
<event>
12    1  0.3166324E-008  0.5384074E+03  0.7818608E-02  0.1004213E+00
          1   -1    0    0  501    0  0.00000000000E+00  0.00000000000E+00  0.95219268192E+03  0.95219268192E+03  0.00000000000E+00 0. -1.
         -1   -1    0    0    0  501 -0.00000000000E+00 -0.00000000000E+00 -0.37491410558E+03  0.37491410558E+03  0.00000000000E+00 0.  1.
         23    2    1    2    0    0  0.31380615898E+03  0.30405915455E+03  0.15102920740E+03  0.47135159693E+03  0.91848960640E+02 0.  0.
    5000000    2    1    2    0    0 -0.31380615898E+03 -0.30405915455E+03  0.42624936894E+03  0.85575519057E+03  0.59975173763E+03 0.  0.
         23    2    4    4    0    0 -0.20861534234E+03 -0.41903574154E+03  0.10868269247E+03  0.48925900041E+03  0.91930017337E+02 0.  0.
         23    2    4    4    0    0 -0.10519081664E+03  0.11497658700E+03  0.31756667647E+03  0.36649619016E+03  0.95844352658E+02 0.  0.
          4    1    3    3  502    0  0.28413390486E+03  0.22620205004E+03  0.12246442287E+03  0.38327141584E+03  0.00000000000E+00 0. -1.
         -4    1    3    3    0  502  0.29672254122E+02  0.77857104505E+02  0.28564784527E+02  0.88080181095E+02  0.00000000000E+00 0.  1.
         11    1    5    5    0    0 -0.14415658460E+03 -0.29111299361E+03  0.31054031166E+02  0.32633150136E+03  0.00000000000E+00 0. -1.
        -11    1    5    5    0    0 -0.64458757740E+02 -0.12792274794E+03  0.77628661307E+02  0.16292749904E+03  0.00000000000E+00 0.  1.
          5    1    6    6  503    0 -0.54382820700E+02  0.27918994383E+02  0.45590649650E+02  0.76403918552E+02  0.47000000000E+01 0. -1.
         -5    1    6    6    0  503 -0.50807995939E+02  0.87057592615E+02  0.27197602682E+03  0.29009227161E+03  0.47000000000E+01 0.  1.
<mgrwt>
<rscale>  0 0.53840741E+03</rscale>
<asrwt>0</asrwt>
<pdfrwt beam="1">  1        1 0.14649118E+00 0.53840741E+03</pdfrwt>
<pdfrwt beam="2">  1       -1 0.57679094E-01 0.53840741E+03</pdfrwt>
<totfact> 0.52692391E+01</totfact>
</mgrwt>
</event>
<event>
12    1  0.3166324E-008  0.7024600E+03  0.7818608E-02  0.9713034E-01
         -2   -1    0    0    0  501 -0.00000000000E+00  0.00000000000E+00  0.10061675175E+04  0.10061675175E+04  0.00000000000E+00 0.  1.
          2   -1    0    0  501    0  0.00000000000E+00 -0.00000000000E+00 -0.12870276297E+04  0.12870276297E+04  0.00000000000E+00 0. -1.
         23    2    1    2    0    0  0.21415164998E+03 -0.64759739115E+03 -0.94425567333E+03  0.11683628509E+04  0.90607198795E+02 0.  0.
    5000000    2    1    2    0    0 -0.21415164998E+03  0.64759739115E+03  0.66339556116E+03  0.11248322964E+04  0.59992559058E+03 0.  0.
         23    2    4    4    0    0 -0.13744437509E+03  0.15333834472E+03 -0.67222677071E+02  0.23471266020E+03  0.90374445176E+02 0.  0.
         23    2    4    4    0    0 -0.76707274888E+02  0.49425904643E+03  0.73061823823E+03  0.89011963619E+03  0.91290446935E+02 0.  0.
          1    1    3    3  502    0  0.45475573801E+00 -0.10378346632E+03 -0.14201610549E+03  0.17589709748E+03  0.00000000000E+00 0. -1.
         -1    1    3    3    0  502  0.21369689424E+03 -0.54381392483E+03 -0.80223956784E+03  0.99246575339E+03  0.00000000000E+00 0.  1.
         11    1    5    5    0    0 -0.10911223150E+03  0.93870294867E+02 -0.84112675726E+02  0.16670948845E+03  0.00000000000E+00 0.  1.
        -11    1    5    5    0    0 -0.28332143591E+02  0.59468049854E+02  0.16889998655E+02  0.68003171753E+02  0.00000000000E+00 0. -1.
          5    1    6    6  503    0 -0.22165180947E+02  0.21893726297E+02  0.31061848073E+02  0.44244309276E+02  0.47000000000E+01 0. -1.
         -5    1    6    6    0  503 -0.54542093941E+02  0.47236532014E+03  0.69955639015E+03  0.84587532691E+03  0.47000000000E+01 0.  1.
<mgrwt>
<rscale>  0 0.70246001E+03</rscale>
<asrwt>0</asrwt>
<pdfrwt beam="1">  1        2 0.19800425E+00 0.70246001E+03</pdfrwt>
<pdfrwt beam="2">  1       -2 0.15479500E+00 0.70246001E+03</pdfrwt>
<totfact> 0.47757340E+00</totfact>
</mgrwt>
</event>
<event>
12    1  0.3166324E-008  0.6458423E+03  0.7818608E-02  0.9814612E-01
         -1   -1    0    0    0  501 -0.00000000000E+00  0.00000000000E+00  0.38873836002E+03  0.38873836002E+03  0.00000000000E+00 0.  1.
          1   -1    0    0  501    0  0.00000000000E+00 -0.00000000000E+00 -0.15563852563E+04  0.15563852563E+04  0.00000000000E+00 0. -1.
         23    2    1    2    0    0  0.25309570288E+03  0.55565609156E+03 -0.19351486615E+03  0.64824207324E+03  0.99793061854E+02 0.  0.
    5000000    2    1    2    0    0 -0.25309570288E+03 -0.55565609156E+03 -0.97413203013E+03  0.12968815431E+04  0.60013115043E+03 0.  0.
         23    2    4    4    0    0 -0.28160358795E+03 -0.46122071067E+03 -0.33261635238E+03  0.64087162866E+03  0.89764591303E+02 0.  0.
         23    2    4    4    0    0  0.28507885072E+02 -0.94435380893E+02 -0.64151567775E+03  0.65600991441E+03  0.95267530295E+02 0.  0.
          3    1    3    3  502    0  0.28418248377E+02  0.56222397113E+02 -0.54328466784E+02  0.83187361305E+02  0.00000000000E+00 0. -1.
         -3    1    3    3    0  502  0.22467745450E+03  0.49943369445E+03 -0.13918639936E+03  0.56505471194E+03  0.00000000000E+00 0.  1.
         13    1    5    5    0    0 -0.10048694405E+03 -0.11151108388E+03 -0.58817816204E+02  0.16121998404E+03  0.00000000000E+00 0.  1.
        -13    1    5    5    0    0 -0.18111664389E+03 -0.34970962680E+03 -0.27379853617E+03  0.47965164461E+03  0.00000000000E+00 0. -1.
          5    1    6    6  503    0  0.37857745256E+02 -0.11107987188E+03 -0.54474618341E+03  0.55726334991E+03  0.47000000000E+01 0. -1.
         -5    1    6    6    0  503 -0.93498601845E+01  0.16644490987E+02 -0.96769494335E+02  0.98746564495E+02  0.47000000000E+01 0.  1.
<mgrwt>
<rscale>  0 0.64584230E+03</rscale>
<asrwt>0</asrwt>
<pdfrwt beam="1">  1        1 0.23944389E+00 0.64584230E+03</pdfrwt>
<pdfrwt beam="2">  1       -1 0.59805901E-01 0.64584230E+03</pdfrwt>
<totfact> 0.17833571E+01</totfact>
</mgrwt>
</event>
<event>
12    1  0.3166324E-008  0.7670735E+03  0.7818608E-02  0.9608939E-01
         -1   -1    0    0    0  501 -0.00000000000E+00  0.00000000000E+00  0.12697870004E+04  0.12697870004E+04  0.00000000000E+00 0.  1.
          1   -1    0    0  501    0  0.00000000000E+00 -0.00000000000E+00 -0.60858517475E+03  0.60858517475E+03  0.00000000000E+00 0. -1.
         23    2    1    2    0    0  0.69849715056E+03  0.27329864457E+03  0.49582753925E+03  0.90371762667E+03  0.90940538893E+02 0.  0.
    5000000    2    1    2    0    0 -0.69849715056E+03 -0.27329864457E+03  0.16537428643E+03  0.97465454849E+03  0.60001034643E+03 0.  0.
         23    2    4    4    0    0 -0.13862556093E+03  0.13463531970E+02  0.28267263805E+03  0.32803804370E+03  0.91141785017E+02 0.  0.
         23    2    4    4    0    0 -0.55987158963E+03 -0.28676217654E+03 -0.11729835162E+03  0.64661650480E+03  0.93087368696E+02 0.  0.
          4    1    3    3  502    0  0.19747882581E+03  0.12222573129E+03  0.15458133851E+03  0.27898459859E+03  0.00000000000E+00 0. -1.
         -4    1    3    3    0  502  0.50101832475E+03  0.15107291328E+03  0.34124620073E+03  0.62473302808E+03  0.00000000000E+00 0.  1.
         11    1    5    5    0    0 -0.62600962948E+02 -0.20984957831E+02  0.19976832881E+03  0.21039637404E+03  0.00000000000E+00 0. -1.
        -11    1    5    5    0    0 -0.76024597981E+02  0.34448489801E+02  0.82904309240E+02  0.11764166965E+03  0.00000000000E+00 0.  1.
          5    1    6    6  503    0 -0.35273689437E+03 -0.18009117469E+03 -0.28033743979E+02  0.39706942549E+03  0.47000000000E+01 0. -1.
         -5    1    6    6    0  503 -0.20713469526E+03 -0.10667100185E+03 -0.89264607639E+02  0.24954707931E+03  0.47000000000E+01 0.  1.
<mgrwt>
<rscale>  0 0.76707345E+03</rscale>
<asrwt>0</asrwt>
<pdfrwt beam="1">  1        1 0.93628489E-01 0.76707345E+03</pdfrwt>
<pdfrwt beam="2">  1       -1 0.19535185E+00 0.76707345E+03</pdfrwt>
<totfact> 0.56162136E+00</totfact>
</mgrwt>
</event>
<event>
12    1  0.3166324E-008  0.1048098E+04  0.7818608E-02  0.9257310E-01
         -2   -1    0    0    0  501 -0.00000000000E+00  0.00000000000E+00  0.67405877635E+03  0.67405877635E+03  0.00000000000E+00 0. -1.
          2   -1    0    0  501    0  0.00000000000E+00 -0.00000000000E+00 -0.33095444370E+04  0.33095444370E+04  0.00000000000E+00 0.  1.
         23    2    1    2    0    0 -0.91802152278E+03 -0.42752807776E+03 -0.26157408048E+04  0.28064284474E+04  0.91634594185E+02 0.  0.
    5000000    2    1    2    0    0  0.91802152278E+03  0.42752807776E+03 -0.19744855868E+02  0.11771747660E+04  0.59983897571E+03 0.  0.
         23    2    4    4    0    0  0.32045848559E+03  0.33267753082E+03  0.22117732816E+03  0.51965360086E+03  0.88048133976E+02 0.  0.
         23    2    4    4    0    0  0.59756303719E+03  0.94850546938E+02 -0.24092218403E+03  0.65752116513E+03  0.90622150476E+02 0.  0.
          2    1    3    3  502    0 -0.51498830291E+03 -0.28839127623E+03 -0.14900932100E+04  0.16027352416E+04  0.00000000000E+00 0. -1.
         -2    1    3    3    0  502 -0.40303321987E+03 -0.13913680152E+03 -0.11256475948E+04  0.12036932058E+04  0.00000000000E+00 0.  1.
         11    1    5    5    0    0  0.78223762231E+02  0.39589831989E+02  0.21906467812E+02  0.90367057640E+02  0.00000000000E+00 0.  1.
        -11    1    5    5    0    0  0.24223472336E+03  0.29308769883E+03  0.19927086035E+03  0.42928654322E+03  0.00000000000E+00 0. -1.
          5    1    6    6  503    0  0.55912595930E+03  0.65260467684E+02 -0.22517122444E+03  0.60630432732E+03  0.47000000000E+01 0. -1.
         -5    1    6    6    0  503  0.38437077890E+02  0.29590079255E+02 -0.15750959588E+02  0.51216837807E+02  0.47000000000E+01 0.  1.
<mgrwt>
<rscale>  0 0.10480976E+04</rscale>
<asrwt>0</asrwt>
<pdfrwt beam="1">  1        2 0.50916068E+00 0.10480976E+04</pdfrwt>
<pdfrwt beam="2">  1       -2 0.10370135E+00 0.10480976E+04</pdfrwt>
<totfact> 0.84718540E-01</totfact>
</mgrwt>
</event>
<event>
12    1  0.3166324E-008  0.6862348E+03  0.7818608E-02  0.9741066E-01
          2   -1    0    0  501    0  0.00000000000E+00  0.00000000000E+00  0.18870458818E+04  0.18870458818E+04  0.00000000000E+00 0. -1.
         -2   -1    0    0    0  501 -0.00000000000E+00 -0.00000000000E+00 -0.28675090286E+03  0.28675090286E+03  0.00000000000E+00 0.  1.
         23    2    1    2    0    0 -0.52777323562E+03 -0.28175019321E+03  0.84167194619E+03  0.10368210764E+04  0.93051168006E+02 0.  0.
    5000000    2    1    2    0    0  0.52777323562E+03  0.28175019321E+03  0.75862303277E+03  0.11369757083E+04  0.59939727705E+03 0.  0.
         23    2    4    4    0    0  0.16099458278E+03  0.34738579232E+03  0.60961739692E+03  0.72562161938E+03  0.91089074456E+02 0.  0.
         23    2    4    4    0    0  0.36677865283E+03 -0.65635599110E+02  0.14900563585E+03  0.41135408889E+03  0.90415125332E+02 0.  0.
          1    1    3    3  502    0 -0.36045287155E+03 -0.19407136538E+03  0.64642303105E+03  0.76514881072E+03  0.00000000000E+00 0. -1.
         -1    1    3    3    0  502 -0.16732036406E+03 -0.87678827830E+02  0.19524891514E+03  0.27167226569E+03  0.00000000000E+00 0.  1.
         11    1    5    5    0    0  0.23005026452E+02  0.14038012035E+03  0.26237590412E+03  0.29845757571E+03  0.00000000000E+00 0.  1.
        -11    1    5    5    0    0  0.13798955633E+03  0.20700567197E+03  0.34724149280E+03  0.42716404367E+03  0.00000000000E+00 0. -1.
          5    1    6    6  503    0  0.91049186625E+02  0.22018091788E+02  0.29988917944E+02  0.98469162434E+02  0.47000000000E+01 0. -1.
         -5    1    6    6    0  503  0.27572946621E+03 -0.87653690899E+02  0.11901671790E+03  0.31288492646E+03  0.47000000000E+01 0.  1.
<mgrwt>
<rscale>  0 0.68623483E+03</rscale>
<asrwt>0</asrwt>
<pdfrwt beam="1">  1        2 0.29031474E+00 0.68623483E+03</pdfrwt>
<pdfrwt beam="2">  1       -2 0.44115525E-01 0.68623483E+03</pdfrwt>
<totfact> 0.39033547E+01</totfact>
</mgrwt>
</event>
<event>
12    1  0.3445518E-008  0.1046135E+04  0.7818608E-02  0.9259344E-01
          2   -1    0    0  501    0  0.00000000000E+00  0.00000000000E+00  0.13893288869E+04  0.13893288869E+04  0.00000000000E+00 0. -1.
         -2   -1    0    0    0  501 -0.00000000000E+00 -0.00000000000E+00 -0.93798501474E+03  0.93798501474E+03  0.00000000000E+00 0.  1.
         23    2    1    2    0    0  0.10334328562E+04 -0.28715863774E+02 -0.30554808963E+02  0.10384791329E+04  0.93259014993E+02 0.  0.
    5000000    2    1    2    0    0 -0.10334328562E+04  0.28715863774E+02  0.48189868110E+03  0.12888347688E+04  0.60005054218E+03 0.  0.
         23    2    4    4    0    0 -0.42892325564E+03  0.81221925610E+02  0.50660270391E+03  0.67479725259E+03  0.90182437624E+02 0.  0.
         23    2    4    4    0    0 -0.60450960058E+03 -0.52506061836E+02 -0.24704022812E+02  0.61403751618E+03  0.90791182417E+02 0.  0.
          2    1    3    3  502    0  0.36021306337E+03 -0.45922902994E+01 -0.54824286131E+02  0.36439023382E+03  0.00000000000E+00 0. -1.
         -2    1    3    3    0  502  0.67321979285E+03 -0.24123573475E+02  0.24269477169E+02  0.67408889904E+03  0.00000000000E+00 0.  1.
         13    1    5    5    0    0 -0.30233671263E+03  0.15614335219E+02  0.35829760786E+03  0.46907192526E+03  0.00000000000E+00 0. -1.
        -13    1    5    5    0    0 -0.12658654301E+03  0.65607590391E+02  0.14830509605E+03  0.20572532733E+03  0.00000000000E+00 0.  1.
          5    1    6    6  503    0 -0.39555697850E+03  0.73399204317E+01 -0.27587762869E+02  0.39661363104E+03  0.47000000000E+01 0. -1.
         -5    1    6    6    0  503 -0.20895262208E+03 -0.59845982267E+02  0.28837400571E+01  0.21742388513E+03  0.47000000000E+01 0.  1.
<mgrwt>
<rscale>  0 0.10461348E+04</rscale>
<asrwt>0</asrwt>
<pdfrwt beam="1">  1        2 0.21374291E+00 0.10461348E+04</pdfrwt>
<pdfrwt beam="2">  1       -2 0.14430539E+00 0.10461348E+04</pdfrwt>
<totfact> 0.48081815E+00</totfact>
</mgrwt>
</event>
<event>
12    1  0.3166324E-008  0.9557060E+03  0.7818608E-02  0.9358506E-01
          1   -1    0    0  501    0  0.00000000000E+00  0.00000000000E+00  0.16679746178E+04  0.16679746178E+04  0.00000000000E+00 0. -1.
         -1   -1    0    0    0  501 -0.00000000000E+00 -0.00000000000E+00 -0.67677224265E+03  0.67677224265E+03  0.00000000000E+00 0.  1.
         23    2    1    2    0    0 -0.86121888084E+03  0.16856269282E+03  0.92703768419E+03  0.12796843756E+04  0.89899338555E+02 0.  0.
    5000000    2    1    2    0    0  0.86121888084E+03 -0.16856269282E+03  0.64164690915E+02  0.10650624848E+04  0.60010802934E+03 0.  0.
         23    2    4    4    0    0  0.24215304319E+02  0.11643056578E+03  0.93385312828E+02  0.17585056367E+03  0.89778318529E+02 0.  0.
         23    2    4    4    0    0  0.83700357652E+03 -0.28499325860E+03 -0.29220621913E+02  0.88921192115E+03  0.89709817822E+02 0.  0.
          1    1    3    3  502    0 -0.24190378696E+03  0.86311606260E+02  0.24962869705E+03  0.35816423874E+03  0.00000000000E+00 0. -1.
         -1    1    3    3    0  502 -0.61931509388E+03  0.82251086561E+02  0.67740898713E+03  0.92152013684E+03  0.00000000000E+00 0.  1.
         11    1    5    5    0    0 -0.25039771097E+02  0.81106219306E+01  0.33604161066E+02  0.42685032103E+02  0.00000000000E+00 0. -1.
        -11    1    5    5    0    0  0.49255075416E+02  0.10831994385E+03  0.59781151762E+02  0.13316553156E+03  0.00000000000E+00 0.  1.
          5    1    6    6  503    0  0.24726600874E+03 -0.74050061593E+02  0.30832180178E+02  0.25999346922E+03  0.47000000000E+01 0. -1.
         -5    1    6    6    0  503  0.58973756778E+03 -0.21094319701E+03 -0.60052802090E+02  0.62921845193E+03  0.47000000000E+01 0.  1.
<mgrwt>
<rscale>  0 0.95570604E+03</rscale>
<asrwt>0</asrwt>
<pdfrwt beam="1">  1        1 0.25661148E+00 0.95570604E+03</pdfrwt>
<pdfrwt beam="2">  1       -1 0.10411881E+00 0.95570604E+03</pdfrwt>
<totfact> 0.44085658E+00</totfact>
</mgrwt>
</event>
<event>
12    1  0.3166324E-008  0.8590032E+03  0.7818608E-02  0.9478332E-01
          1   -1    0    0  501    0  0.00000000000E+00  0.00000000000E+00  0.13392596861E+04  0.13392596861E+04  0.00000000000E+00 0. -1.
         -1   -1    0    0    0  501 -0.00000000000E+00 -0.00000000000E+00 -0.81082162691E+03  0.81082162691E+03  0.00000000000E+00 0.  1.
         23    2    1    2    0    0 -0.66152670255E+03 -0.45178227421E+03  0.77580369473E+03  0.11188651451E+04  0.90901257582E+02 0.  0.
    5000000    2    1    2    0    0  0.66152670255E+03  0.45178227421E+03 -0.24736563555E+03  0.10312161679E+04  0.60041004812E+03 0.  0.
         23    2    4    4    0    0  0.17091070395E+03  0.37022313595E+03 -0.31209485441E+03  0.52123492463E+03  0.89481894187E+02 0.  0.
         23    2    4    4    0    0  0.49061599859E+03  0.81559138264E+02  0.64729218864E+02  0.50998124330E+03  0.92385310717E+02 0.  0.
          4    1    3    3  502    0 -0.27968056414E+03 -0.21066423494E+03  0.39773414687E+03  0.52989913137E+03  0.00000000000E+00 0. -1.
         -4    1    3    3    0  502 -0.38184613841E+03 -0.24111803927E+03  0.37806954786E+03  0.58896601370E+03  0.00000000000E+00 0.  1.
         13    1    5    5    0    0  0.44785017542E+02  0.37407435322E+02 -0.23064004491E+02  0.62745217481E+02  0.00000000000E+00 0. -1.
        -13    1    5    5    0    0  0.12612568641E+03  0.33281570062E+03 -0.28903084992E+03  0.45848970715E+03  0.00000000000E+00 0.  1.
          5    1    6    6  503    0  0.31977846502E+03  0.85510360038E+02  0.12699669541E+02  0.33129089932E+03  0.47000000000E+01 0. -1.
         -5    1    6    6    0  503  0.17083753357E+03 -0.39512217736E+01  0.52029549322E+02  0.17869034398E+03  0.47000000000E+01 0.  1.
<mgrwt>
<rscale>  0 0.85900319E+03</rscale>
<asrwt>0</asrwt>
<pdfrwt beam="1">  1        1 0.20603995E+00 0.85900319E+03</pdfrwt>
<pdfrwt beam="2">  1       -1 0.12474179E+00 0.85900319E+03</pdfrwt>
<totfact> 0.48792998E+00</totfact>
</mgrwt>
</event>
<event>
12    1  0.3166324E-008  0.1090144E+04  0.7818608E-02  0.9214852E-01
         -1   -1    0    0    0  501 -0.00000000000E+00  0.00000000000E+00  0.82845649131E+03  0.82845649131E+03  0.00000000000E+00 0.  1.
          1   -1    0    0  501    0  0.00000000000E+00 -0.00000000000E+00 -0.17504178578E+04  0.17504178578E+04  0.00000000000E+00 0. -1.
         23    2    1    2    0    0  0.66007463085E+03  0.77338786091E+03 -0.95373987773E+03  0.13979073374E+04  0.10343049832E+03 0.  0.
    5000000    2    1    2    0    0 -0.66007463085E+03 -0.77338786091E+03  0.31778511287E+02  0.11809670116E+04  0.59987157552E+03 0.  0.
         23    2    4    4    0    0 -0.28232741921E+03  0.82627481889E+01 -0.58807922519E+02  0.30260093805E+03  0.91279303862E+02 0.  0.
         23    2    4    4    0    0 -0.37774721164E+03 -0.78165060910E+03  0.90586433806E+02  0.87836607359E+03  0.98236585029E+02 0.  0.
          4    1    3    3  502    0  0.47848380250E+03  0.57609959312E+03 -0.76097660138E+03  0.10676717090E+04  0.00000000000E+00 0. -1.
         -4    1    3    3    0  502  0.18159082835E+03  0.19728826779E+03 -0.19276327636E+03  0.33023562839E+03  0.00000000000E+00 0.  1.
         13    1    5    5    0    0 -0.21041860575E+03  0.43180686225E+02 -0.26704847298E+02  0.21645717862E+03  0.00000000000E+00 0.  1.
        -13    1    5    5    0    0 -0.71908813466E+02 -0.34917938036E+02 -0.32103075221E+02  0.86143759434E+02  0.00000000000E+00 0. -1.
          5    1    6    6  503    0 -0.11474330782E+03 -0.21346928006E+03 -0.17325086030E+02  0.24301730149E+03  0.47000000000E+01 0. -1.
         -5    1    6    6    0  503 -0.26300390382E+03 -0.56818132904E+03  0.10791151984E+03  0.63534877210E+03  0.47000000000E+01 0.  1.
<mgrwt>
<rscale>  0 0.10901435E+04</rscale>
<asrwt>0</asrwt>
<pdfrwt beam="1">  1        1 0.26929505E+00 0.10901435E+04</pdfrwt>
<pdfrwt beam="2">  1       -1 0.12745485E+00 0.10901435E+04</pdfrwt>
<totfact> 0.23376440E+00</totfact>
</mgrwt>
</event>
<event>
12    1  0.3166324E-008  0.4279321E+03  0.7818608E-02  0.1034515E+00
         -3   -1    0    0    0  501 -0.00000000000E+00  0.00000000000E+00  0.73707723090E+03  0.73707723090E+03  0.00000000000E+00 0.  1.
          3   -1    0    0  501    0  0.00000000000E+00 -0.00000000000E+00 -0.25653332010E+03  0.25653332010E+03  0.00000000000E+00 0. -1.
         23    2    1    2    0    0  0.15435452138E+03 -0.14823025347E+03  0.14285484218E+03  0.27263008629E+03  0.90122870018E+02 0.  0.
    5000000    2    1    2    0    0 -0.15435452138E+03  0.14823025347E+03  0.33768906862E+03  0.72098046471E+03  0.59998449739E+03 0.  0.
         23    2    4    4    0    0  0.19545739018E+03  0.16071518682E+03  0.10111959328E+03  0.28805322346E+03  0.93362330478E+02 0.  0.
         23    2    4    4    0    0 -0.34981191156E+03 -0.12484933349E+02  0.23656947534E+03  0.43292724124E+03  0.94533763911E+02 0.  0.
          1    1    3    3  502    0  0.14002848165E+03 -0.91213455093E+02  0.75948307697E+02  0.18356474472E+03  0.00000000000E+00 0. -1.
         -1    1    3    3    0  502  0.14326039733E+02 -0.57016798375E+02  0.66906534488E+02  0.89065341567E+02  0.00000000000E+00 0.  1.
         11    1    5    5    0    0  0.97441697644E+02  0.26062747714E+02  0.20126408302E+02  0.10285535265E+03  0.00000000000E+00 0.  1.
        -11    1    5    5    0    0  0.98015692535E+02  0.13465243910E+03  0.80993184975E+02  0.18519787081E+03  0.00000000000E+00 0. -1.
          5    1    6    6  503    0 -0.33941592445E+03  0.74998022502E+01  0.22293691114E+03  0.40618022250E+03  0.47000000000E+01 0.  1.
         -5    1    6    6    0  503 -0.10395987113E+02 -0.19984735599E+02  0.13632564198E+02  0.26747018743E+02  0.47000000000E+01 0. -1.
<mgrwt>
<rscale>  0 0.42793206E+03</rscale>
<asrwt>0</asrwt>
<pdfrwt beam="1">  1        3 0.39466665E-01 0.42793206E+03</pdfrwt>
<pdfrwt beam="2">  1       -3 0.11339650E+00 0.42793206E+03</pdfrwt>
<totfact> 0.10777483E+01</totfact>
</mgrwt>
</event>
<event>
12    1  0.3166324E-008  0.1008289E+04  0.7818608E-02  0.9299500E-01
         -1   -1    0    0    0  501 -0.00000000000E+00  0.00000000000E+00  0.12798550639E+04  0.12798550639E+04  0.00000000000E+00 0.  1.
          1   -1    0    0  501    0  0.00000000000E+00 -0.00000000000E+00 -0.93653558328E+03  0.93653558328E+03  0.00000000000E+00 0. -1.
         23    2    1    2    0    0 -0.53435686499E+02 -0.97062852011E+03  0.43791727986E+03  0.10701238670E+04  0.91752112236E+02 0.  0.
    5000000    2    1    2    0    0  0.53435686499E+02  0.97062852011E+03 -0.94597799243E+02  0.11462667802E+04  0.60000307590E+03 0.  0.
         23    2    4    4    0    0 -0.14362167103E+03  0.51557966437E+03  0.17989662417E+03  0.57217989677E+03  0.92614600244E+02 0.  0.
         23    2    4    4    0    0  0.19705735753E+03  0.45504885574E+03 -0.27449442341E+03  0.57408688341E+03  0.91255125612E+02 0.  0.
          2    1    3    3  502    0  0.12291570055E+02 -0.58914028218E+03  0.25947675384E+03  0.64386764212E+03  0.00000000000E+00 0. -1.
         -2    1    3    3    0  502 -0.65727256554E+02 -0.38148823793E+03  0.17844052602E+03  0.42625622489E+03  0.00000000000E+00 0.  1.
         13    1    5    5    0    0 -0.11895347227E+03  0.46305517995E+03  0.12949118103E+03  0.49531605487E+03  0.00000000000E+00 0.  1.
        -13    1    5    5    0    0 -0.24668198766E+02  0.52524484416E+02  0.50405443143E+02  0.76863841903E+02  0.00000000000E+00 0. -1.
          5    1    6    6  503    0  0.11683359205E+03  0.15928995028E+03 -0.10126541169E+03  0.22203637111E+03  0.47000000000E+01 0. -1.
         -5    1    6    6    0  503  0.80223765481E+02  0.29575890546E+03 -0.17322901172E+03  0.35205051229E+03  0.47000000000E+01 0.  1.
<mgrwt>
<rscale>  0 0.10082888E+04</rscale>
<asrwt>0</asrwt>
<pdfrwt beam="1">  1        1 0.14408240E+00 0.10082888E+04</pdfrwt>
<pdfrwt beam="2">  1       -1 0.19690078E+00 0.10082888E+04</pdfrwt>
<totfact> 0.26949309E+00</totfact>
</mgrwt>
</event>
<event>
12    1  0.3166324E-008  0.7869641E+03  0.7818608E-02  0.9579080E-01
          2   -1    0    0  501    0  0.00000000000E+00  0.00000000000E+00  0.24238800027E+04  0.24238800027E+04  0.00000000000E+00 0. -1.
         -2   -1    0    0    0  501 -0.00000000000E+00 -0.00000000000E+00 -0.26744747122E+03  0.26744747122E+03  0.00000000000E+00 0.  1.
         23    2    1    2    0    0  0.75067834323E+02 -0.67374180916E+03  0.11471282900E+04  0.13355411115E+04  0.90573403267E+02 0.  0.
    5000000    2    1    2    0    0 -0.75067834323E+02  0.67374180916E+03  0.10093042414E+04  0.13557863625E+04  0.59991533048E+03 0.  0.
         23    2    4    4    0    0  0.23577461287E+03  0.43508889896E+03  0.57639676250E+03  0.76488885331E+03  0.89048930534E+02 0.  0.
         23    2    4    4    0    0 -0.31084244719E+03  0.23865291020E+03  0.43290747895E+03  0.59089750918E+03  0.90403221735E+02 0.  0.
          1    1    3    3  502    0  0.82290209049E+02 -0.35192532494E+03  0.63503471692E+03  0.73067927610E+03  0.00000000000E+00 0. -1.
         -1    1    3    3    0  502 -0.72223747260E+01 -0.32181648422E+03  0.51209357313E+03  0.60486183535E+03  0.00000000000E+00 0.  1.
         13    1    5    5    0    0  0.13398180911E+03  0.24782595296E+03  0.39398412609E+03  0.48434731314E+03  0.00000000000E+00 0.  1.
        -13    1    5    5    0    0  0.10179280376E+03  0.18726294600E+03  0.18241263641E+03  0.28054154017E+03  0.00000000000E+00 0. -1.
          5    1    6    6  503    0 -0.65535410433E+02  0.80195118447E+02  0.70168768839E+02  0.12518743213E+03  0.47000000000E+01 0. -1.
         -5    1    6    6    0  503 -0.24530703676E+03  0.15845779175E+03  0.36273871011E+03  0.46571007705E+03  0.47000000000E+01 0.  1.
<mgrwt>
<rscale>  0 0.78696408E+03</rscale>
<asrwt>0</asrwt>
<pdfrwt beam="1">  1        2 0.37290460E+00 0.78696408E+03</pdfrwt>
<pdfrwt beam="2">  1       -2 0.41145766E-01 0.78696408E+03</pdfrwt>
<totfact> 0.22364666E+01</totfact>
</mgrwt>
</event>
<event>
12    1  0.3166324E-008  0.1437448E+04  0.7818608E-02  0.8927149E-01
          2   -1    0    0  501    0  0.00000000000E+00  0.00000000000E+00  0.15642835096E+04  0.15642835096E+04  0.00000000000E+00 0. -1.
         -2   -1    0    0    0  501 -0.00000000000E+00 -0.00000000000E+00 -0.13408215340E+04  0.13408215340E+04  0.00000000000E+00 0.  1.
         23    2    1    2    0    0  0.12435221635E+04  0.60863422500E+03  0.97940534179E+02  0.13909417215E+04  0.91342943476E+02 0.  0.
    5000000    2    1    2    0    0 -0.12435221635E+04 -0.60863422500E+03  0.12552144133E+03  0.15141633221E+04  0.60012660571E+03 0.  0.
         23    2    4    4    0    0 -0.10548726575E+04 -0.70202789762E+03  0.16617391675E+03  0.12815607011E+04  0.95836148380E+02 0.  0.
         23    2    4    4    0    0 -0.18864950601E+03  0.93393672619E+02 -0.40652475418E+02  0.23260262107E+03  0.90223840345E+02 0.  0.
          1    1    3    3  502    0  0.74345473427E+03  0.34248472634E+03  0.98544018033E+02  0.82445839991E+03  0.00000000000E+00 0. -1.
         -1    1    3    3    0  502  0.50006742923E+03  0.26614949866E+03 -0.60348385398E+00  0.56648332156E+03  0.00000000000E+00 0.  1.
         13    1    5    5    0    0 -0.68459161700E+03 -0.40519464054E+03  0.12392652649E+03  0.80511251559E+03  0.00000000000E+00 0. -1.
        -13    1    5    5    0    0 -0.37028104048E+03 -0.29683325708E+03  0.42247390263E+02  0.47644818547E+03  0.00000000000E+00 0.  1.
          5    1    6    6  503    0 -0.15255925448E+03  0.44810960111E+02  0.83613281319E+00  0.15907588563E+03  0.47000000000E+01 0. -1.
         -5    1    6    6    0  503 -0.36090251535E+02  0.48582712508E+02 -0.41488608231E+02  0.73526735433E+02  0.47000000000E+01 0.  1.
<mgrwt>
<rscale>  0 0.14374485E+04</rscale>
<asrwt>0</asrwt>
<pdfrwt beam="1">  1        2 0.24065900E+00 0.14374485E+04</pdfrwt>
<pdfrwt beam="2">  1       -2 0.20628024E+00 0.14374485E+04</pdfrwt>
<totfact> 0.13380743E+00</totfact>
</mgrwt>
</event>
<event>
12    1  0.3166324E-008  0.6801852E+03  0.7818608E-02  0.9751731E-01
         -2   -1    0    0    0  501 -0.00000000000E+00  0.00000000000E+00  0.21097207728E+04  0.21097207728E+04  0.00000000000E+00 0.  1.
          2   -1    0    0  501    0  0.00000000000E+00 -0.00000000000E+00 -0.28775924009E+03  0.28775924009E+03  0.00000000000E+00 0. -1.
         23    2    1    2    0    0  0.12930942369E+03 -0.64930868047E+03  0.76700412269E+03  0.10149685002E+04  0.59523462913E+02 0.  0.
    5000000    2    1    2    0    0 -0.12930942369E+03  0.64930868047E+03  0.10549574100E+04  0.13825115127E+04  0.60006687637E+03 0.  0.
         23    2    4    4    0    0 -0.12728988380E+02  0.91979434958E+02 -0.45005131571E+02  0.14061324641E+03  0.95521618488E+02 0.  0.
         23    2    4    4    0    0 -0.11658043531E+03  0.55732924551E+03  0.10999625416E+04  0.12418982663E+04  0.90481075522E+02 0.  0.
          1    1    3    3  502    0  0.43794486645E+02 -0.21717186634E+03  0.30057604976E+03  0.37339997092E+03  0.00000000000E+00 0. -1.
         -1    1    3    3    0  502  0.85514937043E+02 -0.43213681413E+03  0.46642807293E+03  0.64156852931E+03  0.00000000000E+00 0.  1.
         13    1    5    5    0    0  0.37403149008E+02  0.51029723889E+02 -0.41744844960E+02  0.75800134278E+02  0.00000000000E+00 0.  1.
        -13    1    5    5    0    0 -0.50132137388E+02  0.40949711069E+02 -0.32602866108E+01  0.64813112134E+02  0.00000000000E+00 0. -1.
          5    1    6    6  503    0 -0.51871059796E+02  0.32265358549E+03  0.53857695550E+03  0.62998664277E+03  0.47000000000E+01 0. -1.
         -5    1    6    6    0  503 -0.64709375513E+02  0.23467566003E+03  0.56138558611E+03  0.61191162350E+03  0.47000000000E+01 0.  1.
<mgrwt>
<rscale>  0 0.68018515E+03</rscale>
<asrwt>0</asrwt>
<pdfrwt beam="1">  1        2 0.44270654E-01 0.68018515E+03</pdfrwt>
<pdfrwt beam="2">  1       -2 0.32457242E+00 0.68018515E+03</pdfrwt>
<totfact> 0.27271586E+00</totfact>
</mgrwt>
</event>
<event>
12    1  0.3166324E-008  0.4535258E+03  0.7818608E-02  0.1026676E+00
          1   -1    0    0  501    0  0.00000000000E+00  0.00000000000E+00  0.74158438442E+03  0.74158438442E+03  0.00000000000E+00 0. -1.
         -1   -1    0    0    0  501 -0.00000000000E+00 -0.00000000000E+00 -0.35093667983E+03  0.35093667983E+03  0.00000000000E+00 0.  1.
         23    2    1    2    0    0 -0.14572576428E+03 -0.28289417967E+03  0.19212652872E+03  0.38492768777E+03  0.99958023696E+02 0.  0.
    5000000    2    1    2    0    0  0.14572576428E+03  0.28289417967E+03  0.19852117587E+03  0.70759337649E+03  0.60001051151E+03 0.  0.
         23    2    4    4    0    0 -0.79498711000E+02  0.31242287660E+03  0.29383430309E+03  0.44550929954E+03  0.90619200088E+02 0.  0.
         23    2    4    4    0    0  0.22522447528E+03 -0.29528696931E+02 -0.95313127227E+02  0.26208407695E+03  0.89473252779E+02 0.  0.
          4    1    3    3  502    0 -0.20131505880E+02 -0.14652229750E+03  0.92795026253E+02  0.17459947907E+03  0.00000000000E+00 0. -1.
         -4    1    3    3    0  502 -0.12559425840E+03 -0.13637188217E+03  0.99331502471E+02  0.21032820869E+03  0.00000000000E+00 0.  1.
         13    1    5    5    0    0  0.12501624915E+02  0.12292677143E+03  0.95251384254E+02  0.15601316599E+03  0.00000000000E+00 0.  1.
        -13    1    5    5    0    0 -0.92000335915E+02  0.18949610517E+03  0.19858291884E+03  0.28949613355E+03  0.00000000000E+00 0. -1.
          5    1    6    6  503    0  0.19534287196E+03  0.26056944912E+01 -0.96481695720E+02  0.21793676807E+03  0.47000000000E+01 0. -1.
         -5    1    6    6    0  503  0.29881603325E+02 -0.32134391422E+02  0.11685684931E+01  0.44147308884E+02  0.47000000000E+01 0.  1.
<mgrwt>
<rscale>  0 0.45352581E+03</rscale>
<asrwt>0</asrwt>
<pdfrwt beam="1">  1        1 0.11408991E+00 0.45352581E+03</pdfrwt>
<pdfrwt beam="2">  1       -1 0.53990259E-01 0.45352581E+03</pdfrwt>
<totfact> 0.90577254E+01</totfact>
</mgrwt>
</event>
<event>
12    1  0.3166324E-008  0.6438329E+03  0.7818608E-02  0.9818421E-01
          2   -1    0    0  501    0  0.00000000000E+00  0.00000000000E+00  0.45280388545E+03  0.45280388545E+03  0.00000000000E+00 0. -1.
         -2   -1    0    0    0  501 -0.00000000000E+00 -0.00000000000E+00 -0.12022297224E+04  0.12022297224E+04  0.00000000000E+00 0.  1.
         23    2    1    2    0    0  0.17202556952E+02 -0.61133915818E+03 -0.32956053485E+03  0.70102789160E+03  0.93800129926E+02 0.  0.
    5000000    2    1    2    0    0 -0.17202556952E+02  0.61133915818E+03 -0.41986530205E+03  0.95400571621E+03  0.59984042912E+03 0.  0.
         23    2    4    4    0    0 -0.96632853746E+02  0.15866094087E+03  0.12072707499E+03  0.23855403449E+03  0.88440930329E+02 0.  0.
         23    2    4    4    0    0  0.79430296794E+02  0.45267821731E+03 -0.54059237704E+03  0.71545168172E+03  0.91674698117E+02 0.  0.
          2    1    3    3  502    0  0.39136131726E+02 -0.33977336322E+03 -0.14236786299E+03  0.37046752027E+03  0.00000000000E+00 0. -1.
         -2    1    3    3    0  502 -0.21933574774E+02 -0.27156579496E+03 -0.18719267186E+03  0.33056037133E+03  0.00000000000E+00 0.  1.
         11    1    5    5    0    0 -0.86449525693E+02  0.16923977567E+03  0.10533410690E+03  0.21728068538E+03  0.00000000000E+00 0. -1.
        -11    1    5    5    0    0 -0.10183328053E+02 -0.10578834803E+02  0.15392968090E+02  0.21273349116E+02  0.00000000000E+00 0.  1.
          5    1    6    6  503    0  0.13374833887E+02  0.31874839858E+03 -0.35894523372E+03  0.48025326505E+03  0.47000000000E+01 0. -1.
         -5    1    6    6    0  503  0.66055462907E+02  0.13392981873E+03 -0.18164714333E+03  0.23519841667E+03  0.47000000000E+01 0.  1.
<mgrwt>
<rscale>  0 0.64383291E+03</rscale>
<asrwt>0</asrwt>
<pdfrwt beam="1">  1        2 0.69662137E-01 0.64383291E+03</pdfrwt>
<pdfrwt beam="2">  1       -2 0.18495842E+00 0.64383291E+03</pdfrwt>
<totfact> 0.11907973E+01</totfact>
</mgrwt>
</event>
<event>
12    1  0.3166324E-008  0.6167584E+03  0.7818608E-02  0.9871235E-01
          1   -1    0    0  501    0  0.00000000000E+00  0.00000000000E+00  0.30701963123E+04  0.30701963123E+04  0.00000000000E+00 0. -1.
         -1   -1    0    0    0  501 -0.00000000000E+00 -0.00000000000E+00 -0.13558850198E+03  0.13558850198E+03  0.00000000000E+00 0.  1.
         23    2    1    2    0    0  0.40028211645E+03  0.26393576011E+03  0.80103994780E+03  0.93820804403E+03  0.93174447631E+02 0.  0.
    5000000    2    1    2    0    0 -0.40028211645E+03 -0.26393576011E+03  0.21335678625E+04  0.22675767703E+04  0.59992060044E+03 0.  0.
         23    2    4    4    0    0 -0.29835341866E+03 -0.43427596667E+03  0.13007384590E+04  0.14064400696E+04  0.92427014282E+02 0.  0.
         23    2    4    4    0    0 -0.10192869779E+03  0.17034020656E+03  0.83282940356E+03  0.86113670071E+03  0.92446505994E+02 0.  0.
          1    1    3    3  502    0  0.62635059828E+02  0.84607303340E+02  0.15092335042E+03  0.18400925031E+03  0.00000000000E+00 0. -1.
         -1    1    3    3    0  502  0.33764705663E+03  0.17932845677E+03  0.65011659738E+03  0.75419879372E+03  0.00000000000E+00 0.  1.
         13    1    5    5    0    0 -0.26926027239E+03 -0.42140622051E+03  0.12526284414E+04  0.13487632517E+04  0.00000000000E+00 0.  1.
        -13    1    5    5    0    0 -0.29093146277E+02 -0.12869746156E+02  0.48110017582E+02  0.57676817857E+02  0.00000000000E+00 0. -1.
          5    1    6    6  503    0 -0.93118083842E+01  0.92144648246E+02  0.27313021002E+03  0.28844331783E+03  0.47000000000E+01 0. -1.
         -5    1    6    6    0  503 -0.92616889408E+02  0.78195558315E+02  0.55969919354E+03  0.57269338288E+03  0.47000000000E+01 0.  1.
<mgrwt>
<rscale>  0 0.61675835E+03</rscale>
<asrwt>0</asrwt>
<pdfrwt beam="1">  1        1 0.47233784E+00 0.61675835E+03</pdfrwt>
<pdfrwt beam="2">  1       -1 0.20859772E-01 0.61675835E+03</pdfrwt>
<totfact> 0.11019859E+01</totfact>
</mgrwt>
</event>
<event>
12    1  0.3166324E-008  0.1080212E+04  0.7818608E-02  0.9224696E-01
         -1   -1    0    0    0  501 -0.00000000000E+00  0.00000000000E+00  0.88758734776E+03  0.88758734776E+03  0.00000000000E+00 0.  1.
          1   -1    0    0  501    0  0.00000000000E+00 -0.00000000000E+00 -0.18261591419E+04  0.18261591419E+04  0.00000000000E+00 0. -1.
         23    2    1    2    0    0  0.23711972212E+03 -0.98842987462E+03 -0.11254760070E+04  0.15192961113E+04  0.91351255097E+02 0.  0.
    5000000    2    1    2    0    0 -0.23711972212E+03  0.98842987462E+03  0.18690421287E+03  0.11944503783E+04  0.59879808105E+03 0.  0.
         23    2    4    4    0    0  0.15318297281E+03  0.15703976576E+03  0.12813246603E+03  0.26970885029E+03  0.90545148324E+02 0.  0.
         23    2    4    4    0    0 -0.39030269494E+03  0.83139010886E+03  0.58771746838E+02  0.92474152805E+03  0.90261113937E+02 0.  0.
          3    1    3    3  502    0  0.46056413032E+02 -0.34442786666E+03 -0.34741433569E+03  0.49137406235E+03  0.00000000000E+00 0. -1.
         -3    1    3    3    0  502  0.19106330909E+03 -0.64400200796E+03 -0.77806167128E+03  0.10279220489E+04  0.00000000000E+00 0.  1.
         11    1    5    5    0    0  0.35174902454E+02  0.21158377607E+02  0.68973248200E+02  0.80263688383E+02  0.00000000000E+00 0.  1.
        -11    1    5    5    0    0  0.11800807036E+03  0.13588138815E+03  0.59159217830E+02  0.18944516191E+03  0.00000000000E+00 0. -1.
          5    1    6    6  503    0 -0.26256504429E+03  0.49576048530E+03  0.12591902124E+01  0.56101919471E+03  0.47000000000E+01 0. -1.
         -5    1    6    6    0  503 -0.12773765064E+03  0.33562962357E+03  0.57512556625E+02  0.36372233335E+03  0.47000000000E+01 0.  1.
<mgrwt>
<rscale>  0 0.10802120E+04</rscale>
<asrwt>0</asrwt>
<pdfrwt beam="1">  1        1 0.28094756E+00 0.10802120E+04</pdfrwt>
<pdfrwt beam="2">  1       -1 0.13655190E+00 0.10802120E+04</pdfrwt>
<totfact> 0.17449065E+00</totfact>
</mgrwt>
</event>
<event>
12    1  0.3166324E-008  0.8876021E+03  0.7818608E-02  0.9441213E-01
         -2   -1    0    0    0  501 -0.00000000000E+00  0.00000000000E+00  0.53839893584E+03  0.53839893584E+03  0.00000000000E+00 0.  1.
          2   -1    0    0  501    0  0.00000000000E+00 -0.00000000000E+00 -0.27398259015E+04  0.27398259015E+04  0.00000000000E+00 0. -1.
         23    2    1    2    0    0 -0.79532888936E+03 -0.24789634240E+03 -0.20823071622E+04  0.22446779990E+04  0.92604334187E+02 0.  0.
    5000000    2    1    2    0    0  0.79532888936E+03  0.24789634240E+03 -0.11911980347E+03  0.10335468383E+04  0.60002408338E+03 0.  0.
         23    2    4    4    0    0  0.46968461026E+03 -0.78863020563E+02  0.12801759593E+03  0.50158724473E+03  0.91532781468E+02 0.  0.
         23    2    4    4    0    0  0.32564427911E+03  0.32675936296E+03 -0.24713739941E+03  0.53195959361E+03  0.95332246646E+02 0.  0.
          2    1    3    3  502    0 -0.88124373328E+02 -0.10857949835E+01 -0.18698987224E+03  0.20671791516E+03  0.00000000000E+00 0.  1.
         -2    1    3    3    0  502 -0.70720451604E+03 -0.24681054741E+03 -0.18953172900E+04  0.20379600839E+04  0.00000000000E+00 0. -1.
         11    1    5    5    0    0  0.20318282886E+03 -0.25102973642E+02  0.10126753872E+03  0.22840432489E+03  0.00000000000E+00 0. -1.
        -11    1    5    5    0    0  0.26650178139E+03 -0.53760046921E+02  0.26750057213E+02  0.27318291984E+03  0.00000000000E+00 0.  1.
          5    1    6    6  503    0  0.12650201137E+03  0.12402987849E+03 -0.14817562582E+03  0.23100709021E+03  0.47000000000E+01 0. -1.
         -5    1    6    6    0  503  0.19914226773E+03  0.20272948447E+03 -0.98961773588E+02  0.30095250340E+03  0.47000000000E+01 0.  1.
<mgrwt>
<rscale>  0 0.88760208E+03</rscale>
<asrwt>0</asrwt>
<pdfrwt beam="1">  1        2 0.42151168E+00 0.88760208E+03</pdfrwt>
<pdfrwt beam="2">  1       -2 0.82830604E-01 0.88760208E+03</pdfrwt>
<totfact> 0.33163119E+00</totfact>
</mgrwt>
</event>
<event>
12    1  0.3166324E-008  0.1158596E+04  0.7818608E-02  0.9149890E-01
          2   -1    0    0  501    0  0.00000000000E+00  0.00000000000E+00  0.72725052710E+03  0.72725052710E+03  0.00000000000E+00 0. -1.
         -2   -1    0    0    0  501 -0.00000000000E+00 -0.00000000000E+00 -0.22739762367E+04  0.22739762367E+04  0.00000000000E+00 0.  1.
         23    2    1    2    0    0 -0.38623050525E+03 -0.10444415072E+04 -0.12972983591E+04  0.17119940893E+04  0.88930671070E+02 0.  0.
    5000000    2    1    2    0    0  0.38623050525E+03  0.10444415072E+04 -0.24942735048E+03  0.12892326745E+04  0.59989567484E+03 0.  0.
         23    2    4    4    0    0  0.28210179980E+02 -0.34444129577E+02  0.48208308222E+02  0.11105840550E+03  0.89597523031E+02 0.  0.
         23    2    4    4    0    0  0.35802032527E+03  0.10788856367E+04 -0.29763565870E+03  0.11781742690E+04  0.85643752055E+02 0.  0.
          2    1    3    3  502    0 -0.55063496120E+02 -0.15704157996E+03 -0.14818369329E+03  0.22282830475E+03  0.00000000000E+00 0. -1.
         -2    1    3    3    0  502 -0.33116700913E+03 -0.88739992721E+03 -0.11491146658E+04  0.14891657846E+04  0.00000000000E+00 0.  1.
         13    1    5    5    0    0 -0.18523572436E+01 -0.36495301434E+02 -0.16183113266E+02  0.39965377630E+02  0.00000000000E+00 0. -1.
        -13    1    5    5    0    0  0.30062537223E+02  0.20511718566E+01  0.64391421488E+02  0.71093027869E+02  0.00000000000E+00 0.  1.
          5    1    6    6  503    0  0.92675034556E+02  0.30432932703E+03 -0.45030262994E+02  0.32133287399E+03  0.47000000000E+01 0. -1.
         -5    1    6    6    0  503  0.26534529071E+03  0.77455630971E+03 -0.25260539571E+03  0.85684139498E+03  0.47000000000E+01 0.  1.
<mgrwt>
<rscale>  0 0.11585960E+04</rscale>
<asrwt>0</asrwt>
<pdfrwt beam="1">  1        2 0.11188470E+00 0.11585960E+04</pdfrwt>
<pdfrwt beam="2">  1       -2 0.34984250E+00 0.11585960E+04</pdfrwt>
<totfact> 0.60322655E-01</totfact>
</mgrwt>
</event>
<event>
12    1  0.3166324E-008  0.9227727E+03  0.7818608E-02  0.9397554E-01
          2   -1    0    0  501    0  0.00000000000E+00  0.00000000000E+00  0.76003588930E+03  0.76003588930E+03  0.00000000000E+00 0. -1.
         -2   -1    0    0    0  501 -0.00000000000E+00 -0.00000000000E+00 -0.13366498233E+04  0.13366498233E+04  0.00000000000E+00 0.  1.
         23    2    1    2    0    0  0.20549271699E+03  0.86470116409E+03 -0.49440464550E+03  0.10212195332E+04  0.92293128375E+02 0.  0.
    5000000    2    1    2    0    0 -0.20549271699E+03 -0.86470116409E+03 -0.82209288461E+02  0.10754661794E+04  0.59994481077E+03 0.  0.
         23    2    4    4    0    0 -0.27984670178E+03 -0.57265073918E+03 -0.28078753406E+03  0.70253495019E+03  0.92036250349E+02 0.  0.
         23    2    4    4    0    0  0.74353984797E+02 -0.29205042492E+03  0.19857824560E+03  0.37293122919E+03  0.93927718675E+02 0.  0.
          4    1    3    3  502    0  0.19571427289E+03  0.65654769531E+03 -0.37324352563E+03  0.78017285409E+03  0.00000000000E+00 0. -1.
         -4    1    3    3    0  502  0.97784440964E+01  0.20815346878E+03 -0.12116111986E+03  0.24104667909E+03  0.00000000000E+00 0.  1.
         13    1    5    5    0    0 -0.11556534599E+03 -0.30513074615E+03 -0.10514740178E+03  0.34280620989E+03  0.00000000000E+00 0. -1.
        -13    1    5    5    0    0 -0.16428135579E+03 -0.26751999303E+03 -0.17564013228E+03  0.35972874030E+03  0.00000000000E+00 0.  1.
          5    1    6    6  503    0  0.79103189703E+02 -0.15004664351E+03  0.79039116107E+02  0.18719129714E+03  0.47000000000E+01 0. -1.
         -5    1    6    6    0  503 -0.47492049053E+01 -0.14200378141E+03  0.11953912949E+03  0.18573993206E+03  0.47000000000E+01 0.  1.
<mgrwt>
<rscale>  0 0.92277267E+03</rscale>
<asrwt>0</asrwt>
<pdfrwt beam="1">  1        2 0.11692860E+00 0.92277267E+03</pdfrwt>
<pdfrwt beam="2">  1       -2 0.20563843E+00 0.92277267E+03</pdfrwt>
<totfact> 0.45098372E+00</totfact>
</mgrwt>
</event>
<event>
12    1  0.3166324E-008  0.4501867E+03  0.7818608E-02  0.1027666E+00
          1   -1    0    0  501    0  0.00000000000E+00  0.00000000000E+00  0.31945224180E+03  0.31945224180E+03  0.00000000000E+00 0. -1.
         -1   -1    0    0    0  501 -0.00000000000E+00 -0.00000000000E+00 -0.15768652410E+04  0.15768652410E+04  0.00000000000E+00 0.  1.
         23    2    1    2    0    0  0.37930180369E+03  0.51001199097E+02 -0.10989123619E+04  0.11670748288E+04  0.89354889967E+02 0.  0.
    5000000    2    1    2    0    0 -0.37930180369E+03 -0.51001199097E+02 -0.15850063731E+03  0.72924265398E+03  0.60016782299E+03 0.  0.
         23    2    4    4    0    0 -0.40281428730E+03 -0.41316806883E+01 -0.32771820713E+03  0.52717558746E+03  0.90765940120E+02 0.  0.
         23    2    4    4    0    0  0.23512483608E+02 -0.46869518409E+02  0.16921756982E+03  0.20206706652E+03  0.97195292032E+02 0.  0.
          4    1    3    3  502    0  0.23633613014E+03 -0.42211136307E+01 -0.73923138432E+03  0.77610284355E+03  0.00000000000E+00 0.  1.
         -4    1    3    3    0  502  0.14296567356E+03  0.55222312728E+02 -0.35968097754E+03  0.39097198524E+03  0.00000000000E+00 0. -1.
         13    1    5    5    0    0 -0.14571136818E+02 -0.73663988974E+01 -0.42169240077E+02  0.45219759725E+02  0.00000000000E+00 0. -1.
        -13    1    5    5    0    0 -0.38824315048E+03  0.32347182092E+01 -0.28554896706E+03  0.48195582773E+03  0.00000000000E+00 0.  1.
          5    1    6    6  503    0  0.56945758601E+02 -0.13557175566E+02  0.12064300497E+03  0.13417690219E+03  0.47000000000E+01 0. -1.
         -5    1    6    6    0  503 -0.33433274993E+02 -0.33312342843E+02  0.48574564853E+02  0.67890164332E+02  0.47000000000E+01 0.  1.
<mgrwt>
<rscale>  0 0.45018673E+03</rscale>
<asrwt>0</asrwt>
<pdfrwt beam="1">  1        1 0.49146499E-01 0.45018673E+03</pdfrwt>
<pdfrwt beam="2">  1       -1 0.24259465E+00 0.45018673E+03</pdfrwt>
<totfact> 0.68711001E+00</totfact>
</mgrwt>
</event>
<event>
12    1  0.3166324E-008  0.7087217E+03  0.7818608E-02  0.9702432E-01
          1   -1    0    0  501    0  0.00000000000E+00  0.00000000000E+00  0.49143747304E+03  0.49143747304E+03  0.00000000000E+00 0. -1.
         -1   -1    0    0    0  501 -0.00000000000E+00 -0.00000000000E+00 -0.17225592128E+04  0.17225592128E+04  0.00000000000E+00 0.  1.
         23    2    1    2    0    0  0.61420407949E+03  0.13155608988E+03 -0.11848995228E+04  0.13440722540E+04  0.89385057923E+02 0.  0.
    5000000    2    1    2    0    0 -0.61420407949E+03 -0.13155608988E+03 -0.46222216943E+02  0.86992443191E+03  0.60006530299E+03 0.  0.
         23    2    4    4    0    0 -0.44779635029E+03 -0.29960151506E+03  0.12903759594E+03  0.56128441298E+03  0.90038058224E+02 0.  0.
         23    2    4    4    0    0 -0.16640772920E+03  0.16804542518E+03 -0.17525981289E+03  0.30864001893E+03  0.92800118604E+02 0.  0.
          2    1    3    3  502    0  0.25455081253E+03  0.19870396142E+02 -0.53865726705E+03  0.59610619872E+03  0.00000000000E+00 0. -1.
         -2    1    3    3    0  502  0.35965326696E+03  0.11168569374E+03 -0.64624225579E+03  0.74796605524E+03  0.00000000000E+00 0.  1.
         13    1    5    5    0    0 -0.30417752285E+03 -0.22452913136E+03  0.12823508827E+03  0.39922616911E+03  0.00000000000E+00 0. -1.
        -13    1    5    5    0    0 -0.14361882743E+03 -0.75072383701E+02  0.80250767929E+00  0.16205824387E+03  0.00000000000E+00 0.  1.
          5    1    6    6  503    0 -0.14839018916E+02  0.52474508470E+02 -0.76085505617E+02  0.93727608988E+02  0.47000000000E+01 0. -1.
         -5    1    6    6    0  503 -0.15156871029E+03  0.11557091671E+03 -0.99174307270E+02  0.21491240995E+03  0.47000000000E+01 0.  1.
<mgrwt>
<rscale>  0 0.70872168E+03</rscale>
<asrwt>0</asrwt>
<pdfrwt beam="1">  1        1 0.75605765E-01 0.70872168E+03</pdfrwt>
<pdfrwt beam="2">  1       -1 0.26500911E+00 0.70872168E+03</pdfrwt>
<totfact> 0.26601912E+00</totfact>
</mgrwt>
</event>
<event>
12    1  0.3166324E-008  0.1067019E+04  0.7818608E-02  0.9237948E-01
         -2   -1    0    0    0  501 -0.00000000000E+00  0.00000000000E+00  0.61473921366E+03  0.61473921366E+03  0.00000000000E+00 0. -1.
          2   -1    0    0  501    0  0.00000000000E+00 -0.00000000000E+00 -0.28401298237E+04  0.28401298237E+04  0.00000000000E+00 0.  1.
         23    2    1    2    0    0 -0.90436510597E+03  0.51762493302E+03 -0.19628663501E+04  0.22241513907E+04  0.90516762422E+02 0.  0.
    5000000    2    1    2    0    0  0.90436510597E+03 -0.51762493302E+03 -0.26252425991E+03  0.12307176466E+04  0.59994593296E+03 0.  0.
         23    2    4    4    0    0  0.25441730747E+03 -0.19741522088E+02  0.14793066198E+03  0.31031783510E+03  0.96414646154E+02 0.  0.
         23    2    4    4    0    0  0.64994779851E+03 -0.49788341093E+03 -0.41045492189E+03  0.92039981152E+03  0.91337497672E+02 0.  0.
          2    1    3    3  502    0 -0.48758733441E+03  0.29707221595E+03 -0.98455139526E+03  0.11381277433E+04  0.00000000000E+00 0. -1.
         -2    1    3    3    0  502 -0.41677777156E+03  0.22055271706E+03 -0.97831495482E+03  0.10860236474E+04  0.00000000000E+00 0.  1.
         11    1    5    5    0    0  0.16185794737E+03 -0.58840423519E+02  0.97229138681E+02  0.19777182806E+03  0.00000000000E+00 0. -1.
        -11    1    5    5    0    0  0.92559360094E+02  0.39098901431E+02  0.50701523302E+02  0.11254600703E+03  0.00000000000E+00 0.  1.
          5    1    6    6  503    0  0.48452769258E+03 -0.37557177564E+03 -0.34994100884E+03  0.70590512337E+03  0.47000000000E+01 0. -1.
         -5    1    6    6    0  503  0.16542010593E+03 -0.12231163529E+03 -0.60513913057E+02  0.21449468815E+03  0.47000000000E+01 0.  1.
<mgrwt>
<rscale>  0 0.10670187E+04</rscale>
<asrwt>0</asrwt>
<pdfrwt beam="1">  1        2 0.43694305E+00 0.10670187E+04</pdfrwt>
<pdfrwt beam="2">  1       -2 0.94575263E-01 0.10670187E+04</pdfrwt>
<totfact> 0.20718560E+00</totfact>
</mgrwt>
</event>
<event>
12    1  0.3166324E-008  0.5345943E+03  0.7818608E-02  0.1005124E+00
         -1   -1    0    0    0  501 -0.00000000000E+00  0.00000000000E+00  0.22368867217E+03  0.22368867217E+03  0.00000000000E+00 0.  1.
          1   -1    0    0  501    0  0.00000000000E+00 -0.00000000000E+00 -0.21148863325E+04  0.21148863325E+04  0.00000000000E+00 0. -1.
         23    2    1    2    0    0 -0.37666449675E+03  0.34068234977E+03 -0.39898563225E+03  0.65226689908E+03  0.91224812105E+02 0.  0.
    5000000    2    1    2    0    0  0.37666449675E+03 -0.34068234977E+03 -0.14922120281E+04  0.16863081056E+04  0.59916415421E+03 0.  0.
         23    2    4    4    0    0  0.34363774805E+03 -0.26651240985E+03 -0.14996490992E+04  0.15640493557E+04  0.90483146762E+02 0.  0.
         23    2    4    4    0    0  0.33026748703E+02 -0.74169939917E+02  0.74370710781E+01  0.12225874993E+03  0.91104038281E+02 0.  0.
          3    1    3    3  502    0 -0.18167814879E+03  0.16658062088E+03 -0.25141153278E+03  0.35208494971E+03  0.00000000000E+00 0. -1.
         -3    1    3    3    0  502 -0.19498634796E+03  0.17410172889E+03 -0.14757409947E+03  0.30018194937E+03  0.00000000000E+00 0.  1.
         13    1    5    5    0    0  0.29741357209E+03 -0.26335114212E+03 -0.13664014690E+04  0.14229763284E+04  0.00000000000E+00 0.  1.
        -13    1    5    5    0    0  0.46224175952E+02 -0.31612677329E+01 -0.13324763023E+03  0.14107302726E+03  0.00000000000E+00 0. -1.
          5    1    6    6  503    0  0.13600994450E+02  0.18203580292E+02 -0.11455370016E+02  0.25878038714E+02  0.47000000000E+01 0. -1.
         -5    1    6    6    0  503  0.19425754253E+02 -0.92373520209E+02  0.18892441094E+02  0.96380711216E+02  0.47000000000E+01 0.  1.
<mgrwt>
<rscale>  0 0.53459426E+03</rscale>
<asrwt>0</asrwt>
<pdfrwt beam="1">  1        1 0.32536712E+00 0.53459426E+03</pdfrwt>
<pdfrwt beam="2">  1       -1 0.34413643E-01 0.53459426E+03</pdfrwt>
<totfact> 0.21512559E+01</totfact>
</mgrwt>
</event>
<event>
12    1  0.3166324E-008  0.6917050E+03  0.7818608E-02  0.9731524E-01
         -2   -1    0    0    0  501 -0.00000000000E+00  0.00000000000E+00  0.78648311168E+03  0.78648311168E+03  0.00000000000E+00 0.  1.
          2   -1    0    0  501    0  0.00000000000E+00 -0.00000000000E+00 -0.94660395843E+03  0.94660395843E+03  0.00000000000E+00 0. -1.
         23    2    1    2    0    0 -0.55212620364E+03  0.82311672300E+02 -0.58172974940E+03  0.81139883371E+03  0.91323654491E+02 0.  0.
    5000000    2    1    2    0    0  0.55212620364E+03 -0.82311672300E+02  0.42160890265E+03  0.92168823640E+03  0.60011380770E+03 0.  0.
         23    2    4    4    0    0  0.65090403600E+03  0.14965179106E+02  0.33075112270E+03  0.73558276789E+03  0.88236514995E+02 0.  0.
         23    2    4    4    0    0 -0.98777832365E+02 -0.97276851405E+02  0.90857779945E+02  0.18610546851E+03  0.84618338717E+02 0.  0.
          1    1    3    3  502    0 -0.96343848999E+02 -0.19980689961E+02 -0.10801861731E+03  0.14611429395E+03  0.00000000000E+00 0. -1.
         -1    1    3    3    0  502 -0.45578235464E+03  0.10229236226E+03 -0.47371113209E+03  0.66528453976E+03  0.00000000000E+00 0.  1.
         13    1    5    5    0    0  0.10238845793E+03  0.31410988743E+02  0.70631291991E+02  0.12829195587E+03  0.00000000000E+00 0.  1.
        -13    1    5    5    0    0  0.54851557807E+03 -0.16445809637E+02  0.26011983071E+03  0.60729081202E+03  0.00000000000E+00 0. -1.
          5    1    6    6  503    0 -0.46490915732E+01 -0.60512582633E+02  0.40381950532E+02  0.73049152207E+02  0.47000000000E+01 0. -1.
         -5    1    6    6    0  503 -0.94128740792E+02 -0.36764268772E+02  0.50475829413E+02  0.11305631630E+03  0.47000000000E+01 0.  1.
<mgrwt>
<rscale>  0 0.69170499E+03</rscale>
<asrwt>0</asrwt>
<pdfrwt beam="1">  1        2 0.14563138E+00 0.69170499E+03</pdfrwt>
<pdfrwt beam="2">  1       -2 0.12099740E+00 0.69170499E+03</pdfrwt>
<totfact> 0.14523407E+01</totfact>
</mgrwt>
</event>
<event>
12    1  0.3166324E-008  0.1316220E+04  0.7818608E-02  0.9016801E-01
         -2   -1    0    0    0  501 -0.00000000000E+00  0.00000000000E+00  0.76390900459E+03  0.76390900459E+03  0.00000000000E+00 0.  1.
          2   -1    0    0  501    0  0.00000000000E+00 -0.00000000000E+00 -0.25280851761E+04  0.25280851761E+04  0.00000000000E+00 0. -1.
         23    2    1    2    0    0 -0.18395550119E+01  0.12565825581E+04 -0.13325913510E+04  0.18342431566E+04  0.98209669536E+02 0.  0.
    5000000    2    1    2    0    0  0.18395550119E+01 -0.12565825581E+04 -0.43158482043E+03  0.14577510241E+04  0.59980787066E+03 0.  0.
         23    2    4    4    0    0  0.23822116486E+03 -0.90773256229E+03 -0.40190457962E+03  0.10249654875E+04  0.91100117976E+02 0.  0.
         23    2    4    4    0    0 -0.23638160984E+03 -0.34884999581E+03 -0.29680240805E+02  0.43278553655E+03  0.94073476075E+02 0.  0.
          3    1    3    3  502    0 -0.39129727027E+02  0.68233827517E+03 -0.76792989797E+03  0.10280238254E+04  0.00000000000E+00 0. -1.
         -3    1    3    3    0  502  0.37290172015E+02  0.57424428293E+03 -0.56466145307E+03  0.80621933120E+03  0.00000000000E+00 0.  1.
         11    1    5    5    0    0  0.19298020742E+03 -0.83668361239E+03 -0.36545403865E+03  0.93318673483E+03  0.00000000000E+00 0. -1.
        -11    1    5    5    0    0  0.45240957432E+02 -0.71048949903E+02 -0.36450540970E+02  0.91778752709E+02  0.00000000000E+00 0.  1.
          5    1    6    6  503    0 -0.20634079456E+03 -0.34203811406E+03 -0.35598647589E+02  0.40106850871E+03  0.47000000000E+01 0. -1.
         -5    1    6    6    0  503 -0.30040815285E+02 -0.68118817516E+01  0.59184067842E+01  0.31717027838E+02  0.47000000000E+01 0.  1.
<mgrwt>
<rscale>  0 0.13162196E+04</rscale>
<asrwt>0</asrwt>
<pdfrwt beam="1">  1        2 0.38893618E+00 0.13162196E+04</pdfrwt>
<pdfrwt beam="2">  1       -2 0.11752446E+00 0.13162196E+04</pdfrwt>
<totfact> 0.18151748E+00</totfact>
</mgrwt>
</event>
<event>
12    1  0.3166324E-008  0.4777972E+03  0.7818608E-02  0.1019742E+00
         -1   -1    0    0    0  501 -0.00000000000E+00  0.00000000000E+00  0.23066961281E+03  0.23066961281E+03  0.00000000000E+00 0.  1.
          1   -1    0    0  501    0  0.00000000000E+00 -0.00000000000E+00 -0.13685066362E+04  0.13685066362E+04  0.00000000000E+00 0. -1.
         23    2    1    2    0    0 -0.25917810716E+03  0.26309889142E+03 -0.21129378867E+03  0.43513759436E+03  0.91133654594E+02 0.  0.
    5000000    2    1    2    0    0  0.25917810716E+03 -0.26309889142E+03 -0.92654323471E+03  0.11640386546E+04  0.60009108125E+03 0.  0.
         23    2    4    4    0    0  0.28418932824E+02 -0.33768175967E+03 -0.80462348959E+03  0.87768481091E+03  0.89861341781E+02 0.  0.
         23    2    4    4    0    0  0.23075917433E+03  0.74582868249E+02 -0.12191974512E+03  0.28635384372E+03  0.91223345630E+02 0.  0.
          4    1    3    3  502    0 -0.21559162839E+03  0.22733204692E+03 -0.21279174125E+03  0.37873464977E+03  0.00000000000E+00 0.  1.
         -4    1    3    3    0  502 -0.43586478765E+02  0.35766844502E+02  0.14979525858E+01  0.56402944592E+02  0.00000000000E+00 0. -1.
         11    1    5    5    0    0  0.41829759119E+01 -0.28449468567E+03 -0.58658806667E+03  0.65195113576E+03  0.00000000000E+00 0. -1.
        -11    1    5    5    0    0  0.24235956912E+02 -0.53187074001E+02 -0.21803542292E+03  0.22573367515E+03  0.00000000000E+00 0.  1.
          5    1    6    6  503    0  0.19441932475E+03  0.60374908801E+02 -0.58717325697E+02  0.21192880358E+03  0.47000000000E+01 0. -1.
         -5    1    6    6    0  503  0.36339849586E+02  0.14207959448E+02 -0.63202419424E+02  0.74425040145E+02  0.47000000000E+01 0.  1.
<mgrwt>
<rscale>  0 0.47779719E+03</rscale>
<asrwt>0</asrwt>
<pdfrwt beam="1">  1        1 0.21053948E+00 0.47779719E+03</pdfrwt>
<pdfrwt beam="2">  1       -1 0.35487633E-01 0.47779719E+03</pdfrwt>
<totfact> 0.64915842E+01</totfact>
</mgrwt>
</event>
<event>
12    1  0.3166324E-008  0.2055717E+04  0.7818608E-02  0.8581005E-01
          2   -1    0    0  501    0  0.00000000000E+00  0.00000000000E+00  0.24125741802E+04  0.24125741802E+04  0.00000000000E+00 0. -1.
         -2   -1    0    0    0  501 -0.00000000000E+00 -0.00000000000E+00 -0.18380905464E+04  0.18380905464E+04  0.00000000000E+00 0.  1.
         23    2    1    2    0    0  0.18120720815E+04 -0.97016781446E+03  0.11564127402E+03  0.20607000958E+04  0.91000900595E+02 0.  0.
    5000000    2    1    2    0    0 -0.18120720815E+04  0.97016781446E+03  0.45884235975E+03  0.21899646308E+04  0.60048143706E+03 0.  0.
         23    2    4    4    0    0 -0.13769676974E+04  0.72494779845E+03  0.58847698451E+03  0.16661339637E+04  0.90043729862E+02 0.  0.
         23    2    4    4    0    0 -0.43510438402E+03  0.24522001601E+03 -0.12963462476E+03  0.52383066710E+03  0.90248272079E+02 0.  0.
          1    1    3    3  502    0  0.98746455996E+03 -0.51945309248E+03  0.10743070866E+03  0.11209188774E+04  0.00000000000E+00 0. -1.
         -1    1    3    3    0  502  0.82460752150E+03 -0.45071472198E+03  0.82105653510E+01  0.93978121843E+03  0.00000000000E+00 0.  1.
         11    1    5    5    0    0 -0.27502467138E+03  0.14094063890E+03  0.15570960131E+03  0.34604669266E+03  0.00000000000E+00 0.  1.
        -11    1    5    5    0    0 -0.11019430261E+04  0.58400715955E+03  0.43276738320E+03  0.13200872710E+04  0.00000000000E+00 0. -1.
          5    1    6    6  503    0 -0.79563955500E+02  0.50668085191E+02  0.10376698886E+02  0.95012860980E+02  0.47000000000E+01 0. -1.
         -5    1    6    6    0  503 -0.35554042852E+03  0.19455193081E+03 -0.14001132365E+03  0.42881780612E+03  0.47000000000E+01 0.  1.
<mgrwt>
<rscale>  0 0.20557172E+04</rscale>
<asrwt>0</asrwt>
<pdfrwt beam="1">  1        2 0.37116526E+00 0.20557172E+04</pdfrwt>
<pdfrwt beam="2">  1       -2 0.28278316E+00 0.20557172E+04</pdfrwt>
<totfact> 0.13992276E-01</totfact>
</mgrwt>
</event>
<event>
12    1  0.3166324E-008  0.3342586E+03  0.7818608E-02  0.1069268E+00
          1   -1    0    0  501    0  0.00000000000E+00  0.00000000000E+00  0.22819904228E+04  0.22819904228E+04  0.00000000000E+00 0. -1.
         -1   -1    0    0    0  501 -0.00000000000E+00 -0.00000000000E+00 -0.10534497302E+03  0.10534497302E+03  0.00000000000E+00 0.  1.
         23    2    1    2    0    0 -0.29342873221E+03 -0.43598710402E+02  0.63398139304E+03  0.70572634003E+03  0.90088799846E+02 0.  0.
    5000000    2    1    2    0    0  0.29342873221E+03  0.43598710402E+02  0.15426640567E+04  0.16816090558E+04  0.59999613010E+03 0.  0.
         23    2    4    4    0    0  0.10372287127E+03 -0.76454284581E+02  0.13832409373E+04  0.13921200150E+04  0.89660213979E+02 0.  0.
         23    2    4    4    0    0  0.18970586094E+03  0.12005299498E+03  0.15942311947E+03  0.28948904079E+03  0.89370791865E+02 0.  0.
          4    1    3    3  502    0 -0.23034666204E+03 -0.63923729629E+00  0.51773012061E+03  0.56666080782E+03  0.00000000000E+00 0. -1.
         -4    1    3    3    0  502 -0.63082070168E+02 -0.42959473105E+02  0.11625127243E+03  0.13906553221E+03  0.00000000000E+00 0.  1.
         11    1    5    5    0    0  0.55604877974E+02 -0.37062334483E+02  0.31201909137E+03  0.31909470768E+03  0.00000000000E+00 0. -1.
        -11    1    5    5    0    0  0.48117993301E+02 -0.39391950098E+02  0.10712218459E+04  0.10730253073E+04  0.00000000000E+00 0.  1.
          5    1    6    6  503    0  0.15853156641E+03  0.69276868315E+02  0.81543880467E+02  0.19131920048E+03  0.47000000000E+01 0. -1.
         -5    1    6    6    0  503  0.31174294529E+02  0.50776126668E+02  0.77879239003E+02  0.98169840310E+02  0.47000000000E+01 0.  1.
<mgrwt>
<rscale>  0 0.33425860E+03</rscale>
<asrwt>0</asrwt>
<pdfrwt beam="1">  1        1 0.35107541E+00 0.33425860E+03</pdfrwt>
<pdfrwt beam="2">  1       -1 0.16206921E-01 0.33425860E+03</pdfrwt>
<totfact> 0.61878501E+01</totfact>
</mgrwt>
</event>
<event>
12    1  0.3166324E-008  0.6924426E+03  0.7818608E-02  0.9730244E-01
          1   -1    0    0  501    0  0.00000000000E+00  0.00000000000E+00  0.70533640088E+03  0.70533640088E+03  0.00000000000E+00 0. -1.
         -1   -1    0    0    0  501 -0.00000000000E+00 -0.00000000000E+00 -0.11474096484E+04  0.11474096484E+04  0.00000000000E+00 0.  1.
         23    2    1    2    0    0  0.59597520116E+03 -0.50623758026E+02 -0.73936553130E+03  0.95515644661E+03  0.88956412709E+02 0.  0.
    5000000    2    1    2    0    0 -0.59597520116E+03  0.50623758026E+02  0.29729228374E+03  0.89758960270E+03  0.59961253125E+03 0.  0.
         23    2    4    4    0    0 -0.48972556467E+03  0.25042299342E+03  0.66735196661E+02  0.56143101210E+03  0.90600168610E+02 0.  0.
         23    2    4    4    0    0 -0.10624963649E+03 -0.19979923539E+03  0.23055708708E+03  0.33615859060E+03  0.92937118076E+02 0.  0.
          4    1    3    3  502    0  0.45895983823E+03 -0.58441027309E+02 -0.51645636424E+03  0.69338781569E+03  0.00000000000E+00 0. -1.
         -4    1    3    3    0  502  0.13701536293E+03  0.78172692828E+01 -0.22290916706E+03  0.26176863093E+03  0.00000000000E+00 0.  1.
         11    1    5    5    0    0 -0.48015079293E+03  0.22641368549E+03  0.69705883677E+02  0.53541278575E+03  0.00000000000E+00 0. -1.
        -11    1    5    5    0    0 -0.95747717396E+01  0.24009307925E+02 -0.29706870155E+01  0.26018226347E+02  0.00000000000E+00 0.  1.
          5    1    6    6  503    0 -0.94582085431E+02 -0.15404081503E+03  0.12326330197E+03  0.21883846826E+03  0.47000000000E+01 0. -1.
         -5    1    6    6    0  503 -0.11667551059E+02 -0.45758420357E+02  0.10729378512E+03  0.11732012234E+03  0.47000000000E+01 0.  1.
<mgrwt>
<rscale>  0 0.69244256E+03</rscale>
<asrwt>0</asrwt>
<pdfrwt beam="1">  1        1 0.10851329E+00 0.69244256E+03</pdfrwt>
<pdfrwt beam="2">  1       -1 0.17652456E+00 0.69244256E+03</pdfrwt>
<totfact> 0.61937932E+00</totfact>
</mgrwt>
</event>
<event>
12    1  0.3166324E-008  0.8232885E+03  0.7818608E-02  0.9526907E-01
         -1   -1    0    0    0  501 -0.00000000000E+00  0.00000000000E+00  0.13841001277E+04  0.13841001277E+04  0.00000000000E+00 0.  1.
          1   -1    0    0  501    0  0.00000000000E+00 -0.00000000000E+00 -0.74008730107E+03  0.74008730107E+03  0.00000000000E+00 0. -1.
         23    2    1    2    0    0 -0.17918349434E+03 -0.75516562144E+03  0.81426882884E+03  0.11284553461E+04  0.89419807527E+02 0.  0.
    5000000    2    1    2    0    0  0.17918349434E+03  0.75516562144E+03 -0.17025600222E+03  0.99573208270E+03  0.60009452070E+03 0.  0.
         23    2    4    4    0    0 -0.90451857902E+02  0.41902958653E+03  0.13642868113E+03  0.45908362194E+03  0.91529524804E+02 0.  0.
         23    2    4    4    0    0  0.26963535224E+03  0.33613603491E+03 -0.30668468335E+03  0.53664846076E+03  0.90804285627E+02 0.  0.
          4    1    3    3  502    0 -0.15313872564E+03 -0.51668016519E+03  0.60384231644E+03  0.80934257612E+03  0.00000000000E+00 0. -1.
         -4    1    3    3    0  502 -0.26044768704E+02 -0.23848545624E+03  0.21042651240E+03  0.31911276994E+03  0.00000000000E+00 0.  1.
         13    1    5    5    0    0 -0.89935384635E+02  0.22429021953E+03  0.53957092210E+02  0.24760016920E+03  0.00000000000E+00 0. -1.
        -13    1    5    5    0    0 -0.51647326661E+00  0.19473936699E+03  0.82471588923E+02  0.21148345274E+03  0.00000000000E+00 0.  1.
          5    1    6    6  503    0  0.18007161116E+03  0.23729276401E+03 -0.15938436959E+03  0.33787439717E+03  0.47000000000E+01 0.  1.
         -5    1    6    6    0  503  0.89563741085E+02  0.98843270903E+02 -0.14730031377E+03  0.19877406359E+03  0.47000000000E+01 0. -1.
<mgrwt>
<rscale>  0 0.82328849E+03</rscale>
<asrwt>0</asrwt>
<pdfrwt beam="1">  1        1 0.11385958E+00 0.82328849E+03</pdfrwt>
<pdfrwt beam="2">  1       -1 0.21293848E+00 0.82328849E+03</pdfrwt>
<totfact> 0.31580716E+00</totfact>
</mgrwt>
</event>
<event>
12    1  0.3166324E-008  0.4878699E+03  0.7818608E-02  0.1016994E+00
          1   -1    0    0  501    0  0.00000000000E+00  0.00000000000E+00  0.41850444570E+03  0.41850444570E+03  0.00000000000E+00 0. -1.
         -1   -1    0    0    0  501 -0.00000000000E+00 -0.00000000000E+00 -0.65849326382E+03  0.65849326382E+03  0.00000000000E+00 0.  1.
         23    2    1    2    0    0  0.34010531897E+03 -0.48608097889E+02 -0.44187798074E+02  0.35844493489E+03  0.92172852188E+02 0.  0.
    5000000    2    1    2    0    0 -0.34010531897E+03  0.48608097889E+02 -0.19580102004E+03  0.71855277463E+03  0.59995472772E+03 0.  0.
         23    2    4    4    0    0  0.79808112746E+02  0.16495452651E+03  0.49340368470E+02  0.21000718355E+03  0.89940060628E+02 0.  0.
         23    2    4    4    0    0 -0.41991343171E+03 -0.11634642863E+03 -0.24514138851E+03  0.50854559108E+03  0.93062002214E+02 0.  0.
          3    1    3    3  502    0  0.87440024981E+02  0.14699189734E+02  0.18398719317E+02  0.90555712244E+02  0.00000000000E+00 0. -1.
         -3    1    3    3    0  502  0.25266529398E+03 -0.63307287623E+02 -0.62586517391E+02  0.26788922265E+03  0.00000000000E+00 0.  1.
         11    1    5    5    0    0  0.44455286213E+02  0.10114422112E+03  0.74031378020E+02  0.13299274743E+03  0.00000000000E+00 0. -1.
        -11    1    5    5    0    0  0.35352826533E+02  0.63810305398E+02 -0.24691009550E+02  0.77014436124E+02  0.00000000000E+00 0.  1.
          5    1    6    6  503    0 -0.10995315440E+03  0.52389371006E+01 -0.38805141408E+02  0.11681212105E+03  0.47000000000E+01 0. -1.
         -5    1    6    6    0  503 -0.30996027731E+03 -0.12158536573E+03 -0.20633624711E+03  0.39173347002E+03  0.47000000000E+01 0.  1.
<mgrwt>
<rscale>  0 0.48786989E+03</rscale>
<asrwt>0</asrwt>
<pdfrwt beam="1">  1        1 0.64385300E-01 0.48786989E+03</pdfrwt>
<pdfrwt beam="2">  1       -1 0.10130666E+00 0.48786989E+03</pdfrwt>
<totfact> 0.54707960E+01</totfact>
</mgrwt>
</event>
<event>
12    1  0.3166324E-008  0.1136478E+04  0.7818608E-02  0.9170350E-01
          2   -1    0    0  501    0  0.00000000000E+00  0.00000000000E+00  0.10071359282E+04  0.10071359282E+04  0.00000000000E+00 0. -1.
         -2   -1    0    0    0  501 -0.00000000000E+00 -0.00000000000E+00 -0.13175881161E+04  0.13175881161E+04  0.00000000000E+00 0.  1.
         23    2    1    2    0    0 -0.72226440189E+03  0.79137318714E+03 -0.16964659723E+03  0.10886661388E+04  0.92068487123E+02 0.  0.
    5000000    2    1    2    0    0  0.72226440189E+03 -0.79137318714E+03 -0.14080559072E+03  0.12360579055E+04  0.60006294983E+03 0.  0.
         23    2    4    4    0    0  0.15035006383E+03  0.69586966658E+02 -0.33890755696E+01  0.18934900437E+03  0.91619168302E+02 0.  0.
         23    2    4    4    0    0  0.57191433805E+03 -0.86096015380E+03 -0.13741651515E+03  0.10467089011E+04  0.91530478656E+02 0.  0.
          1    1    3    3  502    0 -0.56336071410E+03  0.58283946605E+03 -0.95518998255E+02  0.81621137973E+03  0.00000000000E+00 0. -1.
         -1    1    3    3    0  502 -0.15890368779E+03  0.20853372109E+03 -0.74127598980E+02  0.27245475910E+03  0.00000000000E+00 0.  1.
         11    1    5    5    0    0  0.62072079422E+02  0.30701936967E+02  0.43824192578E+02  0.81951887303E+02  0.00000000000E+00 0. -1.
        -11    1    5    5    0    0  0.88277984409E+02  0.38885029690E+02 -0.47213268148E+02  0.10739711707E+03  0.00000000000E+00 0.  1.
          5    1    6    6  503    0  0.23285458905E+03 -0.38734593411E+03 -0.19436781211E+02  0.45239143535E+03  0.47000000000E+01 0. -1.
         -5    1    6    6    0  503  0.33905974900E+03 -0.47361421968E+03 -0.11797973394E+03  0.59431746575E+03  0.47000000000E+01 0.  1.
<mgrwt>
<rscale>  0 0.11364778E+04</rscale>
<asrwt>0</asrwt>
<pdfrwt beam="1">  1        2 0.15494399E+00 0.11364778E+04</pdfrwt>
<pdfrwt beam="2">  1       -2 0.20270586E+00 0.11364778E+04</pdfrwt>
<totfact> 0.31135834E+00</totfact>
</mgrwt>
</event>
<event>
12    1  0.3166324E-008  0.1691939E+04  0.7818608E-02  0.8765975E-01
         -2   -1    0    0    0  501 -0.00000000000E+00  0.00000000000E+00  0.11136680845E+04  0.11136680845E+04  0.00000000000E+00 0.  1.
          2   -1    0    0  501    0  0.00000000000E+00 -0.00000000000E+00 -0.27177883563E+04  0.27177883563E+04  0.00000000000E+00 0. -1.
         23    2    1    2    0    0  0.16741005136E+04  0.20583254273E+03 -0.79122605234E+03  0.18652905342E+04  0.91052434349E+02 0.  0.
    5000000    2    1    2    0    0 -0.16741005136E+04 -0.20583254273E+03 -0.81289421946E+03  0.19661659066E+04  0.60002649495E+03 0.  0.
         23    2    4    4    0    0 -0.31728744489E+03 -0.77600497501E+02 -0.43144146190E+03  0.54802323951E+03  0.86571219849E+02 0.  0.
         23    2    4    4    0    0 -0.13568130688E+04 -0.12823204523E+03 -0.38145275756E+03  0.14181426670E+04  0.90759334881E+02 0.  0.
          4    1    3    3  502    0  0.11393628583E+04  0.97426163716E+02 -0.53077436169E+03  0.12606986171E+04  0.00000000000E+00 0. -1.
         -4    1    3    3    0  502  0.53473765536E+03  0.10840637902E+03 -0.26045169065E+03  0.60459191710E+03  0.00000000000E+00 0.  1.
         11    1    5    5    0    0 -0.29384635460E+03 -0.54367926683E+02 -0.35042477786E+03  0.46054215497E+03  0.00000000000E+00 0.  1.
        -11    1    5    5    0    0 -0.23441090285E+02 -0.23232570819E+02 -0.81016684036E+02  0.87481084543E+02  0.00000000000E+00 0. -1.
          5    1    6    6  503    0 -0.10314547167E+04 -0.98003621408E+02 -0.24959356734E+03  0.10657497743E+04  0.47000000000E+01 0. -1.
         -5    1    6    6    0  503 -0.32535835203E+03 -0.30228423822E+02 -0.13185919023E+03  0.35239289279E+03  0.47000000000E+01 0.  1.
<mgrwt>
<rscale>  0 0.16919388E+04</rscale>
<asrwt>0</asrwt>
<pdfrwt beam="1">  1        2 0.41812128E+00 0.16919388E+04</pdfrwt>
<pdfrwt beam="2">  1       -2 0.17133355E+00 0.16919388E+04</pdfrwt>
<totfact> 0.49961946E-01</totfact>
</mgrwt>
</event>
<event>
12    1  0.3166324E-008  0.8528976E+03  0.7818608E-02  0.9486456E-01
         -2   -1    0    0    0  501 -0.00000000000E+00  0.00000000000E+00  0.11423600313E+04  0.11423600313E+04  0.00000000000E+00 0.  1.
          2   -1    0    0  501    0  0.00000000000E+00 -0.00000000000E+00 -0.97721264461E+03  0.97721264461E+03  0.00000000000E+00 0. -1.
         23    2    1    2    0    0  0.47956953920E+02  0.78556125351E+03 -0.49124557402E+03  0.93228075372E+03  0.91754222359E+02 0.  0.
    5000000    2    1    2    0    0 -0.47956953920E+02 -0.78556125351E+03  0.65639296067E+03  0.11872919222E+04  0.59950315861E+03 0.  0.
         23    2    4    4    0    0  0.19232266751E+03 -0.47378871480E+03  0.15281014528E+03  0.54211020644E+03  0.95230146093E+02 0.  0.
         23    2    4    4    0    0 -0.24027962143E+03 -0.31177253871E+03  0.50358281540E+03  0.64518171572E+03  0.87905528672E+02 0.  0.
          3    1    3    3  502    0 -0.67443020795E+01  0.15399371465E+03 -0.59185883626E+02  0.16511365353E+03  0.00000000000E+00 0. -1.
         -3    1    3    3    0  502  0.54701255999E+02  0.63156753885E+03 -0.43205969039E+03  0.76716710018E+03  0.00000000000E+00 0.  1.
         11    1    5    5    0    0  0.17135175432E+03 -0.35138083557E+03  0.83019693095E+02  0.39965258007E+03  0.00000000000E+00 0.  1.
        -11    1    5    5    0    0  0.20970913191E+02 -0.12240787923E+03  0.69790452181E+02  0.14245762638E+03  0.00000000000E+00 0. -1.
          5    1    6    6  503    0 -0.20744438604E+03 -0.30476104816E+03  0.47117329705E+03  0.59827989740E+03  0.47000000000E+01 0. -1.
         -5    1    6    6    0  503 -0.32835235388E+02 -0.70114905481E+01  0.32409518344E+02  0.46901818322E+02  0.47000000000E+01 0.  1.
<mgrwt>
<rscale>  0 0.85289758E+03</rscale>
<asrwt>0</asrwt>
<pdfrwt beam="1">  1        2 0.15034041E+00 0.85289758E+03</pdfrwt>
<pdfrwt beam="2">  1       -2 0.17574770E+00 0.85289758E+03</pdfrwt>
<totfact> 0.50954910E+00</totfact>
</mgrwt>
</event>
<event>
12    1  0.3166324E-008  0.1215091E+04  0.7818608E-02  0.9099749E-01
         -2   -1    0    0    0  501 -0.00000000000E+00  0.00000000000E+00  0.87370021320E+03  0.87370021320E+03  0.00000000000E+00 0.  1.
          2   -1    0    0  501    0  0.00000000000E+00 -0.00000000000E+00 -0.20077523042E+04  0.20077523042E+04  0.00000000000E+00 0. -1.
         23    2    1    2    0    0 -0.31985545421E+03  0.11460666790E+04 -0.97178693985E+03  0.15390412843E+04  0.92205606251E+02 0.  0.
    5000000    2    1    2    0    0  0.31985545421E+03 -0.11460666790E+04 -0.16226515120E+03  0.13424112332E+04  0.59996799522E+03 0.  0.
         23    2    4    4    0    0 -0.26148787584E+02 -0.45029421301E+03 -0.29812747572E+03  0.54824618722E+03  0.90803373636E+02 0.  0.
         23    2    4    4    0    0  0.34600424179E+03 -0.69577246603E+03  0.13586232451E+03  0.79416504597E+03  0.91767582424E+02 0.  0.
          1    1    3    3  502    0 -0.11856937826E+03  0.58820130748E+03 -0.47062761171E+03  0.76258102814E+03  0.00000000000E+00 0. -1.
         -1    1    3    3    0  502 -0.20128607595E+03  0.55786537156E+03 -0.50115932814E+03  0.77646025612E+03  0.00000000000E+00 0.  1.
         13    1    5    5    0    0 -0.25312181275E+02 -0.28986380989E+02 -0.19532442597E+02  0.43155916368E+02  0.00000000000E+00 0. -1.
        -13    1    5    5    0    0 -0.83660630881E+00 -0.42130783202E+03 -0.27859503312E+03  0.50509027085E+03  0.00000000000E+00 0.  1.
          5    1    6    6  503    0  0.13306184663E+03 -0.24995737143E+03  0.58689036776E+01  0.28326785308E+03  0.47000000000E+01 0. -1.
         -5    1    6    6    0  503  0.21294239516E+03 -0.44581509460E+03  0.12999342084E+03  0.51089719288E+03  0.47000000000E+01 0.  1.
<mgrwt>
<rscale>  0 0.12150910E+04</rscale>
<asrwt>0</asrwt>
<pdfrwt beam="1">  1        2 0.30888497E+00 0.12150910E+04</pdfrwt>
<pdfrwt beam="2">  1       -2 0.13441542E+00 0.12150910E+04</pdfrwt>
<totfact> 0.25681123E+00</totfact>
</mgrwt>
</event>
<event>
12    1  0.3166324E-008  0.7147385E+03  0.7818608E-02  0.9692354E-01
          2   -1    0    0  501    0  0.00000000000E+00  0.00000000000E+00  0.19718201080E+04  0.19718201080E+04  0.00000000000E+00 0. -1.
         -2   -1    0    0    0  501 -0.00000000000E+00 -0.00000000000E+00 -0.36688901871E+03  0.36688901871E+03  0.00000000000E+00 0.  1.
         23    2    1    2    0    0 -0.27941402858E+03  0.56425328664E+03  0.12436213986E+04  0.13968481417E+04  0.90202975900E+02 0.  0.
    5000000    2    1    2    0    0  0.27941402858E+03 -0.56425328664E+03  0.36130969068E+03  0.94186098508E+03  0.60008620363E+03 0.  0.
         23    2    4    4    0    0  0.10363461645E+03  0.55885409193E+02 -0.62859596881E+02  0.16486049251E+03  0.96769521984E+02 0.  0.
         23    2    4    4    0    0  0.17577941213E+03 -0.62013869584E+03  0.42416928756E+03  0.77700049257E+03  0.91322380270E+02 0.  0.
          2    1    3    3  502    0 -0.13183076337E+03  0.17300722254E+03  0.40205841423E+03  0.45712341624E+03  0.00000000000E+00 0. -1.
         -2    1    3    3    0  502 -0.14758326521E+03  0.39124606411E+03  0.84156298440E+03  0.93972472541E+03  0.00000000000E+00 0.  1.
         13    1    5    5    0    0  0.31238577139E+02  0.62751838554E+02 -0.21516220657E+01  0.70130388713E+02  0.00000000000E+00 0. -1.
        -13    1    5    5    0    0  0.72396039310E+02 -0.68664293616E+01 -0.60707974815E+02  0.94730103801E+02  0.00000000000E+00 0.  1.
          5    1    6    6  503    0  0.32396522637E+02 -0.27903035520E+03  0.18565465308E+03  0.33674502819E+03  0.47000000000E+01 0. -1.
         -5    1    6    6    0  503  0.14338288949E+03 -0.34110834064E+03  0.23851463448E+03  0.44025546438E+03  0.47000000000E+01 0.  1.
<mgrwt>
<rscale>  0 0.71473847E+03</rscale>
<asrwt>0</asrwt>
<pdfrwt beam="1">  1        2 0.30335693E+00 0.71473847E+03</pdfrwt>
<pdfrwt beam="2">  1       -2 0.56444465E-01 0.71473847E+03</pdfrwt>
<totfact> 0.21183098E+01</totfact>
</mgrwt>
</event>
<event>
12    1  0.4043827E-008  0.8644385E+03  0.7818608E-02  0.9471160E-01
          2   -1    0    0  501    0  0.00000000000E+00  0.00000000000E+00  0.25583147670E+04  0.25583147670E+04  0.00000000000E+00 0. -1.
         -2   -1    0    0    0  501 -0.00000000000E+00 -0.00000000000E+00 -0.38968157214E+03  0.38968157214E+03  0.00000000000E+00 0.  1.
         23    2    1    2    0    0 -0.44031302293E+03 -0.65312240913E+03  0.32883153362E+03  0.85855697528E+03  0.92441672520E+02 0.  0.
    5000000    2    1    2    0    0  0.44031302293E+03  0.65312240913E+03  0.18398016612E+04  0.20894393638E+04  0.60036843943E+03 0.  0.
         23    2    4    4    0    0  0.16647752280E+03 -0.49542201407E+02  0.63886174796E+03  0.66841140031E+03  0.91979735451E+02 0.  0.
         23    2    4    4    0    0  0.27383550013E+03  0.70266461054E+03  0.12009399132E+04  0.14210279635E+04  0.91325581577E+02 0.  0.
          4    1    3    3  502    0 -0.14038555894E+03 -0.26591878699E+03  0.91555418927E+02  0.31432992407E+03  0.00000000000E+00 0. -1.
         -4    1    3    3    0  502 -0.29992746400E+03 -0.38720362214E+03  0.23727611469E+03  0.54422705120E+03  0.00000000000E+00 0.  1.
         13    1    5    5    0    0  0.51234847231E+02 -0.46053218609E+02  0.13541520964E+03  0.15193152246E+03  0.00000000000E+00 0.  1.
        -13    1    5    5    0    0  0.11524267557E+03 -0.34889827978E+01  0.50344653832E+03  0.51647987784E+03  0.00000000000E+00 0. -1.
          5    1    6    6  503    0  0.15422509657E+03  0.38927296195E+03  0.58148182590E+03  0.71656264427E+03  0.47000000000E+01 0. -1.
         -5    1    6    6    0  503  0.11961040357E+03  0.31339164859E+03  0.61945808735E+03  0.70446531926E+03  0.47000000000E+01 0.  1.
<mgrwt>
<rscale>  0 0.86443852E+03</rscale>
<asrwt>0</asrwt>
<pdfrwt beam="1">  1        2 0.39358688E+00 0.86443852E+03</pdfrwt>
<pdfrwt beam="2">  1       -2 0.59951013E-01 0.86443852E+03</pdfrwt>
<totfact> 0.86168091E+00</totfact>
</mgrwt>
</event>
<event>
12    1  0.3166324E-008  0.8863243E+03  0.7818608E-02  0.9442840E-01
          2   -1    0    0  501    0  0.00000000000E+00  0.00000000000E+00  0.27928072399E+04  0.27928072399E+04  0.00000000000E+00 0. -1.
         -2   -1    0    0    0  501 -0.00000000000E+00 -0.00000000000E+00 -0.39491448340E+03  0.39491448340E+03  0.00000000000E+00 0.  1.
         23    2    1    2    0    0  0.14232236303E+03 -0.80932124827E+03  0.18637299067E+04  0.20387781433E+04  0.88716484809E+02 0.  0.
    5000000    2    1    2    0    0 -0.14232236303E+03  0.80932124827E+03  0.53416284986E+03  0.11489435800E+04  0.59957056463E+03 0.  0.
         23    2    4    4    0    0  0.14590952633E+03  0.10060520441E+03 -0.18688437152E+02  0.20069652063E+03  0.92297555119E+02 0.  0.
         23    2    4    4    0    0 -0.28823188936E+03  0.70871604387E+03  0.55285128701E+03  0.94824705939E+03  0.90398491269E+02 0.  0.
          3    1    3    3  502    0  0.79911463382E+02 -0.59412396496E+03  0.14306033521E+04  0.15511270350E+04  0.00000000000E+00 0. -1.
         -3    1    3    3    0  502  0.62410899648E+02 -0.21519728331E+03  0.43312655454E+03  0.48765110826E+03  0.00000000000E+00 0.  1.
         11    1    5    5    0    0  0.32687104270E+01  0.89618928231E+01  0.24030158243E+02  0.25854370926E+02  0.00000000000E+00 0. -1.
        -11    1    5    5    0    0  0.14264081590E+03  0.91643311584E+02 -0.42718595395E+02  0.17484214970E+03  0.00000000000E+00 0.  1.
          5    1    6    6  503    0 -0.62524761459E+02  0.26334484379E+03  0.20866521722E+03  0.34179396634E+03  0.47000000000E+01 0. -1.
         -5    1    6    6    0  503 -0.22570712790E+03  0.44537120008E+03  0.34418606979E+03  0.60645309306E+03  0.47000000000E+01 0.  1.
<mgrwt>
<rscale>  0 0.88632428E+03</rscale>
<asrwt>0</asrwt>
<pdfrwt beam="1">  1        2 0.42966264E+00 0.88632428E+03</pdfrwt>
<pdfrwt beam="2">  1       -2 0.60756076E-01 0.88632428E+03</pdfrwt>
<totfact> 0.60946649E+00</totfact>
</mgrwt>
</event>
<event>
12    1  0.3166324E-008  0.2122679E+04  0.7818608E-02  0.8551318E-01
         -1   -1    0    0    0  501 -0.00000000000E+00  0.00000000000E+00  0.13430028949E+04  0.13430028949E+04  0.00000000000E+00 0.  1.
          1   -1    0    0  501    0  0.00000000000E+00 -0.00000000000E+00 -0.42499668571E+04  0.42499668571E+04  0.00000000000E+00 0. -1.
         23    2    1    2    0    0 -0.13145447503E+04  0.16531415016E+04 -0.26391671031E+04  0.33814937890E+04  0.91610708353E+02 0.  0.
    5000000    2    1    2    0    0  0.13145447503E+04 -0.16531415016E+04 -0.26779685904E+03  0.22114759630E+04  0.59833606981E+03 0.  0.
         23    2    4    4    0    0  0.34385598496E+03 -0.27022840936E+03 -0.26126301069E+03  0.51927119975E+03  0.10061752588E+03 0.  0.
         23    2    4    4    0    0  0.97068876534E+03 -0.13829130923E+04 -0.65338483531E+01  0.16922047633E+04  0.93962597896E+02 0.  0.
          3    1    3    3  502    0 -0.43834021254E+03  0.53950660878E+03 -0.93726910284E+03  0.11669116907E+04  0.00000000000E+00 0. -1.
         -3    1    3    3    0  502 -0.87620453776E+03  0.11136348928E+04 -0.17018980002E+04  0.22145820982E+04  0.00000000000E+00 0.  1.
         11    1    5    5    0    0  0.28337379238E+03 -0.19246877634E+03 -0.24061760843E+03  0.41861888343E+03  0.00000000000E+00 0.  1.
        -11    1    5    5    0    0  0.60482192579E+02 -0.77759633019E+02 -0.20645402260E+02  0.10065231632E+03  0.00000000000E+00 0. -1.
          5    1    6    6  503    0  0.85234662329E+02 -0.81170704010E+02 -0.35914604436E+01  0.11784998702E+03  0.47000000000E+01 0. -1.
         -5    1    6    6    0  503  0.88545410301E+03 -0.13017423883E+04 -0.29423879096E+01  0.15743547763E+04  0.47000000000E+01 0.  1.
<mgrwt>
<rscale>  0 0.21226793E+04</rscale>
<asrwt>0</asrwt>
<pdfrwt beam="1">  1        1 0.65384104E+00 0.21226793E+04</pdfrwt>
<pdfrwt beam="2">  1       -1 0.20661583E+00 0.21226793E+04</pdfrwt>
<totfact> 0.67996319E-03</totfact>
</mgrwt>
</event>
<event>
12    1  0.3166324E-008  0.6454079E+03  0.7818608E-02  0.9815434E-01
          2   -1    0    0  501    0  0.00000000000E+00  0.00000000000E+00  0.21440333811E+04  0.21440333811E+04  0.00000000000E+00 0. -1.
         -2   -1    0    0    0  501 -0.00000000000E+00 -0.00000000000E+00 -0.26033749248E+03  0.26033749248E+03  0.00000000000E+00 0.  1.
         23    2    1    2    0    0  0.46783780546E+03  0.26760736453E+03  0.12956822715E+04  0.14063481843E+04  0.92394550776E+02 0.  0.
    5000000    2    1    2    0    0 -0.46783780546E+03 -0.26760736453E+03  0.58801361711E+03  0.99802268927E+03  0.59983611147E+03 0.  0.
         23    2    4    4    0    0 -0.44435424709E+03  0.25706107545E+02  0.18484562738E+03  0.49063664867E+03  0.91896214206E+02 0.  0.
         23    2    4    4    0    0 -0.23483558378E+02 -0.29331347207E+03  0.40316798973E+03  0.50738604060E+03  0.91169599359E+02 0.  0.
          3    1    3    3  502    0  0.22116392139E+03  0.15091228993E+03  0.53624533331E+03  0.59937221897E+03  0.00000000000E+00 0. -1.
         -3    1    3    3    0  502  0.24667388408E+03  0.11669507460E+03  0.75943693823E+03  0.80697596536E+03  0.00000000000E+00 0.  1.
         13    1    5    5    0    0 -0.27424358985E+03  0.44640767331E+02  0.15074563359E+03  0.31611167445E+03  0.00000000000E+00 0. -1.
        -13    1    5    5    0    0 -0.17011065724E+03 -0.18934659786E+02  0.34099993791E+02  0.17452497421E+03  0.00000000000E+00 0.  1.
          5    1    6    6  503    0 -0.39941175988E+02 -0.11108685304E+03  0.21219674469E+03  0.24286855481E+03  0.47000000000E+01 0. -1.
         -5    1    6    6    0  503  0.16457617611E+02 -0.18222661903E+03  0.19097124504E+03  0.26451748579E+03  0.47000000000E+01 0.  1.
<mgrwt>
<rscale>  0 0.64540791E+03</rscale>
<asrwt>0</asrwt>
<pdfrwt beam="1">  1        2 0.32985128E+00 0.64540791E+03</pdfrwt>
<pdfrwt beam="2">  1       -2 0.40051923E-01 0.64540791E+03</pdfrwt>
<totfact> 0.34401361E+01</totfact>
</mgrwt>
</event>
<event>
12    1  0.3166324E-008  0.5133036E+03  0.7818608E-02  0.1010364E+00
         -1   -1    0    0    0  501 -0.00000000000E+00  0.00000000000E+00  0.26198736523E+03  0.26198736523E+03  0.00000000000E+00 0.  1.
          1   -1    0    0  501    0  0.00000000000E+00 -0.00000000000E+00 -0.21038612560E+04  0.21038612560E+04  0.00000000000E+00 0. -1.
         23    2    1    2    0    0  0.69414417132E+02 -0.36038445926E+03 -0.15648035648E+04  0.16100427112E+04  0.94509340690E+02 0.  0.
    5000000    2    1    2    0    0 -0.69414417132E+02  0.36038445926E+03 -0.27707032592E+03  0.75580591006E+03  0.59981604546E+03 0.  0.
         23    2    4    4    0    0 -0.12479549281E+03  0.47606701399E+03 -0.31696859944E+03  0.59367071434E+03  0.98803376429E+02 0.  0.
         23    2    4    4    0    0  0.55381075673E+02 -0.11568255473E+03  0.39898273518E+02  0.16213519572E+03  0.90809869775E+02 0.  0.
          1    1    3    3  502    0 -0.13305806253E+02 -0.81916134461E+02 -0.24590455337E+03  0.25953101343E+03  0.00000000000E+00 0. -1.
         -1    1    3    3    0  502  0.82720223385E+02 -0.27846832480E+03 -0.13188990115E+04  0.13505116977E+04  0.00000000000E+00 0.  1.
         11    1    5    5    0    0 -0.13530101521E+03  0.34989099685E+03 -0.22929427136E+03  0.43966571082E+03  0.00000000000E+00 0.  1.
        -11    1    5    5    0    0  0.10505522408E+02  0.12617601714E+03 -0.87674328086E+02  0.15400500352E+03  0.00000000000E+00 0. -1.
          5    1    6    6  503    0  0.96453233545E+01 -0.10316273770E+03  0.47154430671E+02  0.11393512647E+03  0.47000000000E+01 0.  1.
         -5    1    6    6    0  503  0.45735752319E+02 -0.12519817034E+02 -0.72561571526E+01  0.48200069246E+02  0.47000000000E+01 0. -1.
<mgrwt>
<rscale>  0 0.51330361E+03</rscale>
<asrwt>0</asrwt>
<pdfrwt beam="1">  1        1 0.32367097E+00 0.51330361E+03</pdfrwt>
<pdfrwt beam="2">  1       -1 0.40305748E-01 0.51330361E+03</pdfrwt>
<totfact> 0.16571565E+01</totfact>
</mgrwt>
</event>
<event>
12    1  0.3166324E-008  0.1233194E+04  0.7818608E-02  0.9084288E-01
          2   -1    0    0  501    0  0.00000000000E+00  0.00000000000E+00  0.17723782496E+04  0.17723782496E+04  0.00000000000E+00 0. -1.
         -2   -1    0    0    0  501 -0.00000000000E+00 -0.00000000000E+00 -0.87451147356E+03  0.87451147356E+03  0.00000000000E+00 0.  1.
         23    2    1    2    0    0 -0.11047563639E+04  0.37115001935E+03  0.54242972702E+03  0.12887499661E+04  0.91692453084E+02 0.  0.
    5000000    2    1    2    0    0  0.11047563639E+04 -0.37115001935E+03  0.35543704903E+03  0.13581397571E+04  0.59997428576E+03 0.  0.
         23    2    4    4    0    0  0.47279208739E+03 -0.45366871881E+03  0.24404721992E+03  0.70503612314E+03  0.90383765472E+02 0.  0.
         23    2    4    4    0    0  0.63196427648E+03  0.82518699464E+02  0.11138982911E+03  0.65310363394E+03  0.89154249079E+02 0.  0.
          2    1    3    3  502    0 -0.54270990401E+03  0.19556437339E+03  0.21983869362E+03  0.61733987014E+03  0.00000000000E+00 0.  1.
         -2    1    3    3    0  502 -0.56204645986E+03  0.17558564595E+03  0.32259103340E+03  0.67141009594E+03  0.00000000000E+00 0. -1.
         11    1    5    5    0    0  0.21297715569E+03 -0.15842290889E+03  0.67160941278E+02  0.27380226248E+03  0.00000000000E+00 0. -1.
        -11    1    5    5    0    0  0.25981493170E+03 -0.29524580992E+03  0.17688627864E+03  0.43123386066E+03  0.00000000000E+00 0.  1.
          5    1    6    6  503    0  0.48429983453E+03  0.30327471292E+02  0.10370286934E+03  0.49622823413E+03  0.47000000000E+01 0.  1.
         -5    1    6    6    0  503  0.14766444195E+03  0.52191228172E+02  0.76869597716E+01  0.15687539981E+03  0.47000000000E+01 0. -1.
<mgrwt>
<rscale>  0 0.12331935E+04</rscale>
<asrwt>0</asrwt>
<pdfrwt beam="1">  1        2 0.27267358E+00 0.12331935E+04</pdfrwt>
<pdfrwt beam="2">  1       -2 0.13454023E+00 0.12331935E+04</pdfrwt>
<totfact> 0.34524182E+00</totfact>
</mgrwt>
</event>
<event>
12    1  0.3166324E-008  0.3402171E+03  0.7818608E-02  0.1066704E+00
         -2   -1    0    0    0  501 -0.00000000000E+00  0.00000000000E+00  0.26734722740E+03  0.26734722740E+03  0.00000000000E+00 0. -1.
          2   -1    0    0  501    0  0.00000000000E+00 -0.00000000000E+00 -0.20467984651E+04  0.20467984651E+04  0.00000000000E+00 0.  1.
         23    2    1    2    0    0 -0.22152776639E+03 -0.28391955179E+02  0.14808675516E+03  0.28314527010E+03  0.91437970922E+02 0.  0.
    5000000    2    1    2    0    0  0.22152776639E+03  0.28391955179E+02 -0.19275379929E+04  0.20310004224E+04  0.59973272998E+03 0.  0.
         23    2    4    4    0    0  0.69216257314E+01 -0.14790829946E+03 -0.15189249667E+04  0.15289543256E+04  0.92970432055E+02 0.  0.
         23    2    4    4    0    0  0.21460614066E+03  0.17630025464E+03 -0.40861302615E+03  0.50204609681E+03  0.89152132844E+02 0.  0.
          3    1    3    3  502    0 -0.11503762050E+03  0.26231784976E+02  0.98093591947E+02  0.15344091193E+03  0.00000000000E+00 0. -1.
         -3    1    3    3    0  502 -0.10649014589E+03 -0.54623740155E+02  0.49993163215E+02  0.12970435817E+03  0.00000000000E+00 0.  1.
         11    1    5    5    0    0  0.21731847177E+02 -0.36812798923E+02 -0.81879963132E+03  0.81991480752E+03  0.00000000000E+00 0. -1.
        -11    1    5    5    0    0 -0.14810221445E+02 -0.11109550054E+03 -0.70012533541E+03  0.70903951806E+03  0.00000000000E+00 0.  1.
          5    1    6    6  503    0  0.11701638682E+03  0.14272715350E+03 -0.22194092294E+03  0.28869315615E+03  0.47000000000E+01 0. -1.
         -5    1    6    6    0  503  0.97589753839E+02  0.33573101144E+02 -0.18667210321E+03  0.21335294067E+03  0.47000000000E+01 0.  1.
<mgrwt>
<rscale>  0 0.34021709E+03</rscale>
<asrwt>0</asrwt>
<pdfrwt beam="1">  1        2 0.31489207E+00 0.34021709E+03</pdfrwt>
<pdfrwt beam="2">  1       -2 0.41130343E-01 0.34021709E+03</pdfrwt>
<totfact> 0.39275606E+01</totfact>
</mgrwt>
</event>
<event>
12    1  0.3166324E-008  0.4944228E+03  0.7818608E-02  0.1015245E+00
          1   -1    0    0  501    0  0.00000000000E+00  0.00000000000E+00  0.57446843944E+03  0.57446843944E+03  0.00000000000E+00 0. -1.
         -1   -1    0    0    0  501 -0.00000000000E+00 -0.00000000000E+00 -0.75017692628E+03  0.75017692628E+03  0.00000000000E+00 0.  1.
         23    2    1    2    0    0 -0.10747652864E+03  0.37307040367E+03 -0.41049798583E+03  0.57229174652E+03  0.90975361846E+02 0.  0.
    5000000    2    1    2    0    0  0.10747652864E+03 -0.37307040367E+03  0.23478949899E+03  0.75235361920E+03  0.60014758951E+03 0.  0.
         23    2    4    4    0    0  0.26789788548E+03 -0.27365499124E+03  0.33858575586E+03  0.51938155421E+03  0.91981267172E+02 0.  0.
         23    2    4    4    0    0 -0.16042135685E+03 -0.99415412426E+02 -0.10379625687E+03  0.23297206499E+03  0.88791239240E+02 0.  0.
          3    1    3    3  502    0 -0.94895802375E+02  0.17612723061E+03 -0.23016999081E+03  0.30496596423E+03  0.00000000000E+00 0. -1.
         -3    1    3    3    0  502 -0.12580726263E+02  0.19694317306E+03 -0.18032799502E+03  0.26732578228E+03  0.00000000000E+00 0.  1.
         11    1    5    5    0    0  0.66277470473E+02 -0.24161501591E+02  0.85106652885E+02  0.11054240642E+03  0.00000000000E+00 0.  1.
        -11    1    5    5    0    0  0.20162041501E+03 -0.24949348965E+03  0.25347910297E+03  0.40883914779E+03  0.00000000000E+00 0. -1.
          5    1    6    6  503    0 -0.11348329561E+03 -0.10229337771E+03 -0.10542255460E+03  0.18568359789E+03  0.47000000000E+01 0. -1.
         -5    1    6    6    0  503 -0.46938061232E+02  0.28779652827E+01  0.16262977342E+01  0.47288467101E+02  0.47000000000E+01 0.  1.
<mgrwt>
<rscale>  0 0.49442280E+03</rscale>
<asrwt>0</asrwt>
<pdfrwt beam="1">  1        1 0.88379760E-01 0.49442280E+03</pdfrwt>
<pdfrwt beam="2">  1       -1 0.11541183E+00 0.49442280E+03</pdfrwt>
<totfact> 0.26270189E+01</totfact>
</mgrwt>
</event>
<event>
12    1  0.3166324E-008  0.1227028E+04  0.7818608E-02  0.9089522E-01
         -2   -1    0    0    0  501 -0.00000000000E+00  0.00000000000E+00  0.11030296469E+04  0.11030296469E+04  0.00000000000E+00 0.  1.
          2   -1    0    0  501    0  0.00000000000E+00 -0.00000000000E+00 -0.16520244317E+04  0.16520244317E+04  0.00000000000E+00 0. -1.
         23    2    1    2    0    0  0.54260293835E+03 -0.10832408356E+04  0.16544393043E+03  0.12258940556E+04  0.87269036260E+02 0.  0.
    5000000    2    1    2    0    0 -0.54260293835E+03  0.10832408356E+04 -0.71443871523E+03  0.15291600231E+04  0.60006586463E+03 0.  0.
         23    2    4    4    0    0 -0.43986352881E+03  0.96053902664E+03 -0.34222852525E+03  0.11142872488E+04  0.91654588509E+02 0.  0.
         23    2    4    4    0    0 -0.10273940954E+03  0.12270180897E+03 -0.37221018997E+03  0.41487277437E+03  0.89262944130E+02 0.  0.
          1    1    3    3  502    0  0.20517888687E+03 -0.35435474005E+03  0.22616620394E+02  0.41009409766E+03  0.00000000000E+00 0. -1.
         -1    1    3    3    0  502  0.33742405148E+03 -0.72888609556E+03  0.14282731004E+03  0.81579995790E+03  0.00000000000E+00 0.  1.
         11    1    5    5    0    0 -0.24909613908E+03  0.47154065592E+03 -0.13620393326E+03  0.55040983651E+03  0.00000000000E+00 0. -1.
        -11    1    5    5    0    0 -0.19076738973E+03  0.48899837072E+03 -0.20602459199E+03  0.56387741226E+03  0.00000000000E+00 0.  1.
          5    1    6    6  503    0 -0.39338587064E+02  0.11191461514E+03 -0.23693308072E+03  0.26501279262E+03  0.47000000000E+01 0. -1.
         -5    1    6    6    0  503 -0.63400822474E+02  0.10787193835E+02 -0.13527710925E+03  0.14985998175E+03  0.47000000000E+01 0.  1.
<mgrwt>
<rscale>  0 0.12270283E+04</rscale>
<asrwt>0</asrwt>
<pdfrwt beam="1">  1        2 0.25415760E+00 0.12270283E+04</pdfrwt>
<pdfrwt beam="2">  1       -2 0.16969687E+00 0.12270283E+04</pdfrwt>
<totfact> 0.21626923E+00</totfact>
</mgrwt>
</event>
<event>
12    1  0.3166324E-008  0.1900742E+04  0.7818608E-02  0.8654487E-01
          1   -1    0    0  501    0  0.00000000000E+00  0.00000000000E+00  0.19944044565E+04  0.19944044565E+04  0.00000000000E+00 0. -1.
         -1   -1    0    0    0  501 -0.00000000000E+00 -0.00000000000E+00 -0.20662105896E+04  0.20662105896E+04  0.00000000000E+00 0.  1.
         23    2    1    2    0    0 -0.13741713615E+04  0.12525276641E+04 -0.72904298679E+03  0.19992734943E+04  0.91751557022E+02 0.  0.
    5000000    2    1    2    0    0  0.13741713615E+04 -0.12525276641E+04  0.65723685371E+03  0.20613415518E+04  0.59999685931E+03 0.  0.
         23    2    4    4    0    0  0.61543449606E+03 -0.91861467574E+03  0.27034842353E+03  0.11417730347E+04  0.89133894637E+02 0.  0.
         23    2    4    4    0    0  0.75873686545E+03 -0.33391298836E+03  0.38688843018E+03  0.91956851713E+03  0.93509814979E+02 0.  0.
          1    1    3    3  502    0 -0.66893135997E+03  0.65969934639E+03 -0.33887280097E+03  0.99875280586E+03  0.00000000000E+00 0. -1.
         -1    1    3    3    0  502 -0.70524000154E+03  0.59282831770E+03 -0.39017018583E+03  0.10005206884E+04  0.00000000000E+00 0.  1.
         11    1    5    5    0    0  0.15742911590E+03 -0.19638199919E+03  0.93271571934E+02  0.26842019721E+03  0.00000000000E+00 0. -1.
        -11    1    5    5    0    0  0.45800538016E+03 -0.72223267655E+03  0.17707685160E+03  0.87335283746E+03  0.00000000000E+00 0.  1.
          5    1    6    6  503    0  0.39216700174E+03 -0.22095734620E+03  0.22405974021E+03  0.50283393211E+03  0.47000000000E+01 0. -1.
         -5    1    6    6    0  503  0.36656986371E+03 -0.11295564216E+03  0.16282868996E+03  0.41673458502E+03  0.47000000000E+01 0.  1.
<mgrwt>
<rscale>  0 0.19007417E+04</rscale>
<asrwt>0</asrwt>
<pdfrwt beam="1">  1        1 0.30683146E+00 0.19007417E+04</pdfrwt>
<pdfrwt beam="2">  1       -1 0.31787855E+00 0.19007417E+04</pdfrwt>
<totfact> 0.68384216E-02</totfact>
</mgrwt>
</event>
<event>
12    1  0.4953053E-008  0.9991156E+03  0.7818608E-02  0.9309515E-01
         -1   -1    0    0    0  501 -0.00000000000E+00  0.00000000000E+00  0.80849988492E+03  0.80849988492E+03  0.00000000000E+00 0.  1.
          1   -1    0    0  501    0  0.00000000000E+00 -0.00000000000E+00 -0.14674287630E+04  0.14674287630E+04  0.00000000000E+00 0. -1.
         23    2    1    2    0    0 -0.12376711964E+03  0.96522576330E+03 -0.45381343258E+02  0.97849334767E+03  0.91709819981E+02 0.  0.
    5000000    2    1    2    0    0  0.12376711964E+03 -0.96522576330E+03 -0.61354753486E+03  0.12974353003E+04  0.59993225190E+03 0.  0.
         23    2    4    4    0    0 -0.71759736470E+02 -0.60912628553E+03 -0.62547247555E+03  0.88110114010E+03  0.94546866238E+02 0.  0.
         23    2    4    4    0    0  0.19552685611E+03 -0.35609947777E+03  0.11924940689E+02  0.41633416019E+03  0.90301379850E+02 0.  0.
          3    1    3    3  502    0  0.51091471885E+01  0.22431469688E+03  0.84603381835E+01  0.22453232271E+03  0.00000000000E+00 0. -1.
         -3    1    3    3    0  502 -0.12887626683E+03  0.74091106642E+03 -0.53841681441E+02  0.75396102496E+03  0.00000000000E+00 0.  1.
         11    1    5    5    0    0 -0.61685436233E+02 -0.48490523849E+03 -0.44019155048E+03  0.65780451843E+03  0.00000000000E+00 0.  1.
        -11    1    5    5    0    0 -0.10074300238E+02 -0.12422104704E+03 -0.18528092507E+03  0.22329662167E+03  0.00000000000E+00 0. -1.
          5    1    6    6  503    0  0.82402736269E+02 -0.11033895284E+03  0.42071473148E+02  0.14407287847E+03  0.47000000000E+01 0. -1.
         -5    1    6    6    0  503  0.11312411984E+03 -0.24576052493E+03 -0.30146532459E+02  0.27226128172E+03  0.47000000000E+01 0.  1.
<mgrwt>
<rscale>  0 0.99911565E+03</rscale>
<asrwt>0</asrwt>
<pdfrwt beam="1">  1        1 0.22575827E+00 0.99911565E+03</pdfrwt>
<pdfrwt beam="2">  1       -1 0.12438460E+00 0.99911565E+03</pdfrwt>
<totfact> 0.39251133E+00</totfact>
</mgrwt>
</event>
<event>
12    1  0.3166324E-008  0.7414887E+03  0.7818608E-02  0.9648799E-01
          2   -1    0    0  501    0  0.00000000000E+00  0.00000000000E+00  0.49971985740E+03  0.49971985740E+03  0.00000000000E+00 0. -1.
         -2   -1    0    0    0  501 -0.00000000000E+00 -0.00000000000E+00 -0.15045408151E+04  0.15045408151E+04  0.00000000000E+00 0.  1.
         23    2    1    2    0    0 -0.90628988197E+02  0.63763946480E+03  0.22376737948E+02  0.65144088393E+03  0.95272274458E+02 0.  0.
    5000000    2    1    2    0    0  0.90628988197E+02 -0.63763946480E+03 -0.10271976956E+04  0.13528197885E+04  0.60015712430E+03 0.  0.
         23    2    4    4    0    0 -0.58269538977E+01  0.94600998032E+02 -0.10612927383E+03  0.16869611637E+03  0.90618180821E+02 0.  0.
         23    2    4    4    0    0  0.96455942095E+02 -0.73224046283E+03 -0.92106842178E+03  0.11841236722E+04  0.91115252453E+02 0.  0.
          1    1    3    3  502    0  0.60105982165E+01  0.18399042593E+03  0.35254210942E+02  0.18743389105E+03  0.00000000000E+00 0. -1.
         -1    1    3    3    0  502 -0.96639586414E+02  0.45364903887E+03 -0.12877472995E+02  0.46400699288E+03  0.00000000000E+00 0.  1.
         13    1    5    5    0    0  0.44251662878E+01  0.62265935902E+02 -0.56881801658E+01  0.62681610254E+02  0.00000000000E+00 0. -1.
        -13    1    5    5    0    0 -0.10252120185E+02  0.32335062130E+02 -0.10044109366E+03  0.10601450612E+03  0.00000000000E+00 0.  1.
          5    1    6    6  503    0  0.23284206730E+02 -0.21403090676E+03 -0.33640808952E+03  0.39942943810E+03  0.47000000000E+01 0. -1.
         -5    1    6    6    0  503  0.73171735365E+02 -0.51820955607E+03 -0.58466033226E+03  0.78469423407E+03  0.47000000000E+01 0.  1.
<mgrwt>
<rscale>  0 0.74148869E+03</rscale>
<asrwt>0</asrwt>
<pdfrwt beam="1">  1        2 0.76879977E-01 0.74148869E+03</pdfrwt>
<pdfrwt beam="2">  1       -2 0.23146782E+00 0.74148869E+03</pdfrwt>
<totfact> 0.52934711E+00</totfact>
</mgrwt>
</event>
<event>
12    1  0.3166324E-008  0.7285954E+03  0.7818608E-02  0.9669542E-01
          2   -1    0    0  501    0  0.00000000000E+00  0.00000000000E+00  0.25179745350E+04  0.25179745350E+04  0.00000000000E+00 0. -1.
         -2   -1    0    0    0  501 -0.00000000000E+00 -0.00000000000E+00 -0.25134640141E+03  0.25134640141E+03  0.00000000000E+00 0.  1.
         23    2    1    2    0    0 -0.27572313585E+03  0.57659405597E+03  0.57770662441E+03  0.86642728095E+03  0.92018130096E+02 0.  0.
    5000000    2    1    2    0    0  0.27572313585E+03 -0.57659405597E+03  0.16889215092E+04  0.19028936554E+04  0.60005370323E+03 0.  0.
         23    2    4    4    0    0  0.37964171009E+03 -0.22673333287E+03  0.60037223462E+03  0.75130486203E+03  0.92067058855E+02 0.  0.
         23    2    4    4    0    0 -0.10391857424E+03 -0.34986072310E+03  0.10885492745E+04  0.11515887934E+04  0.89530052796E+02 0.  0.
          3    1    3    3  502    0 -0.12293363530E+03  0.34966757286E+03  0.30300367450E+03  0.47873929957E+03  0.00000000000E+00 0. -1.
         -3    1    3    3    0  502 -0.15278950055E+03  0.22692648312E+03  0.27470294991E+03  0.38768798138E+03  0.00000000000E+00 0.  1.
         13    1    5    5    0    0  0.24327937571E+03 -0.18273287623E+03  0.35884907857E+03  0.47047722569E+03  0.00000000000E+00 0. -1.
        -13    1    5    5    0    0  0.13636233439E+03 -0.44000456641E+02  0.24152315606E+03  0.28082763635E+03  0.00000000000E+00 0.  1.
          5    1    6    6  503    0 -0.47914238825E+02 -0.18871298603E+03  0.44418200867E+03  0.48500320844E+03  0.47000000000E+01 0. -1.
         -5    1    6    6    0  503 -0.56004335420E+02 -0.16114773707E+03  0.64436726588E+03  0.66658558497E+03  0.47000000000E+01 0.  1.
<mgrwt>
<rscale>  0 0.72859536E+03</rscale>
<asrwt>0</asrwt>
<pdfrwt beam="1">  1        2 0.38738068E+00 0.72859536E+03</pdfrwt>
<pdfrwt beam="2">  1       -2 0.38668679E-01 0.72859536E+03</pdfrwt>
<totfact> 0.22525249E+01</totfact>
</mgrwt>
</event>
<event>
12    1  0.3166324E-008  0.7243674E+03  0.7818608E-02  0.9676445E-01
         -1   -1    0    0    0  501 -0.00000000000E+00  0.00000000000E+00  0.25307324185E+03  0.25307324185E+03  0.00000000000E+00 0.  1.
          1   -1    0    0  501    0  0.00000000000E+00 -0.00000000000E+00 -0.22010024548E+04  0.22010024548E+04  0.00000000000E+00 0. -1.
         23    2    1    2    0    0  0.51866067347E+03  0.30882616194E+03 -0.10654433052E+04  0.12280208497E+04  0.92104712884E+02 0.  0.
    5000000    2    1    2    0    0 -0.51866067347E+03 -0.30882616194E+03 -0.88248590781E+03  0.12260548470E+04  0.60003884702E+03 0.  0.
         23    2    4    4    0    0 -0.86656954101E+02  0.16056618287E+03 -0.17625401589E+03  0.26991940897E+03  0.92195891678E+02 0.  0.
         23    2    4    4    0    0 -0.43200371937E+03 -0.46939234481E+03 -0.70623189191E+03  0.95613543806E+03  0.92060327161E+02 0.  0.
          1    1    3    3  502    0  0.20840635569E+03  0.12278919292E+03 -0.33855830466E+03  0.41609148110E+03  0.00000000000E+00 0. -1.
         -1    1    3    3    0  502  0.31025431778E+03  0.18603696902E+03 -0.72688500051E+03  0.81192936855E+03  0.00000000000E+00 0.  1.
         11    1    5    5    0    0  0.74795663597E+01  0.76680100084E+02 -0.81841689869E+02  0.11240037305E+03  0.00000000000E+00 0.  1.
        -11    1    5    5    0    0 -0.94136520460E+02  0.83886082790E+02 -0.94412326026E+02  0.15751903592E+03  0.00000000000E+00 0. -1.
          5    1    6    6  503    0 -0.13308777780E+03 -0.19522375869E+03 -0.21946490600E+03  0.32250830613E+03  0.47000000000E+01 0. -1.
         -5    1    6    6    0  503 -0.29891594157E+03 -0.27416858612E+03 -0.48676698591E+03  0.63362713193E+03  0.47000000000E+01 0.  1.
<mgrwt>
<rscale>  0 0.72436745E+03</rscale>
<asrwt>0</asrwt>
<pdfrwt beam="1">  1        1 0.33861577E+00 0.72436745E+03</pdfrwt>
<pdfrwt beam="2">  1       -1 0.38934344E-01 0.72436745E+03</pdfrwt>
<totfact> 0.14617171E+01</totfact>
</mgrwt>
</event>
<event>
12    1  0.3166324E-008  0.8112322E+03  0.7818608E-02  0.9543900E-01
          1   -1    0    0  501    0  0.00000000000E+00  0.00000000000E+00  0.28807907815E+04  0.28807907815E+04  0.00000000000E+00 0. -1.
         -1   -1    0    0    0  501 -0.00000000000E+00 -0.00000000000E+00 -0.24235088019E+03  0.24235088019E+03  0.00000000000E+00 0.  1.
         23    2    1    2    0    0  0.63543512563E+03  0.34752680988E+03  0.11682686706E+04  0.13778786630E+04  0.95630751585E+02 0.  0.
    5000000    2    1    2    0    0 -0.63543512563E+03 -0.34752680988E+03  0.14701712307E+04  0.17452629987E+04  0.59998900381E+03 0.  0.
         23    2    4    4    0    0 -0.62461533739E+03 -0.44264741270E+03  0.10363872890E+04  0.12917551261E+04  0.91932808566E+02 0.  0.
         23    2    4    4    0    0 -0.10819788242E+02  0.95120602828E+02  0.43378394166E+03  0.45350787261E+03  0.91301071079E+02 0.  0.
          3    1    3    3  502    0  0.14204475350E+03  0.11933298308E+03  0.26091059835E+03  0.32014280123E+03  0.00000000000E+00 0. -1.
         -3    1    3    3    0  502  0.49339037213E+03  0.22819382680E+03  0.90735807229E+03  0.10577358618E+04  0.00000000000E+00 0.  1.
         13    1    5    5    0    0 -0.32348826505E+03 -0.25518878872E+03  0.48838122755E+03  0.63896963851E+03  0.00000000000E+00 0.  1.
        -13    1    5    5    0    0 -0.30112707233E+03 -0.18745862398E+03  0.54800606148E+03  0.65278548760E+03  0.00000000000E+00 0. -1.
          5    1    6    6  503    0 -0.37992240417E+02  0.90998797035E+02  0.27250729592E+03  0.28983876160E+03  0.47000000000E+01 0. -1.
         -5    1    6    6    0  503  0.27172452174E+02  0.41218057934E+01  0.16127664574E+03  0.16366911102E+03  0.47000000000E+01 0.  1.
<mgrwt>
<rscale>  0 0.81123218E+03</rscale>
<asrwt>0</asrwt>
<pdfrwt beam="1">  1        1 0.44319856E+00 0.81123218E+03</pdfrwt>
<pdfrwt beam="2">  1       -1 0.37284753E-01 0.81123218E+03</pdfrwt>
<totfact> 0.53205343E+00</totfact>
</mgrwt>
</event>
<event>
12    1  0.3166324E-008  0.9472902E+03  0.7818608E-02  0.9368324E-01
         -3   -1    0    0    0  501 -0.00000000000E+00  0.00000000000E+00  0.36445674429E+03  0.36445674429E+03  0.00000000000E+00 0.  1.
          3   -1    0    0  501    0  0.00000000000E+00 -0.00000000000E+00 -0.27867034303E+04  0.27867034303E+04  0.00000000000E+00 0. -1.
         23    2    1    2    0    0  0.67209352862E+03  0.54518270306E+03 -0.15749157532E+04  0.17995201941E+04  0.94759740423E+02 0.  0.
    5000000    2    1    2    0    0 -0.67209352862E+03 -0.54518270306E+03 -0.84733093282E+03  0.13516399805E+04  0.60002252976E+03 0.  0.
         23    2    4    4    0    0 -0.30197321102E+03 -0.56565662960E+03 -0.39353801355E+03  0.75790808013E+03  0.91636493980E+02 0.  0.
         23    2    4    4    0    0 -0.37012031760E+03  0.20473926541E+02 -0.45379291928E+03  0.59373190037E+03  0.95819229598E+02 0.  0.
          3    1    3    3  502    0  0.51391351733E+03  0.39025139833E+03 -0.10950989690E+04  0.12710802528E+04  0.00000000000E+00 0. -1.
         -3    1    3    3    0  502  0.15818001129E+03  0.15493130473E+03 -0.47981678415E+03  0.52843994125E+03  0.00000000000E+00 0.  1.
         11    1    5    5    0    0 -0.56559991776E+02 -0.19387087213E+03 -0.13343868530E+03  0.24205542850E+03  0.00000000000E+00 0.  1.
        -11    1    5    5    0    0 -0.24541321925E+03 -0.37178575747E+03 -0.26009932824E+03  0.51585265163E+03  0.00000000000E+00 0. -1.
          5    1    6    6  503    0 -0.29100427718E+03 -0.19459302445E+02 -0.37472249659E+03  0.47486965921E+03  0.47000000000E+01 0. -1.
         -5    1    6    6    0  503 -0.79116040418E+02  0.39933228986E+02 -0.79070422686E+02  0.11886224116E+03  0.47000000000E+01 0.  1.
<mgrwt>
<rscale>  0 0.94729016E+03</rscale>
<asrwt>0</asrwt>
<pdfrwt beam="1">  1        3 0.42872363E+00 0.94729016E+03</pdfrwt>
<pdfrwt beam="2">  1       -3 0.56070265E-01 0.94729016E+03</pdfrwt>
<totfact> 0.64782913E-02</totfact>
</mgrwt>
</event>
<event>
12    1  0.3166324E-008  0.5383441E+03  0.7818608E-02  0.1004228E+00
          2   -1    0    0  501    0  0.00000000000E+00  0.00000000000E+00  0.26558043435E+04  0.26558043435E+04  0.00000000000E+00 0. -1.
         -2   -1    0    0    0  501 -0.00000000000E+00 -0.00000000000E+00 -0.14200848423E+03  0.14200848423E+03  0.00000000000E+00 0.  1.
         23    2    1    2    0    0  0.33412312180E+03 -0.20537830423E+03  0.15207386761E+04  0.15730374720E+04  0.89343488016E+02 0.  0.
    5000000    2    1    2    0    0 -0.33412312180E+03  0.20537830423E+03  0.99305718310E+03  0.12247753557E+04  0.60007799046E+03 0.  0.
         23    2    4    4    0    0 -0.48141211901E+03  0.10384011290E+03  0.58105854725E+03  0.76695762855E+03  0.89747263398E+02 0.  0.
         23    2    4    4    0    0  0.14728899721E+03  0.10153819133E+03  0.41199863585E+03  0.45781772714E+03  0.88601029006E+02 0.  0.
          4    1    3    3  502    0  0.24816147460E+03 -0.15764903380E+03  0.96947951365E+03  0.10130784090E+04  0.00000000000E+00 0. -1.
         -4    1    3    3    0  502  0.85961647198E+02 -0.47729270429E+02  0.55125916248E+03  0.55995906302E+03  0.00000000000E+00 0.  1.
         11    1    5    5    0    0 -0.28371279365E+03  0.40517590601E+02  0.39619727928E+03  0.48898559134E+03  0.00000000000E+00 0.  1.
        -11    1    5    5    0    0 -0.19769932536E+03  0.63322522297E+02  0.18486126798E+03  0.27797203722E+03  0.00000000000E+00 0. -1.
          5    1    6    6  503    0  0.15980653212E+02 -0.85853926869E+01  0.10074246121E+03  0.10247059937E+03  0.47000000000E+01 0. -1.
         -5    1    6    6    0  503  0.13130834400E+03  0.11012358402E+03  0.31125617464E+03  0.35534712777E+03  0.47000000000E+01 0.  1.
<mgrwt>
<rscale>  0 0.53834409E+03</rscale>
<asrwt>0</asrwt>
<pdfrwt beam="1">  1        2 0.40858525E+00 0.53834409E+03</pdfrwt>
<pdfrwt beam="2">  1       -2 0.21847461E-01 0.53834409E+03</pdfrwt>
<totfact> 0.55651588E+01</totfact>
</mgrwt>
</event>
<event>
12    1  0.3166324E-008  0.1888922E+04  0.7818608E-02  0.8660390E-01
         -1   -1    0    0    0  501 -0.00000000000E+00  0.00000000000E+00  0.13876089966E+04  0.13876089966E+04  0.00000000000E+00 0.  1.
          1   -1    0    0  501    0  0.00000000000E+00 -0.00000000000E+00 -0.26625326304E+04  0.26625326304E+04  0.00000000000E+00 0. -1.
         23    2    1    2    0    0  0.11098128957E+04 -0.15102650741E+04 -0.63231375897E+03  0.19800293312E+04  0.90056676587E+02 0.  0.
    5000000    2    1    2    0    0 -0.11098128957E+04  0.15102650741E+04 -0.64260987480E+03  0.20701122958E+04  0.59986015733E+03 0.  0.
         23    2    4    4    0    0 -0.72333865081E+03  0.74424025615E+03 -0.91361044973E+02  0.10460205951E+04  0.93273158712E+02 0.  0.
         23    2    4    4    0    0 -0.38647424492E+03  0.76602481798E+03 -0.55124882983E+03  0.10240917007E+04  0.93446109423E+02 0.  0.
          1    1    3    3  502    0  0.26243283513E+03 -0.42301001497E+03 -0.17580120926E+03  0.52793421077E+03  0.00000000000E+00 0.  1.
         -1    1    3    3    0  502  0.84738006060E+03 -0.10872550592E+04 -0.45651254971E+03  0.14520951204E+04  0.00000000000E+00 0. -1.
         11    1    5    5    0    0 -0.49981273800E+03  0.46745603312E+03 -0.90070560321E+02  0.69024678326E+03  0.00000000000E+00 0. -1.
        -11    1    5    5    0    0 -0.22352591281E+03  0.27678422303E+03 -0.12904846512E+01  0.35577381181E+03  0.00000000000E+00 0.  1.
          5    1    6    6  503    0 -0.16128557415E+03  0.23956902671E+03 -0.15560363686E+03  0.32808678241E+03  0.47000000000E+01 0. -1.
         -5    1    6    6    0  503 -0.22518867076E+03  0.52645579127E+03 -0.39564519297E+03  0.69600491831E+03  0.47000000000E+01 0.  1.
<mgrwt>
<rscale>  0 0.18889218E+04</rscale>
<asrwt>0</asrwt>
<pdfrwt beam="1">  1        1 0.40962040E+00 0.18889218E+04</pdfrwt>
<pdfrwt beam="2">  1       -1 0.21347831E+00 0.18889218E+04</pdfrwt>
<totfact> 0.11483354E-01</totfact>
</mgrwt>
</event>
<event>
12    1  0.3166324E-008  0.3363739E+03  0.7818608E-02  0.1068351E+00
          2   -1    0    0  501    0  0.00000000000E+00  0.00000000000E+00  0.82256490004E+03  0.82256490004E+03  0.00000000000E+00 0.  1.
         -2   -1    0    0    0  501 -0.00000000000E+00 -0.00000000000E+00 -0.43588174192E+03  0.43588174192E+03  0.00000000000E+00 0. -1.
         23    2    1    2    0    0 -0.15598222343E+03 -0.10328852848E+03  0.56782940277E+03  0.60477434940E+03  0.91229430008E+02 0.  0.
    5000000    2    1    2    0    0  0.15598222343E+03  0.10328852848E+03 -0.18114624464E+03  0.65367229256E+03  0.59956194840E+03 0.  0.
         23    2    4    4    0    0 -0.14623542944E+02 -0.14909688948E+03 -0.27309847714E+03  0.32289789308E+03  0.85067859243E+02 0.  0.
         23    2    4    4    0    0  0.17060576637E+03  0.25238541796E+03  0.91952232499E+02  0.33077439948E+03  0.90287117427E+02 0.  0.
          4    1    3    3  502    0 -0.11807411562E+03 -0.11540298912E+03  0.40975952448E+03  0.44177167698E+03  0.00000000000E+00 0. -1.
         -4    1    3    3    0  502 -0.37908107805E+02  0.12114460638E+02  0.15806987829E+03  0.16300267242E+03  0.00000000000E+00 0.  1.
         11    1    5    5    0    0 -0.28255595235E+02 -0.46918316442E+02 -0.39384370083E+02  0.67459882054E+02  0.00000000000E+00 0.  1.
        -11    1    5    5    0    0  0.13632052291E+02 -0.10217857304E+03 -0.23371410706E+03  0.25543801102E+03  0.00000000000E+00 0. -1.
          5    1    6    6  503    0  0.63847647981E+02  0.50387667555E+02 -0.69524512623E+01  0.81767143602E+02  0.47000000000E+01 0. -1.
         -5    1    6    6    0  503  0.10675811839E+03  0.20199775041E+03  0.98904683761E+02  0.24900725588E+03  0.47000000000E+01 0.  1.
<mgrwt>
<rscale>  0 0.33637387E+03</rscale>
<asrwt>0</asrwt>
<pdfrwt beam="1">  1        2 0.12654845E+00 0.33637387E+03</pdfrwt>
<pdfrwt beam="2">  1       -2 0.67058730E-01 0.33637387E+03</pdfrwt>
<totfact> 0.71719581E+01</totfact>
</mgrwt>
</event>
<event>
12    1  0.3166324E-008  0.7903516E+03  0.7818608E-02  0.9574089E-01
         -2   -1    0    0    0  501 -0.00000000000E+00  0.00000000000E+00  0.55845528574E+03  0.55845528574E+03  0.00000000000E+00 0.  1.
          2   -1    0    0  501    0  0.00000000000E+00 -0.00000000000E+00 -0.18493774753E+04  0.18493774753E+04  0.00000000000E+00 0. -1.
         23    2    1    2    0    0  0.41731110853E+03 -0.56801251912E+03  0.11948584126E+03  0.72084599300E+03  0.92494844143E+02 0.  0.
    5000000    2    1    2    0    0 -0.41731110853E+03  0.56801251912E+03 -0.14104080308E+04  0.16869867680E+04  0.59990562502E+03 0.  0.
         23    2    4    4    0    0 -0.43913377146E+03  0.17502884122E+03 -0.52220746308E+03  0.71102948206E+03  0.96895435267E+02 0.  0.
         23    2    4    4    0    0  0.21822662926E+02  0.39298367789E+03 -0.88820056772E+03  0.97595728595E+03  0.93166387641E+02 0.  0.
          1    1    3    3  502    0  0.85186098975E+02 -0.73838776354E+02 -0.38307896452E+01  0.11279854299E+03  0.00000000000E+00 0. -1.
         -1    1    3    3    0  502  0.33212500956E+03 -0.49417374276E+03  0.12331663090E+03  0.60804745001E+03  0.00000000000E+00 0.  1.
         13    1    5    5    0    0 -0.17528958535E+03  0.60284840570E+02 -0.27532750557E+03  0.33191254278E+03  0.00000000000E+00 0.  1.
        -13    1    5    5    0    0 -0.26384418611E+03  0.11474400065E+03 -0.24687995751E+03  0.37911693928E+03  0.00000000000E+00 0. -1.
          5    1    6    6  503    0 -0.15513539808E+02  0.27841375293E+03 -0.54545105520E+03  0.61261230102E+03  0.47000000000E+01 0. -1.
         -5    1    6    6    0  503  0.37336202733E+02  0.11456992496E+03 -0.34274951252E+03  0.36334498493E+03  0.47000000000E+01 0.  1.
<mgrwt>
<rscale>  0 0.79035159E+03</rscale>
<asrwt>0</asrwt>
<pdfrwt beam="1">  1        2 0.28451961E+00 0.79035159E+03</pdfrwt>
<pdfrwt beam="2">  1       -2 0.85916198E-01 0.79035159E+03</pdfrwt>
<totfact> 0.97722402E+00</totfact>
</mgrwt>
</event>
<event>
12    1  0.3166324E-008  0.7391289E+03  0.7818608E-02  0.9652561E-01
         -1   -1    0    0    0  501 -0.00000000000E+00  0.00000000000E+00  0.10317681031E+04  0.10317681031E+04  0.00000000000E+00 0.  1.
          1   -1    0    0  501    0  0.00000000000E+00 -0.00000000000E+00 -0.55391928098E+03  0.55391928098E+03  0.00000000000E+00 0. -1.
         23    2    1    2    0    0  0.13678061850E+03  0.61193507644E+03  0.11087067516E+03  0.64344171137E+03  0.92474071771E+02 0.  0.
    5000000    2    1    2    0    0 -0.13678061850E+03 -0.61193507644E+03  0.36697814700E+03  0.94224567275E+03  0.59998372650E+03 0.  0.
         23    2    4    4    0    0  0.47912363938E+01 -0.68112346951E+03  0.29979915591E+03  0.74888268670E+03  0.83627793786E+02 0.  0.
         23    2    4    4    0    0 -0.14157185490E+03  0.69188393067E+02  0.67178991093E+02  0.19336298605E+03  0.89702863371E+02 0.  0.
          1    1    3    3  502    0  0.59773531556E+02  0.12646777836E+03  0.15300786809E+01  0.13989036843E+03  0.00000000000E+00 0. -1.
         -1    1    3    3    0  502  0.77007086947E+02  0.48546729808E+03  0.10934059647E+03  0.50355134294E+03  0.00000000000E+00 0.  1.
         13    1    5    5    0    0  0.31599257609E+02 -0.12974445197E+03  0.45298796333E+02  0.14101105222E+03  0.00000000000E+00 0. -1.
        -13    1    5    5    0    0 -0.26808021216E+02 -0.55137901754E+03  0.25450035957E+03  0.60787163448E+03  0.00000000000E+00 0.  1.
          5    1    6    6  503    0 -0.32968878969E+02  0.17519318222E+01  0.55707499753E+02  0.64926356546E+02  0.47000000000E+01 0. -1.
         -5    1    6    6    0  503 -0.10860297593E+03  0.67436461245E+02  0.11471491340E+02  0.12843662951E+03  0.47000000000E+01 0.  1.
<mgrwt>
<rscale>  0 0.73912894E+03</rscale>
<asrwt>0</asrwt>
<pdfrwt beam="1">  1        1 0.85218351E-01 0.73912894E+03</pdfrwt>
<pdfrwt beam="2">  1       -1 0.15873355E+00 0.73912894E+03</pdfrwt>
<totfact> 0.11827393E+01</totfact>
</mgrwt>
</event>
<event>
12    1  0.3166324E-008  0.7285688E+03  0.7818608E-02  0.9669586E-01
         -2   -1    0    0    0  501 -0.00000000000E+00  0.00000000000E+00  0.54976626625E+03  0.54976626625E+03  0.00000000000E+00 0.  1.
          2   -1    0    0  501    0  0.00000000000E+00 -0.00000000000E+00 -0.15431457070E+04  0.15431457070E+04  0.00000000000E+00 0. -1.
         23    2    1    2    0    0  0.32280849104E+03  0.58194531521E+03 -0.99055939453E+03  0.11968985768E+04  0.92155397645E+02 0.  0.
    5000000    2    1    2    0    0 -0.32280849104E+03 -0.58194531521E+03 -0.28200462226E+01  0.89601339643E+03  0.59997198446E+03 0.  0.
         23    2    4    4    0    0  0.91303494392E+02 -0.17491325077E+03 -0.18026937266E+03  0.28233117122E+03  0.91010274924E+02 0.  0.
         23    2    4    4    0    0 -0.41411198543E+03 -0.40703206444E+03  0.17744932643E+03  0.61368222521E+03  0.89183923019E+02 0.  0.
          1    1    3    3  502    0  0.50710665376E+02  0.40564962097E+02 -0.77887150166E+02  0.10140757316E+03  0.00000000000E+00 0. -1.
         -1    1    3    3    0  502  0.27209782567E+03  0.54138035311E+03 -0.91267224437E+03  0.10954910037E+04  0.00000000000E+00 0.  1.
         11    1    5    5    0    0  0.52819486517E+01 -0.67637506376E+02 -0.10653719098E+03  0.12630480716E+03  0.00000000000E+00 0.  1.
        -11    1    5    5    0    0  0.86021545740E+02 -0.10727574439E+03 -0.73732181678E+02  0.15602636406E+03  0.00000000000E+00 0. -1.
          5    1    6    6  503    0 -0.12799199576E+03 -0.11632960378E+03  0.11825755578E+02  0.17342567915E+03  0.47000000000E+01 0. -1.
         -5    1    6    6    0  503 -0.28611998968E+03 -0.29070246067E+03  0.16562357086E+03  0.44025654606E+03  0.47000000000E+01 0.  1.
<mgrwt>
<rscale>  0 0.72856882E+03</rscale>
<asrwt>0</asrwt>
<pdfrwt beam="1">  1        2 0.23740703E+00 0.72856882E+03</pdfrwt>
<pdfrwt beam="2">  1       -2 0.84579426E-01 0.72856882E+03</pdfrwt>
<totfact> 0.15034837E+01</totfact>
</mgrwt>
</event>
<event>
12    1  0.3166324E-008  0.8934208E+03  0.7818608E-02  0.9433843E-01
          1   -1    0    0  501    0  0.00000000000E+00  0.00000000000E+00  0.14490833006E+04  0.14490833006E+04  0.00000000000E+00 0. -1.
         -1   -1    0    0    0  501 -0.00000000000E+00 -0.00000000000E+00 -0.60765764367E+03  0.60765764367E+03  0.00000000000E+00 0.  1.
         23    2    1    2    0    0 -0.61632937383E+03  0.50414702528E+03  0.86776615848E+02  0.80631460037E+03  0.92665708654E+02 0.  0.
    5000000    2    1    2    0    0  0.61632937383E+03 -0.50414702528E+03  0.75464904107E+03  0.12504263439E+04  0.60003728732E+03 0.  0.
         23    2    4    4    0    0  0.43144745568E+03 -0.61653064116E+03  0.61102706801E+03  0.97366092704E+03  0.91676520916E+02 0.  0.
         23    2    4    4    0    0  0.18488191815E+03  0.11238361588E+03  0.14362197306E+03  0.27676541686E+03  0.95710104210E+02 0.  0.
          1    1    3    3  502    0 -0.22331696811E+03  0.21227398133E+03 -0.54853325467E+01  0.30815710322E+03  0.00000000000E+00 0. -1.
         -1    1    3    3    0  502 -0.39301240572E+03  0.29187304395E+03  0.92261948395E+02  0.49815749714E+03  0.00000000000E+00 0.  1.
         13    1    5    5    0    0  0.20585319939E+03 -0.34951942579E+03  0.28577797748E+03  0.49619393498E+03  0.00000000000E+00 0. -1.
        -13    1    5    5    0    0  0.22559425629E+03 -0.26701121538E+03  0.32524909053E+03  0.47746699205E+03  0.00000000000E+00 0.  1.
          5    1    6    6  503    0 -0.96132623428E+01  0.58951217029E+01  0.18345301953E+02  0.22041038463E+02  0.47000000000E+01 0. -1.
         -5    1    6    6    0  503  0.19449518049E+03  0.10648849418E+03  0.12527667110E+03  0.25472437840E+03  0.47000000000E+01 0.  1.
<mgrwt>
<rscale>  0 0.89342076E+03</rscale>
<asrwt>0</asrwt>
<pdfrwt beam="1">  1        1 0.22293589E+00 0.89342076E+03</pdfrwt>
<pdfrwt beam="2">  1       -1 0.93485792E-01 0.89342076E+03</pdfrwt>
<totfact> 0.80223271E+00</totfact>
</mgrwt>
</event>
<event>
12    1  0.3166324E-008  0.4288171E+03  0.7818608E-02  0.1034234E+00
         -2   -1    0    0    0  501 -0.00000000000E+00  0.00000000000E+00  0.70286843068E+03  0.70286843068E+03  0.00000000000E+00 0.  1.
          2   -1    0    0  501    0  0.00000000000E+00 -0.00000000000E+00 -0.66015081108E+03  0.66015081108E+03  0.00000000000E+00 0. -1.
         23    2    1    2    0    0 -0.26797334630E+03  0.37572873566E+02  0.48999262523E+03  0.56718156515E+03  0.91546271987E+02 0.  0.
    5000000    2    1    2    0    0  0.26797334630E+03 -0.37572873566E+02 -0.44727500563E+03  0.79583767661E+03  0.60006769759E+03 0.  0.
         23    2    4    4    0    0  0.41642609863E+03  0.15650192307E+02 -0.16032695320E+03  0.45580707861E+03  0.91650078327E+02 0.  0.
         23    2    4    4    0    0 -0.14845275233E+03 -0.53223065873E+02 -0.28694805244E+03  0.34003059800E+03  0.91709914207E+02 0.  0.
          3    1    3    3  502    0 -0.18869693386E+03  0.37351983136E+02  0.25661761508E+03  0.32070906420E+03  0.00000000000E+00 0. -1.
         -3    1    3    3    0  502 -0.79276412436E+02  0.22089043025E+00  0.23337501015E+03  0.24647250095E+03  0.00000000000E+00 0.  1.
         11    1    5    5    0    0  0.16813540315E+03  0.44288492725E+02 -0.91944041547E+02  0.19668424227E+03  0.00000000000E+00 0. -1.
        -11    1    5    5    0    0  0.24829069547E+03 -0.28638300418E+02 -0.68382911648E+02  0.25912283634E+03  0.00000000000E+00 0.  1.
          5    1    6    6  503    0 -0.16242339716E+02  0.50292609127E+01 -0.11065326637E+03  0.11205062437E+03  0.47000000000E+01 0. -1.
         -5    1    6    6    0  503 -0.13221041261E+03 -0.58252326786E+02 -0.17629478607E+03  0.22797997362E+03  0.47000000000E+01 0.  1.
<mgrwt>
<rscale>  0 0.42881714E+03</rscale>
<asrwt>0</asrwt>
<pdfrwt beam="1">  1        2 0.10156166E+00 0.42881714E+03</pdfrwt>
<pdfrwt beam="2">  1       -2 0.10813361E+00 0.42881714E+03</pdfrwt>
<totfact> 0.31682768E+01</totfact>
</mgrwt>
</event>
<event>
12    1  0.3166324E-008  0.1699559E+04  0.7818608E-02  0.8761616E-01
          1   -1    0    0  501    0  0.00000000000E+00  0.00000000000E+00  0.19043055244E+04  0.19043055244E+04  0.00000000000E+00 0. -1.
         -1   -1    0    0    0  501 -0.00000000000E+00 -0.00000000000E+00 -0.16075233834E+04  0.16075233834E+04  0.00000000000E+00 0.  1.
         23    2    1    2    0    0 -0.11392669653E+04  0.12575217725E+04  0.12658454348E+03  0.17039731756E+04  0.90612968195E+02 0.  0.
    5000000    2    1    2    0    0  0.11392669653E+04 -0.12575217725E+04  0.17019759751E+03  0.18078557322E+04  0.60007074556E+03 0.  0.
         23    2    4    4    0    0  0.59803657493E+03 -0.61145033196E+03 -0.19951053761E+03  0.88326095113E+03  0.93947856644E+02 0.  0.
         23    2    4    4    0    0  0.54123039032E+03 -0.64607144056E+03  0.36970813512E+03  0.92459478105E+03  0.88615812599E+02 0.  0.
          1    1    3    3  502    0 -0.99071284340E+03  0.10692715106E+04  0.13573404099E+03  0.14639935900E+04  0.00000000000E+00 0. -1.
         -1    1    3    3    0  502 -0.14855412186E+03  0.18825026188E+03 -0.91494975101E+01  0.23997958564E+03  0.00000000000E+00 0.  1.
         11    1    5    5    0    0  0.20736277810E+03 -0.20336126657E+03 -0.22841114356E+02  0.29133630564E+03  0.00000000000E+00 0. -1.
        -11    1    5    5    0    0  0.39067379683E+03 -0.40808906539E+03 -0.17666942325E+03  0.59192464549E+03  0.00000000000E+00 0.  1.
          5    1    6    6  503    0  0.25808217701E+03 -0.36673964150E+03  0.22065136143E+03  0.49981345324E+03  0.47000000000E+01 0. -1.
         -5    1    6    6    0  503  0.28314821331E+03 -0.27933179906E+03  0.14905677369E+03  0.42478132781E+03  0.47000000000E+01 0.  1.
<mgrwt>
<rscale>  0 0.16995594E+04</rscale>
<asrwt>0</asrwt>
<pdfrwt beam="1">  1        1 0.29297008E+00 0.16995594E+04</pdfrwt>
<pdfrwt beam="2">  1       -1 0.24731129E+00 0.16995594E+04</pdfrwt>
<totfact> 0.23196366E-01</totfact>
</mgrwt>
</event>
<event>
12    1  0.3166324E-008  0.1518938E+04  0.7818608E-02  0.8871956E-01
         -1   -1    0    0    0  501 -0.00000000000E+00  0.00000000000E+00  0.16787203212E+04  0.16787203212E+04  0.00000000000E+00 0.  1.
          1   -1    0    0  501    0  0.00000000000E+00 -0.00000000000E+00 -0.13806560392E+04  0.13806560392E+04  0.00000000000E+00 0. -1.
         23    2    1    2    0    0  0.14581876859E+04  0.10244200067E+03  0.15823532058E+03  0.14731055204E+04  0.90530474552E+02 0.  0.
    5000000    2    1    2    0    0 -0.14581876859E+04 -0.10244200067E+03  0.13982896141E+03  0.15862708399E+04  0.59991445089E+03 0.  0.
         23    2    4    4    0    0 -0.36374401161E+03  0.22003298928E+03  0.18886855113E+02  0.43521463887E+03  0.91273469502E+02 0.  0.
         23    2    4    4    0    0 -0.10944436743E+04 -0.32247498995E+03  0.12094210630E+03  0.11510562011E+04  0.92229656913E+02 0.  0.
          1    1    3    3  502    0  0.75686674017E+03  0.78002887638E+02  0.44244780101E+02  0.76216094981E+03  0.00000000000E+00 0. -1.
         -1    1    3    3    0  502  0.70132094572E+03  0.24439113027E+02  0.11399054048E+03  0.71094457060E+03  0.00000000000E+00 0.  1.
         11    1    5    5    0    0 -0.22314544646E+03  0.85435957578E+02  0.26633628815E+02  0.24042159492E+03  0.00000000000E+00 0. -1.
        -11    1    5    5    0    0 -0.14059856515E+03  0.13459703170E+03 -0.77467737018E+01  0.19479304395E+03  0.00000000000E+00 0.  1.
          5    1    6    6  503    0 -0.37528191951E+03 -0.91346502262E+02  0.15241742015E+01  0.38627078027E+03  0.47000000000E+01 0. -1.
         -5    1    6    6    0  503 -0.71916175477E+03 -0.23112848769E+03  0.11941793209E+03  0.76478542078E+03  0.47000000000E+01 0.  1.
<mgrwt>
<rscale>  0 0.15189377E+04</rscale>
<asrwt>0</asrwt>
<pdfrwt beam="1">  1        1 0.21240862E+00 0.15189377E+04</pdfrwt>
<pdfrwt beam="2">  1       -1 0.25826466E+00 0.15189377E+04</pdfrwt>
<totfact> 0.46123236E-01</totfact>
</mgrwt>
</event>
<event>
12    1  0.3166324E-008  0.6046580E+03  0.7818608E-02  0.9895789E-01
          2   -1    0    0  501    0  0.00000000000E+00  0.00000000000E+00  0.13649932451E+04  0.13649932451E+04  0.00000000000E+00 0. -1.
         -2   -1    0    0    0  501 -0.00000000000E+00 -0.00000000000E+00 -0.60276985130E+03  0.60276985130E+03  0.00000000000E+00 0.  1.
         23    2    1    2    0    0  0.17711247740E+03 -0.44394224947E+03  0.10428949976E+04  0.11508811529E+04  0.91890704253E+02 0.  0.
    5000000    2    1    2    0    0 -0.17711247740E+03  0.44394224947E+03 -0.28067160385E+03  0.81688194346E+03  0.60005500566E+03 0.  0.
         23    2    4    4    0    0 -0.36063201613E+03  0.19590060944E+03 -0.58407097941E+02  0.42492142145E+03  0.93350551604E+02 0.  0.
         23    2    4    4    0    0  0.18351953872E+03  0.24804164003E+03 -0.22226450591E+03  0.39196052200E+03  0.95012967219E+02 0.  0.
          1    1    3    3  502    0  0.77181281800E+02 -0.18517660987E+03  0.54770283449E+03  0.58328871240E+03  0.00000000000E+00 0. -1.
         -1    1    3    3    0  502  0.99931195604E+02 -0.25876563960E+03  0.49519216315E+03  0.56759244053E+03  0.00000000000E+00 0.  1.
         11    1    5    5    0    0 -0.15529294087E+03  0.92621871499E+02 -0.72107475214E+02  0.19466431759E+03  0.00000000000E+00 0. -1.
        -11    1    5    5    0    0 -0.20533907526E+03  0.10327873794E+03  0.13700377273E+02  0.23025710386E+03  0.00000000000E+00 0.  1.
          5    1    6    6  503    0  0.44063155311E+02  0.13173898994E+03 -0.11922800447E+03  0.18312326498E+03  0.47000000000E+01 0. -1.
         -5    1    6    6    0  503  0.13945638341E+03  0.11630265009E+03 -0.10303650144E+03  0.20883725702E+03  0.47000000000E+01 0.  1.
<mgrwt>
<rscale>  0 0.60465800E+03</rscale>
<asrwt>0</asrwt>
<pdfrwt beam="1">  1        2 0.20999896E+00 0.60465800E+03</pdfrwt>
<pdfrwt beam="2">  1       -2 0.92733823E-01 0.60465800E+03</pdfrwt>
<totfact> 0.15579228E+01</totfact>
</mgrwt>
</event>
<event>
12    1  0.3166324E-008  0.5901294E+03  0.7818608E-02  0.9926099E-01
          2   -1    0    0  501    0  0.00000000000E+00  0.00000000000E+00  0.16615926746E+03  0.16615926746E+03  0.00000000000E+00 0. -1.
         -2   -1    0    0    0  501 -0.00000000000E+00 -0.00000000000E+00 -0.34380749657E+04  0.34380749657E+04  0.00000000000E+00 0.  1.
         23    2    1    2    0    0  0.36510031417E+03  0.26630731950E+03 -0.24404677422E+04  0.24836120165E+04  0.90708435679E+02 0.  0.
    5000000    2    1    2    0    0 -0.36510031417E+03 -0.26630731950E+03 -0.83144795606E+03  0.11206222166E+04  0.60022547505E+03 0.  0.
         23    2    4    4    0    0 -0.12869376105E+03 -0.41949041960E+03 -0.42292756764E+03  0.61615642835E+03  0.90811455578E+02 0.  0.
         23    2    4    4    0    0 -0.23640655312E+03  0.15318310010E+03 -0.40852038842E+03  0.50446578826E+03  0.90794841571E+02 0.  0.
          2    1    3    3  502    0  0.29413932473E+03  0.17012140935E+03 -0.17106265510E+04  0.17440477153E+04  0.00000000000E+00 0. -1.
         -2    1    3    3    0  502  0.70960989439E+02  0.96185910148E+02 -0.72984119118E+03  0.73956430125E+03  0.00000000000E+00 0.  1.
         11    1    5    5    0    0 -0.71497643373E+02 -0.22381324685E+03 -0.28800767921E+03  0.37168899063E+03  0.00000000000E+00 0.  1.
        -11    1    5    5    0    0 -0.57196117678E+02 -0.19567717275E+03 -0.13491988843E+03  0.24446743772E+03  0.00000000000E+00 0. -1.
          5    1    6    6  503    0 -0.65585356329E+02  0.48632161826E+02 -0.56397481018E+02  0.99344310325E+02  0.47000000000E+01 0. -1.
         -5    1    6    6    0  503 -0.17082119679E+03  0.10455093827E+03 -0.35212290741E+03  0.40512147794E+03  0.47000000000E+01 0.  1.
<mgrwt>
<rscale>  0 0.59012939E+03</rscale>
<asrwt>0</asrwt>
<pdfrwt beam="1">  1        2 0.25562966E-01 0.59012939E+03</pdfrwt>
<pdfrwt beam="2">  1       -2 0.52893457E+00 0.59012939E+03</pdfrwt>
<totfact> 0.25477141E-01</totfact>
</mgrwt>
</event>
<event>
12    1  0.3166324E-008  0.7940129E+03  0.7818608E-02  0.9568724E-01
         -1   -1    0    0    0  501 -0.00000000000E+00  0.00000000000E+00  0.15239182596E+04  0.15239182596E+04  0.00000000000E+00 0.  1.
          1   -1    0    0  501    0  0.00000000000E+00 -0.00000000000E+00 -0.73929753269E+03  0.73929753269E+03  0.00000000000E+00 0. -1.
         23    2    1    2    0    0 -0.37926150392E+03  0.67726336348E+03  0.98944148443E+03  0.12609655695E+04  0.92275482129E+02 0.  0.
    5000000    2    1    2    0    0  0.37926150392E+03 -0.67726336348E+03 -0.20482075749E+03  0.10022502228E+04  0.60002417825E+03 0.  0.
         23    2    4    4    0    0  0.26213448386E+03 -0.56399477450E+03  0.10762640897E+03  0.63779667511E+03  0.91632753876E+02 0.  0.
         23    2    4    4    0    0  0.11712702006E+03 -0.11326858898E+03 -0.31244716646E+03  0.36445354766E+03  0.93030341798E+02 0.  0.
          2    1    3    3  502    0 -0.24180088935E+03  0.33791527975E+03  0.51949883689E+03  0.66523187530E+03  0.00000000000E+00 0. -1.
         -2    1    3    3    0  502 -0.13746061457E+03  0.33934808373E+03  0.46994264754E+03  0.59573369425E+03  0.00000000000E+00 0.  1.
         11    1    5    5    0    0  0.20688680332E+03 -0.48642722334E+03  0.62063981875E+02  0.53222695426E+03  0.00000000000E+00 0. -1.
        -11    1    5    5    0    0  0.55247680540E+02 -0.77567551160E+02  0.45562427092E+02  0.10556972085E+03  0.00000000000E+00 0.  1.
          5    1    6    6  503    0 -0.41250885852E+01 -0.40667845922E+02 -0.11058699182E+03  0.11799348629E+03  0.47000000000E+01 0. -1.
         -5    1    6    6    0  503  0.12125210864E+03 -0.72600743053E+02 -0.20186017464E+03  0.24646006137E+03  0.47000000000E+01 0.  1.
<mgrwt>
<rscale>  0 0.79401293E+03</rscale>
<asrwt>0</asrwt>
<pdfrwt beam="1">  1        1 0.11373808E+00 0.79401293E+03</pdfrwt>
<pdfrwt beam="2">  1       -1 0.23444896E+00 0.79401293E+03</pdfrwt>
<totfact> 0.22894833E+00</totfact>
</mgrwt>
</event>
<event>
12    1  0.3166324E-008  0.4918033E+03  0.7818608E-02  0.1015941E+00
         -1   -1    0    0    0  501 -0.00000000000E+00  0.00000000000E+00  0.26812295292E+03  0.26812295292E+03  0.00000000000E+00 0.  1.
          1   -1    0    0  501    0  0.00000000000E+00 -0.00000000000E+00 -0.11612898481E+04  0.11612898481E+04  0.00000000000E+00 0. -1.
         23    2    1    2    0    0  0.38564976345E+02 -0.38560417343E+03 -0.26619854441E+03  0.47899130383E+03  0.91614235428E+02 0.  0.
    5000000    2    1    2    0    0 -0.38564976345E+02  0.38560417343E+03 -0.62696835081E+03  0.95042149722E+03  0.60002822725E+03 0.  0.
         23    2    4    4    0    0 -0.17284771354E+03  0.39357617059E+03 -0.17778715512E+03  0.47276910491E+03  0.84402724512E+02 0.  0.
         23    2    4    4    0    0  0.13428273720E+03 -0.79719971597E+01 -0.44918119569E+03  0.47765239230E+03  0.91064016313E+02 0.  0.
          1    1    3    3  502    0 -0.23908050753E+02 -0.19677690675E+03 -0.15060278492E+03  0.24894566626E+03  0.00000000000E+00 0. -1.
         -1    1    3    3    0  502  0.62473027098E+02 -0.18882726667E+03 -0.11559575949E+03  0.23004563757E+03  0.00000000000E+00 0.  1.
         13    1    5    5    0    0 -0.12580148908E+03  0.19121714771E+03 -0.11217708627E+03  0.25489941333E+03  0.00000000000E+00 0. -1.
        -13    1    5    5    0    0 -0.47046224467E+02  0.20235902288E+03 -0.65610068847E+02  0.21786969158E+03  0.00000000000E+00 0.  1.
          5    1    6    6  503    0  0.27121539581E+02 -0.29601056941E+02 -0.22007820283E+03  0.22375948213E+03  0.47000000000E+01 0. -1.
         -5    1    6    6    0  503  0.10716119762E+03  0.21629059782E+02 -0.22910299286E+03  0.25389291018E+03  0.47000000000E+01 0.  1.
<mgrwt>
<rscale>  0 0.49180330E+03</rscale>
<asrwt>0</asrwt>
<pdfrwt beam="1">  1        1 0.17865997E+00 0.49180330E+03</pdfrwt>
<pdfrwt beam="2">  1       -1 0.41249686E-01 0.49180330E+03</pdfrwt>
<totfact> 0.69234310E+01</totfact>
</mgrwt>
</event>
<event>
12    1  0.3166324E-008  0.5250903E+03  0.7818608E-02  0.1007430E+00
         -2   -1    0    0    0  501 -0.00000000000E+00  0.00000000000E+00  0.17527382346E+04  0.17527382346E+04  0.00000000000E+00 0.  1.
          2   -1    0    0  501    0  0.00000000000E+00 -0.00000000000E+00 -0.36310412000E+03  0.36310412000E+03  0.00000000000E+00 0. -1.
         23    2    1    2    0    0  0.27409193290E+03 -0.39321757658E+03  0.12412561960E+04  0.13337323695E+04  0.91534906710E+02 0.  0.
    5000000    2    1    2    0    0 -0.27409193290E+03  0.39321757658E+03  0.14837791859E+03  0.78210998508E+03  0.59994464063E+03 0.  0.
         23    2    4    4    0    0 -0.15099881824E+02  0.25406490931E+03  0.32868799900E+03  0.42523465403E+03  0.89508243882E+02 0.  0.
         23    2    4    4    0    0 -0.25899205107E+03  0.13915266727E+03 -0.18031008041E+03  0.35687533105E+03  0.91694762575E+02 0.  0.
          2    1    3    3  502    0  0.84711131026E+02 -0.19940467394E+03  0.57673117025E+03  0.61608200951E+03  0.00000000000E+00 0. -1.
         -2    1    3    3    0  502  0.18938080187E+03 -0.19381290264E+03  0.66452502573E+03  0.71765035998E+03  0.00000000000E+00 0.  1.
         11    1    5    5    0    0  0.83107185972E+01  0.12546570215E+03  0.95445370931E+02  0.15786237453E+03  0.00000000000E+00 0. -1.
        -11    1    5    5    0    0 -0.23410600422E+02  0.12859920716E+03  0.23324262807E+03  0.26737227950E+03  0.00000000000E+00 0.  1.
          5    1    6    6  503    0  0.44375382915E+01 -0.25369727943E+01  0.10757873572E+01  0.70267556870E+01  0.47000000000E+01 0. -1.
         -5    1    6    6    0  503 -0.26342958937E+03  0.14168964007E+03 -0.18138586777E+03  0.34984857536E+03  0.47000000000E+01 0.  1.
<mgrwt>
<rscale>  0 0.52509032E+03</rscale>
<asrwt>0</asrwt>
<pdfrwt beam="1">  1        2 0.55862173E-01 0.52509032E+03</pdfrwt>
<pdfrwt beam="2">  1       -2 0.26965203E+00 0.52509032E+03</pdfrwt>
<totfact> 0.46182233E+00</totfact>
</mgrwt>
</event>
<event>
12    1  0.3166324E-008  0.8286716E+03  0.7818608E-02  0.9519419E-01
         -2   -1    0    0    0  501 -0.00000000000E+00  0.00000000000E+00  0.29045730297E+03  0.29045730297E+03  0.00000000000E+00 0.  1.
          2   -1    0    0  501    0  0.00000000000E+00 -0.00000000000E+00 -0.24588036862E+04  0.24588036862E+04  0.00000000000E+00 0. -1.
         23    2    1    2    0    0  0.40221757382E+02  0.72309907041E+03 -0.11601652204E+04  0.13707059492E+04  0.91440719031E+02 0.  0.
    5000000    2    1    2    0    0 -0.40221757382E+02 -0.72309907041E+03 -0.10081811628E+04  0.13785550400E+04  0.59957875699E+03 0.  0.
         23    2    4    4    0    0  0.24882073300E+03 -0.47791537562E+03 -0.53397259935E+03  0.76492783696E+03  0.98351387764E+02 0.  0.
         23    2    4    4    0    0 -0.28904249039E+03 -0.24518369479E+03 -0.47420856347E+03  0.61362720303E+03  0.89464949540E+02 0.  0.
          2    1    3    3  502    0  0.23705252789E+02  0.42644669228E+02 -0.65348236212E+02  0.81553042858E+02  0.00000000000E+00 0.  1.
         -2    1    3    3    0  502  0.16516504593E+02  0.68045440118E+03 -0.10948169842E+04  0.12891529064E+04  0.00000000000E+00 0. -1.
         11    1    5    5    0    0  0.68109598754E+01  0.43699386716E+01 -0.71299132111E+01  0.10785230680E+02  0.00000000000E+00 0. -1.
        -11    1    5    5    0    0  0.24200977313E+03 -0.48228531429E+03 -0.52684268614E+03  0.75414260628E+03  0.00000000000E+00 0.  1.
          5    1    6    6  503    0 -0.16655003573E+03 -0.12272717431E+03 -0.32328904015E+03  0.38384732276E+03  0.47000000000E+01 0. -1.
         -5    1    6    6    0  503 -0.12249245466E+03 -0.12245652048E+03 -0.15091952332E+03  0.22977988027E+03  0.47000000000E+01 0.  1.
<mgrwt>
<rscale>  0 0.82867162E+03</rscale>
<asrwt>0</asrwt>
<pdfrwt beam="1">  1        2 0.37827749E+00 0.82867162E+03</pdfrwt>
<pdfrwt beam="2">  1       -2 0.44685739E-01 0.82867162E+03</pdfrwt>
<totfact> 0.18047374E+01</totfact>
</mgrwt>
</event>
<event>
12    1  0.3166324E-008  0.6910050E+03  0.7818608E-02  0.9732740E-01
         -1   -1    0    0    0  501 -0.00000000000E+00  0.00000000000E+00  0.39036441187E+03  0.39036441187E+03  0.00000000000E+00 0.  1.
          1   -1    0    0  501    0  0.00000000000E+00 -0.00000000000E+00 -0.34419353320E+04  0.34419353320E+04  0.00000000000E+00 0. -1.
         23    2    1    2    0    0  0.50917089607E+03 -0.26984372344E+03  0.82987530021E+02  0.58923482695E+03  0.90775077342E+02 0.  0.
    5000000    2    1    2    0    0 -0.50917089607E+03  0.26984372344E+03 -0.31345584502E+04  0.32430649169E+04  0.59995228264E+03 0.  0.
         23    2    4    4    0    0 -0.12682271419E+01  0.27536441729E+03 -0.77196617601E+03  0.82472455069E+03  0.91714976446E+02 0.  0.
         23    2    4    4    0    0 -0.50790266893E+03 -0.55206938507E+01 -0.23625922742E+04  0.24183403662E+04  0.92370308596E+02 0.  0.
          3    1    3    3  502    0  0.48650743602E+03 -0.25493263555E+03  0.57923393958E+02  0.55229996699E+03  0.00000000000E+00 0. -1.
         -3    1    3    3    0  502  0.22663460049E+02 -0.14911087886E+02  0.25064136063E+02  0.36934859955E+02  0.00000000000E+00 0.  1.
         13    1    5    5    0    0  0.28799692267E+02  0.27909641856E+02 -0.13062544492E+03  0.13664324807E+03  0.00000000000E+00 0. -1.
        -13    1    5    5    0    0 -0.30067919409E+02  0.24745477543E+03 -0.64134073109E+03  0.68808130262E+03  0.00000000000E+00 0.  1.
          5    1    6    6  503    0 -0.38381003142E+03  0.35473652300E+02 -0.17558673337E+04  0.17976820364E+04  0.47000000000E+01 0. -1.
         -5    1    6    6    0  503 -0.12409263750E+03 -0.40994346151E+02 -0.60672494042E+03  0.62065832986E+03  0.47000000000E+01 0.  1.
<mgrwt>
<rscale>  0 0.69100498E+03</rscale>
<asrwt>0</asrwt>
<pdfrwt beam="1">  1        1 0.52952849E+00 0.69100498E+03</pdfrwt>
<pdfrwt beam="2">  1       -1 0.60056066E-01 0.69100498E+03</pdfrwt>
<totfact> 0.86347023E-01</totfact>
</mgrwt>
</event>
<event>
12    1  0.3166324E-008  0.9219066E+03  0.7818608E-02  0.9398604E-01
         -2   -1    0    0    0  501 -0.00000000000E+00  0.00000000000E+00  0.59776657236E+03  0.59776657236E+03  0.00000000000E+00 0.  1.
          2   -1    0    0  501    0  0.00000000000E+00 -0.00000000000E+00 -0.15688026110E+04  0.15688026110E+04  0.00000000000E+00 0. -1.
         23    2    1    2    0    0  0.55305913637E+03  0.61877155731E+03 -0.13750924924E+03  0.84618094791E+03  0.91437161643E+02 0.  0.
    5000000    2    1    2    0    0 -0.55305913637E+03 -0.61877155731E+03 -0.83352678940E+03  0.13203882354E+04  0.59992127416E+03 0.  0.
         23    2    4    4    0    0 -0.66287132520E+03 -0.54866539501E+03 -0.68781158968E+03  0.11053850206E+04  0.91428395145E+02 0.  0.
         23    2    4    4    0    0  0.10981218883E+03 -0.70106162301E+02 -0.14571519972E+03  0.21500321483E+03  0.89553738894E+02 0.  0.
          1    1    3    3  502    0  0.32846653812E+03  0.30651146559E+03 -0.94987980600E+02  0.45919741034E+03  0.00000000000E+00 0. -1.
         -1    1    3    3    0  502  0.22459259826E+03  0.31226009171E+03 -0.42521268639E+02  0.38698353758E+03  0.00000000000E+00 0.  1.
         11    1    5    5    0    0 -0.63803470033E+02 -0.65695076355E+02 -0.41836088533E+02  0.10068259109E+03  0.00000000000E+00 0.  1.
        -11    1    5    5    0    0 -0.59906785517E+03 -0.48297031865E+03 -0.64597550115E+03  0.10047024295E+04  0.00000000000E+00 0. -1.
          5    1    6    6  503    0  0.95658905354E+02 -0.21744961712E+02 -0.58916516111E+02  0.11452822973E+03  0.47000000000E+01 0. -1.
         -5    1    6    6    0  503  0.14153283476E+02 -0.48361200589E+02 -0.86798683611E+02  0.10047498511E+03  0.47000000000E+01 0.  1.
<mgrwt>
<rscale>  0 0.92190662E+03</rscale>
<asrwt>0</asrwt>
<pdfrwt beam="1">  1        2 0.24135424E+00 0.92190662E+03</pdfrwt>
<pdfrwt beam="2">  1       -2 0.91964090E-01 0.92190662E+03</pdfrwt>
<totfact> 0.11727089E+01</totfact>
</mgrwt>
</event>
<event>
12    1  0.3166324E-008  0.1516030E+04  0.7818608E-02  0.8873862E-01
          2   -1    0    0  501    0  0.00000000000E+00  0.00000000000E+00  0.16104900007E+04  0.16104900007E+04  0.00000000000E+00 0. -1.
         -2   -1    0    0    0  501 -0.00000000000E+00 -0.00000000000E+00 -0.15426779520E+04  0.15426779520E+04  0.00000000000E+00 0.  1.
         23    2    1    2    0    0 -0.76528075017E+03 -0.12388691696E+04 -0.39480245480E+03  0.15116501887E+04  0.93626217711E+02 0.  0.
    5000000    2    1    2    0    0  0.76528075017E+03  0.12388691696E+04  0.46261450349E+03  0.16415177640E+04  0.60009744610E+03 0.  0.
         23    2    4    4    0    0  0.61968442818E+01  0.51509365528E+03  0.15129582351E+03  0.54366062074E+03  0.85536949606E+02 0.  0.
         23    2    4    4    0    0  0.75908390589E+03  0.72377551431E+03  0.31131867998E+03  0.10978571433E+04  0.91168060458E+02 0.  0.
          1    1    3    3  502    0 -0.60861285330E+03 -0.10421475941E+04 -0.30704747361E+03  0.12452948904E+04  0.00000000000E+00 0. -1.
         -1    1    3    3    0  502 -0.15666789687E+03 -0.19672157547E+03 -0.87754981191E+02  0.26635529821E+03  0.00000000000E+00 0.  1.
         11    1    5    5    0    0  0.44015741247E+02  0.32942753494E+03  0.10591083689E+03  0.34882229233E+03  0.00000000000E+00 0.  1.
        -11    1    5    5    0    0 -0.37818896965E+02  0.18566612033E+03  0.45384986622E+02  0.19483832841E+03  0.00000000000E+00 0. -1.
          5    1    6    6  503    0  0.55469758577E+03  0.47841847355E+03  0.23753214069E+03  0.77007613608E+03  0.47000000000E+01 0. -1.
         -5    1    6    6    0  503  0.20438632011E+03  0.24535704075E+03  0.73786539292E+02  0.32778100719E+03  0.47000000000E+01 0.  1.
<mgrwt>
<rscale>  0 0.15160302E+04</rscale>
<asrwt>0</asrwt>
<pdfrwt beam="1">  1        2 0.24776769E+00 0.15160302E+04</pdfrwt>
<pdfrwt beam="2">  1       -2 0.23733507E+00 0.15160302E+04</pdfrwt>
<totfact> 0.79432623E-01</totfact>
</mgrwt>
</event>
<event>
12    1  0.3166324E-008  0.1400253E+04  0.7818608E-02  0.8953636E-01
         -2   -1    0    0    0  501 -0.00000000000E+00  0.00000000000E+00  0.70231192035E+03  0.70231192035E+03  0.00000000000E+00 0.  1.
          2   -1    0    0  501    0  0.00000000000E+00 -0.00000000000E+00 -0.30757250184E+04  0.30757250184E+04  0.00000000000E+00 0. -1.
         23    2    1    2    0    0 -0.16850775571E+03 -0.13507264142E+04 -0.15962184647E+04  0.20997461836E+04  0.90354516670E+02 0.  0.
    5000000    2    1    2    0    0  0.16850775571E+03  0.13507264142E+04 -0.77719463341E+03  0.16782907552E+04  0.59980967899E+03 0.  0.
         23    2    4    4    0    0  0.25198563910E+03  0.37225426894E+03 -0.44164575243E+03  0.63656213788E+03  0.89946549027E+02 0.  0.
         23    2    4    4    0    0 -0.83477883392E+02  0.97847214529E+03 -0.33554888097E+03  0.10417286173E+04  0.90714742614E+02 0.  0.
          1    1    3    3  502    0 -0.65373111754E+02 -0.59340569830E+03 -0.63269700992E+03  0.86989049476E+03  0.00000000000E+00 0. -1.
         -1    1    3    3    0  502 -0.10313464395E+03 -0.75732071593E+03 -0.96352145476E+03  0.12298556888E+04  0.00000000000E+00 0.  1.
         11    1    5    5    0    0  0.20242861373E+03  0.34458573740E+03 -0.36540349400E+03  0.54151305386E+03  0.00000000000E+00 0. -1.
        -11    1    5    5    0    0  0.49557025367E+02  0.27668531536E+02 -0.76242258436E+02  0.95049084015E+02  0.00000000000E+00 0.  1.
          5    1    6    6  503    0 -0.23057241420E+01  0.20384923194E+03 -0.35124750328E+02  0.20691946214E+03  0.47000000000E+01 0. -1.
         -5    1    6    6    0  503 -0.81172159250E+02  0.77462291335E+03 -0.30042413064E+03  0.83480915519E+03  0.47000000000E+01 0.  1.
<mgrwt>
<rscale>  0 0.14002526E+04</rscale>
<asrwt>0</asrwt>
<pdfrwt beam="1">  1        2 0.47318847E+00 0.14002526E+04</pdfrwt>
<pdfrwt beam="2">  1       -2 0.10804799E+00 0.14002526E+04</pdfrwt>
<totfact> 0.10339470E+00</totfact>
</mgrwt>
</event>
<event>
12    1  0.3166324E-008  0.1041211E+04  0.7818608E-02  0.9264466E-01
          2   -1    0    0  501    0  0.00000000000E+00  0.00000000000E+00  0.22639211144E+04  0.22639211144E+04  0.00000000000E+00 0. -1.
         -2   -1    0    0    0  501 -0.00000000000E+00 -0.00000000000E+00 -0.71093199103E+03  0.71093199103E+03  0.00000000000E+00 0.  1.
         23    2    1    2    0    0  0.68423632404E+03 -0.74564290303E+03  0.14804581244E+04  0.17961011307E+04  0.10030118515E+03 0.  0.
    5000000    2    1    2    0    0 -0.68423632404E+03  0.74564290303E+03  0.72530998950E+02  0.11787519747E+04  0.60002732107E+03 0.  0.
         23    2    4    4    0    0 -0.65085279634E+03  0.51358806613E+03 -0.14483087670E+03  0.84646104875E+03  0.90212305311E+02 0.  0.
         23    2    4    4    0    0 -0.33383527701E+02  0.23205483690E+03  0.21736187565E+03  0.33229092593E+03  0.90593417094E+02 0.  0.
          3    1    3    3  502    0  0.31129976699E+03 -0.27801164014E+03  0.65628570332E+03  0.77775892239E+03  0.00000000000E+00 0. -1.
         -3    1    3    3    0  502  0.37293655705E+03 -0.46763126288E+03  0.82417242107E+03  0.10183422083E+04  0.00000000000E+00 0.  1.
         11    1    5    5    0    0 -0.18239659609E+03  0.12771208591E+03 -0.70982955934E+00  0.22266431913E+03  0.00000000000E+00 0. -1.
        -11    1    5    5    0    0 -0.46845620025E+03  0.38587598021E+03 -0.14412104714E+03  0.62379672962E+03  0.00000000000E+00 0.  1.
          5    1    6    6  503    0 -0.19630922896E+02  0.20972412324E+03  0.14659466889E+03  0.25667424481E+03  0.47000000000E+01 0. -1.
         -5    1    6    6    0  503 -0.13752604805E+02  0.22330713662E+02  0.70767206758E+02  0.75616681122E+02  0.47000000000E+01 0.  1.
<mgrwt>
<rscale>  0 0.10412106E+04</rscale>
<asrwt>0</asrwt>
<pdfrwt beam="1">  1        2 0.34829555E+00 0.10412106E+04</pdfrwt>
<pdfrwt beam="2">  1       -2 0.10937415E+00 0.10412106E+04</pdfrwt>
<totfact> 0.31602015E+00</totfact>
</mgrwt>
</event>
<event>
12    1  0.3166324E-008  0.9204412E+03  0.7818608E-02  0.9400384E-01
         -2   -1    0    0    0  501 -0.00000000000E+00  0.00000000000E+00  0.20780130008E+04  0.20780130008E+04  0.00000000000E+00 0.  1.
          2   -1    0    0  501    0  0.00000000000E+00 -0.00000000000E+00 -0.48794813038E+03  0.48794813038E+03  0.00000000000E+00 0. -1.
         23    2    1    2    0    0  0.16741231022E+03  0.88625573550E+03  0.92245955593E+03  0.12934340244E+04  0.92540979127E+02 0.  0.
    5000000    2    1    2    0    0 -0.16741231022E+03 -0.88625573550E+03  0.66760531451E+03  0.12725271068E+04  0.60012687932E+03 0.  0.
         23    2    4    4    0    0 -0.15296705112E+03 -0.24418510274E+03 -0.48020700842E+02  0.30665384896E+03  0.93302262816E+02 0.  0.
         23    2    4    4    0    0 -0.14445259103E+02 -0.64207063276E+03  0.71562601535E+03  0.96587325785E+03  0.91253457006E+02 0.  0.
          2    1    3    3  502    0  0.37048756888E+02  0.92452269082E+02  0.13466083079E+03  0.16749200517E+03  0.00000000000E+00 0. -1.
         -2    1    3    3    0  502  0.13036355333E+03  0.79380346641E+03  0.78779872514E+03  0.11259420192E+04  0.00000000000E+00 0.  1.
         11    1    5    5    0    0 -0.91684264116E+02 -0.18967343028E+03 -0.69554091598E+02  0.22185532696E+03  0.00000000000E+00 0.  1.
        -11    1    5    5    0    0 -0.61282786999E+02 -0.54511672456E+02  0.21533390756E+02  0.84798522003E+02  0.00000000000E+00 0. -1.
          5    1    6    6  503    0 -0.18141020528E+02 -0.84454253977E+02  0.60597286014E+02  0.10562073051E+03  0.47000000000E+01 0. -1.
         -5    1    6    6    0  503  0.36957614249E+01 -0.55761637878E+03  0.65502872934E+03  0.86025252734E+03  0.47000000000E+01 0.  1.
<mgrwt>
<rscale>  0 0.92044117E+03</rscale>
<asrwt>0</asrwt>
<pdfrwt beam="1">  1        2 0.75068945E-01 0.92044117E+03</pdfrwt>
<pdfrwt beam="2">  1       -2 0.31969430E+00 0.92044117E+03</pdfrwt>
<totfact> 0.15547948E+00</totfact>
</mgrwt>
</event>
<event>
12    1  0.3166324E-008  0.5558380E+03  0.7818608E-02  0.1000152E+00
         -2   -1    0    0    0  501 -0.00000000000E+00  0.00000000000E+00  0.54849253550E+03  0.54849253550E+03  0.00000000000E+00 0.  1.
          2   -1    0    0  501    0  0.00000000000E+00 -0.00000000000E+00 -0.59378409603E+03  0.59378409603E+03  0.00000000000E+00 0. -1.
         23    2    1    2    0    0 -0.27997835516E+03  0.29469409608E+03 -0.12401100715E+02  0.41679792047E+03  0.91292001768E+02 0.  0.
    5000000    2    1    2    0    0  0.27997835516E+03 -0.29469409608E+03 -0.32890459813E+02  0.72547871105E+03  0.60000424017E+03 0.  0.
         23    2    4    4    0    0  0.60527563616E+02 -0.42329866025E+03  0.58784542787E+02  0.44109090119E+03  0.90885746468E+02 0.  0.
         23    2    4    4    0    0  0.21945079155E+03  0.12860456417E+03 -0.91675002600E+02  0.28438780987E+03  0.88172197787E+02 0.  0.
          1    1    3    3  502    0 -0.67767277409E+02  0.13091038205E+03 -0.19142928634E+02  0.14864852415E+03  0.00000000000E+00 0. -1.
         -1    1    3    3    0  502 -0.21221107775E+03  0.16378371403E+03  0.67418279194E+01  0.26814939632E+03  0.00000000000E+00 0.  1.
         13    1    5    5    0    0  0.64954486256E+02 -0.34616320250E+03  0.79571104862E+02  0.36108116647E+03  0.00000000000E+00 0. -1.
        -13    1    5    5    0    0 -0.44269226406E+01 -0.77135457753E+02 -0.20786562076E+02  0.80009734719E+02  0.00000000000E+00 0.  1.
          5    1    6    6  503    0  0.14579661528E+03  0.39682496942E+02 -0.70904893560E+02  0.16697588905E+03  0.47000000000E+01 0. -1.
         -5    1    6    6    0  503  0.73654176263E+02  0.88922067229E+02 -0.20770109039E+02  0.11741192082E+03  0.47000000000E+01 0.  1.
<mgrwt>
<rscale>  0 0.55583805E+03</rscale>
<asrwt>0</asrwt>
<pdfrwt beam="1">  1        2 0.91351399E-01 0.55583805E+03</pdfrwt>
<pdfrwt beam="2">  1       -2 0.84383467E-01 0.55583805E+03</pdfrwt>
<totfact> 0.63200172E+01</totfact>
</mgrwt>
</event>
<event>
12    1  0.4121652E-008  0.1327187E+04  0.7818608E-02  0.9008279E-01
         -1   -1    0    0    0  501 -0.00000000000E+00  0.00000000000E+00  0.13041761624E+04  0.13041761624E+04  0.00000000000E+00 0.  1.
          1   -1    0    0  501    0  0.00000000000E+00 -0.00000000000E+00 -0.13927447723E+04  0.13927447723E+04  0.00000000000E+00 0. -1.
         23    2    1    2    0    0  0.12350272485E+04 -0.26220159720E+03 -0.24796322235E+03  0.12900220786E+04  0.92893603524E+02 0.  0.
    5000000    2    1    2    0    0 -0.12350272485E+04  0.26220159720E+03  0.15939461245E+03  0.14068988560E+04  0.59992980130E+03 0.  0.
         23    2    4    4    0    0 -0.20002294541E+03  0.28333481131E+03  0.41058789568E+02  0.36100635406E+03  0.91389110280E+02 0.  0.
         23    2    4    4    0    0 -0.10350043031E+04 -0.21133214112E+02  0.11833582288E+03  0.10458925019E+04  0.90593810743E+02 0.  0.
          4    1    3    3  502    0  0.44948158539E+03 -0.10929321442E+03 -0.47520200926E+02  0.46501276523E+03  0.00000000000E+00 0. -1.
         -4    1    3    3    0  502  0.78554566308E+03 -0.15290838278E+03 -0.20044302142E+03  0.82500931337E+03  0.00000000000E+00 0.  1.
         13    1    5    5    0    0 -0.14376040549E+03  0.14177705812E+03 -0.46615691719E+01  0.20196415183E+03  0.00000000000E+00 0.  1.
        -13    1    5    5    0    0 -0.56262539919E+02  0.14155775319E+03  0.45720358740E+02  0.15904220223E+03  0.00000000000E+00 0. -1.
          5    1    6    6  503    0 -0.59150350914E+03 -0.43966464013E+02  0.98998485020E+02  0.60135866280E+03  0.47000000000E+01 0. -1.
         -5    1    6    6    0  503 -0.44350079393E+03  0.22833249900E+02  0.19337337861E+02  0.44453383915E+03  0.47000000000E+01 0.  1.
<mgrwt>
<rscale>  0 0.13271869E+04</rscale>
<asrwt>0</asrwt>
<pdfrwt beam="1">  1        1 0.21426843E+00 0.13271869E+04</pdfrwt>
<pdfrwt beam="2">  1       -1 0.20064249E+00 0.13271869E+04</pdfrwt>
<totfact> 0.11182525E+00</totfact>
</mgrwt>
</event>
<event>
12    1  0.3166324E-008  0.1860213E+04  0.7818608E-02  0.8674918E-01
          1   -1    0    0  501    0  0.00000000000E+00  0.00000000000E+00  0.30493301390E+04  0.30493301390E+04  0.00000000000E+00 0. -1.
         -1   -1    0    0    0  501 -0.00000000000E+00 -0.00000000000E+00 -0.13921612686E+04  0.13921612686E+04  0.00000000000E+00 0.  1.
         23    2    1    2    0    0  0.18238406965E+04 -0.69557968550E+01 -0.11359190167E+03  0.18295690328E+04  0.89311009075E+02 0.  0.
    5000000    2    1    2    0    0 -0.18238406965E+04  0.69557968550E+01  0.17707607720E+04  0.26119223748E+04  0.60008458643E+03 0.  0.
         23    2    4    4    0    0 -0.17937924630E+04  0.75817657957E+02  0.16159486087E+04  0.24171530267E+04  0.88877057597E+02 0.  0.
         23    2    4    4    0    0 -0.30048233559E+02 -0.68861861102E+02  0.15481216339E+03  0.19476934809E+03  0.91232893016E+02 0.  0.
          2    1    3    3  502    0  0.16295085244E+04 -0.33327643249E+02 -0.10657855119E+03  0.16333302637E+04  0.00000000000E+00 0. -1.
         -2    1    3    3    0  502  0.19433217215E+03  0.26371846395E+02 -0.70133504774E+01  0.19623876910E+03  0.00000000000E+00 0.  1.
         13    1    5    5    0    0 -0.50427722627E+03  0.52630232565E+02  0.42282779329E+03  0.66018846180E+03  0.00000000000E+00 0.  1.
        -13    1    5    5    0    0 -0.12895152367E+04  0.23187425392E+02  0.11931208154E+04  0.17569645649E+04  0.00000000000E+00 0. -1.
          5    1    6    6  503    0 -0.16857149062E+01 -0.68793460520E+02  0.47688714361E+02  0.83855144878E+02  0.47000000000E+01 0. -1.
         -5    1    6    6    0  503 -0.28362518653E+02 -0.68400582328E-01  0.10712344902E+03  0.11091420321E+03  0.47000000000E+01 0.  1.
<mgrwt>
<rscale>  0 0.18602132E+04</rscale>
<asrwt>0</asrwt>
<pdfrwt beam="1">  1        1 0.46912771E+00 0.18602132E+04</pdfrwt>
<pdfrwt beam="2">  1       -1 0.21417866E+00 0.18602132E+04</pdfrwt>
<totfact> 0.60027278E-02</totfact>
</mgrwt>
</event>
<event>
12    1  0.3166324E-008  0.9018691E+03  0.7818608E-02  0.9423248E-01
         -2   -1    0    0    0  501 -0.00000000000E+00  0.00000000000E+00  0.46213087847E+03  0.46213087847E+03  0.00000000000E+00 0.  1.
          2   -1    0    0  501    0  0.00000000000E+00 -0.00000000000E+00 -0.18500229059E+04  0.18500229059E+04  0.00000000000E+00 0. -1.
         23    2    1    2    0    0  0.18110287869E+03  0.79987678459E+03 -0.73557950736E+03  0.11045431994E+04  0.79607439312E+02 0.  0.
    5000000    2    1    2    0    0 -0.18110287869E+03 -0.79987678459E+03 -0.65231252005E+03  0.12076105850E+04  0.60017545600E+03 0.  0.
         23    2    4    4    0    0 -0.33909444762E+03 -0.71226578339E+03 -0.60891614480E+03  0.10008403968E+04  0.92709427205E+02 0.  0.
         23    2    4    4    0    0  0.15799156893E+03 -0.87611001202E+02 -0.43396375251E+02  0.20677018819E+03  0.90739417867E+02 0.  0.
          2    1    3    3  502    0  0.12673820447E+03  0.56224766863E+03 -0.56436021391E+03  0.80665200947E+03  0.00000000000E+00 0. -1.
         -2    1    3    3    0  502  0.54364674222E+02  0.23762911597E+03 -0.17121929345E+03  0.29789118988E+03  0.00000000000E+00 0.  1.
         11    1    5    5    0    0 -0.23869593876E+03 -0.40212943810E+03 -0.33841147160E+03  0.57724012358E+03  0.00000000000E+00 0.  1.
        -11    1    5    5    0    0 -0.10039850885E+03 -0.31013634529E+03 -0.27050467320E+03  0.42360027322E+03  0.00000000000E+00 0. -1.
          5    1    6    6  503    0  0.94088965875E+02 -0.83339173529E+02 -0.61557386876E+02  0.14003411450E+03  0.47000000000E+01 0. -1.
         -5    1    6    6    0  503  0.63902603053E+02 -0.42718276731E+01  0.18161011625E+02  0.66736073693E+02  0.47000000000E+01 0.  1.
<mgrwt>
<rscale>  0 0.90186908E+03</rscale>
<asrwt>0</asrwt>
<pdfrwt beam="1">  1        2 0.28461891E+00 0.90186908E+03</pdfrwt>
<pdfrwt beam="2">  1       -2 0.71097058E-01 0.90186908E+03</pdfrwt>
<totfact> 0.14714043E+01</totfact>
</mgrwt>
</event>
<event>
12    1  0.3166324E-008  0.7449491E+03  0.7818608E-02  0.9643308E-01
          1   -1    0    0  501    0  0.00000000000E+00  0.00000000000E+00  0.12182873118E+04  0.12182873118E+04  0.00000000000E+00 0. -1.
         -1   -1    0    0    0  501 -0.00000000000E+00 -0.00000000000E+00 -0.48795978853E+03  0.48795978853E+03  0.00000000000E+00 0.  1.
         23    2    1    2    0    0 -0.63998011999E+03 -0.95995728631E+02  0.38635829088E+03  0.75903589499E+03  0.89850025367E+02 0.  0.
    5000000    2    1    2    0    0  0.63998011999E+03  0.95995728631E+02  0.34396923236E+03  0.94721120531E+03  0.60008707764E+03 0.  0.
         23    2    4    4    0    0  0.55625989591E+03 -0.15363377532E+03  0.32169363354E+03  0.66685924353E+03  0.90476782190E+02 0.  0.
         23    2    4    4    0    0  0.83720224085E+02  0.24962950395E+03  0.22275598822E+02  0.28035196178E+03  0.93685938146E+02 0.  0.
          3    1    3    3  502    0 -0.36297069794E+03 -0.55296821242E+02  0.27042634732E+03  0.45599986330E+03  0.00000000000E+00 0. -1.
         -3    1    3    3    0  502 -0.27700942205E+03 -0.40698907389E+02  0.11593194355E+03  0.30303603169E+03  0.00000000000E+00 0.  1.
         11    1    5    5    0    0  0.17467921552E+03 -0.72115337864E+02  0.65188416568E+02  0.19990742843E+03  0.00000000000E+00 0. -1.
        -11    1    5    5    0    0  0.38158068039E+03 -0.81518437452E+02  0.25650521697E+03  0.46695181510E+03  0.00000000000E+00 0.  1.
          5    1    6    6  503    0  0.15324531770E+02  0.44049281011E+02 -0.32237683892E+02  0.56890585287E+02  0.47000000000E+01 0. -1.
         -5    1    6    6    0  503  0.68395692315E+02  0.20558022294E+03  0.54513282714E+02  0.22346137649E+03  0.47000000000E+01 0.  1.
<mgrwt>
<rscale>  0 0.74494909E+03</rscale>
<asrwt>0</asrwt>
<pdfrwt beam="1">  1        1 0.18742882E+00 0.74494909E+03</pdfrwt>
<pdfrwt beam="2">  1       -1 0.75070737E-01 0.74494909E+03</pdfrwt>
<totfact> 0.19085747E+01</totfact>
</mgrwt>
</event>
<event>
12    1  0.3166324E-008  0.6174432E+03  0.7818608E-02  0.9869863E-01
         -2   -1    0    0    0  501 -0.00000000000E+00  0.00000000000E+00  0.78123617218E+03  0.78123617218E+03  0.00000000000E+00 0.  1.
          2   -1    0    0  501    0  0.00000000000E+00 -0.00000000000E+00 -0.61750464232E+03  0.61750464232E+03  0.00000000000E+00 0. -1.
         23    2    1    2    0    0  0.27946663975E+03 -0.48391439442E+03  0.19023319617E+02  0.56619716213E+03  0.89121242447E+02 0.  0.
    5000000    2    1    2    0    0 -0.27946663975E+03  0.48391439442E+03  0.14470821024E+03  0.83254365237E+03  0.59992809831E+03 0.  0.
         23    2    4    4    0    0  0.42284359875E+02  0.27310209036E+03  0.29044065299E+03  0.41119239167E+03  0.91382116476E+02 0.  0.
         23    2    4    4    0    0 -0.32175099963E+03  0.21081230406E+03 -0.14573244275E+03  0.42135126070E+03  0.91287494881E+02 0.  0.
          1    1    3    3  502    0  0.55725688695E+02 -0.46016257701E+02 -0.12915820621E+02  0.73414349930E+02  0.00000000000E+00 0. -1.
         -1    1    3    3    0  502  0.22374095106E+03 -0.43789813672E+03  0.31939140239E+02  0.49278281220E+03  0.00000000000E+00 0.  1.
         11    1    5    5    0    0  0.15730790454E+02  0.52262468580E+02  0.13942694105E+02  0.56331359910E+02  0.00000000000E+00 0.  1.
        -11    1    5    5    0    0  0.26553569420E+02  0.22083962178E+03  0.27649795888E+03  0.35486103176E+03  0.00000000000E+00 0. -1.
          5    1    6    6  503    0 -0.17811841271E+03  0.66462284781E+02 -0.88616641547E+02  0.20980563244E+03  0.47000000000E+01 0. -1.
         -5    1    6    6    0  503 -0.14363258692E+03  0.14435001928E+03 -0.57115801200E+02  0.21154562826E+03  0.47000000000E+01 0.  1.
<mgrwt>
<rscale>  0 0.61744321E+03</rscale>
<asrwt>0</asrwt>
<pdfrwt beam="1">  1        2 0.95000714E-01 0.61744321E+03</pdfrwt>
<pdfrwt beam="2">  1       -2 0.12019018E+00 0.61744321E+03</pdfrwt>
<totfact> 0.25982070E+01</totfact>
</mgrwt>
</event>
<event>
12    1  0.3166324E-008  0.6705127E+03  0.7818608E-02  0.9769032E-01
         -1   -1    0    0    0  501 -0.00000000000E+00  0.00000000000E+00  0.27896056770E+03  0.27896056770E+03  0.00000000000E+00 0.  1.
          1   -1    0    0  501    0  0.00000000000E+00 -0.00000000000E+00 -0.21439517900E+04  0.21439517900E+04  0.00000000000E+00 0. -1.
         23    2    1    2    0    0 -0.51509211198E+03 -0.16821160337E+03 -0.13671880907E+04  0.14734665744E+04  0.91024408573E+02 0.  0.
    5000000    2    1    2    0    0  0.51509211198E+03  0.16821160337E+03 -0.49780313152E+03  0.94944578331E+03  0.60002025829E+03 0.  0.
         23    2    4    4    0    0  0.43866462295E+03  0.36297223557E+03 -0.39852303042E+03  0.70081735361E+03  0.90271048078E+02 0.  0.
         23    2    4    4    0    0  0.76427489035E+02 -0.19476063220E+03 -0.99280101103E+02  0.24862842970E+03  0.90480343992E+02 0.  0.
          3    1    3    3  502    0 -0.21930463895E+03 -0.57813694761E+02 -0.45918033048E+03  0.51213623565E+03  0.00000000000E+00 0. -1.
         -3    1    3    3    0  502 -0.29578747303E+03 -0.11039790861E+03 -0.90800776025E+03  0.96133033870E+03  0.00000000000E+00 0.  1.
         11    1    5    5    0    0  0.27211890932E+03  0.24976578245E+03 -0.30389840850E+03  0.47831567984E+03  0.00000000000E+00 0.  1.
        -11    1    5    5    0    0  0.16654571362E+03  0.11320645312E+03 -0.94624621920E+02  0.22250167376E+03  0.00000000000E+00 0. -1.
          5    1    6    6  503    0  0.41266607640E+00 -0.12310508978E+03 -0.48755875301E+02  0.13249248582E+03  0.47000000000E+01 0. -1.
         -5    1    6    6    0  503  0.76014822959E+02 -0.71655542412E+02 -0.50524225802E+02  0.11613594388E+03  0.47000000000E+01 0.  1.
<mgrwt>
<rscale>  0 0.67051268E+03</rscale>
<asrwt>0</asrwt>
<pdfrwt beam="1">  1        1 0.32983875E+00 0.67051268E+03</pdfrwt>
<pdfrwt beam="2">  1       -1 0.42917009E-01 0.67051268E+03</pdfrwt>
<totfact> 0.13482791E+01</totfact>
</mgrwt>
</event>
<event>
12    1  0.3166324E-008  0.6919469E+03  0.7818608E-02  0.9731104E-01
          1   -1    0    0  501    0  0.00000000000E+00  0.00000000000E+00  0.88872263409E+03  0.88872263409E+03  0.00000000000E+00 0. -1.
         -1   -1    0    0    0  501 -0.00000000000E+00 -0.00000000000E+00 -0.75721145114E+03  0.75721145114E+03  0.00000000000E+00 0.  1.
         23    2    1    2    0    0  0.42616548346E+02  0.60394098645E+03  0.42439302757E+03  0.74465203778E+03  0.88523048991E+02 0.  0.
    5000000    2    1    2    0    0 -0.42616548346E+02 -0.60394098645E+03 -0.29288184462E+03  0.90128204745E+03  0.59997389014E+03 0.  0.
         23    2    4    4    0    0 -0.22597555648E+03 -0.13144306203E+03  0.51610881146E+02  0.28186274212E+03  0.91873236928E+02 0.  0.
         23    2    4    4    0    0  0.18335900813E+03 -0.47249792442E+03 -0.34449272576E+03  0.61941930533E+03  0.90167750693E+02 0.  0.
          2    1    3    3  502    0  0.46228951092E+02  0.35550492961E+03  0.29640056984E+03  0.46516036880E+03  0.00000000000E+00 0.  1.
         -2    1    3    3    0  502 -0.36124027460E+01  0.24843605685E+03  0.12799245773E+03  0.27949166898E+03  0.00000000000E+00 0. -1.
         11    1    5    5    0    0 -0.27304237355E+02 -0.46470011255E+02 -0.14645983761E+02  0.55852378319E+02  0.00000000000E+00 0.  1.
        -11    1    5    5    0    0 -0.19867131912E+03 -0.84973050776E+02  0.66256864907E+02  0.22601036381E+03  0.00000000000E+00 0. -1.
          5    1    6    6  503    0  0.79930284919E+02 -0.21462797652E+03 -0.20973944685E+03  0.31059095981E+03  0.47000000000E+01 0. -1.
         -5    1    6    6    0  503  0.10342872321E+03 -0.25786994790E+03 -0.13475327891E+03  0.30882834552E+03  0.47000000000E+01 0.  1.
<mgrwt>
<rscale>  0 0.69194692E+03</rscale>
<asrwt>0</asrwt>
<pdfrwt beam="1">  1        1 0.13672656E+00 0.69194692E+03</pdfrwt>
<pdfrwt beam="2">  1       -1 0.11649407E+00 0.69194692E+03</pdfrwt>
<totfact> 0.12846130E+01</totfact>
</mgrwt>
</event>
<event>
12    1  0.3342037E-008  0.6524575E+03  0.7818608E-02  0.9802179E-01
          2   -1    0    0  501    0  0.00000000000E+00  0.00000000000E+00  0.16408409986E+04  0.16408409986E+04  0.00000000000E+00 0. -1.
         -2   -1    0    0    0  501 -0.00000000000E+00 -0.00000000000E+00 -0.33855348031E+03  0.33855348031E+03  0.00000000000E+00 0.  1.
         23    2    1    2    0    0 -0.22025633608E+03 -0.55576393396E+03  0.33064527105E+03  0.69039713732E+03  0.99677018817E+02 0.  0.
    5000000    2    1    2    0    0  0.22025633608E+03  0.55576393396E+03  0.97164224723E+03  0.12889973416E+04  0.60003257088E+03 0.  0.
         23    2    4    4    0    0  0.14536528816E+03  0.56779049196E+03  0.42460251189E+03  0.72943506580E+03  0.90945656002E+02 0.  0.
         23    2    4    4    0    0  0.74891047916E+02 -0.12026557996E+02  0.54703973534E+03  0.55956227578E+03  0.90023115275E+02 0.  0.
          2    1    3    3  502    0 -0.55985340895E+02 -0.18822730190E+03  0.60136207281E+02  0.20537828269E+03  0.00000000000E+00 0. -1.
         -2    1    3    3    0  502 -0.16427099518E+03 -0.36753663207E+03  0.27050906377E+03  0.48501885463E+03  0.00000000000E+00 0.  1.
         13    1    5    5    0    0  0.10446650226E+03  0.26621112697E+03  0.24115480752E+03  0.37408188329E+03  0.00000000000E+00 0. -1.
        -13    1    5    5    0    0  0.40898785896E+02  0.30157936500E+03  0.18344770438E+03  0.35535318251E+03  0.00000000000E+00 0.  1.
          5    1    6    6  503    0  0.71433564512E+01 -0.40949964349E+02  0.15023321776E+03  0.15594882763E+03  0.47000000000E+01 0. -1.
         -5    1    6    6    0  503  0.67747691465E+02  0.28923406353E+02  0.39680651758E+03  0.40361344815E+03  0.47000000000E+01 0.  1.
<mgrwt>
<rscale>  0 0.65245754E+03</rscale>
<asrwt>0</asrwt>
<pdfrwt beam="1">  1        2 0.25243707E+00 0.65245754E+03</pdfrwt>
<pdfrwt beam="2">  1       -2 0.52085151E-01 0.65245754E+03</pdfrwt>
<totfact> 0.38196731E+01</totfact>
</mgrwt>
</event>
<event>
12    1  0.3166324E-008  0.5417055E+03  0.7818608E-02  0.1003432E+00
         -4   -1    0    0    0  501 -0.00000000000E+00  0.00000000000E+00  0.54606291592E+03  0.54606291592E+03  0.00000000000E+00 0.  1.
          4   -1    0    0  501    0  0.00000000000E+00 -0.00000000000E+00 -0.70679387990E+03  0.70679387990E+03  0.00000000000E+00 0. -1.
         23    2    1    2    0    0  0.32336249021E+03 -0.30733120572E+03  0.89620553711E+02  0.46441090700E+03  0.92897130291E+02 0.  0.
    5000000    2    1    2    0    0 -0.32336249021E+03  0.30733120572E+03 -0.25035151769E+03  0.78844588881E+03  0.59996272142E+03 0.  0.
         23    2    4    4    0    0  0.58455818740E+02 -0.54838696991E+02 -0.22223360795E+03  0.25273586905E+03  0.89795754742E+02 0.  0.
         23    2    4    4    0    0 -0.38181830895E+03  0.36216990271E+03 -0.28117909732E+02  0.53571001976E+03  0.96137136169E+02 0.  0.
          4    1    3    3  502    0  0.18146923847E+03 -0.13308222809E+03  0.82180326920E+02  0.23957372576E+03  0.00000000000E+00 0. -1.
         -4    1    3    3    0  502  0.14189325174E+03 -0.17424897763E+03  0.74402267911E+01  0.22483718124E+03  0.00000000000E+00 0.  1.
         11    1    5    5    0    0 -0.14900757312E+02 -0.20385432479E+02 -0.13097163661E+02  0.28445282944E+02  0.00000000000E+00 0.  1.
        -11    1    5    5    0    0  0.73356576051E+02 -0.34453264511E+02 -0.20913644429E+03  0.22429058611E+03  0.00000000000E+00 0. -1.
          5    1    6    6  503    0 -0.25155473170E+03  0.21688666881E+03 -0.61118405115E+02  0.33775310449E+03  0.47000000000E+01 0. -1.
         -5    1    6    6    0  503 -0.13026357725E+03  0.14528323389E+03  0.33000495383E+02  0.19795691527E+03  0.47000000000E+01 0.  1.
<mgrwt>
<rscale>  0 0.54170552E+03</rscale>
<asrwt>0</asrwt>
<pdfrwt beam="1">  1        4 0.10873752E+00 0.54170552E+03</pdfrwt>
<pdfrwt beam="2">  1       -4 0.84009679E-01 0.54170552E+03</pdfrwt>
<totfact> 0.16344974E+00</totfact>
</mgrwt>
</event>
<event>
12    1  0.3166324E-008  0.7861033E+03  0.7818608E-02  0.9580353E-01
         -1   -1    0    0    0  501 -0.00000000000E+00  0.00000000000E+00  0.11316973635E+04  0.11316973635E+04  0.00000000000E+00 0.  1.
          1   -1    0    0  501    0  0.00000000000E+00 -0.00000000000E+00 -0.15816220337E+04  0.15816220337E+04  0.00000000000E+00 0. -1.
         23    2    1    2    0    0  0.60677667766E+03 -0.31168203379E+03 -0.12988279739E+04  0.14699633433E+04  0.92274038224E+02 0.  0.
    5000000    2    1    2    0    0 -0.60677667766E+03  0.31168203379E+03  0.84890330373E+03  0.12433560539E+04  0.59997819203E+03 0.  0.
         23    2    4    4    0    0 -0.13536684611E+03  0.37757060448E+03  0.49300448866E+03  0.64214061907E+03  0.91691899469E+02 0.  0.
         23    2    4    4    0    0 -0.47140983155E+03 -0.65888570692E+02  0.35589881507E+03  0.60121543482E+03  0.90705564675E+02 0.  0.
          3    1    3    3  502    0  0.11107841285E+03 -0.66173178833E+02 -0.17730093670E+03  0.21943774870E+03  0.00000000000E+00 0. -1.
         -3    1    3    3    0  502  0.49569826481E+03 -0.24550885495E+03 -0.11215270372E+04  0.12505255946E+04  0.00000000000E+00 0.  1.
         11    1    5    5    0    0 -0.12031475404E+03  0.20210903565E+03  0.29001282175E+03  0.37340479257E+03  0.00000000000E+00 0. -1.
        -11    1    5    5    0    0 -0.15052092065E+02  0.17546156883E+03  0.20299166691E+03  0.26873582651E+03  0.00000000000E+00 0.  1.
          5    1    6    6  503    0 -0.27604671114E+03 -0.15002160847E+02  0.15789745169E+03  0.31840311998E+03  0.47000000000E+01 0. -1.
         -5    1    6    6    0  503 -0.19536312041E+03 -0.50886409845E+02  0.19800136338E+03  0.28281231484E+03  0.47000000000E+01 0.  1.
<mgrwt>
<rscale>  0 0.78610325E+03</rscale>
<asrwt>0</asrwt>
<pdfrwt beam="1">  1        1 0.24332647E+00 0.78610325E+03</pdfrwt>
<pdfrwt beam="2">  1       -1 0.17410729E+00 0.78610325E+03</pdfrwt>
<totfact> 0.13764539E+00</totfact>
</mgrwt>
</event>
<event>
12    1  0.3166324E-008  0.3993507E+03  0.7818608E-02  0.1044005E+00
         -1   -1    0    0    0  501 -0.00000000000E+00  0.00000000000E+00  0.10661811730E+03  0.10661811730E+03  0.00000000000E+00 0.  1.
          1   -1    0    0  501    0  0.00000000000E+00 -0.00000000000E+00 -0.18159131179E+04  0.18159131179E+04  0.00000000000E+00 0. -1.
         23    2    1    2    0    0  0.19790142368E+03 -0.12223225216E+02 -0.68763736886E+03  0.72125720160E+03  0.89735272186E+02 0.  0.
    5000000    2    1    2    0    0 -0.19790142368E+03  0.12223225216E+02 -0.10216576317E+04  0.12012740336E+04  0.59996717126E+03 0.  0.
         23    2    4    4    0    0 -0.24170916214E+02 -0.25048953196E+03 -0.66246468251E+03  0.71479254430E+03  0.93486293114E+02 0.  0.
         23    2    4    4    0    0 -0.17373050746E+03  0.26271275717E+03 -0.35919294918E+03  0.48648148926E+03  0.91893322119E+02 0.  0.
          2    1    3    3  502    0  0.12638741403E+03  0.32367889566E+02 -0.47311312824E+03  0.49077234112E+03  0.00000000000E+00 0. -1.
         -2    1    3    3    0  502  0.71514009642E+02 -0.44591114782E+02 -0.21452424063E+03  0.23048486048E+03  0.00000000000E+00 0.  1.
         13    1    5    5    0    0  0.20393975953E+02 -0.23005368590E+02 -0.13800274550E+03  0.14138571004E+03  0.00000000000E+00 0.  1.
        -13    1    5    5    0    0 -0.44564892167E+02 -0.22748416337E+03 -0.52446193701E+03  0.57340683425E+03  0.00000000000E+00 0. -1.
          5    1    6    6  503    0 -0.11541105670E+03  0.22160265944E+03 -0.23425440883E+03  0.34252688761E+03  0.47000000000E+01 0. -1.
         -5    1    6    6    0  503 -0.58319450759E+02  0.41110097736E+02 -0.12493854034E+03  0.14395460165E+03  0.47000000000E+01 0.  1.
<mgrwt>
<rscale>  0 0.39935071E+03</rscale>
<asrwt>0</asrwt>
<pdfrwt beam="1">  1        1 0.27937122E+00 0.39935071E+03</pdfrwt>
<pdfrwt beam="2">  1       -1 0.16402789E-01 0.39935071E+03</pdfrwt>
<totfact> 0.12110166E+02</totfact>
</mgrwt>
</event>
<event>
12    1  0.3166324E-008  0.8673879E+03  0.7818608E-02  0.9467292E-01
          1   -1    0    0  501    0  0.00000000000E+00  0.00000000000E+00  0.23225922764E+04  0.23225922764E+04  0.00000000000E+00 0. -1.
         -1   -1    0    0    0  501 -0.00000000000E+00 -0.00000000000E+00 -0.42107450051E+03  0.42107450051E+03  0.00000000000E+00 0.  1.
         23    2    1    2    0    0  0.28938373026E+03  0.73364741742E+03  0.14535738781E+04  0.16561779123E+04  0.89815264473E+02 0.  0.
    5000000    2    1    2    0    0 -0.28938373026E+03 -0.73364741742E+03  0.44794389781E+03  0.10874888646E+04  0.59999734885E+03 0.  0.
         23    2    4    4    0    0 -0.37279264017E+03 -0.24404190471E+03  0.34717673699E+03  0.57250913407E+03  0.93296399005E+02 0.  0.
         23    2    4    4    0    0  0.83408909911E+02 -0.48960551271E+03  0.10076716082E+03  0.51497973054E+03  0.91539597058E+02 0.  0.
          4    1    3    3  502    0  0.14361751762E+03  0.26493112467E+03  0.60371019374E+03  0.67474475930E+03  0.00000000000E+00 0. -1.
         -4    1    3    3    0  502  0.14576621264E+03  0.46871629275E+03  0.84986368432E+03  0.98143315297E+03  0.00000000000E+00 0.  1.
         13    1    5    5    0    0 -0.29975425916E+03 -0.19397600614E+03  0.32111720359E+03  0.48020367062E+03  0.00000000000E+00 0.  1.
        -13    1    5    5    0    0 -0.73038381014E+02 -0.50065898570E+02  0.26059533400E+02  0.92305463445E+02  0.00000000000E+00 0. -1.
          5    1    6    6  503    0  0.10454444556E+02 -0.47730803473E+02 -0.16872353707E+02  0.51906563465E+02  0.47000000000E+01 0. -1.
         -5    1    6    6    0  503  0.72954465355E+02 -0.44187470924E+03  0.11763951453E+03  0.46307316707E+03  0.47000000000E+01 0.  1.
<mgrwt>
<rscale>  0 0.86738790E+03</rscale>
<asrwt>0</asrwt>
<pdfrwt beam="1">  1        1 0.35732188E+00 0.86738790E+03</pdfrwt>
<pdfrwt beam="2">  1       -1 0.64780694E-01 0.86738790E+03</pdfrwt>
<totfact> 0.44929889E+00</totfact>
</mgrwt>
</event>
<event>
12    1  0.3166324E-008  0.2305823E+04  0.7818608E-02  0.8475629E-01
         -2   -1    0    0    0  501 -0.00000000000E+00  0.00000000000E+00  0.19054889629E+04  0.19054889629E+04  0.00000000000E+00 0.  1.
          2   -1    0    0  501    0  0.00000000000E+00 -0.00000000000E+00 -0.29872746169E+04  0.29872746169E+04  0.00000000000E+00 0. -1.
         23    2    1    2    0    0 -0.21159306162E+04  0.85345449622E+03 -0.10977058564E+04  0.25335559744E+04  0.91655762693E+02 0.  0.
    5000000    2    1    2    0    0  0.21159306162E+04 -0.85345449622E+03  0.15920202385E+02  0.23592076054E+04  0.60005010025E+03 0.  0.
         23    2    4    4    0    0  0.79057572344E+03 -0.56446455591E+03 -0.15791223229E+03  0.98854521506E+03  0.93033110949E+02 0.  0.
         23    2    4    4    0    0  0.13253548927E+04 -0.28898994031E+03  0.17383243467E+03  0.13706623903E+04  0.91743640562E+02 0.  0.
          1    1    3    3  502    0 -0.14329072603E+04  0.57037643888E+03 -0.69473273994E+03  0.16915099996E+04  0.00000000000E+00 0. -1.
         -1    1    3    3    0  502 -0.68302335583E+03  0.28307805735E+03 -0.40297311648E+03  0.84204597486E+03  0.00000000000E+00 0.  1.
         11    1    5    5    0    0  0.29139557043E+03 -0.17824715379E+03 -0.17912796308E+02  0.34205890512E+03  0.00000000000E+00 0.  1.
        -11    1    5    5    0    0  0.49918015301E+03 -0.38621740213E+03 -0.13999943598E+03  0.64648630994E+03  0.00000000000E+00 0. -1.
          5    1    6    6  503    0  0.92665050083E+03 -0.18067356874E+03  0.84109848343E+02  0.94785053976E+03  0.47000000000E+01 0. -1.
         -5    1    6    6    0  503  0.39870439189E+03 -0.10831637157E+03  0.89722586330E+02  0.42281185054E+03  0.47000000000E+01 0.  1.
<mgrwt>
<rscale>  0 0.23058226E+04</rscale>
<asrwt>0</asrwt>
<pdfrwt beam="1">  1        2 0.45958071E+00 0.23058226E+04</pdfrwt>
<pdfrwt beam="2">  1       -2 0.29315215E+00 0.23058226E+04</pdfrwt>
<totfact> 0.53319529E-02</totfact>
</mgrwt>
</event>
<event>
12    1  0.3166324E-008  0.2016555E+04  0.7818608E-02  0.8598919E-01
          2   -1    0    0  501    0  0.00000000000E+00  0.00000000000E+00  0.41722736986E+04  0.41722736986E+04  0.00000000000E+00 0. -1.
         -2   -1    0    0    0  501 -0.00000000000E+00 -0.00000000000E+00 -0.98517964440E+03  0.98517964440E+03  0.00000000000E+00 0.  1.
         23    2    1    2    0    0 -0.19456293449E+04  0.37612411238E+03  0.16067173216E+04  0.25527562572E+04  0.89894723846E+02 0.  0.
    5000000    2    1    2    0    0  0.19456293449E+04 -0.37612411238E+03  0.15803767326E+04  0.26046970859E+04  0.59992782618E+03 0.  0.
         23    2    4    4    0    0  0.14267663994E+04 -0.49816112325E+03  0.13008610204E+04  0.19960545742E+04  0.90374805946E+02 0.  0.
         23    2    4    4    0    0  0.51886294548E+03  0.12203701087E+03  0.27951571221E+03  0.60864251170E+03  0.90580822766E+02 0.  0.
          2    1    3    3  502    0 -0.15361737357E+04  0.28309364992E+03  0.12215802728E+04  0.19829851547E+04  0.00000000000E+00 0. -1.
         -2    1    3    3    0  502 -0.40945560916E+03  0.93030462458E+02  0.38513704884E+03  0.56977110247E+03  0.00000000000E+00 0.  1.
         13    1    5    5    0    0  0.71789336846E+03 -0.23993085924E+03  0.70955847204E+03  0.10375022559E+04  0.00000000000E+00 0. -1.
        -13    1    5    5    0    0  0.70887303093E+03 -0.25823026401E+03  0.59130254835E+03  0.95855231830E+03  0.00000000000E+00 0.  1.
          5    1    6    6  503    0  0.53599304690E+02 -0.12940617106E+02  0.39404700261E+02  0.67935008921E+02  0.47000000000E+01 0. -1.
         -5    1    6    6    0  503  0.46526364079E+03  0.13497762797E+03  0.24011101195E+03  0.54070750277E+03  0.47000000000E+01 0.  1.
<mgrwt>
<rscale>  0 0.20165553E+04</rscale>
<asrwt>0</asrwt>
<pdfrwt beam="1">  1        2 0.64188825E+00 0.20165553E+04</pdfrwt>
<pdfrwt beam="2">  1       -2 0.15156610E+00 0.20165553E+04</pdfrwt>
<totfact> 0.64775345E-02</totfact>
</mgrwt>
</event>
<event>
12    1  0.3166324E-008  0.8196593E+03  0.7818608E-02  0.9531989E-01
         -1   -1    0    0    0  501 -0.00000000000E+00  0.00000000000E+00  0.10894596828E+04  0.10894596828E+04  0.00000000000E+00 0.  1.
          1   -1    0    0  501    0  0.00000000000E+00 -0.00000000000E+00 -0.90003928088E+03  0.90003928088E+03  0.00000000000E+00 0. -1.
         23    2    1    2    0    0  0.76710994913E+03 -0.76116732857E+02 -0.37394009983E+03  0.86163440292E+03  0.91275489359E+02 0.  0.
    5000000    2    1    2    0    0 -0.76710994913E+03  0.76116732857E+02  0.56336050176E+03  0.11278645608E+04  0.60037653304E+03 0.  0.
         23    2    4    4    0    0 -0.55273738145E+03 -0.11324629518E+03  0.59636611329E+03  0.82607349665E+03  0.91659939709E+02 0.  0.
         23    2    4    4    0    0 -0.21437256768E+03  0.18936302803E+03 -0.33005611534E+02  0.30179106413E+03  0.90413062299E+02 0.  0.
          2    1    3    3  502    0  0.36680526698E+03 -0.80495836175E+02 -0.19481346977E+03  0.42305788201E+03  0.00000000000E+00 0. -1.
         -2    1    3    3    0  502  0.40030468215E+03  0.43791033187E+01 -0.17912663006E+03  0.43857652091E+03  0.00000000000E+00 0.  1.
         11    1    5    5    0    0 -0.14529802814E+03 -0.39792863099E+02  0.10544300720E+03  0.18388370429E+03  0.00000000000E+00 0. -1.
        -11    1    5    5    0    0 -0.40743935331E+03 -0.73453432077E+02  0.49092310609E+03  0.64218979235E+03  0.00000000000E+00 0.  1.
          5    1    6    6  503    0 -0.10044790924E+03  0.14499084591E+03 -0.32622743851E+02  0.17943929693E+03  0.47000000000E+01 0. -1.
         -5    1    6    6    0  503 -0.11392465844E+03  0.44372182125E+02 -0.38286768304E+00  0.12235176719E+03  0.47000000000E+01 0.  1.
<mgrwt>
<rscale>  0 0.81965933E+03</rscale>
<asrwt>0</asrwt>
<pdfrwt beam="1">  1        1 0.13846758E+00 0.81965933E+03</pdfrwt>
<pdfrwt beam="2">  1       -1 0.16760918E+00 0.81965933E+03</pdfrwt>
<totfact> 0.47833154E+00</totfact>
</mgrwt>
</event>
<event>
12    1  0.3166324E-008  0.1499450E+04  0.7818608E-02  0.8884819E-01
          2   -1    0    0  501    0  0.00000000000E+00  0.00000000000E+00  0.12670379742E+04  0.12670379742E+04  0.00000000000E+00 0. -1.
         -2   -1    0    0    0  501 -0.00000000000E+00 -0.00000000000E+00 -0.18167629695E+04  0.18167629695E+04  0.00000000000E+00 0.  1.
         23    2    1    2    0    0 -0.13446172876E+04 -0.55675935577E+03 -0.32088551747E+03  0.14931646511E+04  0.92717472333E+02 0.  0.
    5000000    2    1    2    0    0  0.13446172876E+04  0.55675935577E+03 -0.22883947788E+03  0.15906362926E+04  0.59981637046E+03 0.  0.
         23    2    4    4    0    0  0.66966472385E+02  0.20596510995E+03 -0.98926337315E+02  0.25620254329E+03  0.94589576788E+02 0.  0.
         23    2    4    4    0    0  0.12776508152E+04  0.35079424582E+03 -0.12991314057E+03  0.13344337493E+04  0.91584925621E+02 0.  0.
          2    1    3    3  502    0 -0.87451936665E+03 -0.38408182475E+03 -0.17032323547E+03  0.97021285051E+03  0.00000000000E+00 0. -1.
         -2    1    3    3    0  502 -0.47009792095E+03 -0.17267753102E+03 -0.15056228200E+03  0.52295180061E+03  0.00000000000E+00 0.  1.
         11    1    5    5    0    0  0.14687235993E+02  0.25028287022E+02  0.18350999309E+02  0.34334956357E+02  0.00000000000E+00 0. -1.
        -11    1    5    5    0    0  0.52279236392E+02  0.18093682292E+03 -0.11727733662E+03  0.22186758694E+03  0.00000000000E+00 0.  1.
          5    1    6    6  503    0  0.47905527772E+03  0.11123494200E+03 -0.86716094457E+01  0.49189882927E+03  0.47000000000E+01 0. -1.
         -5    1    6    6    0  503  0.79859553750E+03  0.23955930382E+03 -0.12124153112E+03  0.84253492001E+03  0.47000000000E+01 0.  1.
<mgrwt>
<rscale>  0 0.14994502E+04</rscale>
<asrwt>0</asrwt>
<pdfrwt beam="1">  1        2 0.19492892E+00 0.14994502E+04</pdfrwt>
<pdfrwt beam="2">  1       -2 0.27950199E+00 0.14994502E+04</pdfrwt>
<totfact> 0.69137364E-01</totfact>
</mgrwt>
</event>
<event>
12    1  0.3166324E-008  0.9216458E+03  0.7818608E-02  0.9398920E-01
          2   -1    0    0  501    0  0.00000000000E+00  0.00000000000E+00  0.16201165809E+04  0.16201165809E+04  0.00000000000E+00 0. -1.
         -2   -1    0    0    0  501 -0.00000000000E+00 -0.00000000000E+00 -0.27135171118E+04  0.27135171118E+04  0.00000000000E+00 0.  1.
         23    2    1    2    0    0  0.32472008783E+03  0.85799854665E+03  0.13620450369E+04  0.16446302291E+04  0.89650803216E+02 0.  0.
    5000000    2    1    2    0    0 -0.32472008783E+03 -0.85799854665E+03 -0.24554455678E+04  0.26890034636E+04  0.59993503766E+03 0.  0.
         23    2    4    4    0    0 -0.26289097217E+03 -0.59371551763E+03 -0.93713976532E+03  0.11439195999E+04  0.93334517065E+02 0.  0.
         23    2    4    4    0    0 -0.61829115663E+02 -0.26428302901E+03 -0.15183058024E+04  0.15450838637E+04  0.91450955282E+02 0.  0.
          1    1    3    3  502    0  0.21456266018E+03  0.66311701937E+03  0.99844877407E+03  0.12176457904E+04  0.00000000000E+00 0. -1.
         -1    1    3    3    0  502  0.11015742765E+03  0.19488152728E+03  0.36359626279E+03  0.42698443866E+03  0.00000000000E+00 0.  1.
         11    1    5    5    0    0 -0.11312723773E+02 -0.33228181464E+02 -0.21150799008E+02  0.40981045146E+02  0.00000000000E+00 0. -1.
        -11    1    5    5    0    0 -0.25157824839E+03 -0.56048733617E+03 -0.91598896631E+03  0.11029385547E+04  0.00000000000E+00 0.  1.
          5    1    6    6  503    0 -0.24911176927E+01 -0.59749553272E+02 -0.56997126806E+03  0.57311914224E+03  0.47000000000E+01 0. -1.
         -5    1    6    6    0  503 -0.59337997970E+02 -0.20453347574E+03 -0.94833453438E+03  0.97196472148E+03  0.47000000000E+01 0.  1.
<mgrwt>
<rscale>  0 0.92164579E+03</rscale>
<asrwt>0</asrwt>
<pdfrwt beam="1">  1        2 0.24924870E+00 0.92164579E+03</pdfrwt>
<pdfrwt beam="2">  1       -2 0.41746417E+00 0.92164579E+03</pdfrwt>
<totfact> 0.64232703E-02</totfact>
</mgrwt>
</event>
<event>
12    1  0.3166324E-008  0.6975798E+03  0.7818608E-02  0.9721380E-01
          2   -1    0    0  501    0  0.00000000000E+00  0.00000000000E+00  0.15536979381E+04  0.15536979381E+04  0.00000000000E+00 0. -1.
         -2   -1    0    0    0  501 -0.00000000000E+00 -0.00000000000E+00 -0.47265618913E+03  0.47265618913E+03  0.00000000000E+00 0.  1.
         23    2    1    2    0    0 -0.55276390822E+03 -0.20099747981E+03  0.10233720628E+04  0.11838327562E+04  0.90673539536E+02 0.  0.
    5000000    2    1    2    0    0  0.55276390822E+03  0.20099747981E+03  0.57669686177E+02  0.84252137097E+03  0.60047359869E+03 0.  0.
         23    2    4    4    0    0  0.59175101420E+03  0.30906338540E+03  0.11590564896E+03  0.68356552435E+03  0.90212347403E+02 0.  0.
         23    2    4    4    0    0 -0.38987105978E+02 -0.10806590560E+03 -0.58235962783E+02  0.15895584662E+03  0.93152023216E+02 0.  0.
          3    1    3    3  502    0 -0.29260987685E+03 -0.10513834763E+03  0.45029018061E+03  0.54720732718E+03  0.00000000000E+00 0. -1.
         -3    1    3    3    0  502 -0.26015403137E+03 -0.95859132182E+02  0.57308188215E+03  0.63662542905E+03  0.00000000000E+00 0.  1.
         11    1    5    5    0    0  0.15915693411E+03  0.12362341234E+03  0.14135890427E+02  0.20202351634E+03  0.00000000000E+00 0.  1.
        -11    1    5    5    0    0  0.43259408008E+03  0.18543997306E+03  0.10176975853E+03  0.48154200802E+03  0.00000000000E+00 0. -1.
          5    1    6    6  503    0  0.10145061541E+02 -0.73945130967E+02 -0.64326968636E+02  0.98645088886E+02  0.47000000000E+01 0. -1.
         -5    1    6    6    0  503 -0.49132167519E+02 -0.34120774628E+02  0.60910058536E+01  0.60310757735E+02  0.47000000000E+01 0.  1.
<mgrwt>
<rscale>  0 0.69757983E+03</rscale>
<asrwt>0</asrwt>
<pdfrwt beam="1">  1        2 0.23903045E+00 0.69757983E+03</pdfrwt>
<pdfrwt beam="2">  1       -2 0.72716338E-01 0.69757983E+03</pdfrwt>
<totfact> 0.20887019E+01</totfact>
</mgrwt>
</event>
<event>
12    1  0.3166324E-008  0.4581273E+03  0.7818608E-02  0.1025326E+00
         -2   -1    0    0    0  501 -0.00000000000E+00  0.00000000000E+00  0.38367952982E+03  0.38367952982E+03  0.00000000000E+00 0.  1.
          2   -1    0    0  501    0  0.00000000000E+00 -0.00000000000E+00 -0.68781727746E+03  0.68781727746E+03  0.00000000000E+00 0. -1.
         23    2    1    2    0    0  0.14296458940E+03 -0.29387671931E+03 -0.55154556244E+02  0.34437230297E+03  0.93529984523E+02 0.  0.
    5000000    2    1    2    0    0 -0.14296458940E+03  0.29387671931E+03 -0.24898319139E+03  0.72712450431E+03  0.59992917516E+03 0.  0.
         23    2    4    4    0    0 -0.30298402819E+03  0.28824880304E+03 -0.31457553058E+03  0.53120754202E+03  0.91307143575E+02 0.  0.
         23    2    4    4    0    0  0.16001943879E+03  0.56279162625E+01  0.65592339190E+02  0.19591696229E+03  0.91886924635E+02 0.  0.
          3    1    3    3  502    0  0.77280071312E+02 -0.11067987036E+03  0.18567160309E+02  0.13626071542E+03  0.00000000000E+00 0. -1.
         -3    1    3    3    0  502  0.65684518088E+02 -0.18319684895E+03 -0.73721716553E+02  0.20811158755E+03  0.00000000000E+00 0.  1.
         11    1    5    5    0    0 -0.42464856605E+02  0.13387117144E+02 -0.60693917485E+02  0.75274368623E+02  0.00000000000E+00 0. -1.
        -11    1    5    5    0    0 -0.26051917159E+03  0.27486168590E+03 -0.25388161310E+03  0.45593317340E+03  0.00000000000E+00 0.  1.
          5    1    6    6  503    0  0.92425430707E+02 -0.12218918391E+02 -0.87516801074E+01  0.93757368312E+02  0.47000000000E+01 0. -1.
         -5    1    6    6    0  503  0.67594008086E+02  0.17846834654E+02  0.74344019297E+02  0.10215959398E+03  0.47000000000E+01 0.  1.
<mgrwt>
<rscale>  0 0.45812734E+03</rscale>
<asrwt>0</asrwt>
<pdfrwt beam="1">  1        2 0.10581804E+00 0.45812734E+03</pdfrwt>
<pdfrwt beam="2">  1       -2 0.59027620E-01 0.45812734E+03</pdfrwt>
<totfact> 0.11606270E+02</totfact>
</mgrwt>
</event>
<event>
12    1  0.3166324E-008  0.3984649E+03  0.7818608E-02  0.1044313E+00
          2   -1    0    0  501    0  0.00000000000E+00  0.00000000000E+00  0.10489799372E+04  0.10489799372E+04  0.00000000000E+00 0. -1.
         -2   -1    0    0    0  501 -0.00000000000E+00 -0.00000000000E+00 -0.24591512484E+03  0.24591512484E+03  0.00000000000E+00 0.  1.
         23    2    1    2    0    0  0.25298277946E+03 -0.11440351325E+03  0.47315368117E+03  0.55596034776E+03  0.90161254057E+02 0.  0.
    5000000    2    1    2    0    0 -0.25298277946E+03  0.11440351325E+03  0.32991113121E+03  0.73893471429E+03  0.60007891726E+03 0.  0.
         23    2    4    4    0    0 -0.65425119033E+02  0.24932339900E+03 -0.56159803330E+02  0.27947872463E+03  0.92259582262E+02 0.  0.
         23    2    4    4    0    0 -0.18755766043E+03 -0.13491988576E+03  0.38607093454E+03  0.45945598966E+03  0.93100958009E+02 0.  0.
          4    1    3    3  502    0  0.94545491530E+02 -0.66868744450E+02  0.12434761579E+03  0.16991941768E+03  0.00000000000E+00 0. -1.
         -4    1    3    3    0  502  0.15843728793E+03 -0.47534768795E+02  0.34880606538E+03  0.38604093008E+03  0.00000000000E+00 0.  1.
         13    1    5    5    0    0 -0.81241422591E+02  0.19692816917E+03 -0.67735835652E+02  0.22353750466E+03  0.00000000000E+00 0. -1.
        -13    1    5    5    0    0  0.15816303558E+02  0.52395229836E+02  0.11576032322E+02  0.55941219974E+02  0.00000000000E+00 0.  1.
          5    1    6    6  503    0 -0.19689586599E+03 -0.13201727076E+03  0.37675765478E+03  0.44515723319E+03  0.47000000000E+01 0. -1.
         -5    1    6    6    0  503  0.93382055583E+01 -0.29026149980E+01  0.93132797508E+01  0.14298756470E+02  0.47000000000E+01 0.  1.
<mgrwt>
<rscale>  0 0.39846494E+03</rscale>
<asrwt>0</asrwt>
<pdfrwt beam="1">  1        2 0.16138153E+00 0.39846494E+03</pdfrwt>
<pdfrwt beam="2">  1       -2 0.37833097E-01 0.39846494E+03</pdfrwt>
<totfact> 0.16126762E+02</totfact>
</mgrwt>
</event>
<event>
12    1  0.9456830E-008  0.1129773E+04  0.7818608E-02  0.9176650E-01
         -2   -1    0    0    0  501 -0.00000000000E+00  0.00000000000E+00  0.14170181800E+04  0.14170181800E+04  0.00000000000E+00 0. -1.
          2   -1    0    0  501    0  0.00000000000E+00 -0.00000000000E+00 -0.99478335088E+03  0.99478335088E+03  0.00000000000E+00 0.  1.
         23    2    1    2    0    0  0.10602915529E+04  0.23102931719E+03  0.43255907735E+03  0.11717949243E+04  0.91669333952E+02 0.  0.
    5000000    2    1    2    0    0 -0.10602915529E+04 -0.23102931719E+03 -0.10324248184E+02  0.12400066066E+04  0.59993088924E+03 0.  0.
         23    2    4    4    0    0 -0.10301515782E+04 -0.10092073640E+03 -0.11823753699E+03  0.10458420980E+04  0.91696835689E+02 0.  0.
         23    2    4    4    0    0 -0.30139974631E+02 -0.13010858079E+03  0.10791328881E+03  0.19416450859E+03  0.90652730943E+02 0.  0.
          1    1    3    3  502    0  0.58849605570E+03  0.14555351258E+03  0.28684537537E+03  0.67066661015E+03  0.00000000000E+00 0. -1.
         -1    1    3    3    0  502  0.47179549716E+03  0.85475804612E+02  0.14571370198E+03  0.50112831417E+03  0.00000000000E+00 0.  1.
         13    1    5    5    0    0 -0.50267736720E+03 -0.23096629357E+02 -0.95384556851E+02  0.51216813984E+03  0.00000000000E+00 0.  1.
        -13    1    5    5    0    0 -0.52747421104E+03 -0.77824107042E+02 -0.22852980140E+02  0.53367395819E+03  0.00000000000E+00 0. -1.
          5    1    6    6  503    0  0.55350341415E+01 -0.35338039257E+02  0.81921821300E+02  0.89513621459E+02  0.47000000000E+01 0. -1.
         -5    1    6    6    0  503 -0.35675008772E+02 -0.94770541536E+02  0.25991467507E+02  0.10465088713E+03  0.47000000000E+01 0.  1.
<mgrwt>
<rscale>  0 0.11297725E+04</rscale>
<asrwt>0</asrwt>
<pdfrwt beam="1">  1        2 0.15304359E+00 0.11297725E+04</pdfrwt>
<pdfrwt beam="2">  1       -2 0.21800280E+00 0.11297725E+04</pdfrwt>
<totfact> 0.25306118E+00</totfact>
</mgrwt>
</event>
<event>
12    1  0.3166324E-008  0.9648461E+03  0.7818608E-02  0.9347964E-01
          1   -1    0    0  501    0  0.00000000000E+00  0.00000000000E+00  0.18148555540E+04  0.18148555540E+04  0.00000000000E+00 0. -1.
         -1   -1    0    0    0  501 -0.00000000000E+00 -0.00000000000E+00 -0.72619585304E+03  0.72619585304E+03  0.00000000000E+00 0.  1.
         23    2    1    2    0    0 -0.81827437741E+03  0.41702138550E+03  0.11104699879E+04  0.14438566031E+04  0.89991687305E+02 0.  0.
    5000000    2    1    2    0    0  0.81827437741E+03 -0.41702138550E+03 -0.21810286928E+02  0.10971948039E+04  0.59990078876E+03 0.  0.
         23    2    4    4    0    0  0.23994907199E+03 -0.34449363876E+03  0.19153394548E+03  0.47026452271E+03  0.90620333021E+02 0.  0.
         23    2    4    4    0    0  0.57832530542E+03 -0.72527746739E+02 -0.21334423240E+03  0.62693028117E+03  0.88348078710E+02 0.  0.
          3    1    3    3  502    0 -0.73801291438E+03  0.39513131313E+03  0.10381663922E+04  0.13336346105E+04  0.00000000000E+00 0. -1.
         -3    1    3    3    0  502 -0.80261463034E+02  0.21890072371E+02  0.72303595647E+02  0.11022199263E+03  0.00000000000E+00 0.  1.
         13    1    5    5    0    0  0.11607869212E+03 -0.15283424199E+03  0.13652404085E+03  0.23552363368E+03  0.00000000000E+00 0. -1.
        -13    1    5    5    0    0  0.12387037987E+03 -0.19165939676E+03  0.55009904625E+02  0.23474088904E+03  0.00000000000E+00 0.  1.
          5    1    6    6  503    0  0.47332321716E+03 -0.25324260990E+02 -0.17908734286E+03  0.50672532251E+03  0.47000000000E+01 0. -1.
         -5    1    6    6    0  503  0.10500208826E+03 -0.47203485749E+02 -0.34256889540E+02  0.12020495866E+03  0.47000000000E+01 0.  1.
<mgrwt>
<rscale>  0 0.96484612E+03</rscale>
<asrwt>0</asrwt>
<pdfrwt beam="1">  1        1 0.27920855E+00 0.96484612E+03</pdfrwt>
<pdfrwt beam="2">  1       -1 0.11172244E+00 0.96484612E+03</pdfrwt>
<totfact> 0.29677615E+00</totfact>
</mgrwt>
</event>
<event>
12    1  0.3166324E-008  0.1034466E+04  0.7818608E-02  0.9271531E-01
          1   -1    0    0  501    0  0.00000000000E+00  0.00000000000E+00  0.27010455574E+04  0.27010455574E+04  0.00000000000E+00 0. -1.
         -1   -1    0    0    0  501 -0.00000000000E+00 -0.00000000000E+00 -0.41148319911E+03  0.41148319911E+03  0.00000000000E+00 0.  1.
         23    2    1    2    0    0 -0.81857383300E+03  0.49814166800E+03  0.86785913044E+03  0.12960275937E+04  0.91103303900E+02 0.  0.
    5000000    2    1    2    0    0  0.81857383300E+03 -0.49814166800E+03  0.14217032278E+04  0.18165011627E+04  0.60019010718E+03 0.  0.
         23    2    4    4    0    0  0.42050863803E+03  0.48114928248E+02  0.70125121784E+03  0.82459330931E+03  0.95175071669E+02 0.  0.
         23    2    4    4    0    0  0.39806519497E+03 -0.54625659624E+03  0.72045200998E+03  0.99190785342E+03  0.89319217438E+02 0.  0.
          1    1    3    3  502    0 -0.18750569988E+03  0.72296413281E+02  0.19417829126E+03  0.27944653810E+03  0.00000000000E+00 0. -1.
         -1    1    3    3    0  502 -0.63106813311E+03  0.42584525472E+03  0.67368083918E+03  0.10165810556E+04  0.00000000000E+00 0.  1.
         11    1    5    5    0    0  0.30364500194E+03  0.69189701945E+02  0.55282657258E+03  0.63451140369E+03  0.00000000000E+00 0. -1.
        -11    1    5    5    0    0  0.11686363609E+03 -0.21074773697E+02  0.14842464525E+03  0.19008190562E+03  0.00000000000E+00 0.  1.
          5    1    6    6  503    0  0.36516667897E+03 -0.48958497880E+03  0.68306105717E+03  0.91631580403E+03  0.47000000000E+01 0. -1.
         -5    1    6    6    0  503  0.32898515999E+02 -0.56671617441E+02  0.37390952813E+02  0.75592049387E+02  0.47000000000E+01 0.  1.
<mgrwt>
<rscale>  0 0.10344657E+04</rscale>
<asrwt>0</asrwt>
<pdfrwt beam="1">  1        1 0.41554546E+00 0.10344657E+04</pdfrwt>
<pdfrwt beam="2">  1       -1 0.63305109E-01 0.10344657E+04</pdfrwt>
<totfact> 0.25222894E+00</totfact>
</mgrwt>
</event>
<event>
12    1  0.3166324E-008  0.6848888E+03  0.7818608E-02  0.9743429E-01
         -2   -1    0    0    0  501 -0.00000000000E+00  0.00000000000E+00  0.40316185663E+03  0.40316185663E+03  0.00000000000E+00 0. -1.
          2   -1    0    0  501    0  0.00000000000E+00 -0.00000000000E+00 -0.14732779784E+04  0.14732779784E+04  0.00000000000E+00 0.  1.
         23    2    1    2    0    0 -0.55363957656E+03  0.26622625809E+03 -0.19667148329E+03  0.65155441189E+03  0.91925394131E+02 0.  0.
    5000000    2    1    2    0    0  0.55363957656E+03 -0.26622625809E+03 -0.87344463845E+03  0.12248854231E+04  0.60003796719E+03 0.  0.
         23    2    4    4    0    0  0.52882895537E+03 -0.53726315320E+02 -0.32571943364E+03  0.63005468988E+03  0.91264351178E+02 0.  0.
         23    2    4    4    0    0  0.24810621189E+02 -0.21249994277E+03 -0.54772520481E+03  0.59483073322E+03  0.89715709891E+02 0.  0.
          1    1    3    3  502    0 -0.32396110798E+03  0.10632178891E+03 -0.97263863953E+02  0.35456364946E+03  0.00000000000E+00 0. -1.
         -1    1    3    3    0  502 -0.22967846858E+03  0.15990446918E+03 -0.99407619340E+02  0.29699076244E+03  0.00000000000E+00 0.  1.
         13    1    5    5    0    0  0.40675693912E+03 -0.16955500467E+02 -0.28214996636E+03  0.49532544861E+03  0.00000000000E+00 0. -1.
        -13    1    5    5    0    0  0.12207201625E+03 -0.36770814853E+02 -0.43569467282E+02  0.13472924128E+03  0.00000000000E+00 0.  1.
          5    1    6    6  503    0  0.65656355377E+01 -0.96302557360E+02 -0.36415385851E+03  0.37675909119E+03  0.47000000000E+01 0. -1.
         -5    1    6    6    0  503  0.18244985652E+02 -0.11619738541E+03 -0.18357134630E+03  0.21807164204E+03  0.47000000000E+01 0.  1.
<mgrwt>
<rscale>  0 0.68488877E+03</rscale>
<asrwt>0</asrwt>
<pdfrwt beam="1">  1        2 0.22665815E+00 0.68488877E+03</pdfrwt>
<pdfrwt beam="2">  1       -2 0.62024900E-01 0.68488877E+03</pdfrwt>
<totfact> 0.32691627E+01</totfact>
</mgrwt>
</event>
<event>
12    1  0.3166324E-008  0.6156849E+03  0.7818608E-02  0.9873389E-01
         -1   -1    0    0    0  501 -0.00000000000E+00  0.00000000000E+00  0.76179830871E+03  0.76179830871E+03  0.00000000000E+00 0.  1.
          1   -1    0    0  501    0  0.00000000000E+00 -0.00000000000E+00 -0.59766307340E+03  0.59766307340E+03  0.00000000000E+00 0. -1.
         23    2    1    2    0    0  0.50941971583E+03 -0.12299889589E+03  0.18297953648E+03  0.56261029701E+03  0.91715103800E+02 0.  0.
    5000000    2    1    2    0    0 -0.50941971583E+03  0.12299889589E+03 -0.18844301169E+02  0.79685108510E+03  0.59998280715E+03 0.  0.
         23    2    4    4    0    0 -0.74500362056E+02 -0.16161362867E+03 -0.15328335672E+03  0.25211371304E+03  0.91631151557E+02 0.  0.
         23    2    4    4    0    0 -0.43491935377E+03  0.28461252456E+03  0.13443905555E+03  0.54473737206E+03  0.92226956157E+02 0.  0.
          4    1    3    3  502    0  0.25925534310E+03 -0.48966642249E+02  0.13841511420E+03  0.29794262672E+03  0.00000000000E+00 0. -1.
         -4    1    3    3    0  502  0.25016437273E+03 -0.74032253645E+02  0.44564422281E+02  0.26466767029E+03  0.00000000000E+00 0.  1.
         13    1    5    5    0    0 -0.37458054115E+02 -0.27655388954E+02 -0.18925632727E+01  0.46599443688E+02  0.00000000000E+00 0. -1.
        -13    1    5    5    0    0 -0.37042307941E+02 -0.13395823971E+03 -0.15139079345E+03  0.20551426935E+03  0.00000000000E+00 0.  1.
          5    1    6    6  503    0 -0.10137177587E+03  0.48960352420E+02  0.66118481088E+02  0.13064109841E+03  0.47000000000E+01 0. -1.
         -5    1    6    6    0  503 -0.33354757790E+03  0.23565217214E+03  0.68320574465E+02  0.41409627366E+03  0.47000000000E+01 0.  1.
<mgrwt>
<rscale>  0 0.61568488E+03</rscale>
<asrwt>0</asrwt>
<pdfrwt beam="1">  1        1 0.91948165E-01 0.61568488E+03</pdfrwt>
<pdfrwt beam="2">  1       -1 0.11719974E+00 0.61568488E+03</pdfrwt>
<totfact> 0.23531788E+01</totfact>
</mgrwt>
</event>
<event>
12    1  0.3166324E-008  0.8133622E+03  0.7818608E-02  0.9540875E-01
         -2   -1    0    0    0  501 -0.00000000000E+00  0.00000000000E+00  0.45082157200E+03  0.45082157200E+03  0.00000000000E+00 0.  1.
          2   -1    0    0  501    0  0.00000000000E+00 -0.00000000000E+00 -0.18612712644E+04  0.18612712644E+04  0.00000000000E+00 0. -1.
         23    2    1    2    0    0  0.49782193554E+03  0.51355061126E+03 -0.11237715446E+04  0.13351577042E+04  0.90679108522E+02 0.  0.
    5000000    2    1    2    0    0 -0.49782193554E+03 -0.51355061126E+03 -0.28667814780E+03  0.97693513222E+03  0.60054723571E+03 0.  0.
         23    2    4    4    0    0  0.90404608968E+02  0.18323795103E+02 -0.80994479340E+02  0.15260024624E+03  0.90653045620E+02 0.  0.
         23    2    4    4    0    0 -0.58822654451E+03 -0.53187440637E+03 -0.20568366846E+03  0.82433488598E+03  0.91221603603E+02 0.  0.
          3    1    3    3  502    0  0.48243467066E+03  0.50377395488E+03 -0.10606205823E+04  0.12694279927E+04  0.00000000000E+00 0. -1.
         -3    1    3    3    0  502  0.15387264878E+02  0.97766563860E+01 -0.63150962258E+02  0.65729711430E+02  0.00000000000E+00 0.  1.
         11    1    5    5    0    0  0.30614711092E+02 -0.28482026576E+02 -0.32543842613E+00  0.41816172509E+02  0.00000000000E+00 0.  1.
        -11    1    5    5    0    0  0.59789897876E+02  0.46805821679E+02 -0.80669040914E+02  0.11078407373E+03  0.00000000000E+00 0. -1.
          5    1    6    6  503    0 -0.32295130264E+03 -0.30199703172E+03 -0.16041541289E+03  0.47037745029E+03  0.47000000000E+01 0. -1.
         -5    1    6    6    0  503 -0.26527524186E+03 -0.22987737464E+03 -0.45268255569E+02  0.35395743569E+03  0.47000000000E+01 0.  1.
<mgrwt>
<rscale>  0 0.81336220E+03</rscale>
<asrwt>0</asrwt>
<pdfrwt beam="1">  1        2 0.28634942E+00 0.81336220E+03</pdfrwt>
<pdfrwt beam="2">  1       -2 0.69357166E-01 0.81336220E+03</pdfrwt>
<totfact> 0.15480495E+01</totfact>
</mgrwt>
</event>
<event>
12    1  0.3166324E-008  0.1143823E+04  0.7818608E-02  0.9163501E-01
          1   -1    0    0  501    0  0.00000000000E+00  0.00000000000E+00  0.11801008830E+04  0.11801008830E+04  0.00000000000E+00 0. -1.
         -1   -1    0    0    0  501 -0.00000000000E+00 -0.00000000000E+00 -0.12439805601E+04  0.12439805601E+04  0.00000000000E+00 0.  1.
         23    2    1    2    0    0  0.44276727922E+03  0.10199642346E+04 -0.25924993244E+03  0.11454756638E+04  0.92380006755E+02 0.  0.
    5000000    2    1    2    0    0 -0.44276727922E+03 -0.10199642346E+04  0.19537025540E+03  0.12786057793E+04  0.60024436582E+03 0.  0.
         23    2    4    4    0    0 -0.44582394648E+03 -0.59830670392E+03  0.33961741063E+03  0.82475660109E+03  0.90297077588E+02 0.  0.
         23    2    4    4    0    0  0.30566672593E+01 -0.42165753064E+03 -0.14424715523E+03  0.45384917816E+03  0.85833666857E+02 0.  0.
          2    1    3    3  502    0  0.72938556517E+02  0.22701025537E+03 -0.86383949982E+02  0.25360574891E+03  0.00000000000E+00 0. -1.
         -2    1    3    3    0  502  0.36982872270E+03  0.79295397920E+03 -0.17286598245E+03  0.89186991493E+03  0.00000000000E+00 0.  1.
         11    1    5    5    0    0 -0.11967032415E+03 -0.13722399461E+03  0.44113344452E+02  0.18734299650E+03  0.00000000000E+00 0. -1.
        -11    1    5    5    0    0 -0.32615362233E+03 -0.46108270932E+03  0.29550406618E+03  0.63741360459E+03  0.00000000000E+00 0.  1.
          5    1    6    6  503    0 -0.32708314518E+02 -0.17197422527E+03 -0.85244058200E+02  0.19476551916E+03  0.47000000000E+01 0. -1.
         -5    1    6    6    0  503  0.35764981777E+02 -0.24968330537E+03 -0.59003097033E+02  0.25908365900E+03  0.47000000000E+01 0.  1.
<mgrwt>
<rscale>  0 0.11438226E+04</rscale>
<asrwt>0</asrwt>
<pdfrwt beam="1">  1        1 0.18155398E+00 0.11438226E+04</pdfrwt>
<pdfrwt beam="2">  1       -1 0.19138163E+00 0.11438226E+04</pdfrwt>
<totfact> 0.18840090E+00</totfact>
</mgrwt>
</event>
<event>
12    1  0.3166324E-008  0.4817515E+03  0.7818608E-02  0.1018655E+00
          2   -1    0    0  501    0  0.00000000000E+00  0.00000000000E+00  0.56467976519E+03  0.56467976519E+03  0.00000000000E+00 0. -1.
         -2   -1    0    0    0  501 -0.00000000000E+00 -0.00000000000E+00 -0.49986030157E+03  0.49986030157E+03  0.00000000000E+00 0.  1.
         23    2    1    2    0    0 -0.84884781453E+01 -0.35265414127E+03 -0.97447724610E+01  0.36515365265E+03  0.93836196852E+02 0.  0.
    5000000    2    1    2    0    0  0.84884781453E+01  0.35265414127E+03  0.74564236090E+02  0.69938641411E+03  0.59928668709E+03 0.  0.
         23    2    4    4    0    0  0.26171371933E+02  0.47435501869E+03 -0.69317215267E+02  0.48844022972E+03  0.89840732468E+02 0.  0.
         23    2    4    4    0    0 -0.17682893787E+02 -0.12170087742E+03  0.14388145136E+03  0.21094618439E+03  0.93126969065E+02 0.  0.
          4    1    3    3  502    0 -0.46980652500E+02 -0.21640676110E+03  0.12670585738E+02  0.22180985484E+03  0.00000000000E+00 0. -1.
         -4    1    3    3    0  502  0.38492174354E+02 -0.13624738016E+03 -0.22415358199E+02  0.14334379781E+03  0.00000000000E+00 0.  1.
         11    1    5    5    0    0 -0.76961179422E+01  0.33410886982E+02  0.16336666244E+02  0.37978997674E+02  0.00000000000E+00 0.  1.
        -11    1    5    5    0    0  0.33867489875E+02  0.44094413170E+03 -0.85653881511E+02  0.45046123204E+03  0.00000000000E+00 0. -1.
          5    1    6    6  503    0  0.41959715283E+00 -0.21041428429E+02 -0.11826473866E+02  0.24594171183E+02  0.47000000000E+01 0. -1.
         -5    1    6    6    0  503 -0.18102490940E+02 -0.10065944899E+03  0.15570792522E+03  0.18635201321E+03  0.47000000000E+01 0.  1.
<mgrwt>
<rscale>  0 0.48175146E+03</rscale>
<asrwt>0</asrwt>
<pdfrwt beam="1">  1        2 0.86873810E-01 0.48175146E+03</pdfrwt>
<pdfrwt beam="2">  1       -2 0.76901585E-01 0.48175146E+03</pdfrwt>
<totfact> 0.83126742E+01</totfact>
</mgrwt>
</event>
<event>
12    1  0.3166324E-008  0.8708702E+03  0.7818608E-02  0.9462746E-01
         -2   -1    0    0    0  501 -0.00000000000E+00  0.00000000000E+00  0.36904639350E+03  0.36904639350E+03  0.00000000000E+00 0.  1.
          2   -1    0    0  501    0  0.00000000000E+00 -0.00000000000E+00 -0.23491338010E+04  0.23491338010E+04  0.00000000000E+00 0. -1.
         23    2    1    2    0    0  0.66151810946E+03  0.39482441936E+03 -0.13485966390E+04  0.15559242255E+04  0.93245749220E+02 0.  0.
    5000000    2    1    2    0    0 -0.66151810946E+03 -0.39482441936E+03 -0.63149076857E+03  0.11622559690E+04  0.59880365346E+03 0.  0.
         23    2    4    4    0    0 -0.44106105329E+02 -0.33288361813E+03 -0.20724695268E+03  0.40505013003E+03  0.91419126495E+02 0.  0.
         23    2    4    4    0    0 -0.61741200414E+03 -0.61940801221E+02 -0.42424381589E+03  0.75720583896E+03  0.91343426321E+02 0.  0.
          2    1    3    3  502    0  0.63967019781E+03  0.35965765196E+03 -0.12909301158E+04  0.14849350668E+04  0.00000000000E+00 0.  1.
         -2    1    3    3    0  502  0.21847911655E+02  0.35166767400E+02 -0.57666523149E+02  0.70989158787E+02  0.00000000000E+00 0. -1.
         13    1    5    5    0    0 -0.16108997260E+01 -0.26891904244E+03 -0.14108427030E+03  0.30368539265E+03  0.00000000000E+00 0. -1.
        -13    1    5    5    0    0 -0.42495205603E+02 -0.63964575697E+02 -0.66162682379E+02  0.10136473737E+03  0.00000000000E+00 0.  1.
          5    1    6    6  503    0 -0.55803488904E+03 -0.58499953557E+02 -0.34751424320E+03  0.66001016748E+03  0.47000000000E+01 0. -1.
         -5    1    6    6    0  503 -0.59377115095E+02 -0.34408476642E+01 -0.76729572685E+02  0.97195671478E+02  0.47000000000E+01 0.  1.
<mgrwt>
<rscale>  0 0.87087024E+03</rscale>
<asrwt>0</asrwt>
<pdfrwt beam="1">  1        2 0.36140519E+00 0.87087024E+03</pdfrwt>
<pdfrwt beam="2">  1       -2 0.56776370E-01 0.87087024E+03</pdfrwt>
<totfact> 0.12682746E+01</totfact>
</mgrwt>
</event>
<event>
12    1  0.3166324E-008  0.6592114E+03  0.7818608E-02  0.9789646E-01
         -2   -1    0    0    0  501 -0.00000000000E+00  0.00000000000E+00  0.17652243565E+03  0.17652243565E+03  0.00000000000E+00 0.  1.
          2   -1    0    0  501    0  0.00000000000E+00 -0.00000000000E+00 -0.35580677838E+04  0.35580677838E+04  0.00000000000E+00 0. -1.
         23    2    1    2    0    0 -0.50616712928E+03  0.13887859597E+03 -0.24556842788E+04  0.25128720364E+04  0.92995522654E+02 0.  0.
    5000000    2    1    2    0    0  0.50616712928E+03 -0.13887859597E+03 -0.92586106933E+03  0.12217181830E+04  0.59990346868E+03 0.  0.
         23    2    4    4    0    0  0.25058762952E+03  0.21951980981E+03 -0.35809597021E+03  0.49732193293E+03  0.90073714952E+02 0.  0.
         23    2    4    4    0    0  0.25557949977E+03 -0.35839840578E+03 -0.56776509912E+03  0.72439625005E+03  0.92856994026E+02 0.  0.
          4    1    3    3  502    0 -0.22540722609E+03  0.15920578490E+02 -0.98483716056E+03  0.10104286789E+04  0.00000000000E+00 0.  1.
         -4    1    3    3    0  502 -0.28075990320E+03  0.12295801748E+03 -0.14708471182E+04  0.15024433575E+04  0.00000000000E+00 0. -1.
         11    1    5    5    0    0  0.11504666297E+03  0.43991773446E+02 -0.13525999955E+03  0.18293790823E+03  0.00000000000E+00 0.  1.
        -11    1    5    5    0    0  0.13554096655E+03  0.17552803636E+03 -0.22283597066E+03  0.31438402469E+03  0.00000000000E+00 0. -1.
          5    1    6    6  503    0  0.98016918180E+02 -0.11701177792E+03 -0.26825558603E+03  0.30867818494E+03  0.47000000000E+01 0. -1.
         -5    1    6    6    0  503  0.15756258159E+03 -0.24138662786E+03 -0.29950951309E+03  0.41571806511E+03  0.47000000000E+01 0.  1.
<mgrwt>
<rscale>  0 0.65921143E+03</rscale>
<asrwt>0</asrwt>
<pdfrwt beam="1">  1        2 0.54739502E+00 0.65921143E+03</pdfrwt>
<pdfrwt beam="2">  1       -2 0.27157299E-01 0.65921143E+03</pdfrwt>
<totfact> 0.10053964E+01</totfact>
</mgrwt>
</event>
<event>
12    1  0.3166324E-008  0.6157621E+03  0.7818608E-02  0.9873234E-01
         -2   -1    0    0    0  501 -0.00000000000E+00  0.00000000000E+00  0.42909070578E+03  0.42909070578E+03  0.00000000000E+00 0.  1.
          2   -1    0    0  501    0  0.00000000000E+00 -0.00000000000E+00 -0.13234899563E+04  0.13234899563E+04  0.00000000000E+00 0. -1.
         23    2    1    2    0    0  0.21760327801E+03  0.54182723825E+03 -0.10294650371E+03  0.60049221751E+03  0.95210177748E+02 0.  0.
    5000000    2    1    2    0    0 -0.21760327801E+03 -0.54182723825E+03 -0.79145274678E+03  0.11520884445E+04  0.59998532561E+03 0.  0.
         23    2    4    4    0    0  0.41411498331E+01 -0.12361581020E+02 -0.48389615643E+03  0.49428105975E+03  0.99941572991E+02 0.  0.
         23    2    4    4    0    0 -0.22174442784E+03 -0.52946565723E+03 -0.30755659035E+03  0.65780738479E+03  0.92817163020E+02 0.  0.
          3    1    3    3  502    0  0.80271216228E+02  0.12047671030E+03 -0.54490957521E+02  0.15468474498E+03  0.00000000000E+00 0. -1.
         -3    1    3    3    0  502  0.13733206178E+03  0.42135052796E+03 -0.48455546186E+02  0.44580747252E+03  0.00000000000E+00 0.  1.
         13    1    5    5    0    0 -0.24802552311E+02 -0.20457494024E+02 -0.43946546487E+03  0.44063995561E+03  0.00000000000E+00 0. -1.
        -13    1    5    5    0    0  0.28943702144E+02  0.80959130038E+01 -0.44430691555E+02  0.53641104139E+02  0.00000000000E+00 0.  1.
          5    1    6    6  503    0 -0.14795358817E+03 -0.23467562852E+03 -0.15278672075E+03  0.31674719716E+03  0.47000000000E+01 0. -1.
         -5    1    6    6    0  503 -0.73790839667E+02 -0.29479002872E+03 -0.15476986960E+03  0.34106018763E+03  0.47000000000E+01 0.  1.
<mgrwt>
<rscale>  0 0.61576211E+03</rscale>
<asrwt>0</asrwt>
<pdfrwt beam="1">  1        2 0.20361383E+00 0.61576211E+03</pdfrwt>
<pdfrwt beam="2">  1       -2 0.66013956E-01 0.61576211E+03</pdfrwt>
<totfact> 0.35051831E+01</totfact>
</mgrwt>
</event>
<event>
12    1  0.3166324E-008  0.8619019E+03  0.7818608E-02  0.9474500E-01
          1   -1    0    0  501    0  0.00000000000E+00  0.00000000000E+00  0.20880186468E+04  0.20880186468E+04  0.00000000000E+00 0. -1.
         -1   -1    0    0    0  501 -0.00000000000E+00 -0.00000000000E+00 -0.43419957643E+03  0.43419957643E+03  0.00000000000E+00 0.  1.
         23    2    1    2    0    0 -0.80815306928E+03 -0.79437546451E+02  0.11009830997E+04  0.13710710928E+04  0.90831979627E+02 0.  0.
    5000000    2    1    2    0    0  0.80815306928E+03  0.79437546451E+02  0.55283597060E+03  0.11511471304E+04  0.60007532706E+03 0.  0.
         23    2    4    4    0    0  0.14981381760E+03 -0.13830009845E+03  0.36427804833E+03  0.42769743228E+03  0.93034939185E+02 0.  0.
         23    2    4    4    0    0  0.65833925168E+03  0.21773764490E+03  0.18855792227E+03  0.72344969807E+03  0.83696614504E+02 0.  0.
          3    1    3    3  502    0 -0.75905695879E+03 -0.85152124918E+02  0.99716934099E+03  0.12560911773E+04  0.00000000000E+00 0. -1.
         -3    1    3    3    0  502 -0.49096110495E+02  0.57145784666E+01  0.10381375875E+03  0.11497991554E+03  0.00000000000E+00 0.  1.
         13    1    5    5    0    0  0.81946992394E+02 -0.30529779116E+02  0.21105469536E+03  0.22845450622E+03  0.00000000000E+00 0. -1.
        -13    1    5    5    0    0  0.67866825207E+02 -0.10777031933E+03  0.15322335296E+03  0.19924292606E+03  0.00000000000E+00 0.  1.
          5    1    6    6  503    0  0.35293219599E+03  0.14617814099E+03  0.13506237539E+03  0.40520750131E+03  0.47000000000E+01 0. -1.
         -5    1    6    6    0  503  0.30540705569E+03  0.71559503912E+02  0.53495546875E+02  0.31824219676E+03  0.47000000000E+01 0.  1.
<mgrwt>
<rscale>  0 0.86190185E+03</rscale>
<asrwt>0</asrwt>
<pdfrwt beam="1">  1        1 0.32123363E+00 0.86190185E+03</pdfrwt>
<pdfrwt beam="2">  1       -1 0.66799936E-01 0.86190185E+03</pdfrwt>
<totfact> 0.60826672E+00</totfact>
</mgrwt>
</event>
<event>
12    1  0.3166324E-008  0.4784283E+03  0.7818608E-02  0.1019568E+00
          2   -1    0    0  501    0  0.00000000000E+00  0.00000000000E+00  0.22659297067E+04  0.22659297067E+04  0.00000000000E+00 0. -1.
         -2   -1    0    0    0  501 -0.00000000000E+00 -0.00000000000E+00 -0.35722997999E+03  0.35722997999E+03  0.00000000000E+00 0.  1.
         23    2    1    2    0    0 -0.22034930807E+03 -0.25905201775E+03  0.19010800053E+04  0.19334027102E+04  0.90989492284E+02 0.  0.
    5000000    2    1    2    0    0  0.22034930807E+03  0.25905201775E+03  0.76197214106E+01  0.68975697652E+03  0.60003738303E+03 0.  0.
         23    2    4    4    0    0 -0.14266737213E+03  0.21457190157E+02 -0.14084649423E+03  0.22209585191E+03  0.93136686767E+02 0.  0.
         23    2    4    4    0    0  0.36301668020E+03  0.23759482760E+03  0.14846621564E+03  0.46766112461E+03  0.91827545344E+02 0.  0.
          1    1    3    3  502    0 -0.18176120912E+03 -0.14779587161E+03  0.12765542934E+04  0.12978719586E+04  0.00000000000E+00 0. -1.
         -1    1    3    3    0  502 -0.38588098953E+02 -0.11125614615E+03  0.62452571190E+03  0.63553075163E+03  0.00000000000E+00 0.  1.
         11    1    5    5    0    0 -0.14486741005E+03 -0.43547774459E+01 -0.11086984174E+03  0.18247644337E+03  0.00000000000E+00 0.  1.
        -11    1    5    5    0    0  0.22000379193E+01  0.25811967603E+02 -0.29976652489E+02  0.39619408537E+02  0.00000000000E+00 0. -1.
          5    1    6    6  503    0  0.21909850646E+03  0.14040819207E+03  0.41257219772E+02  0.26352013987E+03  0.47000000000E+01 0. -1.
         -5    1    6    6    0  503  0.14391817374E+03  0.97186635529E+02  0.10720899586E+03  0.20414098474E+03  0.47000000000E+01 0.  1.
<mgrwt>
<rscale>  0 0.47842832E+03</rscale>
<asrwt>0</asrwt>
<pdfrwt beam="1">  1        2 0.34860456E+00 0.47842832E+03</pdfrwt>
<pdfrwt beam="2">  1       -2 0.54958460E-01 0.47842832E+03</pdfrwt>
<totfact> 0.16178200E+01</totfact>
</mgrwt>
</event>
<event>
12    1  0.3166324E-008  0.1203645E+04  0.7818608E-02  0.9109672E-01
         -1   -1    0    0    0  501 -0.00000000000E+00  0.00000000000E+00  0.75288949407E+03  0.75288949407E+03  0.00000000000E+00 0.  1.
          1   -1    0    0  501    0  0.00000000000E+00 -0.00000000000E+00 -0.20913024260E+04  0.20913024260E+04  0.00000000000E+00 0. -1.
         23    2    1    2    0    0  0.34250310623E+03  0.10781230108E+04 -0.10166987197E+04  0.15238971765E+04  0.94491871718E+02 0.  0.
    5000000    2    1    2    0    0 -0.34250310623E+03 -0.10781230108E+04 -0.32171421226E+03  0.13202947436E+04  0.60001714271E+03 0.  0.
         23    2    4    4    0    0 -0.32236806833E+03 -0.18490873226E+03 -0.11041125956E+03  0.39799546402E+03  0.89985178770E+02 0.  0.
         23    2    4    4    0    0 -0.20135037902E+02 -0.89321427849E+03 -0.21130295270E+03  0.92229927959E+03  0.88033267914E+02 0.  0.
          4    1    3    3  502    0  0.29935131393E+03  0.10068669521E+04 -0.92087829890E+03  0.13969284555E+04  0.00000000000E+00 0. -1.
         -4    1    3    3    0  502  0.43151792295E+02  0.71256058669E+02 -0.95820420788E+02  0.12696872101E+03  0.00000000000E+00 0.  1.
         13    1    5    5    0    0 -0.26508185682E+03 -0.11368564272E+03 -0.63839847218E+02  0.29541215661E+03  0.00000000000E+00 0.  1.
        -13    1    5    5    0    0 -0.57286211502E+02 -0.71223089537E+02 -0.46571412345E+02  0.10258330741E+03  0.00000000000E+00 0. -1.
          5    1    6    6  503    0 -0.95828198628E+00 -0.49560030679E+03 -0.16051918071E+03  0.52096936548E+03  0.47000000000E+01 0. -1.
         -5    1    6    6    0  503 -0.19176755916E+02 -0.39761397171E+03 -0.50783771987E+02  0.40132991411E+03  0.47000000000E+01 0.  1.
<mgrwt>
<rscale>  0 0.12036451E+04</rscale>
<asrwt>0</asrwt>
<pdfrwt beam="1">  1        1 0.32173883E+00 0.12036451E+04</pdfrwt>
<pdfrwt beam="2">  1       -1 0.11582915E+00 0.12036451E+04</pdfrwt>
<totfact> 0.17168713E+00</totfact>
</mgrwt>
</event>
<event>
12    1  0.3166324E-008  0.8757276E+03  0.7818608E-02  0.9456442E-01
         -2   -1    0    0    0  501 -0.00000000000E+00  0.00000000000E+00  0.26631377769E+04  0.26631377769E+04  0.00000000000E+00 0.  1.
          2   -1    0    0  501    0  0.00000000000E+00 -0.00000000000E+00 -0.54306060479E+03  0.54306060479E+03  0.00000000000E+00 0. -1.
         23    2    1    2    0    0  0.61449568780E+03  0.47563439635E+03  0.20814000598E+04  0.22236660426E+04  0.92905492655E+02 0.  0.
    5000000    2    1    2    0    0 -0.61449568780E+03 -0.47563439635E+03  0.38677112288E+02  0.98253233911E+03  0.60003403993E+03 0.  0.
         23    2    4    4    0    0 -0.52032232052E+03 -0.46038462903E+02 -0.11076974001E+02  0.53073179608E+03  0.93266728873E+02 0.  0.
         23    2    4    4    0    0 -0.94173367278E+02 -0.42959593345E+03  0.49754086289E+02  0.45180054304E+03  0.90702659548E+02 0.  0.
          2    1    3    3  502    0  0.25676422345E+03  0.17549759847E+03  0.71621948265E+03  0.78083136518E+03  0.00000000000E+00 0. -1.
         -2    1    3    3    0  502  0.35773146435E+03  0.30013679788E+03  0.13651805772E+04  0.14428346774E+04  0.00000000000E+00 0.  1.
         11    1    5    5    0    0 -0.35424159785E+03 -0.70164223413E+02  0.12035160070E+02  0.36132391697E+03  0.00000000000E+00 0. -1.
        -11    1    5    5    0    0 -0.16608072267E+03  0.24125760510E+02 -0.23112134071E+02  0.16940787911E+03  0.00000000000E+00 0.  1.
          5    1    6    6  503    0 -0.73308727166E+02 -0.18567290548E+03  0.54198498544E+02  0.20690134015E+03  0.47000000000E+01 0. -1.
         -5    1    6    6    0  503 -0.20864640113E+02 -0.24392302796E+03 -0.44444122554E+01  0.24489920289E+03  0.47000000000E+01 0.  1.
<mgrwt>
<rscale>  0 0.87572757E+03</rscale>
<asrwt>0</asrwt>
<pdfrwt beam="1">  1        2 0.83547787E-01 0.87572757E+03</pdfrwt>
<pdfrwt beam="2">  1       -2 0.40971350E+00 0.87572757E+03</pdfrwt>
<totfact> 0.37278237E-01</totfact>
</mgrwt>
</event>
<event>
12    1  0.3166324E-008  0.1273460E+04  0.7818608E-02  0.9050880E-01
          1   -1    0    0  501    0  0.00000000000E+00  0.00000000000E+00  0.22373125331E+04  0.22373125331E+04  0.00000000000E+00 0. -1.
         -1   -1    0    0    0  501 -0.00000000000E+00 -0.00000000000E+00 -0.79076924535E+03  0.79076924535E+03  0.00000000000E+00 0.  1.
         23    2    1    2    0    0 -0.48529143841E+03  0.11350773980E+04  0.39635806370E+03  0.12998544897E+04  0.92808944210E+02 0.  0.
    5000000    2    1    2    0    0  0.48529143841E+03 -0.11350773980E+04  0.10501852241E+04  0.17282272888E+04  0.59997673046E+03 0.  0.
         23    2    4    4    0    0  0.21358271593E+02 -0.57082484641E+03  0.71407532908E+03  0.91912911587E+03  0.92723109273E+02 0.  0.
         23    2    4    4    0    0  0.46393316681E+03 -0.56425255159E+03  0.33610989501E+03  0.80909817290E+03  0.89750022903E+02 0.  0.
          4    1    3    3  502    0 -0.27926358331E+03  0.53931860606E+03  0.18167992747E+03  0.63392452536E+03  0.00000000000E+00 0. -1.
         -4    1    3    3    0  502 -0.20602785510E+03  0.59575879195E+03  0.21467813623E+03  0.66592996436E+03  0.00000000000E+00 0.  1.
         13    1    5    5    0    0  0.35644212024E+02 -0.80376832548E+02  0.11531379667E+03  0.14501109186E+03  0.00000000000E+00 0.  1.
        -13    1    5    5    0    0 -0.14285940430E+02 -0.49044801386E+03  0.59876153241E+03  0.77411802401E+03  0.00000000000E+00 0. -1.
          5    1    6    6  503    0  0.22554319906E+03 -0.26590422777E+03  0.11186788488E+03  0.36621210610E+03  0.47000000000E+01 0. -1.
         -5    1    6    6    0  503  0.23838996776E+03 -0.29834832382E+03  0.22424201013E+03  0.44288606679E+03  0.47000000000E+01 0.  1.
<mgrwt>
<rscale>  0 0.12734602E+04</rscale>
<asrwt>0</asrwt>
<pdfrwt beam="1">  1        1 0.34420193E+00 0.12734602E+04</pdfrwt>
<pdfrwt beam="2">  1       -1 0.12165681E+00 0.12734602E+04</pdfrwt>
<totfact> 0.12016004E+00</totfact>
</mgrwt>
</event>
<event>
12    1  0.3166324E-008  0.7199616E+03  0.7818608E-02  0.9683691E-01
         -1   -1    0    0    0  501 -0.00000000000E+00  0.00000000000E+00  0.88048951799E+03  0.88048951799E+03  0.00000000000E+00 0.  1.
          1   -1    0    0  501    0  0.00000000000E+00 -0.00000000000E+00 -0.12554631695E+04  0.12554631695E+04  0.00000000000E+00 0. -1.
         23    2    1    2    0    0  0.60549640436E+03  0.20912994746E+03  0.55843140227E+03  0.85468278344E+03  0.90971416609E+02 0.  0.
    5000000    2    1    2    0    0 -0.60549640436E+03 -0.20912994746E+03 -0.93340505382E+03  0.12812699041E+04  0.60003861709E+03 0.  0.
         23    2    4    4    0    0 -0.70545656624E+02  0.12336453252E+03 -0.45280298449E+03  0.48407213337E+03  0.95392819343E+02 0.  0.
         23    2    4    4    0    0 -0.53495074774E+03 -0.33249447999E+03 -0.48060206933E+03  0.79719777072E+03  0.88436728084E+02 0.  0.
          2    1    3    3  502    0  0.16101822417E+03  0.24904004403E+02  0.17797667021E+03  0.24129395577E+03  0.00000000000E+00 0. -1.
         -2    1    3    3    0  502  0.44447818020E+03  0.18422594306E+03  0.38045473206E+03  0.61338882767E+03  0.00000000000E+00 0.  1.
         13    1    5    5    0    0  0.10328545656E+02 -0.66086639533E+01 -0.10901859720E+02  0.16407432461E+02  0.00000000000E+00 0.  1.
        -13    1    5    5    0    0 -0.80874202279E+02  0.12997319648E+03 -0.44190112477E+03  0.46766470090E+03  0.00000000000E+00 0. -1.
          5    1    6    6  503    0 -0.23919736838E+03 -0.13301289236E+03 -0.26122727632E+03  0.37837757660E+03  0.47000000000E+01 0. -1.
         -5    1    6    6    0  503 -0.29575337936E+03 -0.19948158762E+03 -0.21937479301E+03  0.41882019413E+03  0.47000000000E+01 0.  1.
<mgrwt>
<rscale>  0 0.71996165E+03</rscale>
<asrwt>0</asrwt>
<pdfrwt beam="1">  1        1 0.19314818E+00 0.71996165E+03</pdfrwt>
<pdfrwt beam="2">  1       -1 0.13545993E+00 0.71996165E+03</pdfrwt>
<totfact> 0.46443537E+00</totfact>
</mgrwt>
</event>
<event>
12    1  0.3341539E-008  0.8143369E+03  0.7818608E-02  0.9539494E-01
         -2   -1    0    0    0  501 -0.00000000000E+00  0.00000000000E+00  0.13403772806E+04  0.13403772806E+04  0.00000000000E+00 0.  1.
          2   -1    0    0  501    0  0.00000000000E+00 -0.00000000000E+00 -0.71113166919E+03  0.71113166919E+03  0.00000000000E+00 0. -1.
         23    2    1    2    0    0  0.70265537171E+03 -0.69161628066E+02  0.84010203856E+03  0.11012608469E+04  0.92174376163E+02 0.  0.
    5000000    2    1    2    0    0 -0.70265537171E+03  0.69161628066E+02 -0.21085642713E+03  0.95024810286E+03  0.60000260161E+03 0.  0.
         23    2    4    4    0    0 -0.71859240411E+03 -0.97000188224E+02 -0.12150616919E+03  0.74056587579E+03  0.88825601408E+02 0.  0.
         23    2    4    4    0    0  0.15937032405E+02  0.16616181629E+03 -0.89350257945E+02  0.20968222707E+03  0.90107877346E+02 0.  0.
          1    1    3    3  502    0  0.49654460227E+03 -0.19124700212E+02  0.54083323870E+03  0.73445414308E+03  0.00000000000E+00 0. -1.
         -1    1    3    3    0  502  0.20611076944E+03 -0.50036927854E+02  0.29926879987E+03  0.36680670387E+03  0.00000000000E+00 0.  1.
         13    1    5    5    0    0 -0.52118696673E+03 -0.29965245077E+02 -0.88126509159E+02  0.52943370862E+03  0.00000000000E+00 0.  1.
        -13    1    5    5    0    0 -0.19740543738E+03 -0.67034943147E+02 -0.33379660030E+02  0.21113216717E+03  0.00000000000E+00 0. -1.
          5    1    6    6  503    0  0.43782610962E+02  0.38817127778E+02 -0.20421656060E+02  0.62151592641E+02  0.47000000000E+01 0. -1.
         -5    1    6    6    0  503 -0.27845578557E+02  0.12734468851E+03 -0.68928601885E+02  0.14753063443E+03  0.47000000000E+01 0.  1.
<mgrwt>
<rscale>  0 0.81433687E+03</rscale>
<asrwt>0</asrwt>
<pdfrwt beam="1">  1        2 0.10940487E+00 0.81433687E+03</pdfrwt>
<pdfrwt beam="2">  1       -2 0.20621189E+00 0.81433687E+03</pdfrwt>
<totfact> 0.49326791E+00</totfact>
</mgrwt>
</event>
<event>
12    1  0.3166324E-008  0.4775412E+03  0.7818608E-02  0.1019813E+00
         -2   -1    0    0    0  501 -0.00000000000E+00  0.00000000000E+00  0.47942153865E+03  0.47942153865E+03  0.00000000000E+00 0. -1.
          2   -1    0    0  501    0  0.00000000000E+00 -0.00000000000E+00 -0.86936584898E+03  0.86936584898E+03  0.00000000000E+00 0.  1.
         23    2    1    2    0    0 -0.33785018143E+03 -0.18306029970E+03 -0.48997019805E+03  0.62927658735E+03  0.90908800400E+02 0.  0.
    5000000    2    1    2    0    0  0.33785018143E+03  0.18306029970E+03  0.10002588772E+03  0.71951080028E+03  0.60003066179E+03 0.  0.
         23    2    4    4    0    0  0.11864544030E+03  0.28236219731E+03  0.26389123296E+03  0.41452964350E+03  0.91602901334E+02 0.  0.
         23    2    4    4    0    0  0.21920474113E+03 -0.99301897611E+02 -0.16386534525E+03  0.30498115678E+03  0.90829891638E+02 0.  0.
          3    1    3    3  502    0 -0.29422236319E+03 -0.11904424088E+03 -0.39289434211E+03  0.50507850316E+03  0.00000000000E+00 0. -1.
         -3    1    3    3    0  502 -0.43627818243E+02 -0.64016058818E+02 -0.97075855941E+02  0.12419808420E+03  0.00000000000E+00 0.  1.
         11    1    5    5    0    0  0.91635894609E+02  0.18731688199E+03  0.22905609592E+03  0.30976030498E+03  0.00000000000E+00 0.  1.
        -11    1    5    5    0    0  0.27009545687E+02  0.95045315318E+02  0.34835137041E+02  0.10476933852E+03  0.00000000000E+00 0. -1.
          5    1    6    6  503    0  0.56687067467E+02  0.89128767878E+01 -0.62351488345E+02  0.84868492914E+02  0.47000000000E+01 0. -1.
         -5    1    6    6    0  503  0.16251767367E+03 -0.10821477440E+03 -0.10151385690E+03  0.22011266387E+03  0.47000000000E+01 0.  1.
<mgrwt>
<rscale>  0 0.47754118E+03</rscale>
<asrwt>0</asrwt>
<pdfrwt beam="1">  1        2 0.13374859E+00 0.47754118E+03</pdfrwt>
<pdfrwt beam="2">  1       -2 0.73757160E-01 0.47754118E+03</pdfrwt>
<totfact> 0.53149056E+01</totfact>
</mgrwt>
</event>
<event>
12    1  0.3166324E-008  0.1358616E+04  0.7818608E-02  0.8984331E-01
         -1   -1    0    0    0  501 -0.00000000000E+00  0.00000000000E+00  0.66467608460E+03  0.66467608460E+03  0.00000000000E+00 0.  1.
          1   -1    0    0  501    0  0.00000000000E+00 -0.00000000000E+00 -0.34359345888E+04  0.34359345888E+04  0.00000000000E+00 0. -1.
         23    2    1    2    0    0  0.73675233089E+03  0.11314299578E+04 -0.20503064672E+04  0.24566136589E+04  0.90864255742E+02 0.  0.
    5000000    2    1    2    0    0 -0.73675233089E+03 -0.11314299578E+04 -0.72095203699E+03  0.16439970145E+04  0.60001383117E+03 0.  0.
         23    2    4    4    0    0 -0.11785980842E+03 -0.27103715074E+03 -0.45064718744E+03  0.54648391246E+03  0.90607436268E+02 0.  0.
         23    2    4    4    0    0 -0.61889252247E+03 -0.86039280708E+03 -0.27030484954E+03  0.10975131021E+04  0.90369024890E+02 0.  0.
          1    1    3    3  502    0  0.50586427399E+03  0.78941430961E+03 -0.14969461319E+04  0.17663299063E+04  0.00000000000E+00 0. -1.
         -1    1    3    3    0  502  0.23088805690E+03  0.34201564821E+03 -0.55336033530E+03  0.69028375261E+03  0.00000000000E+00 0.  1.
         11    1    5    5    0    0 -0.39480735456E+02 -0.17461470379E+03 -0.31654566748E+03  0.36366218232E+03  0.00000000000E+00 0.  1.
        -11    1    5    5    0    0 -0.78379072961E+02 -0.96422446953E+02 -0.13410151996E+03  0.18282173014E+03  0.00000000000E+00 0. -1.
          5    1    6    6  503    0 -0.45700216085E+03 -0.56376830957E+03 -0.18441898600E+03  0.74881114728E+03  0.47000000000E+01 0. -1.
         -5    1    6    6    0  503 -0.16189036162E+03 -0.29662449751E+03 -0.85885863541E+02  0.34870195477E+03  0.47000000000E+01 0.  1.
<mgrwt>
<rscale>  0 0.13586162E+04</rscale>
<asrwt>0</asrwt>
<pdfrwt beam="1">  1        1 0.52860533E+00 0.13586162E+04</pdfrwt>
<pdfrwt beam="2">  1       -1 0.10225786E+00 0.13586162E+04</pdfrwt>
<totfact> 0.24890716E-01</totfact>
</mgrwt>
</event>
<event>
12    1  0.3166324E-008  0.9186515E+03  0.7818608E-02  0.9402562E-01
          1   -1    0    0  501    0  0.00000000000E+00  0.00000000000E+00  0.12317268934E+04  0.12317268934E+04  0.00000000000E+00 0. -1.
         -1   -1    0    0    0  501 -0.00000000000E+00 -0.00000000000E+00 -0.75849539028E+03  0.75849539028E+03  0.00000000000E+00 0.  1.
         23    2    1    2    0    0 -0.75587184373E+03 -0.34913164051E+03 -0.48012733055E+02  0.83904993113E+03  0.92002270825E+02 0.  0.
    5000000    2    1    2    0    0  0.75587184373E+03  0.34913164051E+03  0.52124423618E+03  0.11511723526E+04  0.60022252956E+03 0.  0.
         23    2    4    4    0    0  0.21963107014E+03  0.38878620300E+03  0.36737109564E+03  0.58504431800E+03  0.89010187662E+02 0.  0.
         23    2    4    4    0    0  0.53624077360E+03 -0.39654562489E+02  0.15387314054E+03  0.56612803455E+03  0.87734580038E+02 0.  0.
          4    1    3    3  502    0 -0.51829759183E+03 -0.19269241545E+03 -0.21766011125E+02  0.55338641103E+03  0.00000000000E+00 0. -1.
         -4    1    3    3    0  502 -0.23757425190E+03 -0.15643922506E+03 -0.26246721930E+02  0.28566352010E+03  0.00000000000E+00 0.  1.
         11    1    5    5    0    0  0.69126773684E+02  0.52967429755E+02  0.63098943000E+02  0.10754318232E+03  0.00000000000E+00 0.  1.
        -11    1    5    5    0    0  0.15050429645E+03  0.33581877324E+03  0.30427215264E+03  0.47750113569E+03  0.00000000000E+00 0. -1.
          5    1    6    6  503    0  0.36177685922E+03 -0.67547059970E+02  0.10199384418E+03  0.38192922829E+03  0.47000000000E+01 0. -1.
         -5    1    6    6    0  503  0.17446391438E+03  0.27892497480E+02  0.51879296364E+02  0.18419880626E+03  0.47000000000E+01 0.  1.
<mgrwt>
<rscale>  0 0.91865151E+03</rscale>
<asrwt>0</asrwt>
<pdfrwt beam="1">  1        1 0.18949645E+00 0.91865151E+03</pdfrwt>
<pdfrwt beam="2">  1       -1 0.11669160E+00 0.91865151E+03</pdfrwt>
<totfact> 0.68021761E+00</totfact>
</mgrwt>
</event>
<event>
12    1  0.4687528E-008  0.8298520E+03  0.7818608E-02  0.9517785E-01
         -2   -1    0    0    0  501 -0.00000000000E+00  0.00000000000E+00  0.66639459813E+03  0.66639459813E+03  0.00000000000E+00 0. -1.
          2   -1    0    0  501    0  0.00000000000E+00 -0.00000000000E+00 -0.12294778398E+04  0.12294778398E+04  0.00000000000E+00 0.  1.
         23    2    1    2    0    0 -0.53650227310E+03  0.59667695596E+03 -0.28360555069E+03  0.85569398206E+03  0.89005638773E+02 0.  0.
    5000000    2    1    2    0    0  0.53650227310E+03 -0.59667695596E+03 -0.27947769102E+03  0.10401784559E+04  0.60000446793E+03 0.  0.
         23    2    4    4    0    0  0.47889028376E+02 -0.47801401620E+02 -0.27746071646E+03  0.29963695671E+03  0.90661588419E+02 0.  0.
         23    2    4    4    0    0  0.48861324472E+03 -0.54887555434E+03 -0.20169745593E+01  0.74054149919E+03  0.91598945210E+02 0.  0.
          3    1    3    3  502    0 -0.38159547993E+03  0.36438390289E+03 -0.19966569057E+03  0.56414282498E+03  0.00000000000E+00 0. -1.
         -3    1    3    3    0  502 -0.15490679317E+03  0.23229305308E+03 -0.83939860123E+02  0.29155115708E+03  0.00000000000E+00 0.  1.
         11    1    5    5    0    0  0.63530551077E+02 -0.74314052454E+00 -0.15691872555E+03  0.16929314695E+03  0.00000000000E+00 0. -1.
        -11    1    5    5    0    0 -0.15641522700E+02 -0.47058261096E+02 -0.12054199091E+03  0.13034380976E+03  0.00000000000E+00 0.  1.
          5    1    6    6  503    0  0.36963858091E+03 -0.35688103686E+03  0.14383892236E+02  0.51402893043E+03  0.47000000000E+01 0. -1.
         -5    1    6    6    0  503  0.11897466381E+03 -0.19199451749E+03 -0.16400866796E+02  0.22651256876E+03  0.47000000000E+01 0.  1.
<mgrwt>
<rscale>  0 0.82985203E+03</rscale>
<asrwt>0</asrwt>
<pdfrwt beam="1">  1        2 0.18915043E+00 0.82985203E+03</pdfrwt>
<pdfrwt beam="2">  1       -2 0.10252225E+00 0.82985203E+03</pdfrwt>
<totfact> 0.14309584E+01</totfact>
</mgrwt>
</event>
<event>
12    1  0.3166324E-008  0.9851248E+03  0.7818608E-02  0.9325012E-01
         -2   -1    0    0    0  501 -0.00000000000E+00  0.00000000000E+00  0.28934422217E+04  0.28934422217E+04  0.00000000000E+00 0. -1.
          2   -1    0    0  501    0  0.00000000000E+00 -0.00000000000E+00 -0.68248294558E+03  0.68248294558E+03  0.00000000000E+00 0.  1.
         23    2    1    2    0    0  0.77508354087E+03 -0.49142090907E+03 -0.18525646740E+03  0.94078545805E+03  0.92240523350E+02 0.  0.
    5000000    2    1    2    0    0 -0.77508354087E+03  0.49142090907E+03  0.23962157435E+04  0.26351397092E+04  0.59988531609E+03 0.  0.
         23    2    4    4    0    0 -0.80703363061E+03  0.52518549364E+03  0.19408118894E+04  0.21684870009E+04  0.91989126084E+02 0.  0.
         23    2    4    4    0    0  0.31950089740E+02 -0.33764584563E+02  0.45540385408E+03  0.46665270830E+03  0.90615806857E+02 0.  0.
          1    1    3    3  502    0  0.56583003377E+03 -0.33029015991E+03 -0.16659469253E+03  0.67602441408E+03  0.00000000000E+00 0. -1.
         -1    1    3    3    0  502  0.20925350711E+03 -0.16113074917E+03 -0.18661774867E+02  0.26476104397E+03  0.00000000000E+00 0.  1.
         11    1    5    5    0    0 -0.15333769048E+03  0.12488406036E+03  0.47025472090E+03  0.51014505622E+03  0.00000000000E+00 0.  1.
        -11    1    5    5    0    0 -0.65369594014E+03  0.40030143328E+03  0.14705571685E+04  0.16583419447E+04  0.00000000000E+00 0. -1.
          5    1    6    6  503    0 -0.13914830978E+02 -0.37656327158E+02  0.33882934376E+03  0.34123164520E+03  0.47000000000E+01 0. -1.
         -5    1    6    6    0  503  0.45864920718E+02  0.38917425950E+01  0.11657451032E+03  0.12542106310E+03  0.47000000000E+01 0.  1.
<mgrwt>
<rscale>  0 0.98512476E+03</rscale>
<asrwt>0</asrwt>
<pdfrwt beam="1">  1        2 0.10499738E+00 0.98512476E+03</pdfrwt>
<pdfrwt beam="2">  1       -2 0.44514495E+00 0.98512476E+03</pdfrwt>
<totfact> 0.16155444E-01</totfact>
</mgrwt>
</event>
<event>
12    1  0.3166324E-008  0.7262229E+03  0.7818608E-02  0.9673409E-01
          2   -1    0    0  501    0  0.00000000000E+00  0.00000000000E+00  0.11942735787E+04  0.11942735787E+04  0.00000000000E+00 0. -1.
         -2   -1    0    0    0  501 -0.00000000000E+00 -0.00000000000E+00 -0.60582691182E+03  0.60582691182E+03  0.00000000000E+00 0.  1.
         23    2    1    2    0    0  0.65108924501E+03 -0.12419439374E+03 -0.94365142168E+02  0.67532715028E+03  0.88433746055E+02 0.  0.
    5000000    2    1    2    0    0 -0.65108924501E+03  0.12419439374E+03  0.68281180901E+03  0.11247733402E+04  0.59961791826E+03 0.  0.
         23    2    4    4    0    0 -0.32863915940E+02  0.15648918098E+03  0.39567589194E+03  0.43660498047E+03  0.92171561631E+02 0.  0.
         23    2    4    4    0    0 -0.61822532907E+03 -0.32294787235E+02  0.28713591707E+03  0.68816835973E+03  0.88787080607E+02 0.  0.
          3    1    3    3  502    0  0.35852376431E+03 -0.69972829248E+02 -0.75229048768E+01  0.36536568052E+03  0.00000000000E+00 0. -1.
         -3    1    3    3    0  502  0.29256548070E+03 -0.54221564497E+02 -0.86842237291E+02  0.30996146976E+03  0.00000000000E+00 0.  1.
         13    1    5    5    0    0 -0.11135905143E+02 -0.68268185152E+00  0.10373402647E+03  0.10433227059E+03  0.00000000000E+00 0. -1.
        -13    1    5    5    0    0 -0.21728010797E+02  0.15717186283E+03  0.29194186546E+03  0.33227270988E+03  0.00000000000E+00 0.  1.
          5    1    6    6  503    0 -0.50197550798E+03 -0.15508470617E+02  0.26735999160E+03  0.56896693962E+03  0.47000000000E+01 0. -1.
         -5    1    6    6    0  503 -0.11624982109E+03 -0.16786316618E+02  0.19775925467E+02  0.11920142011E+03  0.47000000000E+01 0.  1.
<mgrwt>
<rscale>  0 0.72622287E+03</rscale>
<asrwt>0</asrwt>
<pdfrwt beam="1">  1        2 0.18373440E+00 0.72622287E+03</pdfrwt>
<pdfrwt beam="2">  1       -2 0.93204141E-01 0.72622287E+03</pdfrwt>
<totfact> 0.19009832E+01</totfact>
</mgrwt>
</event>
<event>
12    1  0.3166324E-008  0.5073827E+03  0.7818608E-02  0.1011870E+00
          2   -1    0    0  501    0  0.00000000000E+00  0.00000000000E+00  0.10251347826E+04  0.10251347826E+04  0.00000000000E+00 0. -1.
         -2   -1    0    0    0  501 -0.00000000000E+00 -0.00000000000E+00 -0.37909571513E+03  0.37909571513E+03  0.00000000000E+00 0.  1.
         23    2    1    2    0    0 -0.24007628597E+03 -0.23492997192E+03  0.62571910971E+03  0.71599463168E+03  0.91077953136E+02 0.  0.
    5000000    2    1    2    0    0  0.24007628597E+03  0.23492997192E+03  0.20319957735E+02  0.68823586602E+03  0.60035572105E+03 0.  0.
         23    2    4    4    0    0  0.13746026433E+03 -0.18112453643E+03  0.50727690762E+02  0.24914211133E+03  0.88301025256E+02 0.  0.
         23    2    4    4    0    0  0.10261602164E+03  0.41605450835E+03 -0.30407733027E+02  0.43909375469E+03  0.90814609884E+02 0.  0.
          2    1    3    3  502    0 -0.98459134292E+02 -0.39191857657E+02  0.20803892870E+03  0.23347462108E+03  0.00000000000E+00 0. -1.
         -2    1    3    3    0  502 -0.14161715167E+03 -0.19573811426E+03  0.41768018101E+03  0.48252001060E+03  0.00000000000E+00 0.  1.
         13    1    5    5    0    0  0.91939708664E+02 -0.66275316141E+02 -0.53622633853E+01  0.11346400939E+03  0.00000000000E+00 0.  1.
        -13    1    5    5    0    0  0.45520555664E+02 -0.11484922029E+03  0.56089954147E+02  0.13567810193E+03  0.00000000000E+00 0. -1.
          5    1    6    6  503    0  0.79457102205E+01  0.98151479789E+02  0.27490767049E+02  0.10234588203E+03  0.47000000000E+01 0. -1.
         -5    1    6    6    0  503  0.94670311418E+02  0.31790302856E+03 -0.57898500077E+02  0.33674787266E+03  0.47000000000E+01 0.  1.
<mgrwt>
<rscale>  0 0.50738274E+03</rscale>
<asrwt>0</asrwt>
<pdfrwt beam="1">  1        2 0.15771304E+00 0.50738274E+03</pdfrwt>
<pdfrwt beam="2">  1       -2 0.58322418E-01 0.50738274E+03</pdfrwt>
<totfact> 0.69390035E+01</totfact>
</mgrwt>
</event>
<event>
12    1  0.3166324E-008  0.7658878E+03  0.7818608E-02  0.9610749E-01
         -2   -1    0    0    0  501 -0.00000000000E+00  0.00000000000E+00  0.76470253160E+03  0.76470253160E+03  0.00000000000E+00 0.  1.
          2   -1    0    0  501    0  0.00000000000E+00 -0.00000000000E+00 -0.16130647186E+04  0.16130647186E+04  0.00000000000E+00 0. -1.
         23    2    1    2    0    0  0.68477151942E+03 -0.93002297272E+01 -0.12138788263E+04  0.13966456086E+04  0.90103401612E+02 0.  0.
    5000000    2    1    2    0    0 -0.68477151942E+03  0.93002297272E+01  0.36551663930E+03  0.98112164160E+03  0.59999894494E+03 0.  0.
         23    2    4    4    0    0  0.56896181123E+02 -0.24789110102E+02 -0.54673428082E+02  0.12305532670E+03  0.91113963167E+02 0.  0.
         23    2    4    4    0    0 -0.74166770055E+03  0.34089339830E+02  0.42019006738E+03  0.85806631490E+03  0.92114314448E+02 0.  0.
          3    1    3    3  502    0  0.23437683610E+03  0.64473086225E+01 -0.50279653625E+03  0.55477781675E+03  0.00000000000E+00 0. -1.
         -3    1    3    3    0  502  0.45039468332E+03 -0.15747538350E+02 -0.71108229006E+03  0.84186779185E+03  0.00000000000E+00 0.  1.
         11    1    5    5    0    0  0.49932108502E+02 -0.51008151371E+02 -0.62441785103E+02  0.94836825614E+02  0.00000000000E+00 0.  1.
        -11    1    5    5    0    0  0.69640726214E+01  0.26219041269E+02  0.77683570209E+01  0.28218501082E+02  0.00000000000E+00 0. -1.
          5    1    6    6  503    0 -0.46251631133E+03  0.65600111704E+02  0.26016948493E+03  0.53472886942E+03  0.47000000000E+01 0. -1.
         -5    1    6    6    0  503 -0.27915138922E+03 -0.31510771874E+02  0.16002058245E+03  0.32333744549E+03  0.47000000000E+01 0.  1.
<mgrwt>
<rscale>  0 0.76588781E+03</rscale>
<asrwt>0</asrwt>
<pdfrwt beam="1">  1        2 0.24816380E+00 0.76588781E+03</pdfrwt>
<pdfrwt beam="2">  1       -2 0.11764654E+00 0.76588781E+03</pdfrwt>
<totfact> 0.62677931E+00</totfact>
</mgrwt>
</event>
<event>
12    1  0.3166324E-008  0.3861429E+03  0.7818608E-02  0.1048686E+00
         -2   -1    0    0    0  501 -0.00000000000E+00  0.00000000000E+00  0.11318689686E+03  0.11318689686E+03  0.00000000000E+00 0.  1.
          2   -1    0    0  501    0  0.00000000000E+00 -0.00000000000E+00 -0.25596637632E+04  0.25596637632E+04  0.00000000000E+00 0. -1.
         23    2    1    2    0    0 -0.22188133091E+03 -0.16966357435E+03 -0.29493221069E+03  0.42181978608E+03  0.11370958428E+03 0.  0.
    5000000    2    1    2    0    0  0.22188133091E+03  0.16966357435E+03 -0.21515446556E+04  0.22510308739E+04  0.59998211382E+03 0.  0.
         23    2    4    4    0    0  0.25775639055E+03  0.24933424709E+03 -0.67924408247E+03  0.77334153391E+03  0.89881482278E+02 0.  0.
         23    2    4    4    0    0 -0.35875059638E+02 -0.79670672745E+02 -0.14723005731E+04  0.14776893400E+04  0.90897590661E+02 0.  0.
          3    1    3    3  502    0 -0.77997429941E+02 -0.58138328437E+02 -0.32775397878E+02  0.10265423039E+03  0.00000000000E+00 0. -1.
         -3    1    3    3    0  502 -0.14388390097E+03 -0.11152524591E+03 -0.26215681282E+03  0.31916555569E+03  0.00000000000E+00 0.  1.
         13    1    5    5    0    0  0.78088410268E+02  0.25205416087E+02 -0.13636547292E+03  0.15914978801E+03  0.00000000000E+00 0. -1.
        -13    1    5    5    0    0  0.17966798028E+03  0.22412883101E+03 -0.54287860955E+03  0.61419174590E+03  0.00000000000E+00 0.  1.
          5    1    6    6  503    0 -0.13638751780E+02 -0.95095230494E+02 -0.10085368860E+04  0.10131129546E+04  0.47000000000E+01 0. -1.
         -5    1    6    6    0  503 -0.22236307858E+02  0.15424557749E+02 -0.46376368716E+03  0.46457638543E+03  0.47000000000E+01 0.  1.
<mgrwt>
<rscale>  0 0.38614291E+03</rscale>
<asrwt>0</asrwt>
<pdfrwt beam="1">  1        2 0.39379444E+00 0.38614291E+03</pdfrwt>
<pdfrwt beam="2">  1       -2 0.17413368E-01 0.38614291E+03</pdfrwt>
<totfact> 0.96450176E+01</totfact>
</mgrwt>
</event>
<event>
12    1  0.3166324E-008  0.1050599E+04  0.7818608E-02  0.9254726E-01
          3   -1    0    0  501    0  0.00000000000E+00  0.00000000000E+00  0.48820445306E+03  0.48820445306E+03  0.00000000000E+00 0. -1.
         -3   -1    0    0    0  501 -0.00000000000E+00 -0.00000000000E+00 -0.36215118292E+04  0.36215118292E+04  0.00000000000E+00 0.  1.
         23    2    1    2    0    0  0.54761521408E+03  0.80884154399E+03 -0.27194876740E+04  0.28910008851E+04  0.90365052019E+02 0.  0.
    5000000    2    1    2    0    0 -0.54761521408E+03 -0.80884154399E+03 -0.41381970212E+03  0.12187153972E+04  0.59992783519E+03 0.  0.
         23    2    4    4    0    0 -0.11772516948E+03 -0.63895956929E+03 -0.13107148600E+03  0.66903003006E+03  0.91065360918E+02 0.  0.
         23    2    4    4    0    0 -0.42989004459E+03 -0.16988197469E+03 -0.28274821613E+03  0.54968536710E+03  0.92423553889E+02 0.  0.
          2    1    3    3  502    0  0.27113691483E+03  0.44227859132E+03 -0.13285920359E+04  0.14262827128E+04  0.00000000000E+00 0. -1.
         -2    1    3    3    0  502  0.27647829924E+03  0.36656295266E+03 -0.13908956381E+04  0.14647181724E+04  0.00000000000E+00 0.  1.
         13    1    5    5    0    0 -0.84458522051E+02 -0.30594186277E+03 -0.10070892412E+03  0.33298040895E+03  0.00000000000E+00 0. -1.
        -13    1    5    5    0    0 -0.33266647433E+02 -0.33301770652E+03 -0.30362561877E+02  0.33604962111E+03  0.00000000000E+00 0.  1.
          5    1    6    6  503    0 -0.31418235593E+03 -0.16596639119E+03 -0.21941984144E+03  0.41763926132E+03  0.47000000000E+01 0. -1.
         -5    1    6    6    0  503 -0.11570768866E+03 -0.39155835085E+01 -0.63328374684E+02  0.13204610578E+03  0.47000000000E+01 0.  1.
<mgrwt>
<rscale>  0 0.10505989E+04</rscale>
<asrwt>0</asrwt>
<pdfrwt beam="1">  1        3 0.75108376E-01 0.10505989E+04</pdfrwt>
<pdfrwt beam="2">  1       -3 0.55715568E+00 0.10505989E+04</pdfrwt>
<totfact> 0.66521832E-03</totfact>
</mgrwt>
</event>
<event>
12    1  0.3166324E-008  0.9250715E+03  0.7818608E-02  0.9394772E-01
          2   -1    0    0  501    0  0.00000000000E+00  0.00000000000E+00  0.80161625892E+03  0.80161625892E+03  0.00000000000E+00 0. -1.
         -2   -1    0    0    0  501 -0.00000000000E+00 -0.00000000000E+00 -0.11844570386E+04  0.11844570386E+04  0.00000000000E+00 0.  1.
         23    2    1    2    0    0  0.79009594780E+03  0.30852011154E+03 -0.41044388591E+03  0.94667662071E+03  0.91083339652E+02 0.  0.
    5000000    2    1    2    0    0 -0.79009594780E+03 -0.30852011154E+03  0.27603106275E+02  0.10393966768E+04  0.60012269931E+03 0.  0.
         23    2    4    4    0    0 -0.48004684837E+03  0.89539533057E+02 -0.10903959865E+03  0.50873797868E+03  0.91991261914E+02 0.  0.
         23    2    4    4    0    0 -0.31004909943E+03 -0.39805964460E+03  0.13664270492E+03  0.53065869808E+03  0.91353709978E+02 0.  0.
          2    1    3    3  502    0  0.61586856383E+03  0.19899847615E+03 -0.31622010312E+03  0.72033994409E+03  0.00000000000E+00 0. -1.
         -2    1    3    3    0  502  0.17422738397E+03  0.10952163538E+03 -0.94223782796E+02  0.22633667663E+03  0.00000000000E+00 0.  1.
         11    1    5    5    0    0 -0.48966948416E+01 -0.43802514474E+01 -0.13567629523E+02  0.15074640759E+02  0.00000000000E+00 0. -1.
        -11    1    5    5    0    0 -0.47515015353E+03  0.93919784505E+02 -0.95471969122E+02  0.49366333793E+03  0.00000000000E+00 0.  1.
          5    1    6    6  503    0 -0.11618579555E+03 -0.18118276776E+03  0.10017282529E+03  0.23745108833E+03  0.47000000000E+01 0. -1.
         -5    1    6    6    0  503 -0.19386330387E+03 -0.21687687684E+03  0.36469879628E+02  0.29320760975E+03  0.47000000000E+01 0.  1.
<mgrwt>
<rscale>  0 0.92507154E+03</rscale>
<asrwt>0</asrwt>
<pdfrwt beam="1">  1        2 0.12332558E+00 0.92507154E+03</pdfrwt>
<pdfrwt beam="2">  1       -2 0.18222416E+00 0.92507154E+03</pdfrwt>
<totfact> 0.60095187E+00</totfact>
</mgrwt>
</event>
<event>
12    1  0.3166324E-008  0.2966580E+03  0.7818608E-02  0.1086923E+00
          2   -1    0    0  501    0  0.00000000000E+00  0.00000000000E+00  0.97576630446E+03  0.97576630446E+03  0.00000000000E+00 0.  1.
         -2   -1    0    0    0  501 -0.00000000000E+00 -0.00000000000E+00 -0.34105624281E+03  0.34105624281E+03  0.00000000000E+00 0. -1.
         23    2    1    2    0    0  0.53151765469E+02 -0.25756258154E+03  0.59909481675E+03  0.66078038932E+03  0.92479889010E+02 0.  0.
    5000000    2    1    2    0    0 -0.53151765469E+02  0.25756258154E+03  0.35615244890E+02  0.65604215794E+03  0.59996606050E+03 0.  0.
         23    2    4    4    0    0 -0.13943235637E+02  0.17708617491E+03  0.30172622454E+03  0.36136131886E+03  0.89383225643E+02 0.  0.
         23    2    4    4    0    0 -0.39208529832E+02  0.80476406629E+02 -0.26611097966E+03  0.29468083908E+03  0.89487332026E+02 0.  0.
          3    1    3    3  502    0 -0.38244264154E+01 -0.17462171574E+03  0.32788406919E+03  0.37150414893E+03  0.00000000000E+00 0. -1.
         -3    1    3    3    0  502  0.56976191884E+02 -0.82940865807E+02  0.27121074757E+03  0.28927624040E+03  0.00000000000E+00 0.  1.
         11    1    5    5    0    0  0.18686065744E+02  0.14630726928E+03  0.26543939067E+03  0.30366602743E+03  0.00000000000E+00 0.  1.
        -11    1    5    5    0    0 -0.32629301382E+02  0.30778905632E+02  0.36286833878E+02  0.57695291432E+02  0.00000000000E+00 0. -1.
          5    1    6    6  503    0 -0.63707394197E+02  0.32664067450E+02 -0.16902779203E+03  0.18362477462E+03  0.47000000000E+01 0. -1.
         -5    1    6    6    0  503  0.24498864365E+02  0.47812339179E+02 -0.97083187628E+02  0.11105606446E+03  0.47000000000E+01 0.  1.
<mgrwt>
<rscale>  0 0.29665805E+03</rscale>
<asrwt>0</asrwt>
<pdfrwt beam="1">  1        2 0.15011789E+00 0.29665805E+03</pdfrwt>
<pdfrwt beam="2">  1       -2 0.52470192E-01 0.29665805E+03</pdfrwt>
<totfact> 0.95492673E+01</totfact>
</mgrwt>
</event>
<event>
12    1  0.3166324E-008  0.4560827E+03  0.7818608E-02  0.1025923E+00
          2   -1    0    0  501    0  0.00000000000E+00  0.00000000000E+00  0.10253147245E+04  0.10253147245E+04  0.00000000000E+00 0. -1.
         -2   -1    0    0    0  501 -0.00000000000E+00 -0.00000000000E+00 -0.31333938193E+03  0.31333938193E+03  0.00000000000E+00 0.  1.
         23    2    1    2    0    0  0.29712245475E+03 -0.27098134957E+03  0.26099458712E+03  0.48712747444E+03  0.86384934570E+02 0.  0.
    5000000    2    1    2    0    0 -0.29712245475E+03  0.27098134957E+03  0.45098075543E+03  0.85152663197E+03  0.60000109855E+03 0.  0.
         23    2    4    4    0    0 -0.11941984701E+03  0.28356851115E+03  0.54350722606E+03  0.63094519315E+03  0.89551837562E+02 0.  0.
         23    2    4    4    0    0 -0.17770260774E+03 -0.12587161574E+02 -0.92526470630E+02  0.22058143882E+03  0.91424121276E+02 0.  0.
          2    1    3    3  502    0  0.63577146314E+02 -0.10662428925E+03  0.59811526885E+02  0.13779771892E+03  0.00000000000E+00 0. -1.
         -2    1    3    3    0  502  0.23354530843E+03 -0.16435706033E+03  0.20118306024E+03  0.34932975552E+03  0.00000000000E+00 0.  1.
         13    1    5    5    0    0 -0.59691346455E+02  0.19149234800E+03  0.27090275590E+03  0.33707666685E+03  0.00000000000E+00 0.  1.
        -13    1    5    5    0    0 -0.59728500552E+02  0.92076163150E+02  0.27260447016E+03  0.29386852630E+03  0.00000000000E+00 0. -1.
          5    1    6    6  503    0 -0.53413063976E+02  0.29007189454E+02 -0.59832034204E+02  0.85418585567E+02  0.47000000000E+01 0. -1.
         -5    1    6    6    0  503 -0.12428954376E+03 -0.41594351029E+02 -0.32694436426E+02  0.13516285325E+03  0.47000000000E+01 0.  1.
<mgrwt>
<rscale>  0 0.45608273E+03</rscale>
<asrwt>0</asrwt>
<pdfrwt beam="1">  1        2 0.15774073E+00 0.45608273E+03</pdfrwt>
<pdfrwt beam="2">  1       -2 0.48206059E-01 0.45608273E+03</pdfrwt>
<totfact> 0.10307474E+02</totfact>
</mgrwt>
</event>
<event>
12    1  0.3166324E-008  0.1182847E+04  0.7818608E-02  0.9128004E-01
         -1   -1    0    0    0  501 -0.00000000000E+00  0.00000000000E+00  0.99020847156E+03  0.99020847156E+03  0.00000000000E+00 0.  1.
          1   -1    0    0  501    0  0.00000000000E+00 -0.00000000000E+00 -0.14700505800E+04  0.14700505800E+04  0.00000000000E+00 0. -1.
         23    2    1    2    0    0  0.10953132025E+04  0.27637287965E+03 -0.18315579038E+03  0.11477018733E+04  0.87066448125E+02 0.  0.
    5000000    2    1    2    0    0 -0.10953132025E+04 -0.27637287965E+03 -0.29668631808E+03  0.13125571783E+04  0.59890783493E+03 0.  0.
         23    2    4    4    0    0 -0.10548789423E+04 -0.37544673957E+03 -0.32593735387E+03  0.11695465442E+04  0.88736256274E+02 0.  0.
         23    2    4    4    0    0 -0.40434260125E+02  0.99073859921E+02  0.29251035789E+02  0.14301063404E+03  0.90254413976E+02 0.  0.
          1    1    3    3  502    0  0.70721797299E+03  0.18896292388E+03 -0.15936647210E+03  0.74917415889E+03  0.00000000000E+00 0. -1.
         -1    1    3    3    0  502  0.38809522948E+03  0.87409955771E+02 -0.23789318278E+02  0.39852771444E+03  0.00000000000E+00 0.  1.
         11    1    5    5    0    0 -0.55743665041E+03 -0.18721070975E+03 -0.12627802242E+03  0.60143961294E+03  0.00000000000E+00 0.  1.
        -11    1    5    5    0    0 -0.49744229193E+03 -0.18823602981E+03 -0.19965933145E+03  0.56810693127E+03  0.00000000000E+00 0. -1.
          5    1    6    6  503    0  0.91751066276E+01  0.19597308362E+02 -0.25992491395E+02  0.34145815052E+02  0.47000000000E+01 0. -1.
         -5    1    6    6    0  503 -0.49609366753E+02  0.79476551559E+02  0.55243527184E+02  0.10886481899E+03  0.47000000000E+01 0.  1.
<mgrwt>
<rscale>  0 0.11828472E+04</rscale>
<asrwt>0</asrwt>
<pdfrwt beam="1">  1        1 0.22616163E+00 0.11828472E+04</pdfrwt>
<pdfrwt beam="2">  1       -1 0.15233977E+00 0.11828472E+04</pdfrwt>
<totfact> 0.22566828E+00</totfact>
</mgrwt>
</event>
<event>
12    1  0.3166324E-008  0.4707053E+03  0.7818608E-02  0.1021721E+00
         -2   -1    0    0    0  501 -0.00000000000E+00  0.00000000000E+00  0.14241042187E+03  0.14241042187E+03  0.00000000000E+00 0.  1.
          2   -1    0    0  501    0  0.00000000000E+00 -0.00000000000E+00 -0.18713464132E+04  0.18713464132E+04  0.00000000000E+00 0. -1.
         23    2    1    2    0    0 -0.16725391986E+03 -0.22765719584E+03 -0.92484674966E+03  0.97120983636E+03  0.90029791451E+02 0.  0.
    5000000    2    1    2    0    0  0.16725391986E+03  0.22765719584E+03 -0.80408924164E+03  0.10425469987E+04  0.60045238229E+03 0.  0.
         23    2    4    4    0    0  0.17588425142E+03  0.40651039258E+03 -0.47486661524E+03  0.65594977221E+03  0.92659765931E+02 0.  0.
         23    2    4    4    0    0 -0.86303315616E+01 -0.17885319673E+03 -0.32922262640E+03  0.38659722646E+03  0.94904842728E+02 0.  0.
          3    1    3    3  502    0 -0.83432183819E+02 -0.17754581460E+03 -0.55347128022E+03  0.58720856908E+03  0.00000000000E+00 0. -1.
         -3    1    3    3    0  502 -0.83821736040E+02 -0.50111381242E+02 -0.37137546944E+03  0.38400126727E+03  0.00000000000E+00 0.  1.
         13    1    5    5    0    0  0.10872601772E+03  0.19751829477E+03 -0.18090935939E+03  0.28907268985E+03  0.00000000000E+00 0. -1.
        -13    1    5    5    0    0  0.67158233699E+02  0.20899209780E+03 -0.29395725585E+03  0.36687708237E+03  0.00000000000E+00 0.  1.
          5    1    6    6  503    0  0.38958722518E+02 -0.41308847651E+02 -0.88381503974E+02  0.10515504362E+03  0.47000000000E+01 0. -1.
         -5    1    6    6    0  503 -0.47589054080E+02 -0.13754434908E+03 -0.24084112242E+03  0.28144218284E+03  0.47000000000E+01 0.  1.
<mgrwt>
<rscale>  0 0.47070526E+03</rscale>
<asrwt>0</asrwt>
<pdfrwt beam="1">  1        2 0.28789943E+00 0.47070526E+03</pdfrwt>
<pdfrwt beam="2">  1       -2 0.21909297E-01 0.47070526E+03</pdfrwt>
<totfact> 0.15107401E+02</totfact>
</mgrwt>
</event>
<event>
12    1  0.3166324E-008  0.8616310E+03  0.7818608E-02  0.9474858E-01
          1   -1    0    0  501    0  0.00000000000E+00  0.00000000000E+00  0.56625735732E+03  0.56625735732E+03  0.00000000000E+00 0. -1.
         -1   -1    0    0    0  501 -0.00000000000E+00 -0.00000000000E+00 -0.14355041618E+04  0.14355041618E+04  0.00000000000E+00 0.  1.
         23    2    1    2    0    0 -0.73610888169E+03  0.22378330764E+03 -0.62657838425E+03  0.99637813340E+03  0.90739509762E+02 0.  0.
    5000000    2    1    2    0    0  0.73610888169E+03 -0.22378330764E+03 -0.24266842028E+03  0.10053833858E+04  0.59997711265E+03 0.  0.
         23    2    4    4    0    0  0.37364425812E+03  0.16312154552E+03 -0.63747454795E+01  0.41774889772E+03  0.90856116589E+02 0.  0.
         23    2    4    4    0    0  0.36246462356E+03 -0.38690485316E+03 -0.23629367480E+03  0.58763448805E+03  0.91671271740E+02 0.  0.
          1    1    3    3  502    0 -0.34667447513E+03  0.13392247867E+03 -0.25544504595E+03  0.45096628865E+03  0.00000000000E+00 0. -1.
         -1    1    3    3    0  502 -0.38943440655E+03  0.89860828971E+02 -0.37113333830E+03  0.54541184475E+03  0.00000000000E+00 0.  1.
         11    1    5    5    0    0  0.22427783548E+03  0.14473633366E+03 -0.11434798574E+02  0.26717018619E+03  0.00000000000E+00 0.  1.
        -11    1    5    5    0    0  0.14936642264E+03  0.18385211861E+02  0.50600530949E+01  0.15057871153E+03  0.00000000000E+00 0. -1.
          5    1    6    6  503    0  0.18352607959E+03 -0.14688309880E+03 -0.13733961075E+03  0.27228794554E+03  0.47000000000E+01 0. -1.
         -5    1    6    6    0  503  0.17893854397E+03 -0.24002175436E+03 -0.98954064055E+02  0.31534654252E+03  0.47000000000E+01 0.  1.
<mgrwt>
<rscale>  0 0.86163101E+03</rscale>
<asrwt>0</asrwt>
<pdfrwt beam="1">  1        1 0.87116515E-01 0.86163101E+03</pdfrwt>
<pdfrwt beam="2">  1       -1 0.22084680E+00 0.86163101E+03</pdfrwt>
<totfact> 0.41336323E+00</totfact>
</mgrwt>
</event>
<event>
12    1  0.3166324E-008  0.1172198E+04  0.7818608E-02  0.9137546E-01
          1   -1    0    0  501    0  0.00000000000E+00  0.00000000000E+00  0.19444857969E+04  0.19444857969E+04  0.00000000000E+00 0. -1.
         -1   -1    0    0    0  501 -0.00000000000E+00 -0.00000000000E+00 -0.75809047074E+03  0.75809047074E+03  0.00000000000E+00 0.  1.
         23    2    1    2    0    0 -0.47452421018E+03 -0.99744098855E+03  0.25301111803E+03  0.11369048135E+04  0.92066158354E+02 0.  0.
    5000000    2    1    2    0    0  0.47452421018E+03  0.99744098855E+03  0.93338420815E+03  0.15656714541E+04  0.60004939007E+03 0.  0.
         23    2    4    4    0    0  0.16151748193E+03  0.87524445973E+03  0.77334832574E+03  0.11826106678E+04  0.91430834215E+02 0.  0.
         23    2    4    4    0    0  0.31300672825E+03  0.12219652882E+03  0.16003588240E+03  0.38306078630E+03  0.90658031948E+02 0.  0.
          1    1    3    3  502    0 -0.30859139107E+03 -0.54249987209E+03  0.14009579653E+03  0.63965740054E+03  0.00000000000E+00 0. -1.
         -1    1    3    3    0  502 -0.16593281910E+03 -0.45494111646E+03  0.11291532151E+03  0.49724741300E+03  0.00000000000E+00 0.  1.
         11    1    5    5    0    0  0.11464167554E+03  0.75857785983E+03  0.68936261264E+03  0.10314086944E+04  0.00000000000E+00 0.  1.
        -11    1    5    5    0    0  0.46875806390E+02  0.11666659990E+03  0.83985713103E+02  0.15120197341E+03  0.00000000000E+00 0. -1.
          5    1    6    6  503    0  0.58667368584E+02 -0.42555599329E+01  0.53534769559E+02  0.79674534693E+02  0.47000000000E+01 0. -1.
         -5    1    6    6    0  503  0.25433935967E+03  0.12645208875E+03  0.10650111285E+03  0.30338625161E+03  0.47000000000E+01 0. -1.
<mgrwt>
<rscale>  0 0.11721977E+04</rscale>
<asrwt>0</asrwt>
<pdfrwt beam="1">  1        1 0.29915166E+00 0.11721977E+04</pdfrwt>
<pdfrwt beam="2">  1       -1 0.11662930E+00 0.11721977E+04</pdfrwt>
<totfact> 0.21302889E+00</totfact>
</mgrwt>
</event>
<event>
12    1  0.3166324E-008  0.5003944E+03  0.7818608E-02  0.1013676E+00
         -1   -1    0    0    0  501 -0.00000000000E+00  0.00000000000E+00  0.15698318166E+03  0.15698318166E+03  0.00000000000E+00 0.  1.
          1   -1    0    0  501    0  0.00000000000E+00 -0.00000000000E+00 -0.20970200001E+04  0.20970200001E+04  0.00000000000E+00 0. -1.
         23    2    1    2    0    0  0.33874370431E+02  0.40611115814E+03 -0.60698106656E+03  0.73644552671E+03  0.88612938756E+02 0.  0.
    5000000    2    1    2    0    0 -0.33874370431E+02 -0.40611115814E+03 -0.13330557519E+04  0.15175576551E+04  0.59989153441E+03 0.  0.
         23    2    4    4    0    0 -0.22304653886E+03 -0.25911540060E+03 -0.11488120609E+04  0.12020000101E+04  0.90245906504E+02 0.  0.
         23    2    4    4    0    0  0.18917216843E+03 -0.14699575754E+03 -0.18424369097E+03  0.31555764496E+03  0.90758071741E+02 0.  0.
          1    1    3    3  502    0 -0.22136235186E+02  0.11379783510E+03 -0.12962595139E+03  0.17390470797E+03  0.00000000000E+00 0. -1.
         -1    1    3    3    0  502  0.56010605616E+02  0.29231332304E+03 -0.47735511517E+03  0.56254081874E+03  0.00000000000E+00 0.  1.
         13    1    5    5    0    0 -0.61043675211E+02 -0.11489556511E+03 -0.32400328367E+03  0.34914960833E+03  0.00000000000E+00 0. -1.
        -13    1    5    5    0    0 -0.16200286365E+03 -0.14421983549E+03 -0.82480877727E+03  0.85285040179E+03  0.00000000000E+00 0.  1.
          5    1    6    6  503    0  0.71533491472E+02 -0.64842139968E+02 -0.13020096533E+03  0.16216018282E+03  0.47000000000E+01 0. -1.
         -5    1    6    6    0  503  0.11763867696E+03 -0.82153617574E+02 -0.54042725634E+02  0.15339746214E+03  0.47000000000E+01 0.  1.
<mgrwt>
<rscale>  0 0.50039440E+03</rscale>
<asrwt>0</asrwt>
<pdfrwt beam="1">  1        1 0.32261845E+00 0.50039440E+03</pdfrwt>
<pdfrwt beam="2">  1       -1 0.24151259E-01 0.50039440E+03</pdfrwt>
<totfact> 0.40967632E+01</totfact>
</mgrwt>
</event>
<event>
12    1  0.3166324E-008  0.1303757E+04  0.7818608E-02  0.9026591E-01
         -2   -1    0    0    0  501 -0.00000000000E+00  0.00000000000E+00  0.83363529305E+03  0.83363529305E+03  0.00000000000E+00 0.  1.
          2   -1    0    0  501    0  0.00000000000E+00 -0.00000000000E+00 -0.20741952363E+04  0.20741952363E+04  0.00000000000E+00 0. -1.
         23    2    1    2    0    0 -0.11861285954E+04  0.34949208503E+03 -0.74644675453E+03  0.14472582988E+04  0.91258224915E+02 0.  0.
    5000000    2    1    2    0    0  0.11861285954E+04 -0.34949208503E+03 -0.49411318875E+03  0.14605722306E+04  0.60006469252E+03 0.  0.
         23    2    4    4    0    0  0.55950128323E+03  0.12773132106E+03 -0.19676979882E+03  0.61365492221E+03  0.92179355091E+02 0.  0.
         23    2    4    4    0    0  0.62662731218E+03 -0.47722340609E+03 -0.29734338993E+03  0.84691730841E+03  0.91934041889E+02 0.  0.
          2    1    3    3  502    0 -0.59143151435E+03  0.20858091622E+03 -0.41490142582E+03  0.75195773014E+03  0.00000000000E+00 0.  1.
         -2    1    3    3    0  502 -0.59469708107E+03  0.14091116881E+03 -0.33154532871E+03  0.69530056861E+03  0.00000000000E+00 0. -1.
         13    1    5    5    0    0  0.19621369974E+03  0.85756467017E+02 -0.93427791083E+02  0.23362949246E+03  0.00000000000E+00 0.  1.
        -13    1    5    5    0    0  0.36328758350E+03  0.41974854045E+02 -0.10334200774E+03  0.38002542975E+03  0.00000000000E+00 0. -1.
          5    1    6    6  503    0  0.44613769770E+03 -0.31003835386E+03 -0.24164989373E+03  0.59462541764E+03  0.47000000000E+01 0. -1.
         -5    1    6    6    0  503  0.18048961449E+03 -0.16718505224E+03 -0.55693496198E+02  0.25229189077E+03  0.47000000000E+01 0.  1.
<mgrwt>
<rscale>  0 0.13037572E+04</rscale>
<asrwt>0</asrwt>
<pdfrwt beam="1">  1        2 0.31910696E+00 0.13037572E+04</pdfrwt>
<pdfrwt beam="2">  1       -2 0.12825158E+00 0.13037572E+04</pdfrwt>
<totfact> 0.26353016E+00</totfact>
</mgrwt>
</event>
<event>
12    1  0.3166324E-008  0.6236282E+03  0.7818608E-02  0.9857562E-01
          1   -1    0    0  501    0  0.00000000000E+00  0.00000000000E+00  0.20771029398E+04  0.20771029398E+04  0.00000000000E+00 0. -1.
         -1   -1    0    0    0  501 -0.00000000000E+00 -0.00000000000E+00 -0.29595332037E+03  0.29595332037E+03  0.00000000000E+00 0.  1.
         23    2    1    2    0    0 -0.54190550122E+03 -0.29476599111E+03  0.38754452021E+03  0.73513755456E+03  0.98427167079E+02 0.  0.
    5000000    2    1    2    0    0  0.54190550122E+03  0.29476599111E+03  0.13936050993E+04  0.16379187056E+04  0.60007828809E+03 0.  0.
         23    2    4    4    0    0  0.21953511430E+03  0.13983131293E+03  0.11798898729E+04  0.12116593089E+04  0.90717727681E+02 0.  0.
         23    2    4    4    0    0  0.32237038692E+03  0.15493467818E+03  0.21371522637E+03  0.42625939678E+03  0.89974743664E+02 0.  0.
          3    1    3    3  502    0 -0.14231882455E+03 -0.65826820402E+02  0.14983104938E+03  0.21688052348E+03  0.00000000000E+00 0. -1.
         -3    1    3    3    0  502 -0.39958667667E+03 -0.22893917071E+03  0.23771347082E+03  0.51825703108E+03  0.00000000000E+00 0.  1.
         13    1    5    5    0    0  0.10172664039E+03  0.81868788107E+02  0.77755780579E+03  0.78844590758E+03  0.00000000000E+00 0.  1.
        -13    1    5    5    0    0  0.11780847391E+03  0.57962524824E+02  0.40233206710E+03  0.42321340129E+03  0.00000000000E+00 0. -1.
          5    1    6    6  503    0  0.29182264198E+03  0.10667507524E+03  0.17020014028E+03  0.35430241856E+03  0.47000000000E+01 0. -1.
         -5    1    6    6    0  503  0.30547744944E+02  0.48259602941E+02  0.43515086094E+02  0.71956978223E+02  0.47000000000E+01 0.  1.
<mgrwt>
<rscale>  0 0.62362816E+03</rscale>
<asrwt>0</asrwt>
<pdfrwt beam="1">  1        1 0.31955429E+00 0.62362816E+03</pdfrwt>
<pdfrwt beam="2">  1       -1 0.45531281E-01 0.62362816E+03</pdfrwt>
<totfact> 0.13507487E+01</totfact>
</mgrwt>
</event>
<event>
12    1  0.3166324E-008  0.4692674E+03  0.7818608E-02  0.1022127E+00
         -1   -1    0    0    0  501 -0.00000000000E+00  0.00000000000E+00  0.34312746603E+03  0.34312746603E+03  0.00000000000E+00 0.  1.
          1   -1    0    0  501    0  0.00000000000E+00 -0.00000000000E+00 -0.92756410685E+03  0.92756410685E+03  0.00000000000E+00 0. -1.
         23    2    1    2    0    0  0.34617438717E+03  0.18760972200E+03 -0.24834221545E+03  0.47824476304E+03  0.10959052550E+03 0.  0.
    5000000    2    1    2    0    0 -0.34617438717E+03 -0.18760972200E+03 -0.33609442538E+03  0.79244680985E+03  0.59998197435E+03 0.  0.
         23    2    4    4    0    0  0.18265173996E+02 -0.16435676418E+03 -0.36940435438E+03  0.41478929768E+03  0.90795495043E+02 0.  0.
         23    2    4    4    0    0 -0.36443956116E+03 -0.23252957824E+02  0.33309929000E+02  0.37765751217E+03  0.90325806623E+02 0.  0.
          3    1    3    3  502    0  0.20328114235E+03  0.76668149468E+02 -0.81171629324E+02  0.23192684490E+03  0.00000000000E+00 0. -1.
         -3    1    3    3    0  502  0.14289324482E+03  0.11094157253E+03 -0.16717058612E+03  0.24631791813E+03  0.00000000000E+00 0.  1.
         13    1    5    5    0    0  0.32754070454E+02 -0.85415129725E+02 -0.10902189959E+03  0.14231777158E+03  0.00000000000E+00 0.  1.
        -13    1    5    5    0    0 -0.14488896458E+02 -0.78941634451E+02 -0.26038245479E+03  0.27247152610E+03  0.00000000000E+00 0. -1.
          5    1    6    6  503    0 -0.19582242726E+03  0.12219266556E+02  0.55266735328E+02  0.20389270592E+03  0.47000000000E+01 0. -1.
         -5    1    6    6    0  503 -0.16861713390E+03 -0.35472224380E+02 -0.21956806328E+02  0.17376480625E+03  0.47000000000E+01 0.  1.
<mgrwt>
<rscale>  0 0.46926745E+03</rscale>
<asrwt>0</asrwt>
<pdfrwt beam="1">  1        1 0.14270217E+00 0.46926745E+03</pdfrwt>
<pdfrwt beam="2">  1       -1 0.52788842E-01 0.46926745E+03</pdfrwt>
<totfact> 0.65938363E+01</totfact>
</mgrwt>
</event>
<event>
12    1  0.3166324E-008  0.6151060E+03  0.7818608E-02  0.9874552E-01
         -2   -1    0    0    0  501 -0.00000000000E+00  0.00000000000E+00  0.41105235633E+03  0.41105235633E+03  0.00000000000E+00 0.  1.
          2   -1    0    0  501    0  0.00000000000E+00 -0.00000000000E+00 -0.11983354013E+04  0.11983354013E+04  0.00000000000E+00 0. -1.
         23    2    1    2    0    0 -0.39034835355E+03  0.33175235547E+03 -0.38232333075E+02  0.52188817618E+03  0.92054845982E+02 0.  0.
    5000000    2    1    2    0    0  0.39034835355E+03 -0.33175235547E+03 -0.74905071191E+03  0.10874995815E+04  0.59928866852E+03 0.  0.
         23    2    4    4    0    0 -0.11147232857E+03 -0.23730921610E+02 -0.26516230428E+02  0.15094900435E+03  0.95358558934E+02 0.  0.
         23    2    4    4    0    0  0.50182068212E+03 -0.30802143386E+03 -0.72253448148E+03  0.93655057712E+03  0.91486096548E+02 0.  0.
          3    1    3    3  502    0 -0.15959639089E+03  0.95473440246E+02  0.18108377729E+02  0.18685314854E+03  0.00000000000E+00 0. -1.
         -3    1    3    3    0  502 -0.23075196266E+03  0.23627891522E+03 -0.56340710803E+02  0.33503502764E+03  0.00000000000E+00 0.  1.
         13    1    5    5    0    0 -0.87552886926E+02 -0.19077260394E+01 -0.58596245771E+02  0.10536919591E+03  0.00000000000E+00 0.  1.
        -13    1    5    5    0    0 -0.23919441642E+02 -0.21823195571E+02  0.32080015344E+02  0.45579808445E+02  0.00000000000E+00 0. -1.
          5    1    6    6  503    0  0.55994356890E+02 -0.83218687748E+01 -0.49060932135E+02  0.75057888096E+02  0.47000000000E+01 0. -1.
         -5    1    6    6    0  503  0.44582632523E+03 -0.29969956508E+03 -0.67347354935E+03  0.86149268903E+03  0.47000000000E+01 0.  1.
<mgrwt>
<rscale>  0 0.61510600E+03</rscale>
<asrwt>0</asrwt>
<pdfrwt beam="1">  1        2 0.18435929E+00 0.61510600E+03</pdfrwt>
<pdfrwt beam="2">  1       -2 0.63238825E-01 0.61510600E+03</pdfrwt>
<totfact> 0.45398177E+01</totfact>
</mgrwt>
</event>
<event>
12    1  0.3166324E-008  0.1306037E+04  0.7818608E-02  0.9024791E-01
          2   -1    0    0  501    0  0.00000000000E+00  0.00000000000E+00  0.16089746016E+04  0.16089746016E+04  0.00000000000E+00 0. -1.
         -2   -1    0    0    0  501 -0.00000000000E+00 -0.00000000000E+00 -0.17441725421E+04  0.17441725421E+04  0.00000000000E+00 0.  1.
         23    2    1    2    0    0  0.11660589087E+04 -0.42416301438E+03 -0.11081308242E+04  0.16660897493E+04  0.91068588741E+02 0.  0.
    5000000    2    1    2    0    0 -0.11660589087E+04  0.42416301438E+03  0.97293288374E+03  0.16870573944E+04  0.59996384444E+03 0.  0.
         23    2    4    4    0    0 -0.60199299377E+03 -0.82240861535E+02  0.44487595418E+03  0.75870533249E+03  0.92520500934E+02 0.  0.
         23    2    4    4    0    0 -0.56406591489E+03  0.50640387592E+03  0.52805692956E+03  0.92835206195E+03  0.91532443301E+02 0.  0.
          1    1    3    3  502    0  0.46493669194E+03 -0.17552499440E+03 -0.50360253881E+03  0.70752432344E+03  0.00000000000E+00 0. -1.
         -1    1    3    3    0  502  0.70112221672E+03 -0.24863801998E+03 -0.60452828544E+03  0.95856542586E+03  0.00000000000E+00 0.  1.
         13    1    5    5    0    0 -0.46868155797E+02  0.13068838444E+02  0.56373112846E+02  0.74467082782E+02  0.00000000000E+00 0. -1.
        -13    1    5    5    0    0 -0.55512483797E+03 -0.95309699979E+02  0.38850284134E+03  0.68423824971E+03  0.00000000000E+00 0.  1.
          5    1    6    6  503    0 -0.11683572990E+03  0.12881655762E+03  0.16372511226E+03  0.23889808639E+03  0.47000000000E+01 0. -1.
         -5    1    6    6    0  503 -0.44723018500E+03  0.37758731830E+03  0.36433181730E+03  0.68945397556E+03  0.47000000000E+01 0.  1.
<mgrwt>
<rscale>  0 0.13060370E+04</rscale>
<asrwt>0</asrwt>
<pdfrwt beam="1">  1        2 0.24753456E+00 0.13060370E+04</pdfrwt>
<pdfrwt beam="2">  1       -2 0.26833424E+00 0.13060370E+04</pdfrwt>
<totfact> 0.52509459E-01</totfact>
</mgrwt>
</event>
<event>
12    1  0.3166324E-008  0.9475228E+03  0.7818608E-02  0.9368051E-01
         -2   -1    0    0    0  501 -0.00000000000E+00  0.00000000000E+00  0.70819449651E+03  0.70819449651E+03  0.00000000000E+00 0.  1.
          2   -1    0    0  501    0  0.00000000000E+00 -0.00000000000E+00 -0.13975421147E+04  0.13975421147E+04  0.00000000000E+00 0. -1.
         23    2    1    2    0    0 -0.66292064797E+03 -0.59645181700E+03 -0.45772225234E+03  0.10066069997E+04  0.92354945890E+02 0.  0.
    5000000    2    1    2    0    0  0.66292064797E+03  0.59645181700E+03 -0.23162536585E+03  0.10991296115E+04  0.59934717592E+03 0.  0.
         23    2    4    4    0    0  0.50395055555E+03  0.16239109852E+03 -0.31227122101E+03  0.62120414069E+03  0.89689674018E+02 0.  0.
         23    2    4    4    0    0  0.15897009243E+03  0.43406071848E+03  0.80645855166E+02  0.47792547082E+03  0.90712755940E+02 0.  0.
          2    1    3    3  502    0 -0.56607251710E+03 -0.47382156604E+03 -0.40298064274E+03  0.84103410720E+03  0.00000000000E+00 0. -1.
         -2    1    3    3    0  502 -0.96848130874E+02 -0.12263025097E+03 -0.54741609594E+02  0.16557289249E+03  0.00000000000E+00 0.  1.
         13    1    5    5    0    0  0.14565272567E+03  0.73522081645E+01 -0.70324086721E+02  0.16190814876E+03  0.00000000000E+00 0.  1.
        -13    1    5    5    0    0  0.35829782987E+03  0.15503889036E+03 -0.24194713429E+03  0.45929599194E+03  0.00000000000E+00 0. -1.
          5    1    6    6  503    0  0.10812323258E+03  0.34614750331E+03  0.28831263953E+02  0.36381596893E+03  0.47000000000E+01 0. -1.
         -5    1    6    6    0  503  0.50846859852E+02  0.87913215171E+02  0.51814591213E+02  0.11410950189E+03  0.47000000000E+01 0.  1.
<mgrwt>
<rscale>  0 0.94752284E+03</rscale>
<asrwt>0</asrwt>
<pdfrwt beam="1">  1        2 0.21500648E+00 0.94752284E+03</pdfrwt>
<pdfrwt beam="2">  1       -2 0.10895300E+00 0.94752284E+03</pdfrwt>
<totfact> 0.97569552E+00</totfact>
</mgrwt>
</event>
<event>
12    1  0.3166324E-008  0.7356278E+03  0.7818608E-02  0.9658172E-01
          2   -1    0    0  501    0  0.00000000000E+00  0.00000000000E+00  0.56849045365E+03  0.56849045365E+03  0.00000000000E+00 0. -1.
         -2   -1    0    0    0  501 -0.00000000000E+00 -0.00000000000E+00 -0.12176603695E+04  0.12176603695E+04  0.00000000000E+00 0.  1.
         23    2    1    2    0    0 -0.28102088539E+03 -0.57788969394E+03 -0.63232246472E+03  0.90684353386E+03  0.98001322084E+02 0.  0.
    5000000    2    1    2    0    0  0.28102088539E+03  0.57788969394E+03 -0.16847451096E+02  0.87930728926E+03  0.59997352937E+03 0.  0.
         23    2    4    4    0    0  0.17978320990E+03 -0.38784997650E+02  0.11492971198E+03  0.23363857932E+03  0.86901487028E+02 0.  0.
         23    2    4    4    0    0  0.10123767550E+03  0.61667469159E+03 -0.13177716308E+03  0.64566870994E+03  0.94795148071E+02 0.  0.
          1    1    3    3  502    0 -0.75987587591E+02 -0.24783965660E+03 -0.21655364399E+03  0.33777816623E+03  0.00000000000E+00 0. -1.
         -1    1    3    3    0  502 -0.20503329780E+03 -0.33005003734E+03 -0.41576882073E+03  0.56906536763E+03  0.00000000000E+00 0.  1.
         11    1    5    5    0    0  0.11698641955E+03 -0.51402177585E+02  0.37541345131E+02  0.13318167597E+03  0.00000000000E+00 0. -1.
        -11    1    5    5    0    0  0.62796790346E+02  0.12617179935E+02  0.77388366852E+02  0.10045690335E+03  0.00000000000E+00 0.  1.
          5    1    6    6  503    0  0.11612449348E+03  0.47059646652E+03 -0.11117979567E+03  0.49732179648E+03  0.47000000000E+01 0. -1.
         -5    1    6    6    0  503 -0.14886817984E+02  0.14607822507E+03 -0.20597367414E+02  0.14834691346E+03  0.47000000000E+01 0.  1.
<mgrwt>
<rscale>  0 0.73562779E+03</rscale>
<asrwt>0</asrwt>
<pdfrwt beam="1">  1        2 0.87460070E-01 0.73562779E+03</pdfrwt>
<pdfrwt beam="2">  1       -2 0.18733236E+00 0.73562779E+03</pdfrwt>
<totfact> 0.87183512E+00</totfact>
</mgrwt>
</event>
<event>
12    1  0.3166324E-008  0.3245984E+03  0.7818608E-02  0.1073552E+00
          1   -1    0    0  501    0  0.00000000000E+00  0.00000000000E+00  0.78391260872E+03  0.78391260872E+03  0.00000000000E+00 0. -1.
         -1   -1    0    0    0  501 -0.00000000000E+00 -0.00000000000E+00 -0.26981879247E+03  0.26981879247E+03  0.00000000000E+00 0.  1.
         23    2    1    2    0    0  0.30430911220E+02  0.20981330786E+03  0.31027502481E+03  0.38634192831E+03  0.89676251261E+02 0.  0.
    5000000    2    1    2    0    0 -0.30430911220E+02 -0.20981330786E+03  0.20381879144E+03  0.66738947288E+03  0.59909844288E+03 0.  0.
         23    2    4    4    0    0  0.17390736137E+02  0.78482820370E+02 -0.15402357845E+03  0.19631287433E+03  0.91397434923E+02 0.  0.
         23    2    4    4    0    0 -0.47821647357E+02 -0.28829612823E+03  0.35784236989E+03  0.47107659855E+03  0.91980609412E+02 0.  0.
          1    1    3    3  502    0  0.61081788933E+02  0.14123055587E+03  0.18942121793E+03  0.24404395639E+03  0.00000000000E+00 0. -1.
         -1    1    3    3    0  502 -0.30650877713E+02  0.68582751986E+02  0.12085380688E+03  0.14229797192E+03  0.00000000000E+00 0.  1.
         11    1    5    5    0    0  0.45751883496E+02  0.76889547550E+02 -0.93266996157E+02  0.12924383907E+03  0.00000000000E+00 0. -1.
        -11    1    5    5    0    0 -0.28361147359E+02  0.15932728201E+01 -0.60756582295E+02  0.67069035255E+02  0.00000000000E+00 0.  1.
          5    1    6    6  503    0  0.15127855040E+01 -0.20738076671E+03  0.20830963272E+03  0.29397969999E+03  0.47000000000E+01 0. -1.
         -5    1    6    6    0  503 -0.49334432861E+02 -0.80915361518E+02  0.14953273717E+03  0.17709689857E+03  0.47000000000E+01 0.  1.
<mgrwt>
<rscale>  0 0.32459842E+03</rscale>
<asrwt>0</asrwt>
<pdfrwt beam="1">  1        1 0.12060194E+00 0.32459842E+03</pdfrwt>
<pdfrwt beam="2">  1       -1 0.41510584E-01 0.32459842E+03</pdfrwt>
<totfact> 0.13776237E+02</totfact>
</mgrwt>
</event>
<event>
12    1  0.3166324E-008  0.4872799E+03  0.7818608E-02  0.1017153E+00
          1   -1    0    0  501    0  0.00000000000E+00  0.00000000000E+00  0.18627107030E+04  0.18627107030E+04  0.00000000000E+00 0. -1.
         -1   -1    0    0    0  501 -0.00000000000E+00 -0.00000000000E+00 -0.14711948719E+03  0.14711948719E+03  0.00000000000E+00 0.  1.
         23    2    1    2    0    0 -0.27438801832E+03 -0.15905903339E+03  0.32734627224E+03  0.46461697579E+03  0.90137625542E+02 0.  0.
    5000000    2    1    2    0    0  0.27438801832E+03  0.15905903339E+03  0.13882449436E+04  0.15452132144E+04  0.59989273534E+03 0.  0.
         23    2    4    4    0    0  0.79113192910E+01  0.32892160401E+03  0.83174571421E+03  0.89862370620E+03  0.86438542770E+02 0.  0.
         23    2    4    4    0    0  0.26647669903E+03 -0.16986257062E+03  0.55649922939E+03  0.64658950823E+03  0.92322672278E+02 0.  0.
          3    1    3    3  502    0 -0.24207491570E+03 -0.12743585257E+03  0.31606993095E+03  0.41801957200E+03  0.00000000000E+00 0. -1.
         -3    1    3    3    0  502 -0.32313102627E+02 -0.31623180817E+02  0.11276341294E+02  0.46597403784E+02  0.00000000000E+00 0.  1.
         13    1    5    5    0    0 -0.30969052562E+02  0.19698148281E+03  0.55151904197E+03  0.58645889919E+03  0.00000000000E+00 0. -1.
        -13    1    5    5    0    0  0.38880371853E+02  0.13194012120E+03  0.28022667224E+03  0.31216480701E+03  0.00000000000E+00 0.  1.
          5    1    6    6  503    0  0.69810473693E+01 -0.13253057209E+02  0.82290518038E+02  0.83774685357E+02  0.47000000000E+01 0. -1.
         -5    1    6    6    0  503  0.25949565166E+03 -0.15660951341E+03  0.47420871135E+03  0.56281482287E+03  0.47000000000E+01 0.  1.
<mgrwt>
<rscale>  0 0.48727986E+03</rscale>
<asrwt>0</asrwt>
<pdfrwt beam="1">  1        1 0.28657086E+00 0.48727986E+03</pdfrwt>
<pdfrwt beam="2">  1       -1 0.22633769E-01 0.48727986E+03</pdfrwt>
<totfact> 0.65422718E+01</totfact>
</mgrwt>
</event>
<event>
12    1  0.3166324E-008  0.4394450E+03  0.7818608E-02  0.1030917E+00
          2   -1    0    0  501    0  0.00000000000E+00  0.00000000000E+00  0.15233554865E+04  0.15233554865E+04  0.00000000000E+00 0. -1.
         -2   -1    0    0    0  501 -0.00000000000E+00 -0.00000000000E+00 -0.23121545442E+03  0.23121545442E+03  0.00000000000E+00 0.  1.
         23    2    1    2    0    0 -0.17604131829E+02 -0.41886950674E+03  0.65704434455E+03  0.78550803637E+03  0.97744746008E+02 0.  0.
    5000000    2    1    2    0    0  0.17604131829E+02  0.41886950674E+03  0.63509568758E+03  0.96906290459E+03  0.59997900924E+03 0.  0.
         23    2    4    4    0    0  0.51631734903E+02  0.23117974386E+03  0.70326012397E+03  0.74764123497E+03  0.91009363525E+02 0.  0.
         23    2    4    4    0    0 -0.34027603074E+02  0.18768976288E+03 -0.68164436389E+02  0.22142166961E+03  0.89419463916E+02 0.  0.
          1    1    3    3  502    0 -0.12994019915E+02 -0.10423618976E+03  0.24881506946E+03  0.27007955606E+03  0.00000000000E+00 0. -1.
         -1    1    3    3    0  502 -0.46101119136E+01 -0.31463331697E+03  0.40822927509E+03  0.51542848032E+03  0.00000000000E+00 0.  1.
         13    1    5    5    0    0  0.52629960499E+01  0.17758870672E+03  0.56502729619E+03  0.59230169113E+03  0.00000000000E+00 0.  1.
        -13    1    5    5    0    0  0.46368738853E+02  0.53591037136E+02  0.13823282778E+03  0.15533954384E+03  0.00000000000E+00 0. -1.
          5    1    6    6  503    0  0.30512488990E+02  0.57664148400E+02 -0.19699259586E+02  0.68310444467E+02  0.47000000000E+01 0. -1.
         -5    1    6    6    0  503 -0.64540092064E+02  0.13002561447E+03 -0.48465176803E+02  0.15311122515E+03  0.47000000000E+01 0.  1.
<mgrwt>
<rscale>  0 0.43944497E+03</rscale>
<asrwt>0</asrwt>
<pdfrwt beam="1">  1        2 0.23436238E+00 0.43944497E+03</pdfrwt>
<pdfrwt beam="2">  1       -2 0.35571609E-01 0.43944497E+03</pdfrwt>
<totfact> 0.96703192E+01</totfact>
</mgrwt>
</event>
<event>
12    1  0.3166324E-008  0.1224107E+04  0.7818608E-02  0.9092014E-01
         -1   -1    0    0    0  501 -0.00000000000E+00  0.00000000000E+00  0.14975742118E+04  0.14975742118E+04  0.00000000000E+00 0.  1.
          1   -1    0    0  501    0  0.00000000000E+00 -0.00000000000E+00 -0.18464092288E+04  0.18464092288E+04  0.00000000000E+00 0. -1.
         23    2    1    2    0    0  0.11651353354E+04  0.33317580636E+03  0.89291228343E+03  0.15081058606E+04  0.92436319185E+02 0.  0.
    5000000    2    1    2    0    0 -0.11651353354E+04 -0.33317580636E+03 -0.12417473005E+04  0.18358775800E+04  0.59996971847E+03 0.  0.
         23    2    4    4    0    0 -0.58436102161E+03 -0.60835765079E+02 -0.23687597417E+03  0.64018608924E+03  0.92461926351E+02 0.  0.
         23    2    4    4    0    0 -0.58077431374E+03 -0.27234004128E+03 -0.10048713263E+04  0.11956914908E+04  0.91890463032E+02 0.  0.
          1    1    3    3  502    0  0.89204813319E+03  0.27558130002E+03  0.64472329731E+03  0.11346202250E+04  0.00000000000E+00 0. -1.
         -1    1    3    3    0  502  0.27308720216E+03  0.57594506341E+02  0.24818898612E+03  0.37348563557E+03  0.00000000000E+00 0.  1.
         13    1    5    5    0    0 -0.85985498345E+02 -0.37751387914E+02 -0.56930687152E+02  0.10981701305E+03  0.00000000000E+00 0. -1.
        -13    1    5    5    0    0 -0.49837552327E+03 -0.23084377165E+02 -0.17994528702E+03  0.53036907619E+03  0.00000000000E+00 0.  1.
          5    1    6    6  503    0 -0.15670293551E+03 -0.55249871108E+02 -0.19658744790E+03  0.25744333926E+03  0.47000000000E+01 0. -1.
         -5    1    6    6    0  503 -0.42407137823E+03 -0.21709017017E+03 -0.80828387839E+03  0.93824815155E+03  0.47000000000E+01 0.  1.
<mgrwt>
<rscale>  0 0.12241068E+04</rscale>
<asrwt>0</asrwt>
<pdfrwt beam="1">  1        1 0.28406296E+00 0.12241068E+04</pdfrwt>
<pdfrwt beam="2">  1       -1 0.23039603E+00 0.12241068E+04</pdfrwt>
<totfact> 0.34760870E-01</totfact>
</mgrwt>
</event>
<event>
12    1  0.3166324E-008  0.6847144E+03  0.7818608E-02  0.9743736E-01
         -2   -1    0    0    0  501 -0.00000000000E+00  0.00000000000E+00  0.21205799993E+03  0.21205799993E+03  0.00000000000E+00 0.  1.
          2   -1    0    0  501    0  0.00000000000E+00 -0.00000000000E+00 -0.31784715526E+04  0.31784715526E+04  0.00000000000E+00 0. -1.
         23    2    1    2    0    0 -0.10460669847E+03 -0.66313610315E+03 -0.82284067314E+03  0.10658249617E+04  0.90686399003E+02 0.  0.
    5000000    2    1    2    0    0  0.10460669847E+03  0.66313610315E+03 -0.21435728795E+04  0.23247045908E+04  0.59887786073E+03 0.  0.
         23    2    4    4    0    0  0.14887122757E+03  0.42948495540E+03 -0.58949803278E+03  0.74994315778E+03  0.91032081950E+02 0.  0.
         23    2    4    4    0    0 -0.44264529102E+02  0.23365114776E+03 -0.15540748468E+04  0.15747614330E+04  0.90403176396E+02 0.  0.
          1    1    3    3  502    0 -0.30616306492E+02 -0.33323545962E+03 -0.34668115495E+03  0.48184131513E+03  0.00000000000E+00 0. -1.
         -1    1    3    3    0  502 -0.73990391980E+02 -0.32990064353E+03 -0.47615951819E+03  0.58398364658E+03  0.00000000000E+00 0.  1.
         11    1    5    5    0    0  0.15514763310E+02  0.41354108384E+02 -0.11152507726E+03  0.11995296169E+03  0.00000000000E+00 0. -1.
        -11    1    5    5    0    0  0.13335646426E+03  0.38813084701E+03 -0.47797295552E+03  0.62999019609E+03  0.00000000000E+00 0.  1.
          5    1    6    6  503    0 -0.49885492598E+02  0.14990746202E+03 -0.76083223351E+03  0.77707695056E+03  0.47000000000E+01 0. -1.
         -5    1    6    6    0  503  0.56209634959E+01  0.83743685737E+02 -0.79324261324E+03  0.79768448249E+03  0.47000000000E+01 0.  1.
<mgrwt>
<rscale>  0 0.68471440E+03</rscale>
<asrwt>0</asrwt>
<pdfrwt beam="1">  1        2 0.48899555E+00 0.68471440E+03</pdfrwt>
<pdfrwt beam="2">  1       -2 0.32624312E-01 0.68471440E+03</pdfrwt>
<totfact> 0.12674794E+01</totfact>
</mgrwt>
</event>
<event>
12    1  0.3166324E-008  0.9417280E+03  0.7818608E-02  0.9374872E-01
          2   -1    0    0  501    0  0.00000000000E+00  0.00000000000E+00  0.23146519083E+04  0.23146519083E+04  0.00000000000E+00 0.  1.
         -2   -1    0    0    0  501 -0.00000000000E+00 -0.00000000000E+00 -0.80866170436E+03  0.80866170436E+03  0.00000000000E+00 0. -1.
         23    2    1    2    0    0  0.86936310606E+03  0.13915979509E+03  0.18104946451E+04  0.20153330025E+04  0.92296220166E+02 0.  0.
    5000000    2    1    2    0    0 -0.86936310606E+03 -0.13915979509E+03 -0.30450444115E+03  0.11079806102E+04  0.59978364357E+03 0.  0.
         23    2    4    4    0    0 -0.49573052807E+02 -0.16532163891E+03  0.59903613121E+02  0.20604001077E+03  0.95264428395E+02 0.  0.
         23    2    4    4    0    0 -0.81979005325E+03  0.26161843821E+02 -0.36440805427E+03  0.90194059940E+03  0.89238115994E+02 0.  0.
          3    1    3    3  502    0  0.68002654665E+03  0.12584593790E+03  0.13384829955E+04  0.15065888734E+04  0.00000000000E+00 0. -1.
         -3    1    3    3    0  502  0.18933655940E+03  0.13313857187E+02  0.47201164953E+03  0.50874412902E+03  0.00000000000E+00 0.  1.
         11    1    5    5    0    0 -0.44985389252E+02 -0.53526942125E+02  0.62989096771E+02  0.94108687651E+02  0.00000000000E+00 0.  1.
        -11    1    5    5    0    0 -0.45876635550E+01 -0.11179469679E+03 -0.30854836499E+01  0.11193132312E+03  0.00000000000E+00 0. -1.
          5    1    6    6  503    0 -0.37178353825E+03  0.13694497978E+02 -0.21374211667E+03  0.42909010828E+03  0.47000000000E+01 0. -1.
         -5    1    6    6    0  503 -0.44800651500E+03  0.12467345843E+02 -0.15066593761E+03  0.47285049112E+03  0.47000000000E+01 0.  1.
<mgrwt>
<rscale>  0 0.94172799E+03</rscale>
<asrwt>0</asrwt>
<pdfrwt beam="1">  1        2 0.35610029E+00 0.94172799E+03</pdfrwt>
<pdfrwt beam="2">  1       -2 0.12440949E+00 0.94172799E+03</pdfrwt>
<totfact> 0.21840544E+00</totfact>
</mgrwt>
</event>
<event>
12    1  0.3166324E-008  0.1826118E+04  0.7818608E-02  0.8692532E-01
          2   -1    0    0  501    0  0.00000000000E+00  0.00000000000E+00  0.31687735354E+04  0.31687735354E+04  0.00000000000E+00 0. -1.
         -2   -1    0    0    0  501 -0.00000000000E+00 -0.00000000000E+00 -0.11152624660E+04  0.11152624660E+04  0.00000000000E+00 0.  1.
         23    2    1    2    0    0 -0.14350922917E+04 -0.11045110060E+04  0.69407664859E+03  0.19414866907E+04  0.90519213246E+02 0.  0.
    5000000    2    1    2    0    0  0.14350922917E+04  0.11045110060E+04  0.13594344208E+04  0.23425493106E+04  0.60003406584E+03 0.  0.
         23    2    4    4    0    0  0.90479039667E+03  0.85740630534E+03  0.62180397502E+03  0.13962629879E+04  0.95493003356E+02 0.  0.
         23    2    4    4    0    0  0.53030189503E+03  0.24710470070E+03  0.73763044579E+03  0.94628632274E+03  0.95280097998E+02 0.  0.
          4    1    3    3  502    0 -0.11269947156E+04 -0.89479560123E+03  0.51942661410E+03  0.15298955077E+04  0.00000000000E+00 0.  1.
         -4    1    3    3    0  502 -0.30809757608E+03 -0.20971540481E+03  0.17465003449E+03  0.41159118303E+03  0.00000000000E+00 0. -1.
         11    1    5    5    0    0  0.57852170640E+02  0.89342003217E+02  0.43417613501E+02  0.11495197410E+03  0.00000000000E+00 0.  1.
        -11    1    5    5    0    0  0.84693822603E+03  0.76806430212E+03  0.57838636152E+03  0.12813110138E+04  0.00000000000E+00 0. -1.
          5    1    6    6  503    0  0.50111037871E+03  0.21014908893E+03  0.65509261601E+03  0.85114198391E+03  0.47000000000E+01 0. -1.
         -5    1    6    6    0  503  0.29191516312E+02  0.36955611766E+02  0.82537829779E+02  0.95144338824E+02  0.47000000000E+01 0.  1.
<mgrwt>
<rscale>  0 0.18261179E+04</rscale>
<asrwt>0</asrwt>
<pdfrwt beam="1">  1        2 0.48750362E+00 0.18261179E+04</pdfrwt>
<pdfrwt beam="2">  1       -2 0.17157884E+00 0.18261179E+04</pdfrwt>
<totfact> 0.25774209E-01</totfact>
</mgrwt>
</event>
<event>
12    1  0.3166324E-008  0.8551098E+03  0.7818608E-02  0.9483504E-01
         -1   -1    0    0    0  501 -0.00000000000E+00  0.00000000000E+00  0.81139978550E+03  0.81139978550E+03  0.00000000000E+00 0.  1.
          1   -1    0    0  501    0  0.00000000000E+00 -0.00000000000E+00 -0.10904753600E+04  0.10904753600E+04  0.00000000000E+00 0. -1.
         23    2    1    2    0    0  0.42235382303E+03 -0.70740585977E+03 -0.30261993032E+03  0.88238530699E+03  0.90659833945E+02 0.  0.
    5000000    2    1    2    0    0 -0.42235382303E+03  0.70740585977E+03  0.23544355781E+02  0.10194898385E+04  0.59999949329E+03 0.  0.
         23    2    4    4    0    0 -0.32479562554E+03  0.26656107991E+03  0.25982328104E+03  0.50206832321E+03  0.89540248529E+02 0.  0.
         23    2    4    4    0    0 -0.97558197493E+02  0.44084477986E+03 -0.23627892526E+03  0.51742151533E+03  0.89641353091E+02 0.  0.
          3    1    3    3  502    0  0.93141274528E+02 -0.15134171677E+03 -0.26569092757E+02  0.17968174350E+03  0.00000000000E+00 0. -1.
         -3    1    3    3    0  502  0.32921254850E+03 -0.55606414300E+03 -0.27605083756E+03  0.70270356349E+03  0.00000000000E+00 0.  1.
         11    1    5    5    0    0 -0.23883764856E+03  0.14391540045E+03  0.18513802078E+03  0.33471054898E+03  0.00000000000E+00 0.  1.
        -11    1    5    5    0    0 -0.85957976980E+02  0.12264567946E+03  0.74685260261E+02  0.16735777424E+03  0.00000000000E+00 0. -1.
          5    1    6    6  503    0  0.12244456289E+02  0.46511721791E+02 -0.43161440199E+02  0.64794034400E+02  0.47000000000E+01 0. -1.
         -5    1    6    6    0  503 -0.10980265378E+03  0.39433305806E+03 -0.19311748506E+03  0.45262748093E+03  0.47000000000E+01 0.  1.
<mgrwt>
<rscale>  0 0.85510983E+03</rscale>
<asrwt>0</asrwt>
<pdfrwt beam="1">  1        1 0.16776544E+00 0.85510983E+03</pdfrwt>
<pdfrwt beam="2">  1       -1 0.12483074E+00 0.85510983E+03</pdfrwt>
<totfact> 0.73836439E+00</totfact>
</mgrwt>
</event>
<event>
12    1  0.3678880E-008  0.7564800E+03  0.7818608E-02  0.9625239E-01
         -2   -1    0    0    0  501 -0.00000000000E+00  0.00000000000E+00  0.87665001712E+03  0.87665001712E+03  0.00000000000E+00 0.  1.
          2   -1    0    0  501    0  0.00000000000E+00 -0.00000000000E+00 -0.89989160296E+03  0.89989160296E+03  0.00000000000E+00 0. -1.
         23    2    1    2    0    0  0.66481190137E+03 -0.30064669570E+03 -0.29742768835E+03  0.79312247487E+03  0.90646183078E+02 0.  0.
    5000000    2    1    2    0    0 -0.66481190137E+03  0.30064669570E+03  0.27418610252E+03  0.98341914520E+03  0.59964314096E+03 0.  0.
         23    2    4    4    0    0 -0.31475646792E+03  0.31914183855E+02 -0.15241355781E+03  0.36287642430E+03  0.91428975083E+02 0.  0.
         23    2    4    4    0    0 -0.35005543345E+03  0.26873251185E+03  0.42659966033E+03  0.62054272090E+03  0.91268991748E+02 0.  0.
          2    1    3    3  502    0  0.37524367657E+03 -0.12149288800E+03 -0.17112969314E+03  0.42994617165E+03  0.00000000000E+00 0. -1.
         -2    1    3    3    0  502  0.28956822480E+03 -0.17915380770E+03 -0.12629799521E+03  0.36317630322E+03  0.00000000000E+00 0.  1.
         13    1    5    5    0    0 -0.99150771945E+02  0.51264273596E+02 -0.66853730973E+02  0.13010888774E+03  0.00000000000E+00 0.  1.
        -13    1    5    5    0    0 -0.21560569597E+03 -0.19350089741E+02 -0.85559826837E+02  0.23276753656E+03  0.00000000000E+00 0. -1.
          5    1    6    6  503    0 -0.13138226412E+03  0.15555401201E+03  0.21052472432E+03  0.29291824717E+03  0.47000000000E+01 0. -1.
         -5    1    6    6    0  503 -0.21867316934E+03  0.11317849983E+03  0.21607493601E+03  0.32762447373E+03  0.47000000000E+01 0.  1.
<mgrwt>
<rscale>  0 0.75647998E+03</rscale>
<asrwt>0</asrwt>
<pdfrwt beam="1">  1        2 0.13844486E+00 0.75647998E+03</pdfrwt>
<pdfrwt beam="2">  1       -2 0.13486923E+00 0.75647998E+03</pdfrwt>
<totfact> 0.11779192E+01</totfact>
</mgrwt>
</event>
<event>
12    1  0.3166324E-008  0.1050664E+04  0.7818608E-02  0.9254659E-01
         -1   -1    0    0    0  501 -0.00000000000E+00  0.00000000000E+00  0.40117651388E+03  0.40117651388E+03  0.00000000000E+00 0.  1.
          1   -1    0    0  501    0  0.00000000000E+00 -0.00000000000E+00 -0.32770882788E+04  0.32770882788E+04  0.00000000000E+00 0. -1.
         23    2    1    2    0    0 -0.96768043810E+03 -0.49907834517E+01 -0.20585404484E+04  0.22766158467E+04  0.94660431737E+02 0.  0.
    5000000    2    1    2    0    0  0.96768043810E+03  0.49907834517E+01 -0.81737131652E+03  0.14016489460E+04  0.60007796215E+03 0.  0.
         23    2    4    4    0    0  0.21964686576E+03 -0.24838423852E+03 -0.23885300564E+03  0.41844113442E+03  0.90015271451E+02 0.  0.
         23    2    4    4    0    0  0.74803357234E+03  0.25337502197E+03 -0.57851831088E+03  0.98320781161E+03  0.90890250781E+02 0.  0.
          3    1    3    3  502    0 -0.74971771353E+03  0.17558736264E+02 -0.16673425101E+04  0.18282275583E+04  0.00000000000E+00 0. -1.
         -3    1    3    3    0  502 -0.21796272457E+03 -0.22549519716E+02 -0.39119793837E+03  0.44838828835E+03  0.00000000000E+00 0.  1.
         13    1    5    5    0    0  0.14602519472E+03 -0.11639534967E+03 -0.16934957524E+03  0.25209227190E+03  0.00000000000E+00 0. -1.
        -13    1    5    5    0    0  0.73621671040E+02 -0.13198888885E+03 -0.69503430399E+02  0.16634886253E+03  0.00000000000E+00 0.  1.
          5    1    6    6  503    0  0.52179078123E+03  0.13485115686E+03 -0.37470484450E+03  0.65641165771E+03  0.47000000000E+01 0. -1.
         -5    1    6    6    0  503  0.22624279111E+03  0.11852386511E+03 -0.20381346637E+03  0.32679615390E+03  0.47000000000E+01 0.  1.
<mgrwt>
<rscale>  0 0.10506640E+04</rscale>
<asrwt>0</asrwt>
<pdfrwt beam="1">  1        1 0.50416743E+00 0.10506640E+04</pdfrwt>
<pdfrwt beam="2">  1       -1 0.61719463E-01 0.10506640E+04</pdfrwt>
<totfact> 0.10154138E+00</totfact>
</mgrwt>
</event>
<event>
12    1  0.3166324E-008  0.8677079E+03  0.7818608E-02  0.9466873E-01
         -2   -1    0    0    0  501 -0.00000000000E+00  0.00000000000E+00  0.61854706324E+03  0.61854706324E+03  0.00000000000E+00 0.  1.
          2   -1    0    0  501    0  0.00000000000E+00 -0.00000000000E+00 -0.13135594273E+04  0.13135594273E+04  0.00000000000E+00 0. -1.
         23    2    1    2    0    0  0.77447364239E+03  0.17075407485E+03 -0.41084276553E+03  0.89780866947E+03  0.91116695203E+02 0.  0.
    5000000    2    1    2    0    0 -0.77447364239E+03 -0.17075407485E+03 -0.28416959853E+03  0.10342978211E+04  0.60004436928E+03 0.  0.
         23    2    4    4    0    0 -0.97996920224E+02 -0.22672444695E+03  0.55971481411E+02  0.26913518672E+03  0.91069044038E+02 0.  0.
         23    2    4    4    0    0 -0.67647672217E+03  0.55970372102E+02 -0.34014107994E+03  0.76516263435E+03  0.94997181819E+02 0.  0.
          3    1    3    3  502    0  0.53457490799E+03  0.74247501669E+02 -0.27873024589E+03  0.60743194988E+03  0.00000000000E+00 0.  1.
         -3    1    3    3    0  502  0.23989873440E+03  0.96506573181E+02 -0.13211251964E+03  0.29037671959E+03  0.00000000000E+00 0. -1.
         11    1    5    5    0    0 -0.34509339394E+02 -0.14176467469E+03  0.70569777672E+02  0.16207470813E+03  0.00000000000E+00 0. -1.
        -11    1    5    5    0    0 -0.63487580830E+02 -0.84959772260E+02 -0.14598296261E+02  0.10706047859E+03  0.00000000000E+00 0.  1.
          5    1    6    6  503    0 -0.53409611644E+03  0.81911057188E+02 -0.27648211834E+03  0.60698643696E+03  0.47000000000E+01 0. -1.
         -5    1    6    6    0  503 -0.14238060573E+03 -0.25940685085E+02 -0.63658961600E+02  0.15817619739E+03  0.47000000000E+01 0.  1.
<mgrwt>
<rscale>  0 0.86770791E+03</rscale>
<asrwt>0</asrwt>
<pdfrwt beam="1">  1        2 0.20208606E+00 0.86770791E+03</pdfrwt>
<pdfrwt beam="2">  1       -2 0.95161089E-01 0.86770791E+03</pdfrwt>
<totfact> 0.15185044E+01</totfact>
</mgrwt>
</event>
<event>
12    1  0.3166324E-008  0.5392178E+03  0.7818608E-02  0.1004021E+00
         -2   -1    0    0    0  501 -0.00000000000E+00  0.00000000000E+00  0.17450328727E+03  0.17450328727E+03  0.00000000000E+00 0. -1.
          2   -1    0    0  501    0  0.00000000000E+00 -0.00000000000E+00 -0.25292278957E+04  0.25292278957E+04  0.00000000000E+00 0.  1.
         23    2    1    2    0    0 -0.89815101170E+02 -0.39155286517E+03 -0.26301689996E+03  0.49090528316E+03  0.10212594552E+03 0.  0.
    5000000    2    1    2    0    0  0.89815101170E+02  0.39155286517E+03 -0.20917077084E+04  0.22128258998E+04  0.59998077187E+03 0.  0.
         23    2    4    4    0    0 -0.48248135411E+02 -0.11125882279E+03 -0.84966333006E+03  0.86272849112E+03  0.87557219695E+02 0.  0.
         23    2    4    4    0    0  0.13806323658E+03  0.50281168796E+03 -0.12420443784E+04  0.13500974087E+04  0.90596491025E+02 0.  0.
          1    1    3    3  502    0 -0.27065772600E+02 -0.62984087278E+02 -0.55328078160E+01  0.68776182353E+02  0.00000000000E+00 0. -1.
         -1    1    3    3    0  502 -0.62749328570E+02 -0.32856877789E+03 -0.25748409214E+03  0.42212910081E+03  0.00000000000E+00 0.  1.
         11    1    5    5    0    0  0.21905004696E+02 -0.10640215262E+02 -0.90478277424E+02  0.93698250235E+02  0.00000000000E+00 0.  1.
        -11    1    5    5    0    0 -0.70153140107E+02 -0.10061860753E+03 -0.75918505264E+03  0.76903024088E+03  0.00000000000E+00 0. -1.
          5    1    6    6  503    0  0.50633500106E+02  0.68491919535E+02 -0.23045393349E+03  0.24573562996E+03  0.47000000000E+01 0.  1.
         -5    1    6    6    0  503  0.87429736475E+02  0.43431976842E+03 -0.10115904449E+04  0.11043617787E+04  0.47000000000E+01 0. -1.
<mgrwt>
<rscale>  0 0.53921779E+03</rscale>
<asrwt>0</asrwt>
<pdfrwt beam="1">  1        2 0.38911192E+00 0.53921779E+03</pdfrwt>
<pdfrwt beam="2">  1       -2 0.26846664E-01 0.53921779E+03</pdfrwt>
<totfact> 0.45437552E+01</totfact>
</mgrwt>
</event>
<event>
12    1  0.3166324E-008  0.1125200E+04  0.7818608E-02  0.9180972E-01
         -1   -1    0    0    0  501 -0.00000000000E+00  0.00000000000E+00  0.88325968586E+03  0.88325968586E+03  0.00000000000E+00 0.  1.
          1   -1    0    0  501    0  0.00000000000E+00 -0.00000000000E+00 -0.17550370957E+04  0.17550370957E+04  0.00000000000E+00 0. -1.
         23    2    1    2    0    0 -0.10193665658E+04  0.28876659045E+03 -0.93908327272E+03  0.14188194920E+04  0.93150515839E+02 0.  0.
    5000000    2    1    2    0    0  0.10193665658E+04 -0.28876659045E+03  0.67305862906E+02  0.12194772895E+04  0.60008369530E+03 0.  0.
         23    2    4    4    0    0  0.88507527929E+01  0.77389505155E+02  0.57034603732E+02  0.14068400291E+03  0.10233069587E+03 0.  0.
         23    2    4    4    0    0  0.10105158130E+04 -0.36615609560E+03  0.10271259174E+02  0.10787932866E+04  0.92070418210E+02 0.  0.
          1    1    3    3  502    0 -0.13149697260E+03  0.55541151167E+01 -0.11779099427E+03  0.17662678259E+03  0.00000000000E+00 0. -1.
         -1    1    3    3    0  502 -0.88786959316E+03  0.28321247533E+03 -0.82129227845E+03  0.12421927094E+04  0.00000000000E+00 0.  1.
         13    1    5    5    0    0  0.42837473278E+02  0.47950143237E+02 -0.45186867313E+01  0.64456837365E+02  0.00000000000E+00 0.  1.
        -13    1    5    5    0    0 -0.33986720485E+02  0.29439361918E+02  0.61553290463E+02  0.76227165540E+02  0.00000000000E+00 0. -1.
          5    1    6    6  503    0  0.81458938331E+03 -0.32664505988E+03  0.27859839348E+02  0.87809516522E+03  0.47000000000E+01 0. -1.
         -5    1    6    6    0  503  0.19592642966E+03 -0.39511035718E+02 -0.17588580173E+02  0.20069812140E+03  0.47000000000E+01 0.  1.
<mgrwt>
<rscale>  0 0.11252004E+04</rscale>
<asrwt>0</asrwt>
<pdfrwt beam="1">  1        1 0.27000571E+00 0.11252004E+04</pdfrwt>
<pdfrwt beam="2">  1       -1 0.13588611E+00 0.11252004E+04</pdfrwt>
<totfact> 0.19628903E+00</totfact>
</mgrwt>
</event>
<event>
12    1  0.3166324E-008  0.4539834E+03  0.7818608E-02  0.1026541E+00
         -2   -1    0    0    0  501 -0.00000000000E+00  0.00000000000E+00  0.17994609349E+03  0.17994609349E+03  0.00000000000E+00 0.  1.
          2   -1    0    0  501    0  0.00000000000E+00 -0.00000000000E+00 -0.16379092041E+04  0.16379092041E+04  0.00000000000E+00 0. -1.
         23    2    1    2    0    0  0.11732353087E+03  0.25968818782E+03 -0.11711741971E+03  0.32151589872E+03  0.91941379907E+02 0.  0.
    5000000    2    1    2    0    0 -0.11732353087E+03 -0.25968818782E+03 -0.13408456909E+04  0.14963393989E+04  0.59996805252E+03 0.  0.
         23    2    4    4    0    0 -0.21694349099E+03  0.94269814132E+02 -0.77703754214E+03  0.81729435934E+03  0.90727348625E+02 0.  0.
         23    2    4    4    0    0  0.99619960120E+02 -0.35395800195E+03 -0.56380814880E+03  0.67904503956E+03  0.89510521772E+02 0.  0.
          2    1    3    3  502    0  0.26521537141E+01  0.96907295269E+02 -0.16205453166E+02  0.98288730321E+02  0.00000000000E+00 0.  1.
         -2    1    3    3    0  502  0.11467137716E+03  0.16278089255E+03 -0.10091196654E+03  0.22322716839E+03  0.00000000000E+00 0. -1.
         13    1    5    5    0    0 -0.17386724206E+03  0.72893797896E+02 -0.71120420841E+03  0.73576813583E+03  0.00000000000E+00 0.  1.
        -13    1    5    5    0    0 -0.43076248930E+02  0.21376016236E+02 -0.65833333722E+02  0.81526223517E+02  0.00000000000E+00 0. -1.
          5    1    6    6  503    0  0.63095555627E+02 -0.97691240554E+02 -0.13608722505E+03  0.17907107651E+03  0.47000000000E+01 0. -1.
         -5    1    6    6    0  503  0.36524404493E+02 -0.25626676140E+03 -0.42772092375E+03  0.49997396306E+03  0.47000000000E+01 0.  1.
<mgrwt>
<rscale>  0 0.45398341E+03</rscale>
<asrwt>0</asrwt>
<pdfrwt beam="1">  1        2 0.25198603E+00 0.45398341E+03</pdfrwt>
<pdfrwt beam="2">  1       -2 0.27684015E-01 0.45398341E+03</pdfrwt>
<totfact> 0.13312060E+02</totfact>
</mgrwt>
</event>
<event>
12    1  0.3166324E-008  0.5092716E+03  0.7818608E-02  0.1011387E+00
          1   -1    0    0  501    0  0.00000000000E+00  0.00000000000E+00  0.47154756370E+03  0.47154756370E+03  0.00000000000E+00 0. -1.
         -1   -1    0    0    0  501 -0.00000000000E+00 -0.00000000000E+00 -0.93843578288E+03  0.93843578288E+03  0.00000000000E+00 0.  1.
         23    2    1    2    0    0 -0.17301859709E+03 -0.32975178206E+03 -0.57954688303E+03  0.69466276091E+03  0.89499100826E+02 0.  0.
    5000000    2    1    2    0    0  0.17301859709E+03  0.32975178206E+03  0.11265866385E+03  0.71532058567E+03  0.60026651833E+03 0.  0.
         23    2    4    4    0    0  0.34604642577E+03  0.22986391499E+03 -0.68273897651E+02  0.43073610703E+03  0.91031426385E+02 0.  0.
         23    2    4    4    0    0 -0.17302782869E+03  0.99887867069E+02  0.18093256150E+03  0.28458447864E+03  0.91299059061E+02 0.  0.
          3    1    3    3  502    0 -0.14999652315E+03 -0.32092515577E+03 -0.51071285455E+03  0.62154608225E+03  0.00000000000E+00 0. -1.
         -3    1    3    3    0  502 -0.23022073934E+02 -0.88266262889E+01 -0.68834028484E+02  0.73116678652E+02  0.00000000000E+00 0.  1.
         11    1    5    5    0    0  0.30364672368E+03  0.17188761998E+03 -0.79956593689E+02  0.35796612072E+03  0.00000000000E+00 0.  1.
        -11    1    5    5    0    0  0.42399702089E+02  0.57976295015E+02  0.11682696039E+02  0.72769986311E+02  0.00000000000E+00 0. -1.
          5    1    6    6  503    0 -0.12835869563E+03  0.11407427951E+03  0.13182109704E+03  0.21653588066E+03  0.47000000000E+01 0. -1.
         -5    1    6    6    0  503 -0.44669133055E+02 -0.14186412437E+02  0.49111464458E+02  0.68048597980E+02  0.47000000000E+01 0.  1.
<mgrwt>
<rscale>  0 0.50927161E+03</rscale>
<asrwt>0</asrwt>
<pdfrwt beam="1">  1        1 0.72545780E-01 0.50927161E+03</pdfrwt>
<pdfrwt beam="2">  1       -1 0.14437473E+00 0.50927161E+03</pdfrwt>
<totfact> 0.19661748E+01</totfact>
</mgrwt>
</event>
<event>
12    1  0.3166324E-008  0.1246723E+04  0.7818608E-02  0.9072915E-01
          2   -1    0    0  501    0  0.00000000000E+00  0.00000000000E+00  0.27493188732E+04  0.27493188732E+04  0.00000000000E+00 0.  1.
         -2   -1    0    0    0  501 -0.00000000000E+00 -0.00000000000E+00 -0.60946861405E+03  0.60946861405E+03  0.00000000000E+00 0. -1.
         23    2    1    2    0    0  0.19649729686E+03 -0.12058393898E+04  0.10922590426E+04  0.16412055163E+04  0.88689959218E+02 0.  0.
    5000000    2    1    2    0    0 -0.19649729686E+03  0.12058393898E+04  0.10475912165E+04  0.17175819709E+04  0.59998387335E+03 0.  0.
         23    2    4    4    0    0 -0.13688501546E+03  0.11272345232E+04  0.10892748784E+04  0.15762248200E+04  0.92572915697E+02 0.  0.
         23    2    4    4    0    0 -0.59612281399E+02  0.78604866615E+02 -0.41683661874E+02  0.14135715095E+03  0.92260323586E+02 0.  0.
          1    1    3    3  502    0  0.88006511046E+02 -0.45239528318E+03  0.35812878097E+03  0.58366331218E+03  0.00000000000E+00 0. -1.
         -1    1    3    3    0  502  0.10849078581E+03 -0.75344410663E+03  0.73413026165E+03  0.10575422041E+04  0.00000000000E+00 0.  1.
         13    1    5    5    0    0 -0.74474032360E+02  0.81509085706E+03  0.82986965852E+03  0.11655913250E+04  0.00000000000E+00 0. -1.
        -13    1    5    5    0    0 -0.62410983099E+02  0.31214366613E+03  0.25940521985E+03  0.41063349498E+03  0.00000000000E+00 0.  1.
          5    1    6    6  503    0 -0.69318696132E+02  0.16363091880E+02 -0.15897686848E+02  0.73127688712E+02  0.47000000000E+01 0. -1.
         -5    1    6    6    0  503  0.97064147325E+01  0.62241774735E+02 -0.25785975026E+02  0.68229462237E+02  0.47000000000E+01 0.  1.
<mgrwt>
<rscale>  0 0.12467234E+04</rscale>
<asrwt>0</asrwt>
<pdfrwt beam="1">  1        2 0.42297213E+00 0.12467234E+04</pdfrwt>
<pdfrwt beam="2">  1       -2 0.93764404E-01 0.12467234E+04</pdfrwt>
<totfact> 0.23412097E+00</totfact>
</mgrwt>
</event>
<event>
12    1  0.3166324E-008  0.8027807E+03  0.7818608E-02  0.9556001E-01
         -2   -1    0    0    0  501 -0.00000000000E+00  0.00000000000E+00  0.25363072182E+03  0.25363072182E+03  0.00000000000E+00 0. -1.
          2   -1    0    0  501    0  0.00000000000E+00 -0.00000000000E+00 -0.26820958605E+04  0.26820958605E+04  0.00000000000E+00 0.  1.
         23    2    1    2    0    0 -0.35138944361E+03  0.60681806954E+03 -0.82780058618E+03  0.10881684618E+04  0.84581796055E+02 0.  0.
    5000000    2    1    2    0    0  0.35138944361E+03 -0.60681806954E+03 -0.16006645525E+04  0.18475581205E+04  0.59970099916E+03 0.  0.
         23    2    4    4    0    0 -0.13314221426E+03 -0.26872757787E+03 -0.41860840717E+03  0.52312523546E+03  0.92117604680E+02 0.  0.
         23    2    4    4    0    0  0.48453165787E+03 -0.33809049167E+03 -0.11820561453E+04  0.13244328851E+04  0.88258870591E+02 0.  0.
          2    1    3    3  502    0 -0.10416082969E+03  0.19990926606E+03 -0.32688279853E+03  0.39707122419E+03  0.00000000000E+00 0. -1.
         -2    1    3    3    0  502 -0.24722861392E+03  0.40690880348E+03 -0.50091778765E+03  0.69109723764E+03  0.00000000000E+00 0.  1.
         13    1    5    5    0    0 -0.51741643876E+02 -0.17563597994E+03 -0.19423893579E+03  0.26693437271E+03  0.00000000000E+00 0. -1.
        -13    1    5    5    0    0 -0.81400570383E+02 -0.93091597931E+02 -0.22436947139E+03  0.25619086275E+03  0.00000000000E+00 0.  1.
          5    1    6    6  503    0  0.29209276814E+03 -0.25431959099E+03 -0.77946208729E+03  0.87039064510E+03  0.47000000000E+01 0. -1.
         -5    1    6    6    0  503  0.19243888974E+03 -0.83770900683E+02 -0.40259405805E+03  0.45404223996E+03  0.47000000000E+01 0.  1.
<mgrwt>
<rscale>  0 0.80278074E+03</rscale>
<asrwt>0</asrwt>
<pdfrwt beam="1">  1        2 0.41263014E+00 0.80278074E+03</pdfrwt>
<pdfrwt beam="2">  1       -2 0.39020110E-01 0.80278074E+03</pdfrwt>
<totfact> 0.17614844E+01</totfact>
</mgrwt>
</event>
<event>
12    1  0.3166324E-008  0.4776443E+03  0.7818608E-02  0.1019785E+00
         -1   -1    0    0    0  501 -0.00000000000E+00  0.00000000000E+00  0.10471575618E+04  0.10471575618E+04  0.00000000000E+00 0.  1.
          1   -1    0    0  501    0  0.00000000000E+00 -0.00000000000E+00 -0.10083510926E+04  0.10083510926E+04  0.00000000000E+00 0. -1.
         23    2    1    2    0    0 -0.75315826544E+02  0.41418177588E+03 -0.81999291627E+03  0.92612878400E+03  0.90039572547E+02 0.  0.
    5000000    2    1    2    0    0  0.75315826544E+02 -0.41418177588E+03  0.85879938540E+03  0.11293798704E+04  0.60061925550E+03 0.  0.
         23    2    4    4    0    0  0.15435541653E+03 -0.41116076969E+03  0.25904701001E+03  0.51783816292E+03  0.90400422765E+02 0.  0.
         23    2    4    4    0    0 -0.79039589988E+02 -0.30210061920E+01  0.59975237539E+03  0.61154170747E+03  0.89576586928E+02 0.  0.
          2    1    3    3  502    0 -0.94803321980E+01  0.99433451325E+02 -0.28428434851E+03  0.30132122187E+03  0.00000000000E+00 0. -1.
         -2    1    3    3    0  502 -0.65835494346E+02  0.31474832456E+03 -0.53570856776E+03  0.62480756213E+03  0.00000000000E+00 0.  1.
         13    1    5    5    0    0  0.79408916762E+02 -0.14523621668E+03  0.14080985486E+03  0.21731716435E+03  0.00000000000E+00 0. -1.
        -13    1    5    5    0    0  0.74946499771E+02 -0.26592455301E+03  0.11823715515E+03  0.30052099857E+03  0.00000000000E+00 0.  1.
          5    1    6    6  503    0 -0.17013243668E+02  0.19105330734E+02  0.40633252573E+03  0.40716418750E+03  0.47000000000E+01 0. -1.
         -5    1    6    6    0  503 -0.62026346320E+02 -0.22126336926E+02  0.19341984966E+03  0.20437751996E+03  0.47000000000E+01 0.  1.
<mgrwt>
<rscale>  0 0.47764433E+03</rscale>
<asrwt>0</asrwt>
<pdfrwt beam="1">  1        1 0.15513094E+00 0.47764433E+03</pdfrwt>
<pdfrwt beam="2">  1       -1 0.16110116E+00 0.47764433E+03</pdfrwt>
<totfact> 0.46813674E+00</totfact>
</mgrwt>
</event>
<event>
12    1  0.3166324E-008  0.7998914E+03  0.7818608E-02  0.9560174E-01
          1   -1    0    0  501    0  0.00000000000E+00  0.00000000000E+00  0.11237690362E+04  0.11237690362E+04  0.00000000000E+00 0. -1.
         -1   -1    0    0    0  501 -0.00000000000E+00 -0.00000000000E+00 -0.67934628345E+03  0.67934628345E+03  0.00000000000E+00 0.  1.
         23    2    1    2    0    0  0.52526613346E+03 -0.54607199669E+03  0.73108898463E+02  0.76776028586E+03  0.10005902743E+03 0.  0.
    5000000    2    1    2    0    0 -0.52526613346E+03  0.54607199669E+03  0.37131385427E+03  0.10353550338E+04  0.59998910909E+03 0.  0.
         23    2    4    4    0    0 -0.52375964484E+03  0.58211159331E+03  0.45071095178E+03  0.90816818999E+03  0.91929465537E+02 0.  0.
         23    2    4    4    0    0 -0.15064886267E+01 -0.36039596622E+02 -0.79397097512E+02  0.12718684377E+03  0.92582245068E+02 0.  0.
          3    1    3    3  502    0  0.89021166567E+02 -0.13299257319E+03 -0.14188795350E+02  0.16066460262E+03  0.00000000000E+00 0. -1.
         -3    1    3    3    0  502  0.43624496690E+03 -0.41307942350E+03  0.87297693813E+02  0.60709568324E+03  0.00000000000E+00 0.  1.
         11    1    5    5    0    0 -0.27376609887E+03  0.25031064074E+03  0.24532424523E+03  0.44473281761E+03  0.00000000000E+00 0.  1.
        -11    1    5    5    0    0 -0.24999354597E+03  0.33180095257E+03  0.20538670655E+03  0.46343537239E+03  0.00000000000E+00 0. -1.
          5    1    6    6  503    0  0.15465383265E+02 -0.29777492811E+02  0.10418289306E+02  0.35447255319E+02  0.47000000000E+01 0. -1.
         -5    1    6    6    0  503 -0.16971871892E+02 -0.62621038114E+01 -0.89815386818E+02  0.91739588449E+02  0.47000000000E+01 0.  1.
<mgrwt>
<rscale>  0 0.79989142E+03</rscale>
<asrwt>0</asrwt>
<pdfrwt beam="1">  1        1 0.17288754E+00 0.79989142E+03</pdfrwt>
<pdfrwt beam="2">  1       -1 0.10451481E+00 0.79989142E+03</pdfrwt>
<totfact> 0.10749581E+01</totfact>
</mgrwt>
</event>
<event>
12    1  0.3166324E-008  0.1543269E+04  0.7818608E-02  0.8856179E-01
         -2   -1    0    0    0  501 -0.00000000000E+00  0.00000000000E+00  0.15330842398E+04  0.15330842398E+04  0.00000000000E+00 0.  1.
          2   -1    0    0  501    0  0.00000000000E+00 -0.00000000000E+00 -0.26877541682E+04  0.26877541682E+04  0.00000000000E+00 0. -1.
         23    2    1    2    0    0 -0.29121686448E+03 -0.15000945096E+04 -0.18813775777E+04  0.24255225950E+04  0.92127461333E+02 0.  0.
    5000000    2    1    2    0    0  0.29121686448E+03  0.15000945096E+04  0.72670764925E+03  0.17953158131E+04  0.59997005043E+03 0.  0.
         23    2    4    4    0    0 -0.31695079924E+02  0.40838799209E+03  0.45949609879E+03  0.62244041030E+03  0.92250037377E+02 0.  0.
         23    2    4    4    0    0  0.32291194440E+03  0.10917065175E+04  0.26721155046E+03  0.11728754028E+04  0.90218920361E+02 0.  0.
          3    1    3    3  502    0 -0.20767699190E+03 -0.92174684259E+03 -0.11068940555E+04  0.14553217599E+04  0.00000000000E+00 0. -1.
         -3    1    3    3    0  502 -0.83539872575E+02 -0.57834766698E+03 -0.77448352220E+03  0.97020083507E+03  0.00000000000E+00 0.  1.
         13    1    5    5    0    0 -0.38460360041E+02  0.66770095122E+02  0.67578816977E+02  0.10249068934E+03  0.00000000000E+00 0. -1.
        -13    1    5    5    0    0  0.67652801164E+01  0.34161789697E+03  0.39191728182E+03  0.51994972097E+03  0.00000000000E+00 0.  1.
          5    1    6    6  503    0  0.15025624257E+03  0.48231857029E+03  0.73487733166E+02  0.51052000803E+03  0.47000000000E+01 0. -1.
         -5    1    6    6    0  503  0.17265570183E+03  0.60938794719E+03  0.19372381729E+03  0.66235539474E+03  0.47000000000E+01 0.  1.
<mgrwt>
<rscale>  0 0.15432690E+04</rscale>
<asrwt>0</asrwt>
<pdfrwt beam="1">  1        2 0.41350064E+00 0.15432690E+04</pdfrwt>
<pdfrwt beam="2">  1       -2 0.23585911E+00 0.15432690E+04</pdfrwt>
<totfact> 0.19820647E-01</totfact>
</mgrwt>
</event>
<event>
12    1  0.3166324E-008  0.1759684E+04  0.7818608E-02  0.8728038E-01
         -2   -1    0    0    0  501 -0.00000000000E+00  0.00000000000E+00  0.10592859864E+04  0.10592859864E+04  0.00000000000E+00 0.  1.
          2   -1    0    0  501    0  0.00000000000E+00 -0.00000000000E+00 -0.38027914551E+04  0.38027914551E+04  0.00000000000E+00 0. -1.
         23    2    1    2    0    0  0.15044617487E+04  0.85540549007E+03 -0.22416785284E+03  0.17473968251E+04  0.89558542245E+02 0.  0.
    5000000    2    1    2    0    0 -0.15044617487E+04 -0.85540549007E+03 -0.25193376158E+04  0.31146806164E+04  0.59920748817E+03 0.  0.
         23    2    4    4    0    0 -0.61380735533E+03 -0.59139355509E+03 -0.88192256000E+03  0.12299164780E+04  0.91658794437E+02 0.  0.
         23    2    4    4    0    0 -0.89065439333E+03 -0.26401193498E+03 -0.16374150559E+04  0.18847641384E+04  0.90775778815E+02 0.  0.
          4    1    3    3  502    0  0.70700251431E+03  0.44132773355E+03 -0.78776900666E+02  0.83715501774E+03  0.00000000000E+00 0. -1.
         -4    1    3    3    0  502  0.79745923435E+03  0.41407775652E+03 -0.14539095217E+03  0.91024180736E+03  0.00000000000E+00 0.  1.
         13    1    5    5    0    0 -0.45222000144E+03 -0.37991747584E+03 -0.62713852290E+03  0.86147718778E+03  0.00000000000E+00 0. -1.
        -13    1    5    5    0    0 -0.16158735389E+03 -0.21147607925E+03 -0.25478403709E+03  0.36843929024E+03  0.00000000000E+00 0.  1.
          5    1    6    6  503    0 -0.33587571573E+03 -0.12717237962E+03 -0.56226365404E+03  0.66719398769E+03  0.47000000000E+01 0. -1.
         -5    1    6    6    0  503 -0.55477867760E+03 -0.13683955536E+03 -0.10751514018E+04  0.12175701507E+04  0.47000000000E+01 0.  1.
<mgrwt>
<rscale>  0 0.17596838E+04</rscale>
<asrwt>0</asrwt>
<pdfrwt beam="1">  1        2 0.58504484E+00 0.17596838E+04</pdfrwt>
<pdfrwt beam="2">  1       -2 0.16296707E+00 0.17596838E+04</pdfrwt>
<totfact> 0.10831252E-01</totfact>
</mgrwt>
</event>
<event>
12    1  0.3166324E-008  0.6649297E+03  0.7818608E-02  0.9779161E-01
          1   -1    0    0  501    0  0.00000000000E+00  0.00000000000E+00  0.21750927235E+04  0.21750927235E+04  0.00000000000E+00 0. -1.
         -1   -1    0    0    0  501 -0.00000000000E+00 -0.00000000000E+00 -0.25258446926E+03  0.25258446926E+03  0.00000000000E+00 0.  1.
         23    2    1    2    0    0  0.52682875624E+03 -0.13018699716E+03  0.33072664284E+03  0.64209672304E+03  0.91710941665E+02 0.  0.
    5000000    2    1    2    0    0 -0.52682875624E+03  0.13018699716E+03  0.15917816114E+04  0.17855804698E+04  0.60002643511E+03 0.  0.
         23    2    4    4    0    0 -0.12497041611E+03  0.31504214872E+03  0.82604782450E+03  0.89636272105E+03  0.79006068994E+02 0.  0.
         23    2    4    4    0    0 -0.40185834013E+03 -0.18485515156E+03  0.76573378693E+03  0.88921774871E+03  0.93265318201E+02 0.  0.
          1    1    3    3  502    0  0.38337633252E+03 -0.84574826401E+02  0.28377260318E+03  0.48441428954E+03  0.00000000000E+00 0. -1.
         -1    1    3    3    0  502  0.14345242372E+03 -0.45612170762E+02  0.46954039660E+02  0.15768243350E+03  0.00000000000E+00 0.  1.
         13    1    5    5    0    0 -0.44187633113E+02  0.17764346850E+03  0.36101146763E+03  0.40477034054E+03  0.00000000000E+00 0.  1.
        -13    1    5    5    0    0 -0.80782782995E+02  0.13739868022E+03  0.46503635687E+03  0.49159238050E+03  0.00000000000E+00 0. -1.
          5    1    6    6  503    0 -0.95129231600E+02 -0.63082604874E+02  0.13111008170E+03  0.17389919283E+03  0.47000000000E+01 0. -1.
         -5    1    6    6    0  503 -0.30672910853E+03 -0.12177254668E+03  0.63462370523E+03  0.71531855588E+03  0.47000000000E+01 0.  1.
<mgrwt>
<rscale>  0 0.66492966E+03</rscale>
<asrwt>0</asrwt>
<pdfrwt beam="1">  1        1 0.33462964E+00 0.66492966E+03</pdfrwt>
<pdfrwt beam="2">  1       -1 0.38859151E-01 0.66492966E+03</pdfrwt>
<totfact> 0.15415764E+01</totfact>
</mgrwt>
</event>
<event>
12    1  0.3166324E-008  0.1074865E+04  0.7818608E-02  0.9230043E-01
          2   -1    0    0  501    0  0.00000000000E+00  0.00000000000E+00  0.25285341629E+04  0.25285341629E+04  0.00000000000E+00 0.  1.
         -2   -1    0    0    0  501 -0.00000000000E+00 -0.00000000000E+00 -0.47465649128E+03  0.47465649128E+03  0.00000000000E+00 0. -1.
         23    2    1    2    0    0  0.32729133099E+03 -0.94900211568E+03  0.78652190562E+03  0.12786370495E+04  0.92581668554E+02 0.  0.
    5000000    2    1    2    0    0 -0.32729133099E+03  0.94900211568E+03  0.12673557660E+04  0.17245536047E+04  0.60014153911E+03 0.  0.
         23    2    4    4    0    0 -0.29448501928E+03  0.10121660090E+04  0.11491697827E+04  0.15621856418E+04  0.92904970783E+02 0.  0.
         23    2    4    4    0    0 -0.32806311709E+02 -0.63163893366E+02  0.11818598327E+03  0.16236796285E+03  0.85612482776E+02 0.  0.
          1    1    3    3  502    0  0.24317832176E+03 -0.59647146869E+03  0.53701983732E+03  0.83863234782E+03  0.00000000000E+00 0. -1.
         -1    1    3    3    0  502  0.84113009235E+02 -0.35253064699E+03  0.24950206830E+03  0.44000470165E+03  0.00000000000E+00 0.  1.
         13    1    5    5    0    0 -0.16495422239E+03  0.71539733370E+03  0.81292907119E+03  0.10953798042E+04  0.00000000000E+00 0. -1.
        -13    1    5    5    0    0 -0.12953079690E+03  0.29676867535E+03  0.33624071154E+03  0.46680583769E+03  0.00000000000E+00 0.  1.
          5    1    6    6  503    0  0.70976338267E+01 -0.35258765719E+02  0.10588547556E+03  0.11192578300E+03  0.47000000000E+01 0. -1.
         -5    1    6    6    0  503 -0.39903945536E+02 -0.27905127647E+02  0.12300507708E+02  0.50442179852E+02  0.47000000000E+01 0.  1.
<mgrwt>
<rscale>  0 0.10748647E+04</rscale>
<asrwt>0</asrwt>
<pdfrwt beam="1">  1        2 0.38900525E+00 0.10748647E+04</pdfrwt>
<pdfrwt beam="2">  1       -2 0.73024077E-01 0.10748647E+04</pdfrwt>
<totfact> 0.56868388E+00</totfact>
</mgrwt>
</event>
<event>
12    1  0.3166324E-008  0.1365377E+04  0.7818608E-02  0.8979269E-01
          1   -1    0    0  501    0  0.00000000000E+00  0.00000000000E+00  0.73513031548E+03  0.73513031548E+03  0.00000000000E+00 0. -1.
         -1   -1    0    0    0  501 -0.00000000000E+00 -0.00000000000E+00 -0.26676012404E+04  0.26676012404E+04  0.00000000000E+00 0.  1.
         23    2    1    2    0    0 -0.96753846129E+02  0.13286081895E+04 -0.83736040555E+03  0.15769067454E+04  0.10440980317E+03 0.  0.
    5000000    2    1    2    0    0  0.96753846129E+02 -0.13286081895E+04 -0.10951105194E+04  0.18258248104E+04  0.59984011274E+03 0.  0.
         23    2    4    4    0    0  0.19083131650E+03 -0.11896708580E+04 -0.11011351140E+04  0.16347209183E+04  0.89892155753E+02 0.  0.
         23    2    4    4    0    0 -0.94077470372E+02 -0.13893733146E+03  0.60245945989E+01  0.19110389215E+03  0.91270199685E+02 0.  0.
          2    1    3    3  502    0 -0.68924501767E+02  0.11009951905E+04 -0.64703800419E+03  0.12789054599E+04  0.00000000000E+00 0. -1.
         -2    1    3    3    0  502 -0.27829344362E+02  0.22761299904E+03 -0.19032240136E+03  0.29800128556E+03  0.00000000000E+00 0.  1.
         13    1    5    5    0    0  0.58289429685E+02 -0.18245112956E+03 -0.15357871901E+03  0.24550457271E+03  0.00000000000E+00 0.  1.
        -13    1    5    5    0    0  0.13254188682E+03 -0.10072197285E+04 -0.94755639494E+03  0.13892163456E+04  0.00000000000E+00 0. -1.
          5    1    6    6  503    0 -0.53757141785E+02 -0.14021797076E+03  0.16164148167E+01  0.15025182999E+03  0.47000000000E+01 0. -1.
         -5    1    6    6    0  503 -0.40320328587E+02  0.12806392979E+01  0.44081797822E+01  0.40852062168E+02  0.47000000000E+01 0.  1.
<mgrwt>
<rscale>  0 0.13653771E+04</rscale>
<asrwt>0</asrwt>
<pdfrwt beam="1">  1        1 0.11309697E+00 0.13653771E+04</pdfrwt>
<pdfrwt beam="2">  1       -1 0.41040019E+00 0.13653771E+04</pdfrwt>
<totfact> 0.14928300E-01</totfact>
</mgrwt>
</event>
<event>
12    1  0.3166324E-008  0.3464502E+03  0.7818608E-02  0.1064082E+00
         -1   -1    0    0    0  501 -0.00000000000E+00  0.00000000000E+00  0.81044875526E+03  0.81044875526E+03  0.00000000000E+00 0.  1.
          1   -1    0    0  501    0  0.00000000000E+00 -0.00000000000E+00 -0.34238008027E+03  0.34238008027E+03  0.00000000000E+00 0. -1.
         23    2    1    2    0    0 -0.43569143429E+02 -0.32757186109E+03  0.27867791610E+03  0.44200391662E+03  0.92219775252E+02 0.  0.
    5000000    2    1    2    0    0  0.43569143429E+02  0.32757186109E+03  0.18939075889E+03  0.71082491891E+03  0.60016798594E+03 0.  0.
         23    2    4    4    0    0 -0.37831079648E+01  0.11847598699E+03 -0.20467157247E+03  0.25308740277E+03  0.90066139401E+02 0.  0.
         23    2    4    4    0    0  0.47352251394E+02  0.20909587410E+03  0.39406233136E+03  0.45773751614E+03  0.90968084522E+02 0.  0.
          4    1    3    3  502    0 -0.11206675377E+02 -0.11841997718E+03  0.15996278378E+03  0.19934134735E+03  0.00000000000E+00 0.  1.
         -4    1    3    3    0  502 -0.32362468052E+02 -0.20915188391E+03  0.11871513231E+03  0.24266256927E+03  0.00000000000E+00 0. -1.
         13    1    5    5    0    0 -0.30241114694E+02  0.49759450300E+01 -0.59444765723E+02  0.66880230403E+02  0.00000000000E+00 0.  1.
        -13    1    5    5    0    0  0.26458006729E+02  0.11350004196E+03 -0.14522680675E+03  0.18620717237E+03  0.00000000000E+00 0. -1.
          5    1    6    6  503    0  0.44241267819E+02  0.19312914774E+03  0.28361376043E+03  0.34599857311E+03  0.47000000000E+01 0. -1.
         -5    1    6    6    0  503  0.31109835755E+01  0.15966726367E+02  0.11044857093E+03  0.11173894303E+03  0.47000000000E+01 0.  1.
<mgrwt>
<rscale>  0 0.34645024E+03</rscale>
<asrwt>0</asrwt>
<pdfrwt beam="1">  1        1 0.52673859E-01 0.34645024E+03</pdfrwt>
<pdfrwt beam="2">  1       -1 0.12468442E+00 0.34645024E+03</pdfrwt>
<totfact> 0.44497171E+01</totfact>
</mgrwt>
</event>
<event>
12    1  0.3166324E-008  0.5631654E+03  0.7818608E-02  0.9984918E-01
         -2   -1    0    0    0  501 -0.00000000000E+00  0.00000000000E+00  0.12786368005E+04  0.12786368005E+04  0.00000000000E+00 0. -1.
          2   -1    0    0  501    0  0.00000000000E+00 -0.00000000000E+00 -0.32405508511E+03  0.32405508511E+03  0.00000000000E+00 0.  1.
         23    2    1    2    0    0  0.34532320571E+03  0.28350496286E+03  0.99774312090E+02  0.46683606478E+03  0.91421100731E+02 0.  0.
    5000000    2    1    2    0    0 -0.34532320571E+03 -0.28350496286E+03  0.85480740331E+03  0.11358558208E+04  0.59987462740E+03 0.  0.
         23    2    4    4    0    0 -0.88617104785E+02  0.13877545726E+03  0.46034029894E+03  0.49727135517E+03  0.90851477939E+02 0.  0.
         23    2    4    4    0    0 -0.25670610092E+03 -0.42228042012E+03  0.39446710437E+03  0.63858446566E+03  0.89258321123E+02 0.  0.
          3    1    3    3  502    0  0.15193998583E+03  0.13651908296E+03  0.91424959147E+02  0.22378950481E+03  0.00000000000E+00 0. -1.
         -3    1    3    3    0  502  0.19338321988E+03  0.14698587990E+03  0.83493529436E+01  0.24304655997E+03  0.00000000000E+00 0.  1.
         13    1    5    5    0    0 -0.93699793175E+02  0.86129485713E+02  0.25190944671E+03  0.28223449274E+03  0.00000000000E+00 0.  1.
        -13    1    5    5    0    0  0.50826883899E+01  0.52645971543E+02  0.20843085223E+03  0.21503686243E+03  0.00000000000E+00 0. -1.
          5    1    6    6  503    0 -0.17887093043E+03 -0.34801284028E+03  0.33752225749E+03  0.51676988211E+03  0.47000000000E+01 0. -1.
         -5    1    6    6    0  503 -0.77835170486E+02 -0.74267579839E+02  0.56944846875E+02  0.12181458355E+03  0.47000000000E+01 0.  1.
<mgrwt>
<rscale>  0 0.56316539E+03</rscale>
<asrwt>0</asrwt>
<pdfrwt beam="1">  1        2 0.49854629E-01 0.56316539E+03</pdfrwt>
<pdfrwt beam="2">  1       -2 0.19671335E+00 0.56316539E+03</pdfrwt>
<totfact> 0.14610878E+01</totfact>
</mgrwt>
</event>
<event>
12    1  0.3166324E-008  0.7299258E+03  0.7818608E-02  0.9667381E-01
         -2   -1    0    0    0  501 -0.00000000000E+00  0.00000000000E+00  0.43586002990E+03  0.43586002990E+03  0.00000000000E+00 0.  1.
          2   -1    0    0  501    0  0.00000000000E+00 -0.00000000000E+00 -0.20832693652E+04  0.20832693652E+04  0.00000000000E+00 0. -1.
         23    2    1    2    0    0  0.54949292420E+03  0.40564626345E+03 -0.14257584445E+04  0.15834777723E+04  0.90129620910E+02 0.  0.
    5000000    2    1    2    0    0 -0.54949292420E+03 -0.40564626345E+03 -0.22165089083E+03  0.93565162282E+03  0.59985287953E+03 0.  0.
         23    2    4    4    0    0  0.23789193941E+02 -0.70299073867E+02  0.13450634329E+03  0.17712564148E+03  0.88168310352E+02 0.  0.
         23    2    4    4    0    0 -0.57328211814E+03 -0.33534718958E+03 -0.35615723412E+03  0.75852598133E+03  0.86043967802E+02 0.  0.
          1    1    3    3  502    0  0.36220291929E+03  0.28742389074E+03 -0.87066627632E+03  0.98583122918E+03  0.00000000000E+00 0. -1.
         -1    1    3    3    0  502  0.18729000491E+03  0.11822237271E+03 -0.55509216816E+03  0.59764654312E+03  0.00000000000E+00 0.  1.
         11    1    5    5    0    0 -0.28254500454E+02 -0.46706254728E+02  0.87513192291E+02  0.10314237660E+03  0.00000000000E+00 0. -1.
        -11    1    5    5    0    0  0.52043694395E+02 -0.23592819139E+02  0.46993151002E+02  0.73983264880E+02  0.00000000000E+00 0.  1.
          5    1    6    6  503    0 -0.25185064141E+03 -0.14412136024E+03 -0.20391703565E+03  0.35468853870E+03  0.47000000000E+01 0. -1.
         -5    1    6    6    0  503 -0.32143147673E+03 -0.19122582934E+03 -0.15224019848E+03  0.40383744264E+03  0.47000000000E+01 0.  1.
<mgrwt>
<rscale>  0 0.72992584E+03</rscale>
<asrwt>0</asrwt>
<pdfrwt beam="1">  1        2 0.32050298E+00 0.72992584E+03</pdfrwt>
<pdfrwt beam="2">  1       -2 0.67055389E-01 0.72992584E+03</pdfrwt>
<totfact> 0.12747367E+01</totfact>
</mgrwt>
</event>
<event>
12    1  0.3166324E-008  0.1210071E+04  0.7818608E-02  0.9104087E-01
         -2   -1    0    0    0  501 -0.00000000000E+00  0.00000000000E+00  0.27530305262E+04  0.27530305262E+04  0.00000000000E+00 0.  1.
          2   -1    0    0  501    0  0.00000000000E+00 -0.00000000000E+00 -0.58982545136E+03  0.58982545136E+03  0.00000000000E+00 0. -1.
         23    2    1    2    0    0 -0.11810682543E+04  0.17165908950E+03  0.83720169051E+03  0.14606081938E+04  0.89891939157E+02 0.  0.
    5000000    2    1    2    0    0  0.11810682543E+04 -0.17165908950E+03  0.13260033844E+04  0.18822477838E+04  0.60015221395E+03 0.  0.
         23    2    4    4    0    0  0.49087084304E+03 -0.19712925373E+03  0.23092517915E+03  0.58429667208E+03  0.90895739239E+02 0.  0.
         23    2    4    4    0    0  0.69019741130E+03  0.25470164230E+02  0.10950782052E+04  0.12979511117E+04  0.91976176776E+02 0.  0.
          1    1    3    3  502    0 -0.26690290633E+03  0.24786889160E+02  0.23166170045E+03  0.35428617633E+03  0.00000000000E+00 0. -1.
         -1    1    3    3    0  502 -0.91416534802E+03  0.14687220034E+03  0.60553999005E+03  0.11063220175E+04  0.00000000000E+00 0.  1.
         11    1    5    5    0    0  0.44459455018E+03 -0.18576415658E+03  0.23570848383E+03  0.53640574687E+03  0.00000000000E+00 0. -1.
        -11    1    5    5    0    0  0.46276292862E+02 -0.11365097149E+02 -0.47833046783E+01  0.47890925214E+02  0.00000000000E+00 0.  1.
          5    1    6    6  503    0  0.18067259699E+03 -0.33321576330E+02  0.28154078577E+03  0.33621454282E+03  0.47000000000E+01 0. -1.
         -5    1    6    6    0  503  0.50952481432E+03  0.58791740560E+02  0.81353741944E+03  0.96173656892E+03  0.47000000000E+01 0.  1.
<mgrwt>
<rscale>  0 0.12100706E+04</rscale>
<asrwt>0</asrwt>
<pdfrwt beam="1">  1        2 0.90742379E-01 0.12100706E+04</pdfrwt>
<pdfrwt beam="2">  1       -2 0.42354315E+00 0.12100706E+04</pdfrwt>
<totfact> 0.26071027E-01</totfact>
</mgrwt>
</event>
<event>
12    1  0.3166324E-008  0.7087566E+03  0.7818608E-02  0.9702373E-01
         -2   -1    0    0    0  501 -0.00000000000E+00  0.00000000000E+00  0.49361946506E+03  0.49361946506E+03  0.00000000000E+00 0.  1.
          2   -1    0    0  501    0  0.00000000000E+00 -0.00000000000E+00 -0.12092700341E+04  0.12092700341E+04  0.00000000000E+00 0. -1.
         23    2    1    2    0    0 -0.60238652394E+03 -0.23935740909E+03 -0.22733801820E+03  0.69359328864E+03  0.96060304104E+02 0.  0.
    5000000    2    1    2    0    0  0.60238652394E+03  0.23935740909E+03 -0.48831255084E+03  0.10092962105E+04  0.60005683045E+03 0.  0.
         23    2    4    4    0    0  0.54875222862E+01  0.16121518694E+03  0.54612206829E+02  0.19347232527E+03  0.91807396824E+02 0.  0.
         23    2    4    4    0    0  0.59689900165E+03  0.78142222150E+02 -0.54292475767E+03  0.81582388525E+03  0.91688026496E+02 0.  0.
          2    1    3    3  502    0 -0.19986013476E+03 -0.41823293878E+02 -0.10069906814E+03  0.22766985681E+03  0.00000000000E+00 0. -1.
         -2    1    3    3    0  502 -0.40252638918E+03 -0.19753411521E+03 -0.12663895006E+03  0.46592343183E+03  0.00000000000E+00 0.  1.
         13    1    5    5    0    0 -0.65094364004E+01  0.10465137734E+03 -0.11684613443E+02  0.10550267169E+03  0.00000000000E+00 0. -1.
        -13    1    5    5    0    0  0.11996958687E+02  0.56563809595E+02  0.66296820272E+02  0.87969653585E+02  0.00000000000E+00 0.  1.
          5    1    6    6  503    0  0.18083292822E+03  0.16746502611E+02 -0.22149235131E+03  0.28646456145E+03  0.47000000000E+01 0. -1.
         -5    1    6    6    0  503  0.41606607343E+03  0.61395719539E+02 -0.32143240636E+03  0.52935932380E+03  0.47000000000E+01 0.  1.
<mgrwt>
<rscale>  0 0.70875658E+03</rscale>
<asrwt>0</asrwt>
<pdfrwt beam="1">  1        2 0.18604154E+00 0.70875658E+03</pdfrwt>
<pdfrwt beam="2">  1       -2 0.75941457E-01 0.70875658E+03</pdfrwt>
<totfact> 0.29722907E+01</totfact>
</mgrwt>
</event>
<event>
12    1  0.3166324E-008  0.7907671E+03  0.7818608E-02  0.9573478E-01
          2   -1    0    0  501    0  0.00000000000E+00  0.00000000000E+00  0.30228365496E+04  0.30228365496E+04  0.00000000000E+00 0.  1.
         -2   -1    0    0    0  501 -0.00000000000E+00 -0.00000000000E+00 -0.27494431308E+03  0.27494431308E+03  0.00000000000E+00 0. -1.
         23    2    1    2    0    0 -0.70016462435E+03  0.58684805285E+02  0.49936842916E+03  0.86679994715E+03  0.91098368655E+02 0.  0.
    5000000    2    1    2    0    0  0.70016462435E+03 -0.58684805285E+02  0.22485238074E+04  0.24309809155E+04  0.60011206606E+03 0.  0.
         23    2    4    4    0    0  0.75581722128E+03 -0.14346482032E+03  0.17590137984E+04  0.19220646711E+04  0.91439762609E+02 0.  0.
         23    2    4    4    0    0 -0.55652596928E+02  0.84780015034E+02  0.48951000897E+03  0.50891624446E+03  0.95345857274E+02 0.  0.
          1    1    3    3  502    0 -0.33085547999E+03  0.25361439567E+02  0.29162642184E+03  0.44176296945E+03  0.00000000000E+00 0. -1.
         -1    1    3    3    0  502 -0.36930914436E+03  0.33323365718E+02  0.20774200732E+03  0.42503697770E+03  0.00000000000E+00 0.  1.
         13    1    5    5    0    0  0.54680660224E+03 -0.14294025435E+03  0.12518374776E+04  0.13735088085E+04  0.00000000000E+00 0. -1.
        -13    1    5    5    0    0  0.20901061904E+03 -0.52456596660E+00  0.50717632080E+03  0.54855586262E+03  0.00000000000E+00 0.  1.
          5    1    6    6  503    0 -0.25098746584E+02  0.18376857759E+02  0.34941897748E+03  0.35083239275E+03  0.47000000000E+01 0. -1.
         -5    1    6    6    0  503 -0.30553850344E+02  0.66403157274E+02  0.14009103149E+03  0.15808385171E+03  0.47000000000E+01 0.  1.
<mgrwt>
<rscale>  0 0.79076707E+03</rscale>
<asrwt>0</asrwt>
<pdfrwt beam="1">  1        2 0.46505176E+00 0.79076707E+03</pdfrwt>
<pdfrwt beam="2">  1       -2 0.42299127E-01 0.79076707E+03</pdfrwt>
<totfact> 0.94290030E+00</totfact>
</mgrwt>
</event>
<event>
12    1  0.3166324E-008  0.1281899E+04  0.7818608E-02  0.9044044E-01
          2   -1    0    0  501    0  0.00000000000E+00  0.00000000000E+00  0.89734293751E+03  0.89734293751E+03  0.00000000000E+00 0.  1.
         -2   -1    0    0    0  501 -0.00000000000E+00 -0.00000000000E+00 -0.20305468595E+04  0.20305468595E+04  0.00000000000E+00 0. -1.
         23    2    1    2    0    0 -0.51621864847E+02  0.12400825783E+04 -0.88529356571E+03  0.15272309389E+04  0.90664355446E+02 0.  0.
    5000000    2    1    2    0    0  0.51621864847E+02 -0.12400825783E+04 -0.24791035632E+03  0.14006588581E+04  0.59993005759E+03 0.  0.
         23    2    4    4    0    0 -0.16234850217E+03 -0.22898261027E+03  0.91144185507E+02  0.30908673522E+03  0.91854642624E+02 0.  0.
         23    2    4    4    0    0  0.21397036702E+03 -0.10110999681E+04 -0.33905454182E+03  0.10915721229E+04  0.92006813623E+02 0.  0.
          3    1    3    3  502    0  0.18122905292E+02  0.29584190045E+03 -0.24075172754E+03  0.38185372078E+03  0.00000000000E+00 0. -1.
         -3    1    3    3    0  502 -0.69744770139E+02  0.94424067789E+03 -0.64454183817E+03  0.11453772182E+04  0.00000000000E+00 0.  1.
         11    1    5    5    0    0 -0.10156095712E+03 -0.18761868368E+03  0.34153942935E+02  0.21605992293E+03  0.00000000000E+00 0.  1.
        -11    1    5    5    0    0 -0.60787545054E+02 -0.41363926591E+02  0.56990242572E+02  0.93026812291E+02  0.00000000000E+00 0. -1.
          5    1    6    6  503    0  0.11855154671E+03 -0.60608967567E+03 -0.15617423985E+03  0.63703347429E+03  0.47000000000E+01 0. -1.
         -5    1    6    6    0  503  0.95418820311E+02 -0.40501029240E+03 -0.18288030197E+03  0.45453864860E+03  0.47000000000E+01 0.  1.
<mgrwt>
<rscale>  0 0.12818987E+04</rscale>
<asrwt>0</asrwt>
<pdfrwt beam="1">  1        2 0.13805276E+00 0.12818987E+04</pdfrwt>
<pdfrwt beam="2">  1       -2 0.31239182E+00 0.12818987E+04</pdfrwt>
<totfact> 0.76295509E-01</totfact>
</mgrwt>
</event>
<event>
12    1  0.3166324E-008  0.1037050E+04  0.7818608E-02  0.9268817E-01
         -1   -1    0    0    0  501 -0.00000000000E+00  0.00000000000E+00  0.40574792510E+03  0.40574792510E+03  0.00000000000E+00 0.  1.
          1   -1    0    0  501    0  0.00000000000E+00 -0.00000000000E+00 -0.27660139146E+04  0.27660139146E+04  0.00000000000E+00 0. -1.
         23    2    1    2    0    0  0.82416697895E+03 -0.50364792015E+03 -0.12529208258E+04  0.15846015302E+04  0.90768810928E+02 0.  0.
    5000000    2    1    2    0    0 -0.82416697895E+03  0.50364792015E+03 -0.11073451636E+04  0.15871603095E+04  0.59996008191E+03 0.  0.
         23    2    4    4    0    0 -0.12094120569E+03 -0.10791717638E+03 -0.96178528054E+02  0.20877696599E+03  0.89803229763E+02 0.  0.
         23    2    4    4    0    0 -0.70322577326E+03  0.61156509653E+03 -0.10111666356E+04  0.13783833435E+04  0.94574421595E+02 0.  0.
          3    1    3    3  502    0  0.24134814662E+03 -0.10158801346E+03 -0.32321357951E+03  0.41597604539E+03  0.00000000000E+00 0. -1.
         -3    1    3    3    0  502  0.58281883233E+03 -0.40205990669E+03 -0.92970724633E+03  0.11686254848E+04  0.00000000000E+00 0.  1.
         13    1    5    5    0    0 -0.67043544675E+02 -0.31055069017E+02 -0.87466542858E+02  0.11449738125E+03  0.00000000000E+00 0.  1.
        -13    1    5    5    0    0 -0.53897661019E+02 -0.76862107366E+02 -0.87119851958E+01  0.94279584736E+02  0.00000000000E+00 0. -1.
          5    1    6    6  503    0 -0.68979984212E+03  0.61205095736E+03 -0.99981949185E+03  0.13601806141E+04  0.47000000000E+01 0. -1.
         -5    1    6    6    0  503 -0.13425931135E+02 -0.48586082746E+00 -0.11347143744E+02  0.18202729431E+02  0.47000000000E+01 0.  1.
<mgrwt>
<rscale>  0 0.10370496E+04</rscale>
<asrwt>0</asrwt>
<pdfrwt beam="1">  1        1 0.42554061E+00 0.10370496E+04</pdfrwt>
<pdfrwt beam="2">  1       -1 0.62422757E-01 0.10370496E+04</pdfrwt>
<totfact> 0.23349981E+00</totfact>
</mgrwt>
</event>
<event>
12    1  0.3166324E-008  0.9050229E+03  0.7818608E-02  0.9419324E-01
          1   -1    0    0  501    0  0.00000000000E+00  0.00000000000E+00  0.15653626121E+04  0.15653626121E+04  0.00000000000E+00 0. -1.
         -1   -1    0    0    0  501 -0.00000000000E+00 -0.00000000000E+00 -0.56716927867E+03  0.56716927867E+03  0.00000000000E+00 0.  1.
         23    2    1    2    0    0 -0.86950007130E+01 -0.80577724291E+03  0.16541035075E+03  0.82756698610E+03  0.90299302965E+02 0.  0.
    5000000    2    1    2    0    0  0.86950007130E+01  0.80577724291E+03  0.83278298270E+03  0.13049649047E+04  0.60004444665E+03 0.  0.
         23    2    4    4    0    0 -0.19464004213E+03  0.56925722794E+02  0.22138152724E+03  0.31341343183E+03  0.89960628803E+02 0.  0.
         23    2    4    4    0    0  0.20333504284E+03  0.74885152012E+03  0.61140145545E+03  0.99155147285E+03  0.85081400746E+02 0.  0.
          1    1    3    3  502    0  0.84734379869E+01 -0.76698855649E+03  0.16744672700E+03  0.78509977157E+03  0.00000000000E+00 0. -1.
         -1    1    3    3    0  502 -0.17168438700E+02 -0.38788686421E+02 -0.20363762463E+01  0.42467214529E+02  0.00000000000E+00 0.  1.
         11    1    5    5    0    0 -0.17103198768E+03  0.79917985227E+02  0.18480858704E+03  0.26418372208E+03  0.00000000000E+00 0.  1.
        -11    1    5    5    0    0 -0.23608054449E+02 -0.22992262433E+02  0.36572940208E+02  0.49229709750E+02  0.00000000000E+00 0. -1.
          5    1    6    6  503    0  0.16542018252E+02  0.19731659866E+02  0.96547017315E+01  0.27897670771E+02  0.47000000000E+01 0. -1.
         -5    1    6    6    0  503  0.18679302459E+03  0.72911986025E+03  0.60174675372E+03  0.96365380208E+03  0.47000000000E+01 0.  1.
<mgrwt>
<rscale>  0 0.90502290E+03</rscale>
<asrwt>0</asrwt>
<pdfrwt beam="1">  1        1 0.24082502E+00 0.90502290E+03</pdfrwt>
<pdfrwt beam="2">  1       -1 0.87256813E-01 0.90502290E+03</pdfrwt>
<totfact> 0.77600261E+00</totfact>
</mgrwt>
</event>
<event>
12    1  0.3166324E-008  0.5048907E+03  0.7818608E-02  0.1012510E+00
         -1   -1    0    0    0  501 -0.00000000000E+00  0.00000000000E+00  0.58533175280E+03  0.58533175280E+03  0.00000000000E+00 0.  1.
          1   -1    0    0  501    0  0.00000000000E+00 -0.00000000000E+00 -0.67954258001E+03  0.67954258001E+03  0.00000000000E+00 0. -1.
         23    2    1    2    0    0  0.35739961058E+03 -0.31831942546E+03 -0.99819441679E+02  0.49729028522E+03  0.90950363228E+02 0.  0.
    5000000    2    1    2    0    0 -0.35739961058E+03  0.31831942546E+03  0.56086144668E+01  0.76758404758E+03  0.60007672449E+03 0.  0.
         23    2    4    4    0    0 -0.26891076912E+03  0.34182123716E+03 -0.22892972153E+03  0.49990666244E+03  0.91340537663E+02 0.  0.
         23    2    4    4    0    0 -0.88488841460E+02 -0.23501811702E+02  0.23453833600E+03  0.26767738515E+03  0.90886419499E+02 0.  0.
          4    1    3    3  502    0  0.24599563563E+03 -0.23852607924E+03 -0.31282539072E+02  0.34407432406E+03  0.00000000000E+00 0. -1.
         -4    1    3    3    0  502  0.11140397495E+03 -0.79793346216E+02 -0.68536902607E+02  0.15321596116E+03  0.00000000000E+00 0.  1.
         13    1    5    5    0    0 -0.11484438574E+03  0.10654534914E+03 -0.12379623493E+03  0.19966635206E+03  0.00000000000E+00 0. -1.
        -13    1    5    5    0    0 -0.15406638338E+03  0.23527588802E+03 -0.10513348660E+03  0.30024031038E+03  0.00000000000E+00 0.  1.
          5    1    6    6  503    0 -0.40900451881E+02 -0.13775197920E+02  0.20728788951E+03  0.21178517932E+03  0.47000000000E+01 0. -1.
         -5    1    6    6    0  503 -0.47588389580E+02 -0.97266137822E+01  0.27250446490E+02  0.55892205829E+02  0.47000000000E+01 0.  1.
<mgrwt>
<rscale>  0 0.50489067E+03</rscale>
<asrwt>0</asrwt>
<pdfrwt beam="1">  1        1 0.10454501E+00 0.50489067E+03</pdfrwt>
<pdfrwt beam="2">  1       -1 0.90051039E-01 0.50489067E+03</pdfrwt>
<totfact> 0.36247380E+01</totfact>
</mgrwt>
</event>
<event>
12    1  0.3485651E-008  0.1551884E+04  0.7818608E-02  0.8850665E-01
          1   -1    0    0  501    0  0.00000000000E+00  0.00000000000E+00  0.15143750790E+04  0.15143750790E+04  0.00000000000E+00 0.  1.
         -1   -1    0    0    0  501 -0.00000000000E+00 -0.00000000000E+00 -0.17455313031E+04  0.17455313031E+04  0.00000000000E+00 0. -1.
         23    2    1    2    0    0  0.13649065747E+04 -0.70482732818E+03 -0.43214527827E+03  0.15984489562E+04  0.92401318337E+02 0.  0.
    5000000    2    1    2    0    0 -0.13649065747E+04  0.70482732818E+03  0.20098905417E+03  0.16614574259E+04  0.60024383210E+03 0.  0.
         23    2    4    4    0    0 -0.10798965316E+04  0.68555579519E+03 -0.29610955230E+02  0.12826566895E+04  0.90377581124E+02 0.  0.
         23    2    4    4    0    0 -0.28501004316E+03  0.19271532993E+02  0.23060000940E+03  0.37880073645E+03  0.93335507251E+02 0.  0.
          1    1    3    3  502    0  0.64117438097E+03 -0.36851594033E+03 -0.24113349418E+03  0.77785213705E+03  0.00000000000E+00 0. -1.
         -1    1    3    3    0  502  0.72373219376E+03 -0.33631138784E+03 -0.19101178409E+03  0.82059681912E+03  0.00000000000E+00 0.  1.
         11    1    5    5    0    0 -0.62003066098E+03  0.36398139534E+03  0.20601733695E+02  0.71926692413E+03  0.00000000000E+00 0.  1.
        -11    1    5    5    0    0 -0.45986587059E+03  0.32157439984E+03 -0.50212688925E+02  0.56338976535E+03  0.00000000000E+00 0. -1.
          5    1    6    6  503    0 -0.33589142450E+02  0.35918231384E+01  0.75729892638E+02  0.83055633902E+02  0.47000000000E+01 0. -1.
         -5    1    6    6    0  503 -0.25142090071E+03  0.15679709854E+02  0.15487011676E+03  0.29574510255E+03  0.47000000000E+01 0.  1.
<mgrwt>
<rscale>  0 0.15518838E+04</rscale>
<asrwt>0</asrwt>
<pdfrwt beam="1">  1        1 0.23298078E+00 0.15518838E+04</pdfrwt>
<pdfrwt beam="2">  1       -1 0.26854328E+00 0.15518838E+04</pdfrwt>
<totfact> 0.31736317E-01</totfact>
</mgrwt>
</event>
<event>
12    1  0.3166324E-008  0.1639176E+04  0.7818608E-02  0.8796836E-01
         -1   -1    0    0    0  501 -0.00000000000E+00  0.00000000000E+00  0.12035588072E+04  0.12035588072E+04  0.00000000000E+00 0.  1.
          1   -1    0    0  501    0  0.00000000000E+00 -0.00000000000E+00 -0.24236316363E+04  0.24236316363E+04  0.00000000000E+00 0. -1.
         23    2    1    2    0    0  0.15303227034E+04 -0.43849823527E+03 -0.11959488261E+03  0.16011668375E+04  0.12354767000E+03 0.  0.
    5000000    2    1    2    0    0 -0.15303227034E+04  0.43849823527E+03 -0.11004779465E+04  0.20260236059E+04  0.59962626888E+03 0.  0.
         23    2    4    4    0    0 -0.65742914585E+03  0.47003582740E+03 -0.63735745232E+03  0.10332896323E+04  0.91193099240E+02 0.  0.
         23    2    4    4    0    0 -0.87289355751E+03 -0.31537592131E+02 -0.46312049418E+03  0.99273397364E+03  0.90013153571E+02 0.  0.
          1    1    3    3  502    0  0.31193108324E+03 -0.13231549915E+03 -0.54666828899E+02  0.34321546321E+03  0.00000000000E+00 0. -1.
         -1    1    3    3    0  502  0.12183916201E+04 -0.30618273612E+03 -0.64928053715E+02  0.12579513743E+04  0.00000000000E+00 0.  1.
         13    1    5    5    0    0 -0.18810154958E+03  0.13493038598E+03 -0.13182321606E+03  0.26639399825E+03  0.00000000000E+00 0.  1.
        -13    1    5    5    0    0 -0.46932759627E+03  0.33510544141E+03 -0.50553423626E+03  0.76689563405E+03  0.00000000000E+00 0. -1.
          5    1    6    6  503    0 -0.53789416081E+03 -0.44770528693E+02 -0.32530412408E+03  0.63022170037E+03  0.47000000000E+01 0. -1.
         -5    1    6    6    0  503 -0.33499939670E+03  0.13232936563E+02 -0.13781637011E+03  0.36251227327E+03  0.47000000000E+01 0.  1.
<mgrwt>
<rscale>  0 0.16391760E+04</rscale>
<asrwt>0</asrwt>
<pdfrwt beam="1">  1        1 0.37286640E+00 0.16391760E+04</pdfrwt>
<pdfrwt beam="2">  1       -1 0.18516290E+00 0.16391760E+04</pdfrwt>
<totfact> 0.27254809E-01</totfact>
</mgrwt>
</event>
<event>
12    1  0.3166324E-008  0.7677775E+03  0.7818608E-02  0.9607866E-01
          2   -1    0    0  501    0  0.00000000000E+00  0.00000000000E+00  0.77671480902E+03  0.77671480902E+03  0.00000000000E+00 0. -1.
         -2   -1    0    0    0  501 -0.00000000000E+00 -0.00000000000E+00 -0.82162836695E+03  0.82162836695E+03  0.00000000000E+00 0.  1.
         23    2    1    2    0    0 -0.32491964834E+03 -0.56856904268E+03  0.17397162416E+03  0.68352799426E+03  0.90004770769E+02 0.  0.
    5000000    2    1    2    0    0  0.32491964834E+03  0.56856904268E+03 -0.21888518209E+03  0.91481518171E+03  0.60011045615E+03 0.  0.
         23    2    4    4    0    0 -0.34164402166E+02 -0.87060103245E+02 -0.23004170427E+00  0.13054916035E+03  0.91084369656E+02 0.  0.
         23    2    4    4    0    0  0.35908405050E+03  0.65562914592E+03 -0.21865514038E+03  0.78426602136E+03  0.92044497603E+02 0.  0.
          2    1    3    3  502    0 -0.10959941569E+03 -0.24368960701E+03  0.10812499923E+03  0.28824932253E+03  0.00000000000E+00 0.  1.
         -2    1    3    3    0  502 -0.21532023265E+03 -0.32487943567E+03  0.65846624927E+02  0.39527867173E+03  0.00000000000E+00 0. -1.
         13    1    5    5    0    0 -0.55862328759E+02 -0.18833389981E+02 -0.57469879219E+00  0.58954445390E+02  0.00000000000E+00 0. -1.
        -13    1    5    5    0    0  0.21697926592E+02 -0.68226713264E+02  0.34465708792E+00  0.71594714957E+02  0.00000000000E+00 0.  1.
          5    1    6    6  503    0  0.23009589607E+03  0.44583633987E+03 -0.10322493124E+03  0.51224177863E+03  0.47000000000E+01 0. -1.
         -5    1    6    6    0  503  0.12898815443E+03  0.20979280605E+03 -0.11543020914E+03  0.27202424273E+03  0.47000000000E+01 0.  1.
<mgrwt>
<rscale>  0 0.76777747E+03</rscale>
<asrwt>0</asrwt>
<pdfrwt beam="1">  1        2 0.11949459E+00 0.76777747E+03</pdfrwt>
<pdfrwt beam="2">  1       -2 0.12640436E+00 0.76777747E+03</pdfrwt>
<totfact> 0.16915176E+01</totfact>
</mgrwt>
</event>
<event>
12    1  0.3166324E-008  0.6694989E+03  0.7818608E-02  0.9770864E-01
         -4   -1    0    0    0  501 -0.00000000000E+00  0.00000000000E+00  0.46940188131E+03  0.46940188131E+03  0.00000000000E+00 0.  1.
          4   -1    0    0  501    0  0.00000000000E+00 -0.00000000000E+00 -0.10165404248E+04  0.10165404248E+04  0.00000000000E+00 0. -1.
         23    2    1    2    0    0 -0.44771642169E+03 -0.32224681177E+03 -0.15040262945E+03  0.57907011260E+03  0.91696468944E+02 0.  0.
    5000000    2    1    2    0    0  0.44771642169E+03  0.32224681177E+03 -0.39673591401E+03  0.90687219349E+03  0.60060368623E+03 0.  0.
         23    2    4    4    0    0 -0.50418579553E+02  0.26905907497E+03 -0.23697376547E+03  0.37307705141E+03  0.89972783545E+02 0.  0.
         23    2    4    4    0    0  0.49813500124E+03  0.53187736799E+02 -0.15976214855E+03  0.53379514208E+03  0.91901549471E+02 0.  0.
          3    1    3    3  502    0 -0.13316437649E+03 -0.14180968443E+03 -0.76213768729E+02  0.20892887859E+03  0.00000000000E+00 0. -1.
         -3    1    3    3    0  502 -0.31455204519E+03 -0.18043712734E+03 -0.74188860719E+02  0.37014123401E+03  0.00000000000E+00 0.  1.
         13    1    5    5    0    0 -0.41778544212E+02  0.14046701695E+03 -0.18013644502E+03  0.23221879431E+03  0.00000000000E+00 0.  1.
        -13    1    5    5    0    0 -0.86400353415E+01  0.12859205802E+03 -0.56837320448E+02  0.14085825709E+03  0.00000000000E+00 0. -1.
          5    1    6    6  503    0  0.43752326300E+03  0.70506480719E+02 -0.12012701893E+03  0.45918445114E+03  0.47000000000E+01 0. -1.
         -5    1    6    6    0  503  0.60611738238E+02 -0.17318743920E+02 -0.39635129613E+02  0.74610690941E+02  0.47000000000E+01 0.  1.
<mgrwt>
<rscale>  0 0.66949888E+03</rscale>
<asrwt>0</asrwt>
<pdfrwt beam="1">  1        4 0.15639084E+00 0.66949888E+03</pdfrwt>
<pdfrwt beam="2">  1       -4 0.72215674E-01 0.66949888E+03</pdfrwt>
<totfact> 0.91290853E-01</totfact>
</mgrwt>
</event>
<event>
12    1  0.3166324E-008  0.9857682E+03  0.7818608E-02  0.9324293E-01
         -2   -1    0    0    0  501 -0.00000000000E+00  0.00000000000E+00  0.11054925689E+04  0.11054925689E+04  0.00000000000E+00 0.  1.
          2   -1    0    0  501    0  0.00000000000E+00 -0.00000000000E+00 -0.19431288404E+04  0.19431288404E+04  0.00000000000E+00 0. -1.
         23    2    1    2    0    0  0.41555091762E+03  0.79830218957E+03 -0.15206360227E+04  0.17693414041E+04  0.90918312789E+02 0.  0.
    5000000    2    1    2    0    0 -0.41555091762E+03 -0.79830218957E+03  0.68299975117E+03  0.12792800052E+04  0.60008309482E+03 0.  0.
         23    2    4    4    0    0  0.11123340560E+03 -0.56149907630E+02  0.17191974846E+03  0.23130023256E+03  0.91748106369E+02 0.  0.
         23    2    4    4    0    0 -0.52678432323E+03 -0.74215228194E+03  0.51108000271E+03  0.10479797727E+04  0.93632803976E+02 0.  0.
          1    1    3    3  502    0  0.10557022379E+03  0.29126999479E+03 -0.49423963894E+03  0.58331475442E+03  0.00000000000E+00 0. -1.
         -1    1    3    3    0  502  0.30998069383E+03  0.50703219478E+03 -0.10263963838E+04  0.11860266497E+04  0.00000000000E+00 0.  1.
         11    1    5    5    0    0  0.68918139976E+02  0.14278720044E+02  0.98847425623E+02  0.12134416103E+03  0.00000000000E+00 0. -1.
        -11    1    5    5    0    0  0.42315265629E+02 -0.70428627675E+02  0.73072322837E+02  0.10995607153E+03  0.00000000000E+00 0.  1.
          5    1    6    6  503    0 -0.22748300534E+03 -0.24319190522E+03  0.18840610219E+03  0.38263529610E+03  0.47000000000E+01 0. -1.
         -5    1    6    6    0  503 -0.29930131789E+03 -0.49896037672E+03  0.32267390052E+03  0.66534447657E+03  0.47000000000E+01 0.  1.
<mgrwt>
<rscale>  0 0.98576824E+03</rscale>
<asrwt>0</asrwt>
<pdfrwt beam="1">  1        2 0.29894290E+00 0.98576824E+03</pdfrwt>
<pdfrwt beam="2">  1       -2 0.17007578E+00 0.98576824E+03</pdfrwt>
<totfact> 0.15279724E+00</totfact>
</mgrwt>
</event>
<event>
12    1  0.3166324E-008  0.2168526E+04  0.7818608E-02  0.8531643E-01
          1   -1    0    0  501    0  0.00000000000E+00  0.00000000000E+00  0.31756808893E+04  0.31756808893E+04  0.00000000000E+00 0. -1.
         -1   -1    0    0    0  501 -0.00000000000E+00 -0.00000000000E+00 -0.15350154647E+04  0.15350154647E+04  0.00000000000E+00 0.  1.
         23    2    1    2    0    0 -0.27110262084E+03  0.21330871432E+04  0.52666443370E+03  0.22157908396E+04  0.93788206563E+02 0.  0.
    5000000    2    1    2    0    0  0.27110262084E+03 -0.21330871432E+04  0.11140009909E+04  0.24949055144E+04  0.59999827237E+03 0.  0.
         23    2    4    4    0    0 -0.53693894687E+02 -0.10419040216E+04  0.28909110854E+03  0.10864007367E+04  0.90806756966E+02 0.  0.
         23    2    4    4    0    0  0.32479651553E+03 -0.10911831216E+04  0.82490988233E+03  0.14085047777E+04  0.85064761238E+02 0.  0.
          1    1    3    3  502    0 -0.17407764099E+03  0.11824375795E+04  0.25125952438E+03  0.12213079068E+04  0.00000000000E+00 0. -1.
         -1    1    3    3    0  502 -0.97024979857E+02  0.95064956366E+03  0.27540490932E+03  0.99448293283E+03  0.00000000000E+00 0.  1.
         11    1    5    5    0    0  0.48071093449E+01 -0.70780885186E+03  0.18481935317E+03  0.73155633575E+03  0.00000000000E+00 0.  1.
        -11    1    5    5    0    0 -0.58501004032E+02 -0.33409516974E+03  0.10427175536E+03  0.35484440095E+03  0.00000000000E+00 0. -1.
          5    1    6    6  503    0  0.63000015559E+02 -0.16119100751E+03  0.15932997538E+03  0.23528636576E+03  0.47000000000E+01 0. -1.
         -5    1    6    6    0  503  0.26179649997E+03 -0.92999211409E+03  0.66557990696E+03  0.11732184120E+04  0.47000000000E+01 0.  1.
<mgrwt>
<rscale>  0 0.21685263E+04</rscale>
<asrwt>0</asrwt>
<pdfrwt beam="1">  1        1 0.48856629E+00 0.21685263E+04</pdfrwt>
<pdfrwt beam="2">  1       -1 0.23615623E+00 0.21685263E+04</pdfrwt>
<totfact> 0.33339886E-02</totfact>
</mgrwt>
</event>
<event>
12    1  0.3166324E-008  0.3330704E+03  0.7818608E-02  0.1069786E+00
         -1   -1    0    0    0  501 -0.00000000000E+00  0.00000000000E+00  0.28449127699E+03  0.28449127699E+03  0.00000000000E+00 0.  1.
          1   -1    0    0  501    0  0.00000000000E+00 -0.00000000000E+00 -0.70247321971E+03  0.70247321971E+03  0.00000000000E+00 0. -1.
         23    2    1    2    0    0 -0.55592995751E+02 -0.18455183344E+03 -0.26214979782E+03  0.33772114608E+03  0.90460464365E+02 0.  0.
    5000000    2    1    2    0    0  0.55592995751E+02  0.18455183344E+03 -0.15583214490E+03  0.64924335062E+03  0.60006942143E+03 0.  0.
         23    2    4    4    0    0 -0.60549431467E+02  0.28129405202E+03  0.11830668778E+03  0.32430522313E+03  0.91568706577E+02 0.  0.
         23    2    4    4    0    0  0.11614242722E+03 -0.96742218577E+02 -0.27413883268E+03  0.32493812749E+03  0.87089418738E+02 0.  0.
          4    1    3    3  502    0 -0.36541787528E+02 -0.26072464805E+02 -0.10280718482E+03  0.11218018055E+03  0.00000000000E+00 0. -1.
         -4    1    3    3    0  502 -0.19051208222E+02 -0.15847936864E+03 -0.15934261299E+03  0.22554096553E+03  0.00000000000E+00 0.  1.
         11    1    5    5    0    0 -0.75903755903E+02  0.13543129912E+03  0.58337435465E+02  0.16585015321E+03  0.00000000000E+00 0. -1.
        -11    1    5    5    0    0  0.15354324436E+02  0.14586275289E+03  0.59969252317E+02  0.15845506992E+03  0.00000000000E+00 0.  1.
          5    1    6    6  503    0  0.46636700562E+02 -0.71740407601E+02 -0.21068490250E+03  0.22744644658E+03  0.47000000000E+01 0. -1.
         -5    1    6    6    0  503  0.69505726656E+02 -0.25001810976E+02 -0.63453930180E+02  0.97491680903E+02  0.47000000000E+01 0.  1.
<mgrwt>
<rscale>  0 0.33307043E+03</rscale>
<asrwt>0</asrwt>
<pdfrwt beam="1">  1        1 0.10807280E+00 0.33307043E+03</pdfrwt>
<pdfrwt beam="2">  1       -1 0.43767890E-01 0.33307043E+03</pdfrwt>
<totfact> 0.14750681E+02</totfact>
</mgrwt>
</event>
<event>
12    1  0.3166324E-008  0.6370177E+03  0.7818608E-02  0.9831449E-01
          1   -1    0    0  501    0  0.00000000000E+00  0.00000000000E+00  0.10169322470E+04  0.10169322470E+04  0.00000000000E+00 0. -1.
         -1   -1    0    0    0  501 -0.00000000000E+00 -0.00000000000E+00 -0.47034358411E+03  0.47034358411E+03  0.00000000000E+00 0.  1.
         23    2    1    2    0    0  0.27518749982E+03  0.44033775738E+03  0.44073953514E+03  0.68706340358E+03  0.90439383406E+02 0.  0.
    5000000    2    1    2    0    0 -0.27518749982E+03 -0.44033775738E+03  0.10584912773E+03  0.80021242751E+03  0.59959185340E+03 0.  0.
         23    2    4    4    0    0 -0.26190956776E+03 -0.55205083260E+03  0.56384388969E+01  0.61801808982E+03  0.92508507158E+02 0.  0.
         23    2    4    4    0    0 -0.13277932054E+02  0.11171307522E+03  0.10021068884E+03  0.18219433769E+03  0.10245232976E+03 0.  0.
          3    1    3    3  502    0  0.13734484504E+03  0.29671370522E+03  0.25277756530E+03  0.41327851002E+03  0.00000000000E+00 0. -1.
         -3    1    3    3    0  502  0.13784265478E+03  0.14362405216E+03  0.18796196984E+03  0.27378489356E+03  0.00000000000E+00 0.  1.
         13    1    5    5    0    0 -0.58222505395E+02 -0.22620242056E+03  0.86075380960E+01  0.23373379070E+03  0.00000000000E+00 0. -1.
        -13    1    5    5    0    0 -0.20368706237E+03 -0.32584841204E+03 -0.29690991991E+01  0.38428429912E+03  0.00000000000E+00 0.  1.
          5    1    6    6  503    0  0.23959683501E+02  0.21823905442E+02  0.74602981562E+02  0.81474193093E+02  0.47000000000E+01 0. -1.
         -5    1    6    6    0  503 -0.37237615555E+02  0.89889169774E+02  0.25607707276E+02  0.10072014459E+03  0.47000000000E+01 0.  1.
<mgrwt>
<rscale>  0 0.63701765E+03</rscale>
<asrwt>0</asrwt>
<pdfrwt beam="1">  1        1 0.15645112E+00 0.63701765E+03</pdfrwt>
<pdfrwt beam="2">  1       -1 0.72360551E-01 0.63701765E+03</pdfrwt>
<totfact> 0.29453576E+01</totfact>
</mgrwt>
</event>
<event>
12    1  0.3232342E-008  0.1509687E+04  0.7818608E-02  0.8878037E-01
          2   -1    0    0  501    0  0.00000000000E+00  0.00000000000E+00  0.22801045781E+04  0.22801045781E+04  0.00000000000E+00 0. -1.
         -2   -1    0    0    0  501 -0.00000000000E+00 -0.00000000000E+00 -0.17843329245E+04  0.17843329245E+04  0.00000000000E+00 0.  1.
         23    2    1    2    0    0 -0.13179978445E+04  0.68532546679E+03 -0.10629590989E+04  0.18288361045E+04  0.89275627310E+02 0.  0.
    5000000    2    1    2    0    0  0.13179978445E+04 -0.68532546679E+03  0.15587307524E+04  0.22356013981E+04  0.60123434615E+03 0.  0.
         23    2    4    4    0    0  0.72917290387E+03 -0.56761729923E+03  0.12422347584E+04  0.15508300245E+04  0.89688616306E+02 0.  0.
         23    2    4    4    0    0  0.58882494063E+03 -0.11770816756E+03  0.31649599405E+03  0.68477137356E+03  0.90399648117E+02 0.  0.
          4    1    3    3  502    0 -0.10280614858E+04  0.49203765812E+03 -0.81636094962E+03  0.14019474582E+04  0.00000000000E+00 0. -1.
         -4    1    3    3    0  502 -0.28993635873E+03  0.19328780867E+03 -0.24659814929E+03  0.42688864628E+03  0.00000000000E+00 0.  1.
         11    1    5    5    0    0  0.16533222285E+03 -0.14013460825E+03  0.35595023782E+03  0.41674095569E+03  0.00000000000E+00 0. -1.
        -11    1    5    5    0    0  0.56384068102E+03 -0.42748269097E+03  0.88628452058E+03  0.11340890688E+04  0.00000000000E+00 0.  1.
          5    1    6    6  503    0  0.29638711677E+03 -0.14710811262E+02  0.16674817300E+03  0.34042440300E+03  0.47000000000E+01 0. -1.
         -5    1    6    6    0  503  0.29243782386E+03 -0.10299735630E+03  0.14974782105E+03  0.34434697056E+03  0.47000000000E+01 0.  1.
<mgrwt>
<rscale>  0 0.15096869E+04</rscale>
<asrwt>0</asrwt>
<pdfrwt beam="1">  1        2 0.35078532E+00 0.15096869E+04</pdfrwt>
<pdfrwt beam="2">  1       -2 0.27451276E+00 0.15096869E+04</pdfrwt>
<totfact> 0.19815672E-01</totfact>
</mgrwt>
</event>
<event>
12    1  0.3166324E-008  0.8580876E+03  0.7818608E-02  0.9479546E-01
          1   -1    0    0  501    0  0.00000000000E+00  0.00000000000E+00  0.25687449798E+04  0.25687449798E+04  0.00000000000E+00 0. -1.
         -1   -1    0    0    0  501 -0.00000000000E+00 -0.00000000000E+00 -0.32926048704E+03  0.32926048704E+03  0.00000000000E+00 0.  1.
         23    2    1    2    0    0 -0.49237128083E+03 -0.60703958458E+03  0.61809257615E+03  0.10006565271E+04  0.91370219712E+02 0.  0.
    5000000    2    1    2    0    0  0.49237128083E+03  0.60703958458E+03  0.16213919167E+04  0.18973489398E+04  0.60007892528E+03 0.  0.
         23    2    4    4    0    0  0.58599483045E+03  0.55744756832E+03  0.15180004303E+04  0.17224323337E+04  0.91159777396E+02 0.  0.
         23    2    4    4    0    0 -0.93623549617E+02  0.49592016259E+02  0.10339148636E+03  0.17491660612E+03  0.93173400312E+02 0.  0.
          1    1    3    3  502    0 -0.41480724060E+03 -0.49972269120E+03  0.46801713900E+03  0.80051724363E+03  0.00000000000E+00 0. -1.
         -1    1    3    3    0  502 -0.77564040236E+02 -0.10731689338E+03  0.15007543714E+03  0.20013928344E+03  0.00000000000E+00 0.  1.
         13    1    5    5    0    0  0.18751051720E+03  0.20487540199E+03  0.60513055639E+03  0.66582063251E+03  0.00000000000E+00 0. -1.
        -13    1    5    5    0    0  0.39848431325E+03  0.35257216633E+03  0.91286987390E+03  0.10566117012E+04  0.00000000000E+00 0.  1.
          5    1    6    6  503    0 -0.59535358241E+02 -0.50541103248E+01  0.91303306474E+02  0.10921715380E+03  0.47000000000E+01 0. -1.
         -5    1    6    6    0  503 -0.34088191376E+02  0.54646126584E+02  0.12088179888E+02  0.65699452318E+02  0.47000000000E+01 0.  1.
<mgrwt>
<rscale>  0 0.85808761E+03</rscale>
<asrwt>0</asrwt>
<pdfrwt beam="1">  1        1 0.39519152E+00 0.85808761E+03</pdfrwt>
<pdfrwt beam="2">  1       -1 0.50655461E-01 0.85808761E+03</pdfrwt>
<totfact> 0.49441919E+00</totfact>
</mgrwt>
</event>
<event>
12    1  0.3166324E-008  0.1541694E+04  0.7818608E-02  0.8857190E-01
          2   -1    0    0  501    0  0.00000000000E+00  0.00000000000E+00  0.24105824770E+04  0.24105824770E+04  0.00000000000E+00 0. -1.
         -2   -1    0    0    0  501 -0.00000000000E+00 -0.00000000000E+00 -0.12513218053E+04  0.12513218053E+04  0.00000000000E+00 0.  1.
         23    2    1    2    0    0  0.11574278485E+04  0.93730310320E+03 -0.26463051543E+03  0.15154866615E+04  0.92163873208E+02 0.  0.
    5000000    2    1    2    0    0 -0.11574278485E+04 -0.93730310320E+03  0.14238911872E+04  0.21464176208E+04  0.60122055706E+03 0.  0.
         23    2    4    4    0    0 -0.10244171668E+04 -0.99733475105E+03  0.12369466604E+04  0.18925437901E+04  0.87050672128E+02 0.  0.
         23    2    4    4    0    0 -0.13301068174E+03  0.60031647844E+02  0.18694452679E+03  0.25387383073E+03  0.90598154686E+02 0.  0.
          4    1    3    3  502    0  0.79165295322E+03  0.65326540147E+03 -0.22443068806E+03  0.10506375288E+04  0.00000000000E+00 0.  1.
         -4    1    3    3    0  502  0.36577489533E+03  0.28403770173E+03 -0.40199827370E+02  0.46484913270E+03  0.00000000000E+00 0. -1.
         11    1    5    5    0    0 -0.64724505004E+03 -0.60364194369E+03  0.81491264475E+03  0.12030762110E+04  0.00000000000E+00 0.  1.
        -11    1    5    5    0    0 -0.37717211677E+03 -0.39369280736E+03  0.42203401564E+03  0.68946757907E+03  0.00000000000E+00 0. -1.
          5    1    6    6  503    0 -0.12986587163E+03  0.30384470110E+02  0.17784648429E+03  0.22235067487E+03  0.47000000000E+01 0.  1.
         -5    1    6    6    0  503 -0.31448101044E+01  0.29647177734E+02  0.90980424998E+01  0.31523155862E+02  0.47000000000E+01 0. -1.
<mgrwt>
<rscale>  0 0.15416945E+04</rscale>
<asrwt>0</asrwt>
<pdfrwt beam="1">  1        2 0.37085884E+00 0.15416945E+04</pdfrwt>
<pdfrwt beam="2">  1       -2 0.19251105E+00 0.15416945E+04</pdfrwt>
<totfact> 0.54702397E-01</totfact>
</mgrwt>
</event>
<event>
12    1  0.4489224E-008  0.6590069E+03  0.7818608E-02  0.9790024E-01
          2   -1    0    0  501    0  0.00000000000E+00  0.00000000000E+00  0.18035211006E+04  0.18035211006E+04  0.00000000000E+00 0. -1.
         -2   -1    0    0    0  501 -0.00000000000E+00 -0.00000000000E+00 -0.34038633478E+03  0.34038633478E+03  0.00000000000E+00 0.  1.
         23    2    1    2    0    0  0.43951648515E+03  0.46455435008E+03  0.37661671622E+03  0.74768441060E+03  0.90588862515E+02 0.  0.
    5000000    2    1    2    0    0 -0.43951648515E+03 -0.46455435008E+03  0.10865180496E+04  0.13962230248E+04  0.59994314559E+03 0.  0.
         23    2    4    4    0    0 -0.23041661788E+03 -0.12140652202E+03  0.49218175069E+02  0.27987602220E+03  0.89871005680E+02 0.  0.
         23    2    4    4    0    0 -0.20909986728E+03 -0.34314782806E+03  0.10372998746E+04  0.11163470026E+04  0.93629130495E+02 0.  0.
          3    1    3    3  502    0  0.32553328545E+03  0.28277009126E+03  0.24404289522E+03  0.49546723318E+03  0.00000000000E+00 0. -1.
         -3    1    3    3    0  502  0.11398319970E+03  0.18178425882E+03  0.13257382100E+03  0.25221717741E+03  0.00000000000E+00 0.  1.
         13    1    5    5    0    0 -0.16663101958E+03 -0.65037964216E+02  0.70280761027E+02  0.19218537625E+03  0.00000000000E+00 0.  1.
        -13    1    5    5    0    0 -0.63785598301E+02 -0.56368557801E+02 -0.21062585959E+02  0.87690645946E+02  0.00000000000E+00 0. -1.
          5    1    6    6  503    0 -0.13615841309E+03 -0.15475527192E+03  0.44296353669E+03  0.48859706556E+03  0.47000000000E+01 0. -1.
         -5    1    6    6    0  503 -0.72941454191E+02 -0.18839255614E+03  0.59433633787E+03  0.62774993705E+03  0.47000000000E+01 0.  1.
<mgrwt>
<rscale>  0 0.65900688E+03</rscale>
<asrwt>0</asrwt>
<pdfrwt beam="1">  1        2 0.27746478E+00 0.65900688E+03</pdfrwt>
<pdfrwt beam="2">  1       -2 0.52367129E-01 0.65900688E+03</pdfrwt>
<totfact> 0.30779126E+01</totfact>
</mgrwt>
</event>
<event>
12    1  0.3166324E-008  0.5028266E+03  0.7818608E-02  0.1013044E+00
          2   -1    0    0  501    0  0.00000000000E+00  0.00000000000E+00  0.55896285031E+03  0.55896285031E+03  0.00000000000E+00 0. -1.
         -2   -1    0    0    0  501 -0.00000000000E+00 -0.00000000000E+00 -0.69015284752E+03  0.69015284752E+03  0.00000000000E+00 0.  1.
         23    2    1    2    0    0  0.84355344701E+02 -0.46341880133E+03 -0.55471132041E+02  0.48259988716E+03  0.89178444693E+02 0.  0.
    5000000    2    1    2    0    0 -0.84355344701E+02  0.46341880133E+03 -0.75718865168E+02  0.76651581066E+03  0.59995027448E+03 0.  0.
         23    2    4    4    0    0 -0.13482022200E+03  0.14679788391E+03  0.22719385892E+03  0.31527055431E+03  0.89734953619E+02 0.  0.
         23    2    4    4    0    0  0.50464877294E+02  0.31662091742E+03 -0.30291272409E+03  0.45124525636E+03  0.95239979950E+02 0.  0.
          4    1    3    3  502    0  0.91935636191E+02 -0.26172722026E+03 -0.38314501861E+02  0.28003803327E+03  0.00000000000E+00 0. -1.
         -4    1    3    3    0  502 -0.75802914897E+01 -0.20169158107E+03 -0.17156630180E+02  0.20256185389E+03  0.00000000000E+00 0.  1.
         11    1    5    5    0    0 -0.80026691462E+02  0.98744505329E+02  0.77731666370E+02  0.14898644447E+03  0.00000000000E+00 0.  1.
        -11    1    5    5    0    0 -0.54793530533E+02  0.48053378579E+02  0.14946219255E+03  0.16628410984E+03  0.00000000000E+00 0. -1.
          5    1    6    6  503    0  0.49331373942E+02  0.12101830797E+03 -0.17098718699E+03  0.21526198790E+03  0.47000000000E+01 0. -1.
         -5    1    6    6    0  503  0.11335033515E+01  0.19560260945E+03 -0.13192553710E+03  0.23598326846E+03  0.47000000000E+01 0.  1.
<mgrwt>
<rscale>  0 0.50282659E+03</rscale>
<asrwt>0</asrwt>
<pdfrwt beam="1">  1        2 0.85994285E-01 0.50282659E+03</pdfrwt>
<pdfrwt beam="2">  1       -2 0.10617736E+00 0.50282659E+03</pdfrwt>
<totfact> 0.39996493E+01</totfact>
</mgrwt>
</event>
<event>
12    1  0.3166324E-008  0.7791521E+03  0.7818608E-02  0.9590694E-01
          2   -1    0    0  501    0  0.00000000000E+00  0.00000000000E+00  0.18861218501E+04  0.18861218501E+04  0.00000000000E+00 0. -1.
         -2   -1    0    0    0  501 -0.00000000000E+00 -0.00000000000E+00 -0.36791944804E+03  0.36791944804E+03  0.00000000000E+00 0.  1.
         23    2    1    2    0    0 -0.64176860408E+03  0.28895548433E+03  0.44747542170E+03  0.83935981747E+03  0.94490407245E+02 0.  0.
    5000000    2    1    2    0    0  0.64176860408E+03 -0.28895548433E+03  0.10707269804E+04  0.14146814807E+04  0.59958753506E+03 0.  0.
         23    2    4    4    0    0  0.65811868614E+03 -0.13595352293E+03  0.10274946457E+04  0.12311501083E+04  0.91552044298E+02 0.  0.
         23    2    4    4    0    0 -0.16350082067E+02 -0.15300196140E+03  0.43232334683E+02  0.18353137238E+03  0.90209780564E+02 0.  0.
          3    1    3    3  502    0 -0.50399865360E+03  0.18628054232E+03  0.35773012480E+03  0.64551214200E+03  0.00000000000E+00 0. -1.
         -3    1    3    3    0  502 -0.13776995047E+03  0.10267494202E+03  0.89745296903E+02  0.19384767548E+03  0.00000000000E+00 0.  1.
         11    1    5    5    0    0  0.45734124930E+03 -0.99304936940E+02  0.78790790632E+03  0.91641767642E+03  0.00000000000E+00 0. -1.
        -11    1    5    5    0    0  0.20077743685E+03 -0.36648585992E+02  0.23958673938E+03  0.31473243190E+03  0.00000000000E+00 0.  1.
          5    1    6    6  503    0 -0.50090804301E+02 -0.61670160896E+02  0.84621600829E+01  0.80037463564E+02  0.47000000000E+01 0. -1.
         -5    1    6    6    0  503  0.33740722234E+02 -0.91331800506E+02  0.34770174600E+02  0.10349390882E+03  0.47000000000E+01 0.  1.
<mgrwt>
<rscale>  0 0.77915213E+03</rscale>
<asrwt>0</asrwt>
<pdfrwt beam="1">  1        2 0.29017259E+00 0.77915213E+03</pdfrwt>
<pdfrwt beam="2">  1       -2 0.56602993E-01 0.77915213E+03</pdfrwt>
<totfact> 0.23248872E+01</totfact>
</mgrwt>
</event>
<event>
12    1  0.3166324E-008  0.4003761E+03  0.7818608E-02  0.1043650E+00
          1   -1    0    0  501    0  0.00000000000E+00  0.00000000000E+00  0.22310362160E+04  0.22310362160E+04  0.00000000000E+00 0. -1.
         -1   -1    0    0    0  501 -0.00000000000E+00 -0.00000000000E+00 -0.13471427890E+03  0.13471427890E+03  0.00000000000E+00 0.  1.
         23    2    1    2    0    0 -0.35053433507E+03  0.10424134956E+03  0.54522773566E+03  0.66293256302E+03  0.92009349341E+02 0.  0.
    5000000    2    1    2    0    0  0.35053433507E+03 -0.10424134956E+03  0.15510942014E+04  0.17028179319E+04  0.59996258913E+03 0.  0.
         23    2    4    4    0    0  0.35549083947E+03 -0.11274817118E+03  0.42882561382E+03  0.57671064567E+03  0.98070763807E+02 0.  0.
         23    2    4    4    0    0 -0.49565043964E+01  0.85068216213E+01  0.11222685876E+04  0.11261072862E+04  0.92379133650E+02 0.  0.
          4    1    3    3  502    0 -0.29169591923E+03  0.92296389164E+02  0.50570730992E+03  0.59105415662E+03  0.00000000000E+00 0.  1.
         -4    1    3    3    0  502 -0.58838415837E+02  0.11944960393E+02  0.39520425742E+02  0.71878406409E+02  0.00000000000E+00 0. -1.
         13    1    5    5    0    0  0.15111812546E+03 -0.97605976554E+02  0.18211883598E+03  0.25599000942E+03  0.00000000000E+00 0. -1.
        -13    1    5    5    0    0  0.20437271400E+03 -0.15142194625E+02  0.24670677784E+03  0.32072063626E+03  0.00000000000E+00 0.  1.
          5    1    6    6  503    0  0.18616111538E+02 -0.79716889596E+01  0.10069069498E+04  0.10071215433E+04  0.47000000000E+01 0. -1.
         -5    1    6    6    0  503 -0.23572615934E+02  0.16478510581E+02  0.11536163784E+03  0.11898574292E+03  0.47000000000E+01 0.  1.
<mgrwt>
<rscale>  0 0.40037606E+03</rscale>
<asrwt>0</asrwt>
<pdfrwt beam="1">  1        1 0.34323631E+00 0.40037606E+03</pdfrwt>
<pdfrwt beam="2">  1       -1 0.20725275E-01 0.40037606E+03</pdfrwt>
<totfact> 0.44037474E+01</totfact>
</mgrwt>
</event>
<event>
12    1  0.3166324E-008  0.5518040E+03  0.7818608E-02  0.1001077E+00
         -1   -1    0    0    0  501 -0.00000000000E+00  0.00000000000E+00  0.89661709247E+03  0.89661709247E+03  0.00000000000E+00 0.  1.
          1   -1    0    0  501    0  0.00000000000E+00 -0.00000000000E+00 -0.64226348178E+03  0.64226348178E+03  0.00000000000E+00 0. -1.
         23    2    1    2    0    0  0.42173709136E+03 -0.34345457890E+03 -0.22747171690E+03  0.59700118685E+03  0.94041549931E+02 0.  0.
    5000000    2    1    2    0    0 -0.42173709136E+03  0.34345457890E+03  0.48182532759E+03  0.94187938740E+03  0.59929784924E+03 0.  0.
         23    2    4    4    0    0 -0.33231268059E+03  0.31510540548E+03  0.60536690992E+03  0.76430184380E+03  0.89247288820E+02 0.  0.
         23    2    4    4    0    0 -0.89424410770E+02  0.28349173421E+02 -0.12354158233E+03  0.17757754360E+03  0.86434139962E+02 0.  0.
          1    1    3    3  502    0  0.23914401009E+03 -0.14670931114E+03 -0.14723354516E+03  0.31684569802E+03  0.00000000000E+00 0.  1.
         -1    1    3    3    0  502  0.18259308127E+03 -0.19674526776E+03 -0.80238171744E+02  0.28015548883E+03  0.00000000000E+00 0. -1.
         13    1    5    5    0    0 -0.20943450459E+02  0.24878673909E+02  0.91094375447E+02  0.96725186848E+02  0.00000000000E+00 0. -1.
        -13    1    5    5    0    0 -0.31136923013E+03  0.29022673157E+03  0.51427253448E+03  0.66757665695E+03  0.00000000000E+00 0.  1.
          5    1    6    6  503    0 -0.57482467487E+02  0.28126441409E+02 -0.17185251523E+02  0.66428560459E+02  0.47000000000E+01 0. -1.
         -5    1    6    6    0  503 -0.31941943283E+02  0.22273201197E+00 -0.10635633081E+03  0.11114898314E+03  0.47000000000E+01 0.  1.
<mgrwt>
<rscale>  0 0.55180397E+03</rscale>
<asrwt>0</asrwt>
<pdfrwt beam="1">  1        1 0.98809766E-01 0.55180397E+03</pdfrwt>
<pdfrwt beam="2">  1       -1 0.13794109E+00 0.55180397E+03</pdfrwt>
<totfact> 0.14284975E+01</totfact>
</mgrwt>
</event>
<event>
12    1  0.3489546E-008  0.8442566E+03  0.7818608E-02  0.9498078E-01
          2   -1    0    0  501    0  0.00000000000E+00  0.00000000000E+00  0.22395531753E+04  0.22395531753E+04  0.00000000000E+00 0. -1.
         -2   -1    0    0    0  501 -0.00000000000E+00 -0.00000000000E+00 -0.81733203844E+03  0.81733203844E+03  0.00000000000E+00 0.  1.
         23    2    1    2    0    0  0.40836659175E+03  0.62662136001E+03 -0.50311708447E+03  0.90601221663E+03  0.91179679255E+02 0.  0.
    5000000    2    1    2    0    0 -0.40836659175E+03 -0.62662136001E+03  0.19253382213E+04  0.21508729971E+04  0.59992481289E+03 0.  0.
         23    2    4    4    0    0  0.13422746261E+03 -0.19529344914E+03  0.62564286866E+03  0.67509947160E+03  0.90408818419E+02 0.  0.
         23    2    4    4    0    0 -0.54259405436E+03 -0.43132791087E+03  0.12996953526E+04  0.14757735255E+04  0.90815275950E+02 0.  0.
          4    1    3    3  502    0  0.11822445023E+03  0.20121826880E+03 -0.20735839675E+03  0.31219115464E+03  0.00000000000E+00 0. -1.
         -4    1    3    3    0  502  0.29014214152E+03  0.42540309122E+03 -0.29575868771E+03  0.59382106199E+03  0.00000000000E+00 0.  1.
         11    1    5    5    0    0  0.37475138053E+02 -0.11565221902E+03  0.23099653638E+03  0.26103490486E+03  0.00000000000E+00 0. -1.
        -11    1    5    5    0    0  0.96752324555E+02 -0.79641230118E+02  0.39464633229E+03  0.41406456674E+03  0.00000000000E+00 0.  1.
          5    1    6    6  503    0 -0.20669767693E+03 -0.17186427468E+03  0.41430424832E+03  0.49389407643E+03  0.47000000000E+01 0. -1.
         -5    1    6    6    0  503 -0.33589637743E+03 -0.25946363619E+03  0.88539110431E+03  0.98187944905E+03  0.47000000000E+01 0.  1.
<mgrwt>
<rscale>  0 0.84425660E+03</rscale>
<asrwt>0</asrwt>
<pdfrwt beam="1">  1        2 0.34454664E+00 0.84425660E+03</pdfrwt>
<pdfrwt beam="2">  1       -2 0.12574339E+00 0.84425660E+03</pdfrwt>
<totfact> 0.23775068E+00</totfact>
</mgrwt>
</event>
<event>
12    1  0.3912178E-008  0.8377870E+03  0.7818608E-02  0.9506877E-01
         -1   -1    0    0    0  501 -0.00000000000E+00  0.00000000000E+00  0.52816282309E+03  0.52816282309E+03  0.00000000000E+00 0.  1.
          1   -1    0    0  501    0  0.00000000000E+00 -0.00000000000E+00 -0.15723372383E+04  0.15723372383E+04  0.00000000000E+00 0. -1.
         23    2    1    2    0    0  0.43869907599E+03 -0.60802227530E+03 -0.11460738856E+03  0.76399823078E+03  0.91708650615E+02 0.  0.
    5000000    2    1    2    0    0 -0.43869907599E+03  0.60802227530E+03 -0.92956702666E+03  0.13365018306E+04  0.59999526636E+03 0.  0.
         23    2    4    4    0    0  0.11258476068E+03  0.76685084248E+02 -0.29771294453E+03  0.33967910947E+03  0.90515024089E+02 0.  0.
         23    2    4    4    0    0 -0.55128383666E+03  0.53133719105E+03 -0.63185408213E+03  0.99682272115E+03  0.90459256755E+02 0.  0.
          2    1    3    3  502    0  0.22668453259E+03 -0.27781216758E+03 -0.95781084723E+02  0.37113271745E+03  0.00000000000E+00 0. -1.
         -2    1    3    3    0  502  0.21201454340E+03 -0.33021010772E+03 -0.18826303841E+02  0.39286551333E+03  0.00000000000E+00 0.  1.
         11    1    5    5    0    0  0.60984718043E+02  0.81500928309E+02 -0.13606640079E+03  0.16992822772E+03  0.00000000000E+00 0.  1.
        -11    1    5    5    0    0  0.51600042635E+02 -0.48158440601E+01 -0.16164654373E+03  0.16975088175E+03  0.00000000000E+00 0. -1.
          5    1    6    6  503    0 -0.30818627535E+03  0.23455897684E+03 -0.31717741587E+03  0.50061991278E+03  0.47000000000E+01 0. -1.
         -5    1    6    6    0  503 -0.24309756131E+03  0.29677821421E+03 -0.31467666626E+03  0.49620280837E+03  0.47000000000E+01 0.  1.
<mgrwt>
<rscale>  0 0.83778702E+03</rscale>
<asrwt>0</asrwt>
<pdfrwt beam="1">  1        1 0.24189803E+00 0.83778702E+03</pdfrwt>
<pdfrwt beam="2">  1       -1 0.81255820E-01 0.83778702E+03</pdfrwt>
<totfact> 0.90328830E+00</totfact>
</mgrwt>
</event>
<event>
12    1  0.3166324E-008  0.5408619E+03  0.7818608E-02  0.1003631E+00
          1   -1    0    0  501    0  0.00000000000E+00  0.00000000000E+00  0.51177890666E+03  0.51177890666E+03  0.00000000000E+00 0. -1.
         -1   -1    0    0    0  501 -0.00000000000E+00 -0.00000000000E+00 -0.72684086344E+03  0.72684086344E+03  0.00000000000E+00 0.  1.
         23    2    1    2    0    0 -0.44746683622E+03 -0.38679374471E+02 -0.16610731637E+03  0.48760597695E+03  0.91898230055E+02 0.  0.
    5000000    2    1    2    0    0  0.44746683622E+03  0.38679374471E+02 -0.48954640409E+02  0.75101379315E+03  0.59991874213E+03 0.  0.
         23    2    4    4    0    0  0.97694985309E+02  0.19592605538E+03  0.17741392767E+03  0.29695134985E+03  0.93664684445E+02 0.  0.
         23    2    4    4    0    0  0.34977185091E+03 -0.15724668091E+03 -0.22636856808E+03  0.45406244330E+03  0.88674164552E+02 0.  0.
          1    1    3    3  502    0 -0.20695884566E+03  0.26839469561E+02 -0.86776349932E+02  0.22601428236E+03  0.00000000000E+00 0. -1.
         -1    1    3    3    0  502 -0.24050799056E+03 -0.65518844032E+02 -0.79330966439E+02  0.26159169460E+03  0.00000000000E+00 0.  1.
         13    1    5    5    0    0  0.74734105236E+02  0.20109267850E+03  0.16184694268E+03  0.26873385474E+03  0.00000000000E+00 0. -1.
        -13    1    5    5    0    0  0.22960880073E+02 -0.51666231153E+01  0.15566984988E+02  0.28217495101E+02  0.00000000000E+00 0.  1.
          5    1    6    6  503    0  0.18454972013E+03 -0.10480632922E+03 -0.16922511499E+03  0.27148148260E+03  0.47000000000E+01 0. -1.
         -5    1    6    6    0  503  0.16522213077E+03 -0.52440351689E+02 -0.57143453081E+02  0.18258096071E+03  0.47000000000E+01 0.  1.
<mgrwt>
<rscale>  0 0.54086193E+03</rscale>
<asrwt>0</asrwt>
<pdfrwt beam="1">  1        1 0.78735217E-01 0.54086193E+03</pdfrwt>
<pdfrwt beam="2">  1       -1 0.11182167E+00 0.54086193E+03</pdfrwt>
<totfact> 0.33004614E+01</totfact>
</mgrwt>
</event>
<event>
12    1  0.3166324E-008  0.7119312E+03  0.7818608E-02  0.9697043E-01
         -2   -1    0    0    0  501 -0.00000000000E+00  0.00000000000E+00  0.58786086415E+03  0.58786086415E+03  0.00000000000E+00 0.  1.
          2   -1    0    0  501    0  0.00000000000E+00 -0.00000000000E+00 -0.11291852606E+04  0.11291852606E+04  0.00000000000E+00 0. -1.
         23    2    1    2    0    0  0.25756335958E+03 -0.61859583733E+03 -0.17942814027E+02  0.67655374284E+03  0.91669669042E+02 0.  0.
    5000000    2    1    2    0    0 -0.25756335958E+03  0.61859583733E+03 -0.52338158239E+03  0.10404923819E+04  0.59974696480E+03 0.  0.
         23    2    4    4    0    0 -0.29212333660E+03  0.33475941529E+03 -0.19483246124E+02  0.45391378813E+03  0.90874750384E+02 0.  0.
         23    2    4    4    0    0  0.34559977018E+02  0.28383642203E+03 -0.50389833627E+03  0.58657859375E+03  0.91670097984E+02 0.  0.
          1    1    3    3  502    0  0.29448992895E+02 -0.15670369418E+03 -0.24759072973E+02  0.16135768543E+03  0.00000000000E+00 0. -1.
         -1    1    3    3    0  502  0.22811436669E+03 -0.46189214314E+03  0.68162589461E+01  0.51519605741E+03  0.00000000000E+00 0.  1.
         11    1    5    5    0    0 -0.68230788822E+02  0.12616292781E+03 -0.34557552951E+02  0.14753558677E+03  0.00000000000E+00 0. -1.
        -11    1    5    5    0    0 -0.22389254778E+03  0.20859648748E+03  0.15074306827E+02  0.30637820136E+03  0.00000000000E+00 0.  1.
          5    1    6    6  503    0 -0.75892260466E+01  0.23490005284E+03 -0.38154566644E+03  0.44814597706E+03  0.47000000000E+01 0. -1.
         -5    1    6    6    0  503  0.42149203064E+02  0.48936369196E+02 -0.12235266983E+03  0.13843261669E+03  0.47000000000E+01 0.  1.
<mgrwt>
<rscale>  0 0.71193118E+03</rscale>
<asrwt>0</asrwt>
<pdfrwt beam="1">  1        2 0.17372081E+00 0.71193118E+03</pdfrwt>
<pdfrwt beam="2">  1       -2 0.90440134E-01 0.71193118E+03</pdfrwt>
<totfact> 0.22331305E+01</totfact>
</mgrwt>
</event>
<event>
12    1  0.3166324E-008  0.7550824E+03  0.7818608E-02  0.9627410E-01
          2   -1    0    0  501    0  0.00000000000E+00  0.00000000000E+00  0.67844549659E+03  0.67844549659E+03  0.00000000000E+00 0. -1.
         -2   -1    0    0    0  501 -0.00000000000E+00 -0.00000000000E+00 -0.18465152022E+04  0.18465152022E+04  0.00000000000E+00 0.  1.
         23    2    1    2    0    0 -0.58950697174E+03 -0.42929466383E+03 -0.13742825813E+04  0.15583439451E+04  0.89279673229E+02 0.  0.
    5000000    2    1    2    0    0  0.58950697174E+03  0.42929466383E+03  0.20621287562E+03  0.96661675368E+03  0.60000985017E+03 0.  0.
         23    2    4    4    0    0 -0.10447620178E+02  0.11187536780E+02 -0.12769490298E+03  0.15734655356E+03  0.90651177179E+02 0.  0.
         23    2    4    4    0    0  0.59995459192E+03  0.41810712705E+03  0.33390777860E+03  0.80927020012E+03  0.93084747113E+02 0.  0.
          3    1    3    3  502    0 -0.29837415398E+03 -0.24722849113E+03 -0.80753641969E+03  0.89569198484E+03  0.00000000000E+00 0. -1.
         -3    1    3    3    0  502 -0.29113281776E+03 -0.18206617270E+03 -0.56674616159E+03  0.66265196030E+03  0.00000000000E+00 0.  1.
         13    1    5    5    0    0  0.48083064792E+01 -0.14617623969E+02  0.87129120755E+01  0.17683596312E+02  0.00000000000E+00 0.  1.
        -13    1    5    5    0    0 -0.15255926657E+02  0.25805160750E+02 -0.13640781505E+03  0.13966295725E+03  0.00000000000E+00 0. -1.
          5    1    6    6  503    0  0.45163708324E+03  0.34594723716E+03  0.22633351360E+03  0.61229445142E+03  0.47000000000E+01 0. -1.
         -5    1    6    6    0  503  0.14831750867E+03  0.72159889893E+02  0.10757426499E+03  0.19697574870E+03  0.47000000000E+01 0.  1.
<mgrwt>
<rscale>  0 0.75508243E+03</rscale>
<asrwt>0</asrwt>
<pdfrwt beam="1">  1        2 0.10437623E+00 0.75508243E+03</pdfrwt>
<pdfrwt beam="2">  1       -2 0.28407926E+00 0.75508243E+03</pdfrwt>
<totfact> 0.17594167E+00</totfact>
</mgrwt>
</event>
<event>
12    1  0.3166324E-008  0.8369197E+03  0.7818608E-02  0.9508063E-01
          2   -1    0    0  501    0  0.00000000000E+00  0.00000000000E+00  0.10215018853E+04  0.10215018853E+04  0.00000000000E+00 0. -1.
         -2   -1    0    0    0  501 -0.00000000000E+00 -0.00000000000E+00 -0.80952415119E+03  0.80952415119E+03  0.00000000000E+00 0.  1.
         23    2    1    2    0    0  0.63038348748E+03  0.40432336367E+03  0.39914658003E+03  0.85337380880E+03  0.89822833917E+02 0.  0.
    5000000    2    1    2    0    0 -0.63038348748E+03 -0.40432336367E+03 -0.18716884597E+03  0.97765222765E+03  0.59992581011E+03 0.  0.
         23    2    4    4    0    0  0.48517429889E+02  0.65692485518E+02  0.12332901181E+02  0.12321152364E+03  0.91430495179E+02 0.  0.
         23    2    4    4    0    0 -0.67890091737E+03 -0.47001584919E+03 -0.19950174715E+03  0.85444070402E+03  0.91905470301E+02 0.  0.
          3    1    3    3  502    0  0.23470388799E+03  0.16075591111E+03  0.20060269831E+03  0.34809455693E+03  0.00000000000E+00 0. -1.
         -3    1    3    3    0  502  0.39567959949E+03  0.24356745256E+03  0.19854388172E+03  0.50527925187E+03  0.00000000000E+00 0.  1.
         13    1    5    5    0    0  0.25247434763E+02  0.70746700724E+02 -0.24795225201E+02  0.79103298403E+02  0.00000000000E+00 0. -1.
        -13    1    5    5    0    0  0.23269995125E+02 -0.50542152068E+01  0.37128126383E+02  0.44108225232E+02  0.00000000000E+00 0.  1.
          5    1    6    6  503    0 -0.35573501222E+03 -0.24318171961E+03 -0.15094964101E+03  0.45660993395E+03  0.47000000000E+01 0. -1.
         -5    1    6    6    0  503 -0.32316590515E+03 -0.22683412958E+03 -0.48552106148E+02  0.39783077006E+03  0.47000000000E+01 0.  1.
<mgrwt>
<rscale>  0 0.83691974E+03</rscale>
<asrwt>0</asrwt>
<pdfrwt beam="1">  1        2 0.15715414E+00 0.83691974E+03</pdfrwt>
<pdfrwt beam="2">  1       -2 0.12454218E+00 0.83691974E+03</pdfrwt>
<totfact> 0.11899945E+01</totfact>
</mgrwt>
</event>
<event>
12    1  0.3166324E-008  0.6204140E+03  0.7818608E-02  0.9863936E-01
          2   -1    0    0  501    0  0.00000000000E+00  0.00000000000E+00  0.12583513030E+04  0.12583513030E+04  0.00000000000E+00 0.  1.
         -2   -1    0    0    0  501 -0.00000000000E+00 -0.00000000000E+00 -0.52160797187E+03  0.52160797187E+03  0.00000000000E+00 0. -1.
         23    2    1    2    0    0 -0.47853539706E+03  0.18785539920E+03 -0.19575411698E+03  0.55771337823E+03  0.91862727489E+02 0.  0.
    5000000    2    1    2    0    0  0.47853539706E+03 -0.18785539920E+03  0.93249744812E+03  0.12222458966E+04  0.60003980191E+03 0.  0.
         23    2    4    4    0    0 -0.67281872265E+00 -0.22125075934E+03  0.55397835289E+03  0.60371116230E+03  0.92859037358E+02 0.  0.
         23    2    4    4    0    0  0.47920821578E+03  0.33395360144E+02  0.37851909522E+03  0.61853473434E+03  0.92481068281E+02 0.  0.
          2    1    3    3  502    0 -0.21557245880E+03  0.36418029755E+02 -0.75347468776E+02  0.23124661929E+03  0.00000000000E+00 0.  1.
         -2    1    3    3    0  502 -0.26296293826E+03  0.15143736944E+03 -0.12040664820E+03  0.32646675894E+03  0.00000000000E+00 0. -1.
         11    1    5    5    0    0 -0.32607935487E+02 -0.32230571314E+02  0.76486733396E+02  0.89175711769E+02  0.00000000000E+00 0. -1.
        -11    1    5    5    0    0  0.31935116764E+02 -0.18902018803E+03  0.47749161950E+03  0.51453545053E+03  0.00000000000E+00 0.  1.
          5    1    6    6  503    0  0.34922471836E+02  0.81936734011E+01  0.31013518642E+01  0.36310104741E+02  0.47000000000E+01 0. -1.
         -5    1    6    6    0  503  0.44428574394E+03  0.25201686743E+02  0.37541774336E+03  0.58222462960E+03  0.47000000000E+01 0.  1.
<mgrwt>
<rscale>  0 0.62041404E+03</rscale>
<asrwt>0</asrwt>
<pdfrwt beam="1">  1        2 0.19359251E+00 0.62041404E+03</pdfrwt>
<pdfrwt beam="2">  1       -2 0.80247380E-01 0.62041404E+03</pdfrwt>
<totfact> 0.24867572E+01</totfact>
</mgrwt>
</event>
<event>
12    1  0.3166324E-008  0.6752460E+03  0.7818608E-02  0.9760527E-01
          1   -1    0    0  501    0  0.00000000000E+00  0.00000000000E+00  0.73768930136E+03  0.73768930136E+03  0.00000000000E+00 0. -1.
         -1   -1    0    0    0  501 -0.00000000000E+00 -0.00000000000E+00 -0.92737355961E+03  0.92737355961E+03  0.00000000000E+00 0.  1.
         23    2    1    2    0    0  0.38227160916E+03  0.51913066710E+03  0.22783518313E+03  0.68976800483E+03  0.90789851418E+02 0.  0.
    5000000    2    1    2    0    0 -0.38227160916E+03 -0.51913066710E+03 -0.41751944137E+03  0.97529485614E+03  0.60104021479E+03 0.  0.
         23    2    4    4    0    0 -0.37742442301E+03 -0.43180685533E+03 -0.45178876235E+02  0.58250597422E+03  0.91464330483E+02 0.  0.
         23    2    4    4    0    0 -0.48471861513E+01 -0.87323811765E+02 -0.37234056514E+03  0.39278888192E+03  0.89424079511E+02 0.  0.
          1    1    3    3  502    0  0.32591861516E+03  0.40819178782E+03  0.21432771584E+03  0.56460592375E+03  0.00000000000E+00 0. -1.
         -1    1    3    3    0  502  0.56352993999E+02  0.11093887927E+03  0.13507467289E+02  0.12516208108E+03  0.00000000000E+00 0.  1.
         11    1    5    5    0    0 -0.11794081488E+03 -0.78024710353E+02 -0.22373070096E+02  0.14317278200E+03  0.00000000000E+00 0.  1.
        -11    1    5    5    0    0 -0.25948360813E+03 -0.35378214498E+03 -0.22805806140E+02  0.43933319222E+03  0.00000000000E+00 0. -1.
          5    1    6    6  503    0  0.22693569190E+02 -0.92316048001E+02 -0.25857393198E+03  0.27553551332E+03  0.47000000000E+01 0. -1.
         -5    1    6    6    0  503 -0.27540755342E+02  0.49922362361E+01 -0.11376663315E+03  0.11725336859E+03  0.47000000000E+01 0.  1.
<mgrwt>
<rscale>  0 0.67524603E+03</rscale>
<asrwt>0</asrwt>
<pdfrwt beam="1">  1        1 0.11349066E+00 0.67524603E+03</pdfrwt>
<pdfrwt beam="2">  1       -1 0.14267286E+00 0.67524603E+03</pdfrwt>
<totfact> 0.10437830E+01</totfact>
</mgrwt>
</event>
<event>
12    1  0.3166324E-008  0.8190340E+03  0.7818608E-02  0.9532868E-01
         -1   -1    0    0    0  501 -0.00000000000E+00  0.00000000000E+00  0.22497921615E+04  0.22497921615E+04  0.00000000000E+00 0.  1.
          1   -1    0    0  501    0  0.00000000000E+00 -0.00000000000E+00 -0.42432881421E+03  0.42432881421E+03  0.00000000000E+00 0. -1.
         23    2    1    2    0    0  0.23353416039E+03  0.68508230144E+03  0.13795005640E+03  0.74249027780E+03  0.91573089668E+02 0.  0.
    5000000    2    1    2    0    0 -0.23353416039E+03 -0.68508230144E+03  0.16875132909E+04  0.19316306979E+04  0.59968331842E+03 0.  0.
         23    2    4    4    0    0  0.10593234016E+03 -0.50656415759E+03  0.11571041944E+04  0.12707539547E+04  0.89981054658E+02 0.  0.
         23    2    4    4    0    0 -0.33946650055E+03 -0.17851814384E+03  0.53040909647E+03  0.66087674321E+03  0.91203220480E+02 0.  0.
          3    1    3    3  502    0  0.65637582776E+02  0.27325683385E+03  0.16712340848E+02  0.28152600564E+03  0.00000000000E+00 0. -1.
         -3    1    3    3    0  502  0.16789657761E+03  0.41182546759E+03  0.12123771556E+03  0.46096427215E+03  0.00000000000E+00 0.  1.
         13    1    5    5    0    0  0.35327244104E+02 -0.40044173916E+02  0.12322453013E+03  0.13429756091E+03  0.00000000000E+00 0. -1.
        -13    1    5    5    0    0  0.70605096059E+02 -0.46651998368E+03  0.10338796643E+04  0.11364563938E+04  0.00000000000E+00 0.  1.
          5    1    6    6  503    0 -0.14675969842E+03 -0.10608197117E+03  0.31144036815E+03  0.36029014224E+03  0.47000000000E+01 0. -1.
         -5    1    6    6    0  503 -0.19270680213E+03 -0.72436172677E+02  0.21896872832E+03  0.30058660097E+03  0.47000000000E+01 0.  1.
<mgrwt>
<rscale>  0 0.81903403E+03</rscale>
<asrwt>0</asrwt>
<pdfrwt beam="1">  1        1 0.65281357E-01 0.81903403E+03</pdfrwt>
<pdfrwt beam="2">  1       -1 0.34612186E+00 0.81903403E+03</pdfrwt>
<totfact> 0.95869872E-01</totfact>
</mgrwt>
</event>
<event>
12    1  0.3166324E-008  0.6547712E+03  0.7818608E-02  0.9797867E-01
          2   -1    0    0  501    0  0.00000000000E+00  0.00000000000E+00  0.39857773650E+03  0.39857773650E+03  0.00000000000E+00 0. -1.
         -2   -1    0    0    0  501 -0.00000000000E+00 -0.00000000000E+00 -0.11834959053E+04  0.11834959053E+04  0.00000000000E+00 0.  1.
         23    2    1    2    0    0  0.14170169923E+03 -0.51936495233E+03 -0.18430796464E+03  0.57668402409E+03  0.93678773097E+02 0.  0.
    5000000    2    1    2    0    0 -0.14170169923E+03  0.51936495233E+03 -0.60061020418E+03  0.10053896177E+04  0.60021357932E+03 0.  0.
         23    2    4    4    0    0  0.18881776310E+03  0.13426406264E+03 -0.63219303747E+02  0.26025586291E+03  0.10028682681E+03 0.  0.
         23    2    4    4    0    0 -0.33051946233E+03  0.38510088969E+03 -0.53739090043E+03  0.74513375482E+03  0.94284264286E+02 0.  0.
          1    1    3    3  502    0  0.15299340405E+03 -0.44306129727E+03 -0.16731885385E+03  0.49770060646E+03  0.00000000000E+00 0. -1.
         -1    1    3    3    0  502 -0.11291704820E+02 -0.76303655065E+02 -0.16989110799E+02  0.78983417626E+02  0.00000000000E+00 0.  1.
         11    1    5    5    0    0  0.19071903165E+02  0.66540151302E+02 -0.24615851529E+02  0.73466110365E+02  0.00000000000E+00 0. -1.
        -11    1    5    5    0    0  0.16974585993E+03  0.67723911342E+02 -0.38603452218E+02  0.18678975254E+03  0.00000000000E+00 0.  1.
          5    1    6    6  503    0 -0.11348208947E+03  0.87718718523E+02 -0.19682442366E+03  0.24358715475E+03  0.47000000000E+01 0. -1.
         -5    1    6    6    0  503 -0.21703737286E+03  0.29738217117E+03 -0.34056647678E+03  0.50154660008E+03  0.47000000000E+01 0.  1.
<mgrwt>
<rscale>  0 0.65477119E+03</rscale>
<asrwt>0</asrwt>
<pdfrwt beam="1">  1        2 0.61319652E-01 0.65477119E+03</pdfrwt>
<pdfrwt beam="2">  1       -2 0.18207629E+00 0.65477119E+03</pdfrwt>
<totfact> 0.14367796E+01</totfact>
</mgrwt>
</event>
<event>
12    1  0.3166324E-008  0.3668807E+03  0.7818608E-02  0.1055892E+00
          2   -1    0    0  501    0  0.00000000000E+00  0.00000000000E+00  0.15030743553E+04  0.15030743553E+04  0.00000000000E+00 0.  1.
         -2   -1    0    0    0  501 -0.00000000000E+00 -0.00000000000E+00 -0.20596059034E+03  0.20596059034E+03  0.00000000000E+00 0. -1.
         23    2    1    2    0    0  0.22661920276E+03  0.20771957134E+03  0.82756943669E+03  0.88741042405E+03  0.90124385060E+02 0.  0.
    5000000    2    1    2    0    0 -0.22661920276E+03 -0.20771957134E+03  0.46954432830E+03  0.82162452161E+03  0.60007607426E+03 0.  0.
         23    2    4    4    0    0 -0.14991690927E+03  0.12849345192E+02  0.53494505137E+03  0.56380460765E+03  0.95232569374E+02 0.  0.
         23    2    4    4    0    0 -0.76702293487E+02 -0.22056891653E+03 -0.65400723072E+02  0.25781991396E+03  0.87521224224E+02 0.  0.
          1    1    3    3  502    0  0.10401620248E+03  0.15515823880E+03  0.49656771034E+03  0.53054023448E+03  0.00000000000E+00 0. -1.
         -1    1    3    3    0  502  0.12260300028E+03  0.52561332539E+02  0.33100172635E+03  0.35687018957E+03  0.00000000000E+00 0.  1.
         13    1    5    5    0    0 -0.11317547208E+03  0.49332059978E+02  0.32757452715E+03  0.35006772268E+03  0.00000000000E+00 0. -1.
        -13    1    5    5    0    0 -0.36741437196E+02 -0.36482714786E+02  0.20737052421E+03  0.21373688497E+03  0.00000000000E+00 0.  1.
          5    1    6    6  503    0 -0.24421942420E+02 -0.22885979499E+02 -0.38972457090E+02  0.51586255348E+02  0.47000000000E+01 0. -1.
         -5    1    6    6    0  503 -0.52280351067E+02 -0.19768293703E+03 -0.26428265982E+02  0.20623365861E+03  0.47000000000E+01 0.  1.
<mgrwt>
<rscale>  0 0.36688065E+03</rscale>
<asrwt>0</asrwt>
<pdfrwt beam="1">  1        2 0.23124220E+00 0.36688065E+03</pdfrwt>
<pdfrwt beam="2">  1       -2 0.31686246E-01 0.36688065E+03</pdfrwt>
<totfact> 0.12465904E+02</totfact>
</mgrwt>
</event>
<event>
12    1  0.3166324E-008  0.5391623E+03  0.7818608E-02  0.1004034E+00
          2   -1    0    0  501    0  0.00000000000E+00  0.00000000000E+00  0.37443124586E+03  0.37443124586E+03  0.00000000000E+00 0. -1.
         -2   -1    0    0    0  501 -0.00000000000E+00 -0.00000000000E+00 -0.90593413611E+03  0.90593413611E+03  0.00000000000E+00 0.  1.
         23    2    1    2    0    0  0.24432020720E+03  0.29338552525E+03 -0.14562477717E+00  0.39260448388E+03  0.91492237264E+02 0.  0.
    5000000    2    1    2    0    0 -0.24432020720E+03 -0.29338552525E+03 -0.53135726547E+03  0.88776089809E+03  0.60000953203E+03 0.  0.
         23    2    4    4    0    0  0.17911009438E+03 -0.15167451339E+03 -0.14666374200E+03  0.29135731957E+03  0.91067285724E+02 0.  0.
         23    2    4    4    0    0 -0.42343030158E+03 -0.14171101186E+03 -0.38469352347E+03  0.59640357852E+03  0.91284666218E+02 0.  0.
          1    1    3    3  502    0  0.15821228700E+03  0.19431595759E+03 -0.43587900247E+02  0.25434174683E+03  0.00000000000E+00 0. -1.
         -1    1    3    3    0  502  0.86107920204E+02  0.99069567660E+02  0.43442275470E+02  0.13826273705E+03  0.00000000000E+00 0.  1.
         13    1    5    5    0    0  0.13230732784E+03 -0.67096065967E+02 -0.12075169096E+03  0.19128011381E+03  0.00000000000E+00 0.  1.
        -13    1    5    5    0    0  0.46802766538E+02 -0.84578447420E+02 -0.25912051040E+02  0.10007720576E+03  0.00000000000E+00 0. -1.
          5    1    6    6  503    0 -0.85548902660E+02 -0.16834727052E+01 -0.43093942761E+02  0.95919897463E+02  0.47000000000E+01 0. -1.
         -5    1    6    6    0  503 -0.33788139892E+03 -0.14002753916E+03 -0.34159958071E+03  0.50048368106E+03  0.47000000000E+01 0.  1.
<mgrwt>
<rscale>  0 0.53916228E+03</rscale>
<asrwt>0</asrwt>
<pdfrwt beam="1">  1        2 0.57604807E-01 0.53916228E+03</pdfrwt>
<pdfrwt beam="2">  1       -2 0.13937448E+00 0.53916228E+03</pdfrwt>
<totfact> 0.32060883E+01</totfact>
</mgrwt>
</event>
<event>
12    1  0.3166324E-008  0.1358173E+04  0.7818608E-02  0.8984664E-01
         -2   -1    0    0    0  501 -0.00000000000E+00  0.00000000000E+00  0.56713115657E+03  0.56713115657E+03  0.00000000000E+00 0.  1.
          2   -1    0    0  501    0  0.00000000000E+00 -0.00000000000E+00 -0.35574250097E+04  0.35574250097E+04  0.00000000000E+00 0. -1.
         23    2    1    2    0    0  0.63724705464E+03 -0.11833846440E+04 -0.11752254675E+04  0.17877169597E+04  0.91071422653E+02 0.  0.
    5000000    2    1    2    0    0 -0.63724705464E+03  0.11833846440E+04 -0.18150683856E+04  0.23368392066E+04  0.59988432936E+03 0.  0.
         23    2    4    4    0    0 -0.18714170349E+03  0.55101247572E+03 -0.37615313517E+03  0.69933496315E+03  0.94559208973E+02 0.  0.
         23    2    4    4    0    0 -0.45010535115E+03  0.63237216831E+03 -0.14389152504E+04  0.16375042434E+04  0.91943803120E+02 0.  0.
          1    1    3    3  502    0  0.41246683241E+03 -0.83510105678E+03 -0.77794413733E+03  0.12135566504E+04  0.00000000000E+00 0. -1.
         -1    1    3    3    0  502  0.22478022222E+03 -0.34828358726E+03 -0.39728133016E+03  0.57416030928E+03  0.00000000000E+00 0.  1.
         11    1    5    5    0    0 -0.85433179946E+02  0.38357824622E+03 -0.23510512385E+03  0.45793615109E+03  0.00000000000E+00 0. -1.
        -11    1    5    5    0    0 -0.10170852354E+03  0.16743422950E+03 -0.14104801132E+03  0.24139881206E+03  0.00000000000E+00 0.  1.
          5    1    6    6  503    0 -0.27623416981E+03  0.46043632666E+03 -0.10003479995E+04  0.11353524288E+04  0.47000000000E+01 0. -1.
         -5    1    6    6    0  503 -0.17387118134E+03  0.17193584165E+03 -0.43856725098E+03  0.50215181467E+03  0.47000000000E+01 0.  1.
<mgrwt>
<rscale>  0 0.13581733E+04</rscale>
<asrwt>0</asrwt>
<pdfrwt beam="1">  1        2 0.54729615E+00 0.13581733E+04</pdfrwt>
<pdfrwt beam="2">  1       -2 0.87250948E-01 0.13581733E+04</pdfrwt>
<totfact> 0.82564932E-01</totfact>
</mgrwt>
</event>
<event>
12    1  0.3166324E-008  0.6753079E+03  0.7818608E-02  0.9760416E-01
         -2   -1    0    0    0  501 -0.00000000000E+00  0.00000000000E+00  0.56842905265E+03  0.56842905265E+03  0.00000000000E+00 0.  1.
          2   -1    0    0  501    0  0.00000000000E+00 -0.00000000000E+00 -0.10404037820E+04  0.10404037820E+04  0.00000000000E+00 0. -1.
         23    2    1    2    0    0  0.53671652268E+02  0.64603031541E+03 -0.20691650686E+03  0.68653449654E+03  0.90990985507E+02 0.  0.
    5000000    2    1    2    0    0 -0.53671652268E+02 -0.64603031541E+03 -0.26505822252E+03  0.92229833814E+03  0.60011877869E+03 0.  0.
         23    2    4    4    0    0  0.96971132738E+02 -0.18269243422E+03  0.15492862544E+03  0.27251987326E+03  0.86511711526E+02 0.  0.
         23    2    4    4    0    0 -0.15064278501E+03 -0.46333788119E+03 -0.41998684796E+03  0.64977846489E+03  0.91912241599E+02 0.  0.
          1    1    3    3  502    0  0.73516424607E+02  0.35018569737E+03 -0.10311506026E+03  0.37238072316E+03  0.00000000000E+00 0. -1.
         -1    1    3    3    0  502 -0.19844772339E+02  0.29584461805E+03 -0.10380144660E+03  0.31415377339E+03  0.00000000000E+00 0.  1.
         13    1    5    5    0    0  0.19261378196E+02 -0.59929715184E+02  0.97996285550E+02  0.11647250076E+03  0.00000000000E+00 0. -1.
        -13    1    5    5    0    0  0.77709754542E+02 -0.12276271904E+03  0.56932339894E+02  0.15604737250E+03  0.00000000000E+00 0.  1.
          5    1    6    6  503    0 -0.13294225408E+03 -0.37679518915E+03 -0.29513148530E+03  0.49676245943E+03  0.47000000000E+01 0. -1.
         -5    1    6    6    0  503 -0.17700530925E+02 -0.86542692035E+02 -0.12485536266E+03  0.15301600546E+03  0.47000000000E+01 0.  1.
<mgrwt>
<rscale>  0 0.67530789E+03</rscale>
<asrwt>0</asrwt>
<pdfrwt beam="1">  1        2 0.16006212E+00 0.67530789E+03</pdfrwt>
<pdfrwt beam="2">  1       -2 0.87450624E-01 0.67530789E+03</pdfrwt>
<totfact> 0.27464439E+01</totfact>
</mgrwt>
</event>
<event>
12    1  0.3166324E-008  0.5299553E+03  0.7818608E-02  0.1006243E+00
          3   -1    0    0  501    0  0.00000000000E+00  0.00000000000E+00  0.37481046311E+03  0.37481046311E+03  0.00000000000E+00 0. -1.
         -3   -1    0    0    0  501 -0.00000000000E+00 -0.00000000000E+00 -0.12277766844E+04  0.12277766844E+04  0.00000000000E+00 0.  1.
         23    2    1    2    0    0 -0.31538996516E+03  0.26874287079E+03 -0.75592852381E+03  0.86691956022E+03  0.91804303099E+02 0.  0.
    5000000    2    1    2    0    0  0.31538996516E+03 -0.26874287079E+03 -0.97037697496E+02  0.73566758731E+03  0.60008076420E+03 0.  0.
         23    2    4    4    0    0 -0.12455923441E+03 -0.87398263251E+02  0.10968534228E+03  0.20858964624E+03  0.91243119806E+02 0.  0.
         23    2    4    4    0    0  0.43994919957E+03 -0.18134460754E+03 -0.20672303977E+03  0.52707794107E+03  0.92927799443E+02 0.  0.
          2    1    3    3  502    0 -0.21050493213E+03  0.23200221450E+03 -0.55620106305E+03  0.63835489856E+03  0.00000000000E+00 0.  1.
         -2    1    3    3    0  502 -0.10488503303E+03  0.36740656291E+02 -0.19972746076E+03  0.22856466166E+03  0.00000000000E+00 0. -1.
         13    1    5    5    0    0 -0.11797269304E+03 -0.65742690340E+02  0.12270913617E+03  0.18247517568E+03  0.00000000000E+00 0.  1.
        -13    1    5    5    0    0 -0.65865413638E+01 -0.21655572911E+02 -0.13023793899E+02  0.26114470562E+02  0.00000000000E+00 0. -1.
          5    1    6    6  503    0  0.10215018390E+02  0.29823395531E+00 -0.23065661061E+02  0.25662234205E+02  0.47000000000E+01 0. -1.
         -5    1    6    6    0  503  0.42973418118E+03 -0.18164284150E+03 -0.18365737871E+03  0.50141570687E+03  0.47000000000E+01 0.  1.
<mgrwt>
<rscale>  0 0.52995528E+03</rscale>
<asrwt>0</asrwt>
<pdfrwt beam="1">  1        3 0.57663149E-01 0.52995528E+03</pdfrwt>
<pdfrwt beam="2">  1       -3 0.18888872E+00 0.52995528E+03</pdfrwt>
<totfact> 0.13457403E+00</totfact>
</mgrwt>
</event>
<event>
12    1  0.3166324E-008  0.3761300E+03  0.7818608E-02  0.1052373E+00
          2   -1    0    0  501    0  0.00000000000E+00  0.00000000000E+00  0.20127695300E+04  0.20127695300E+04  0.00000000000E+00 0. -1.
         -2   -1    0    0    0  501 -0.00000000000E+00 -0.00000000000E+00 -0.79654581458E+02  0.79654581458E+02  0.00000000000E+00 0.  1.
         23    2    1    2    0    0  0.91324045138E+02  0.12263797325E+03  0.36297702968E+03  0.40460750041E+03  0.92599954704E+02 0.  0.
    5000000    2    1    2    0    0 -0.91324045138E+02 -0.12263797325E+03  0.15701379188E+04  0.16878166110E+04  0.60000972873E+03 0.  0.
         23    2    4    4    0    0  0.22044617230E+03  0.51948908986E+02  0.51316268109E+03  0.56831778706E+03  0.91400031769E+02 0.  0.
         23    2    4    4    0    0 -0.31177021743E+03 -0.17458688224E+03  0.10569752377E+04  0.11194988240E+04  0.91649962896E+02 0.  0.
          3    1    3    3  502    0  0.69541004064E+01  0.24603874528E+02  0.79828404775E+01  0.26784993865E+02  0.00000000000E+00 0. -1.
         -3    1    3    3    0  502  0.84369944731E+02  0.98034098722E+02  0.35499418920E+03  0.37782250654E+03  0.00000000000E+00 0.  1.
         13    1    5    5    0    0  0.19521883795E+03  0.16448738345E+02  0.45719836315E+03  0.49740456266E+03  0.00000000000E+00 0.  1.
        -13    1    5    5    0    0  0.25227334342E+02  0.35500170641E+02  0.55964317939E+02  0.70913224408E+02  0.00000000000E+00 0. -1.
          5    1    6    6  503    0 -0.40853156590E+02 -0.17514162115E+02  0.62259220590E+02  0.76642200037E+02  0.47000000000E+01 0. -1.
         -5    1    6    6    0  503 -0.27091706084E+03 -0.15707272012E+03  0.99471601715E+03  0.10428566239E+04  0.47000000000E+01 0.  1.
<mgrwt>
<rscale>  0 0.37612995E+03</rscale>
<asrwt>0</asrwt>
<pdfrwt beam="1">  1        2 0.30965681E+00 0.37612995E+03</pdfrwt>
<pdfrwt beam="2">  1       -2 0.12254553E-01 0.37612995E+03</pdfrwt>
<totfact> 0.34419136E+02</totfact>
</mgrwt>
</event>
<event>
12    1  0.3166324E-008  0.3902311E+03  0.7818608E-02  0.1047216E+00
         -2   -1    0    0    0  501 -0.00000000000E+00  0.00000000000E+00  0.75814175581E+02  0.75814175581E+02  0.00000000000E+00 0.  1.
          2   -1    0    0  501    0  0.00000000000E+00 -0.00000000000E+00 -0.36563704403E+04  0.36563704403E+04  0.00000000000E+00 0. -1.
         23    2    1    2    0    0 -0.23301460983E+03  0.12523819349E+02 -0.29685565195E+03  0.38597269258E+03  0.79993667762E+02 0.  0.
    5000000    2    1    2    0    0  0.23301460983E+03 -0.12523819349E+02 -0.32837006128E+04  0.33462119233E+04  0.59999322235E+03 0.  0.
         23    2    4    4    0    0 -0.46535089823E+02  0.18321743708E+03 -0.21074998792E+04  0.21178909362E+04  0.90399848922E+02 0.  0.
         23    2    4    4    0    0  0.27954969965E+03 -0.19574125643E+03 -0.11762007336E+04  0.12283209872E+04  0.94136113230E+02 0.  0.
          2    1    3    3  502    0 -0.94216502115E+02  0.50227944940E+01 -0.18456133983E+03  0.20727968037E+03  0.00000000000E+00 0. -1.
         -2    1    3    3    0  502 -0.13879810771E+03  0.75010248551E+01 -0.11229431211E+03  0.17869301221E+03  0.00000000000E+00 0.  1.
         13    1    5    5    0    0 -0.51096776635E+02  0.18943913495E+03 -0.18699263470E+04  0.18801921736E+04  0.00000000000E+00 0.  1.
        -13    1    5    5    0    0  0.45616868123E+01 -0.62216978633E+01 -0.23757353225E+03  0.23769876259E+03  0.00000000000E+00 0. -1.
          5    1    6    6  503    0  0.21228519831E+03 -0.16584361722E+03 -0.10288128147E+04  0.10635069386E+04  0.47000000000E+01 0. -1.
         -5    1    6    6    0  503  0.67264501343E+02 -0.29897639209E+02 -0.14738791892E+03  0.16481404859E+03  0.47000000000E+01 0.  1.
<mgrwt>
<rscale>  0 0.39023105E+03</rscale>
<asrwt>0</asrwt>
<pdfrwt beam="1">  1        2 0.56251843E+00 0.39023105E+03</pdfrwt>
<pdfrwt beam="2">  1       -2 0.11663721E-01 0.39023105E+03</pdfrwt>
<totfact> 0.39415737E+01</totfact>
</mgrwt>
</event>
<event>
12    1  0.3166324E-008  0.1410788E+04  0.7818608E-02  0.8946046E-01
         -2   -1    0    0    0  501 -0.00000000000E+00  0.00000000000E+00  0.20311314163E+04  0.20311314163E+04  0.00000000000E+00 0.  1.
          2   -1    0    0  501    0  0.00000000000E+00 -0.00000000000E+00 -0.17094881541E+04  0.17094881541E+04  0.00000000000E+00 0. -1.
         23    2    1    2    0    0 -0.12756238429E+04  0.46153424535E+03 -0.10519598335E+04  0.17190912032E+04  0.91787937159E+02 0.  0.
    5000000    2    1    2    0    0  0.12756238429E+04 -0.46153424535E+03  0.13736030957E+04  0.20215283672E+04  0.59963441054E+03 0.  0.
         23    2    4    4    0    0  0.31160051487E+03  0.12235992205E+03  0.39547822355E+03  0.52623182119E+03  0.91924278283E+02 0.  0.
         23    2    4    4    0    0  0.96402332806E+03 -0.58389416740E+03  0.97812487218E+03  0.14952965460E+04  0.94393426702E+02 0.  0.
          2    1    3    3  502    0 -0.60802573561E+03  0.26114318404E+03 -0.48117818792E+03  0.81818305181E+03  0.00000000000E+00 0.  1.
         -2    1    3    3    0  502 -0.66759810732E+03  0.20039106130E+03 -0.57078164557E+03  0.90090815140E+03  0.00000000000E+00 0. -1.
         13    1    5    5    0    0  0.12527699827E+03  0.60631754792E+02  0.23310462365E+03  0.27149272836E+03  0.00000000000E+00 0.  1.
        -13    1    5    5    0    0  0.18632351660E+03  0.61728167261E+02  0.16237359990E+03  0.25473909283E+03  0.00000000000E+00 0. -1.
          5    1    6    6  503    0  0.40195069493E+03 -0.22970639005E+03  0.34318411750E+03  0.57630444671E+03  0.47000000000E+01 0. -1.
         -5    1    6    6    0  503  0.56207263313E+03 -0.35418777735E+03  0.63494075468E+03  0.91899209926E+03  0.47000000000E+01 0.  1.
<mgrwt>
<rscale>  0 0.14107885E+04</rscale>
<asrwt>0</asrwt>
<pdfrwt beam="1">  1        2 0.26299818E+00 0.14107885E+04</pdfrwt>
<pdfrwt beam="2">  1       -2 0.31248176E+00 0.14107885E+04</pdfrwt>
<totfact> 0.24512652E-01</totfact>
</mgrwt>
</event>
<event>
12    1  0.3166324E-008  0.5385992E+03  0.7818608E-02  0.1004168E+00
         -2   -1    0    0    0  501 -0.00000000000E+00  0.00000000000E+00  0.20988999487E+04  0.20988999487E+04  0.00000000000E+00 0. -1.
          2   -1    0    0  501    0  0.00000000000E+00 -0.00000000000E+00 -0.57534974674E+03  0.57534974674E+03  0.00000000000E+00 0.  1.
         23    2    1    2    0    0  0.13842531489E+03 -0.50352201327E+03 -0.35245922197E+03  0.63658591249E+03  0.91203811175E+02 0.  0.
    5000000    2    1    2    0    0 -0.13842531489E+03  0.50352201327E+03  0.18760094239E+04  0.20376637829E+04  0.59997195600E+03 0.  0.
         23    2    4    4    0    0 -0.24325721871E+02  0.76547625573E+02  0.12975453016E+04  0.13031978961E+04  0.90827676777E+02 0.  0.
         23    2    4    4    0    0 -0.11409959302E+03  0.42697438770E+03  0.57846412226E+03  0.73446588681E+03  0.97434866808E+02 0.  0.
          2    1    3    3  502    0 -0.35987231499E+01 -0.58531141819E+02 -0.15588286040E+02  0.60678167677E+02  0.00000000000E+00 0. -1.
         -2    1    3    3    0  502  0.14202403804E+03 -0.44499087146E+03 -0.33687093593E+03  0.57590774481E+03  0.00000000000E+00 0.  1.
         13    1    5    5    0    0  0.24532921363E+02  0.25593270868E+02  0.78664329124E+03  0.78744177398E+03  0.00000000000E+00 0.  1.
        -13    1    5    5    0    0 -0.48858643234E+02  0.50954354705E+02  0.51090201040E+03  0.51575612213E+03  0.00000000000E+00 0. -1.
          5    1    6    6  503    0 -0.84741837816E+02  0.21158173198E+03  0.36092895929E+03  0.42689555167E+03  0.47000000000E+01 0. -1.
         -5    1    6    6    0  503 -0.29357755200E+02  0.21539265572E+03  0.21753516297E+03  0.30757033514E+03  0.47000000000E+01 0.  1.
<mgrwt>
<rscale>  0 0.53859916E+03</rscale>
<asrwt>0</asrwt>
<pdfrwt beam="1">  1        2 0.88515347E-01 0.53859916E+03</pdfrwt>
<pdfrwt beam="2">  1       -2 0.32290768E+00 0.53859916E+03</pdfrwt>
<totfact> 0.13117828E+00</totfact>
</mgrwt>
</event>
<event>
12    1  0.3166324E-008  0.8774998E+03  0.7818608E-02  0.9454153E-01
         -2   -1    0    0    0  501 -0.00000000000E+00  0.00000000000E+00  0.11006729996E+04  0.11006729996E+04  0.00000000000E+00 0.  1.
          2   -1    0    0  501    0  0.00000000000E+00 -0.00000000000E+00 -0.10986791422E+04  0.10986791422E+04  0.00000000000E+00 0. -1.
         23    2    1    2    0    0  0.82936808830E+03  0.11377222084E+02  0.58715512256E+03  0.10202150201E+04  0.90037115749E+02 0.  0.
    5000000    2    1    2    0    0 -0.82936808830E+03 -0.11377222084E+02 -0.58516126514E+03  0.11791371217E+04  0.59997481487E+03 0.  0.
         23    2    4    4    0    0 -0.79885050182E+03  0.61653035006E+02 -0.65572570557E+03  0.10393558301E+04  0.91220171668E+02 0.  0.
         23    2    4    4    0    0 -0.30517586475E+02 -0.73030257090E+02  0.70564440422E+02  0.13978129156E+03  0.91075395594E+02 0.  0.
          4    1    3    3  502    0  0.23821659508E+03  0.34636750149E+02  0.13847152944E+03  0.27770706706E+03  0.00000000000E+00 0. -1.
         -4    1    3    3    0  502  0.59115149322E+03 -0.23259528065E+02  0.44868359312E+03  0.74250795304E+03  0.00000000000E+00 0.  1.
         13    1    5    5    0    0 -0.43086208304E+03  0.63613251216E+02 -0.31152988825E+03  0.53548076679E+03  0.00000000000E+00 0. -1.
        -13    1    5    5    0    0 -0.36798841878E+03 -0.19602162106E+01 -0.34419581732E+03  0.50387506335E+03  0.00000000000E+00 0.  1.
          5    1    6    6  503    0 -0.28469669208E+02 -0.93598451642E+02  0.48908175153E+02  0.10947735753E+03  0.47000000000E+01 0. -1.
         -5    1    6    6    0  503 -0.20479172669E+01  0.20568194552E+02  0.21656265270E+02  0.30303934030E+02  0.47000000000E+01 0.  1.
<mgrwt>
<rscale>  0 0.87749982E+03</rscale>
<asrwt>0</asrwt>
<pdfrwt beam="1">  1        2 0.16902756E+00 0.87749982E+03</pdfrwt>
<pdfrwt beam="2">  1       -2 0.16933431E+00 0.87749982E+03</pdfrwt>
<totfact> 0.47255269E+00</totfact>
</mgrwt>
</event>
<event>
12    1  0.3166324E-008  0.7699569E+03  0.7818608E-02  0.9604551E-01
          2   -1    0    0  501    0  0.00000000000E+00  0.00000000000E+00  0.18682250557E+04  0.18682250557E+04  0.00000000000E+00 0.  1.
         -2   -1    0    0    0  501 -0.00000000000E+00 -0.00000000000E+00 -0.33145779598E+03  0.33145779598E+03  0.00000000000E+00 0. -1.
         23    2    1    2    0    0 -0.33727189245E+03  0.56592570922E+03  0.49900861197E+03  0.83124539701E+03  0.89079051589E+02 0.  0.
    5000000    2    1    2    0    0  0.33727189245E+03 -0.56592570922E+03  0.10377586477E+04  0.13684374547E+04  0.60137660294E+03 0.  0.
         23    2    4    4    0    0  0.37946853710E+03 -0.85884365757E+02  0.52421573772E+03  0.65924531627E+03  0.91813683192E+02 0.  0.
         23    2    4    4    0    0 -0.42196644655E+02 -0.48004134346E+03  0.51354291001E+03  0.70919213838E+03  0.83707350137E+02 0.  0.
          4    1    3    3  502    0 -0.26632773773E+03  0.36926800165E+03  0.32770027978E+03  0.56096059959E+03  0.00000000000E+00 0. -1.
         -4    1    3    3    0  502 -0.70944154721E+02  0.19665770757E+03  0.17130833220E+03  0.27028479742E+03  0.00000000000E+00 0.  1.
         13    1    5    5    0    0  0.24752067174E+02 -0.37143269030E+00  0.83465599927E+02  0.87059227902E+02  0.00000000000E+00 0. -1.
        -13    1    5    5    0    0  0.35471646993E+03 -0.85512933067E+02  0.44075013779E+03  0.57218608837E+03  0.00000000000E+00 0.  1.
          5    1    6    6  503    0 -0.47169399290E+02 -0.19063841573E+03  0.16860494031E+03  0.25887771955E+03  0.47000000000E+01 0. -1.
         -5    1    6    6    0  503  0.49727546350E+01 -0.28940292773E+03  0.34493796970E+03  0.45031441883E+03  0.47000000000E+01 0.  1.
<mgrwt>
<rscale>  0 0.76995694E+03</rscale>
<asrwt>0</asrwt>
<pdfrwt beam="1">  1        2 0.28741923E+00 0.76995694E+03</pdfrwt>
<pdfrwt beam="2">  1       -2 0.50993508E-01 0.76995694E+03</pdfrwt>
<totfact> 0.29533742E+01</totfact>
</mgrwt>
</event>
<event>
12    1  0.3166324E-008  0.1047103E+04  0.7818608E-02  0.9258340E-01
          2   -1    0    0  501    0  0.00000000000E+00  0.00000000000E+00  0.94781226145E+03  0.94781226145E+03  0.00000000000E+00 0. -1.
         -2   -1    0    0    0  501 -0.00000000000E+00 -0.00000000000E+00 -0.16539563500E+04  0.16539563500E+04  0.00000000000E+00 0.  1.
         23    2    1    2    0    0 -0.66135281864E+03 -0.80236587652E+03 -0.90866110127E+03  0.13839562753E+04  0.92148925513E+02 0.  0.
    5000000    2    1    2    0    0  0.66135281864E+03  0.80236587652E+03  0.20251701267E+03  0.12178123362E+04  0.60072888663E+03 0.  0.
         23    2    4    4    0    0  0.23620991754E+03  0.32690521964E+03  0.36686359651E+03  0.55288019965E+03  0.91790353235E+02 0.  0.
         23    2    4    4    0    0  0.42514290110E+03  0.47546065688E+03 -0.16434658385E+03  0.66493213654E+03  0.91190043224E+02 0.  0.
          3    1    3    3  502    0 -0.35556719002E+03 -0.38592265060E+03 -0.41028943070E+03  0.66610940229E+03  0.00000000000E+00 0. -1.
         -3    1    3    3    0  502 -0.30578562862E+03 -0.41644322591E+03 -0.49837167056E+03  0.71784687302E+03  0.00000000000E+00 0.  1.
         13    1    5    5    0    0  0.89428120191E+02  0.17951594270E+03  0.22326318626E+03  0.30011633195E+03  0.00000000000E+00 0.  1.
        -13    1    5    5    0    0  0.14678179735E+03  0.14738927694E+03  0.14360041026E+03  0.25276386770E+03  0.00000000000E+00 0. -1.
          5    1    6    6  503    0  0.18188862714E+03  0.13874048980E+03 -0.53713336062E+02  0.23503108021E+03  0.47000000000E+01 0. -1.
         -5    1    6    6    0  503  0.24325427396E+03  0.33672016708E+03 -0.11063324779E+03  0.42990105633E+03  0.47000000000E+01 0.  1.
<mgrwt>
<rscale>  0 0.10471027E+04</rscale>
<asrwt>0</asrwt>
<pdfrwt beam="1">  1        2 0.14581727E+00 0.10471027E+04</pdfrwt>
<pdfrwt beam="2">  1       -2 0.25445482E+00 0.10471027E+04</pdfrwt>
<totfact> 0.16299140E+00</totfact>
</mgrwt>
</event>
<event>
12    1  0.3166324E-008  0.4235822E+03  0.7818608E-02  0.1035907E+00
          1   -1    0    0  501    0  0.00000000000E+00  0.00000000000E+00  0.71207626977E+03  0.71207626977E+03  0.00000000000E+00 0. -1.
         -1   -1    0    0    0  501 -0.00000000000E+00 -0.00000000000E+00 -0.35702981275E+03  0.35702981275E+03  0.00000000000E+00 0.  1.
         23    2    1    2    0    0 -0.97839815837E+02  0.30189375573E+03  0.15168728519E+03  0.36058601490E+03  0.79377404495E+02 0.  0.
    5000000    2    1    2    0    0  0.97839815837E+02 -0.30189375573E+03  0.20335917183E+03  0.70852006762E+03  0.59994438421E+03 0.  0.
         23    2    4    4    0    0  0.19752360031E+03 -0.35191384256E+03  0.32102411395E+03  0.52329660204E+03  0.89016440633E+02 0.  0.
         23    2    4    4    0    0 -0.99683784471E+02  0.50020086829E+02 -0.11766494212E+03  0.18522346558E+03  0.89575820535E+02 0.  0.
          4    1    3    3  502    0 -0.82805060257E+02  0.12833033301E+03  0.64750354951E+02  0.16588538465E+03  0.00000000000E+00 0. -1.
         -4    1    3    3    0  502 -0.15034755580E+02  0.17356342272E+03  0.86936930240E+02  0.19470063025E+03  0.00000000000E+00 0.  1.
         13    1    5    5    0    0  0.46203039062E+02 -0.38910340920E+02  0.20618897677E+02  0.63826909611E+02  0.00000000000E+00 0. -1.
        -13    1    5    5    0    0  0.15132056125E+03 -0.31300350164E+03  0.30040521628E+03  0.45946969243E+03  0.00000000000E+00 0.  1.
          5    1    6    6  503    0 -0.41333699522E+02  0.24672740140E+02 -0.11100654807E+03  0.12108576521E+03  0.47000000000E+01 0. -1.
         -5    1    6    6    0  503 -0.58350084949E+02  0.25347346688E+02 -0.66583940551E+01  0.64137700373E+02  0.47000000000E+01 0.  1.
<mgrwt>
<rscale>  0 0.42358222E+03</rscale>
<asrwt>0</asrwt>
<pdfrwt beam="1">  1        1 0.10955020E+00 0.42358222E+03</pdfrwt>
<pdfrwt beam="2">  1       -1 0.54927664E-01 0.42358222E+03</pdfrwt>
<totfact> 0.93550300E+01</totfact>
</mgrwt>
</event>
<event>
12    1  0.3166324E-008  0.4881858E+03  0.7818608E-02  0.1016909E+00
         -2   -1    0    0    0  501 -0.00000000000E+00  0.00000000000E+00  0.17885367457E+03  0.17885367457E+03  0.00000000000E+00 0.  1.
          2   -1    0    0  501    0  0.00000000000E+00 -0.00000000000E+00 -0.23223605213E+04  0.23223605213E+04  0.00000000000E+00 0. -1.
         23    2    1    2    0    0 -0.45297904719E+03  0.89351359916E+02 -0.12160253867E+04  0.13038394468E+04  0.90032656428E+02 0.  0.
    5000000    2    1    2    0    0  0.45297904719E+03 -0.89351359916E+02 -0.92748146005E+03  0.11973747491E+04  0.60025890107E+03 0.  0.
         23    2    4    4    0    0  0.17175669895E+03  0.48922138433E+02  0.12938228286E+02  0.20175095545E+03  0.92964030721E+02 0.  0.
         23    2    4    4    0    0  0.28122234824E+03 -0.13827349835E+03 -0.94041968833E+03  0.99562379364E+03  0.93123459835E+02 0.  0.
          1    1    3    3  502    0 -0.30241050462E+03  0.62739530942E+02 -0.92328986187E+03  0.97357718291E+03  0.00000000000E+00 0. -1.
         -1    1    3    3    0  502 -0.15056854257E+03  0.26611828974E+02 -0.29273552480E+03  0.33026226387E+03  0.00000000000E+00 0.  1.
         13    1    5    5    0    0  0.28429259035E+02 -0.23640829722E+02 -0.12646232007E+02  0.39077343604E+02  0.00000000000E+00 0. -1.
        -13    1    5    5    0    0  0.14332743992E+03  0.72562968155E+02  0.25584460293E+02  0.16267361184E+03  0.00000000000E+00 0.  1.
          5    1    6    6  503    0  0.54493652332E+02 -0.48478660359E+02 -0.12818430901E+03  0.14755692370E+03  0.47000000000E+01 0. -1.
         -5    1    6    6    0  503  0.22672869591E+03 -0.89794837990E+02 -0.81223537932E+03  0.84806686995E+03  0.47000000000E+01 0.  1.
<mgrwt>
<rscale>  0 0.48818581E+03</rscale>
<asrwt>0</asrwt>
<pdfrwt beam="1">  1        2 0.35728622E+00 0.48818581E+03</pdfrwt>
<pdfrwt beam="2">  1       -2 0.27515951E-01 0.48818581E+03</pdfrwt>
<totfact> 0.57180232E+01</totfact>
</mgrwt>
</event>
<event>
12    1  0.3166324E-008  0.4004186E+03  0.7818608E-02  0.1043635E+00
         -1   -1    0    0    0  501 -0.00000000000E+00  0.00000000000E+00  0.20717360858E+03  0.20717360858E+03  0.00000000000E+00 0.  1.
          1   -1    0    0  501    0  0.00000000000E+00 -0.00000000000E+00 -0.14589105164E+04  0.14589105164E+04  0.00000000000E+00 0. -1.
         23    2    1    2    0    0 -0.36845624661E+03 -0.89301749110E+02 -0.44125106359E+03  0.58873033811E+03  0.90366486196E+02 0.  0.
    5000000    2    1    2    0    0  0.36845624661E+03  0.89301749110E+02 -0.81048584419E+03  0.10773537868E+04  0.60005755584E+03 0.  0.
         23    2    4    4    0    0  0.14678488436E+03  0.10284394539E+03  0.30089203013E+02  0.20307284602E+03  0.90612037125E+02 0.  0.
         23    2    4    4    0    0  0.22167136225E+03 -0.13542196276E+02 -0.84057504721E+03  0.87428094082E+03  0.92082406460E+02 0.  0.
          3    1    3    3  502    0 -0.18545573115E+03 -0.76255788664E+02 -0.17977192818E+03  0.26930785299E+03  0.00000000000E+00 0. -1.
         -3    1    3    3    0  502 -0.18300051546E+03 -0.13045960446E+02 -0.26147913541E+03  0.31942248512E+03  0.00000000000E+00 0.  1.
         11    1    5    5    0    0  0.75566175284E+02  0.11379470269E+02 -0.16431455595E+02  0.78164774186E+02  0.00000000000E+00 0.  1.
        -11    1    5    5    0    0  0.71218709076E+02  0.91464475116E+02  0.46520658608E+02  0.12490807183E+03  0.00000000000E+00 0. -1.
          5    1    6    6  503    0  0.15039500334E+03  0.55558458626E+01 -0.69359565691E+03  0.70975104772E+03  0.47000000000E+01 0. -1.
         -5    1    6    6    0  503  0.71276358912E+02 -0.19098042139E+02 -0.14697939029E+03  0.16452989310E+03  0.47000000000E+01 0.  1.
<mgrwt>
<rscale>  0 0.40041862E+03</rscale>
<asrwt>0</asrwt>
<pdfrwt beam="1">  1        1 0.22444778E+00 0.40041862E+03</pdfrwt>
<pdfrwt beam="2">  1       -1 0.31872862E-01 0.40041862E+03</pdfrwt>
<totfact> 0.68915288E+01</totfact>
</mgrwt>
</event>
<event>
12    1  0.3166324E-008  0.9135156E+03  0.7818608E-02  0.9408842E-01
          2   -1    0    0  501    0  0.00000000000E+00  0.00000000000E+00  0.31086947536E+04  0.31086947536E+04  0.00000000000E+00 0. -1.
         -2   -1    0    0    0  501 -0.00000000000E+00 -0.00000000000E+00 -0.31685283627E+03  0.31685283627E+03  0.00000000000E+00 0.  1.
         23    2    1    2    0    0 -0.38463576726E+03  0.80581288794E+03  0.14548349670E+04  0.17095160253E+04  0.92850286758E+02 0.  0.
    5000000    2    1    2    0    0  0.38463576726E+03 -0.80581288794E+03  0.13370069503E+04  0.17160315646E+04  0.59991471190E+03 0.  0.
         23    2    4    4    0    0  0.39375819430E+03 -0.71890973531E+03  0.74898745973E+03  0.11142042189E+04  0.92693600114E+02 0.  0.
         23    2    4    4    0    0 -0.91224270351E+01 -0.86903152628E+02  0.58801949060E+03  0.60182734566E+03  0.93775562126E+02 0.  0.
          1    1    3    3  502    0 -0.35918848134E+03  0.72209549856E+03  0.13541623176E+04  0.15761325631E+04  0.00000000000E+00 0. -1.
         -1    1    3    3    0  502 -0.25447285921E+02  0.83717389378E+02  0.10067264945E+03  0.13338346222E+03  0.00000000000E+00 0.  1.
         13    1    5    5    0    0  0.22598694713E+03 -0.49551157914E+03  0.51957479244E+03  0.75270166087E+03  0.00000000000E+00 0. -1.
        -13    1    5    5    0    0  0.16777124717E+03 -0.22339815617E+03  0.22941266729E+03  0.36150255804E+03  0.00000000000E+00 0.  1.
          5    1    6    6  503    0 -0.28855727304E+01  0.10215384327E+02  0.24402082926E+03  0.24429681889E+03  0.47000000000E+01 0. -1.
         -5    1    6    6    0  503 -0.62368543046E+01 -0.97118536955E+02  0.34399866134E+03  0.35753052677E+03  0.47000000000E+01 0.  1.
<mgrwt>
<rscale>  0 0.91351555E+03</rscale>
<asrwt>0</asrwt>
<pdfrwt beam="1">  1        2 0.47826071E+00 0.91351555E+03</pdfrwt>
<pdfrwt beam="2">  1       -2 0.48746592E-01 0.91351555E+03</pdfrwt>
<totfact> 0.61527136E+00</totfact>
</mgrwt>
</event>
<event>
12    1  0.3439341E-008  0.1272535E+04  0.7818608E-02  0.9051633E-01
         -2   -1    0    0    0  501 -0.00000000000E+00  0.00000000000E+00  0.91765957422E+03  0.91765957422E+03  0.00000000000E+00 0.  1.
          2   -1    0    0  501    0  0.00000000000E+00 -0.00000000000E+00 -0.18796086715E+04  0.18796086715E+04  0.00000000000E+00 0. -1.
         23    2    1    2    0    0  0.11713751545E+04 -0.39387036138E+03 -0.59898221069E+03  0.13763869608E+04  0.91693855598E+02 0.  0.
    5000000    2    1    2    0    0 -0.11713751545E+04  0.39387036138E+03 -0.36296688658E+03  0.14208812849E+04  0.59992087053E+03 0.  0.
         23    2    4    4    0    0 -0.92846965440E+03  0.13311952802E+03 -0.44543472689E+03  0.10423975251E+04  0.91672223629E+02 0.  0.
         23    2    4    4    0    0 -0.24290550007E+03  0.26075083336E+03  0.82467840314E+02  0.37848375976E+03  0.97236477995E+02 0.  0.
          1    1    3    3  502    0  0.73674639245E+03 -0.22101740305E+03 -0.33160600384E+03  0.83761953238E+03  0.00000000000E+00 0. -1.
         -1    1    3    3    0  502  0.43462876202E+03 -0.17285295833E+03 -0.26737620684E+03  0.53876742845E+03  0.00000000000E+00 0.  1.
         11    1    5    5    0    0 -0.85728587441E+03  0.14726673053E+03 -0.40958601078E+03  0.96145060227E+03  0.00000000000E+00 0. -1.
        -11    1    5    5    0    0 -0.71183779990E+02 -0.14147202510E+02 -0.35848716111E+02  0.80946922853E+02  0.00000000000E+00 0.  1.
          5    1    6    6  503    0 -0.24611344315E+03  0.23845181523E+03  0.63252014012E+02  0.34850251414E+03  0.47000000000E+01 0. -1.
         -5    1    6    6    0  503  0.32079430806E+01  0.22299018126E+02  0.19215826302E+02  0.29981245616E+02  0.47000000000E+01 0.  1.
<mgrwt>
<rscale>  0 0.12725352E+04</rscale>
<asrwt>0</asrwt>
<pdfrwt beam="1">  1        2 0.28917056E+00 0.12725352E+04</pdfrwt>
<pdfrwt beam="2">  1       -2 0.14117840E+00 0.12725352E+04</pdfrwt>
<totfact> 0.26462147E+00</totfact>
</mgrwt>
</event>
<event>
12    1  0.3166324E-008  0.6604566E+03  0.7818608E-02  0.9787354E-01
          1   -1    0    0  501    0  0.00000000000E+00  0.00000000000E+00  0.81249193609E+03  0.81249193609E+03  0.00000000000E+00 0. -1.
         -1   -1    0    0    0  501 -0.00000000000E+00 -0.00000000000E+00 -0.56258546420E+03  0.56258546420E+03  0.00000000000E+00 0.  1.
         23    2    1    2    0    0 -0.91356083964E+02  0.53060514479E+03  0.93555807646E+02  0.55397818819E+03  0.90837162536E+02 0.  0.
    5000000    2    1    2    0    0  0.91356083964E+02 -0.53060514479E+03  0.15635066425E+03  0.82109921210E+03  0.59989218376E+03 0.  0.
         23    2    4    4    0    0  0.18840085834E+03 -0.61232323510E+03  0.13246818403E+03  0.66226714960E+03  0.10303072356E+03 0.  0.
         23    2    4    4    0    0 -0.97044774378E+02  0.81718090311E+02  0.23882480217E+02  0.15883206249E+03  0.92529544991E+02 0.  0.
          2    1    3    3  502    0 -0.24668267956E+02  0.33425138445E+03  0.88060719134E+02  0.34653600348E+03  0.00000000000E+00 0. -1.
         -2    1    3    3    0  502 -0.66687816008E+02  0.19635376034E+03  0.54950885120E+01  0.20744218472E+03  0.00000000000E+00 0.  1.
         11    1    5    5    0    0  0.53370524539E+02 -0.33090050661E+03  0.91555512208E+02  0.34745642889E+03  0.00000000000E+00 0. -1.
        -11    1    5    5    0    0  0.13503033380E+03 -0.28142272849E+03  0.40912671824E+02  0.31481072071E+03  0.00000000000E+00 0.  1.
          5    1    6    6  503    0 -0.91073141013E+02  0.62932954423E+02  0.53423950457E+02  0.12300846413E+03  0.47000000000E+01 0. -1.
         -5    1    6    6    0  503 -0.59716333651E+01  0.18785135888E+02 -0.29541470240E+02  0.35823598358E+02  0.47000000000E+01 0.  1.
<mgrwt>
<rscale>  0 0.66045657E+03</rscale>
<asrwt>0</asrwt>
<pdfrwt beam="1">  1        1 0.12499876E+00 0.66045657E+03</pdfrwt>
<pdfrwt beam="2">  1       -1 0.86551610E-01 0.66045657E+03</pdfrwt>
<totfact> 0.29410774E+01</totfact>
</mgrwt>
</event>
<event>
12    1  0.3166324E-008  0.6893818E+03  0.7818608E-02  0.9735565E-01
         -2   -1    0    0    0  501 -0.00000000000E+00  0.00000000000E+00  0.46799532738E+03  0.46799532738E+03  0.00000000000E+00 0.  1.
          2   -1    0    0  501    0  0.00000000000E+00 -0.00000000000E+00 -0.10655538670E+04  0.10655538670E+04  0.00000000000E+00 0. -1.
         23    2    1    2    0    0  0.45292312129E+03  0.34840145352E+03 -0.17653724871E+03  0.60415017618E+03  0.85493324813E+02 0.  0.
    5000000    2    1    2    0    0 -0.45292312129E+03 -0.34840145352E+03 -0.42102129087E+03  0.92939901814E+03  0.60000056746E+03 0.  0.
         23    2    4    4    0    0 -0.40698399535E+03 -0.49274046290E+03 -0.28262060729E+03  0.70484885491E+03  0.92240795538E+02 0.  0.
         23    2    4    4    0    0 -0.45939125948E+02  0.14433900938E+03 -0.13840068358E+03  0.22455016323E+03  0.91235265499E+02 0.  0.
          1    1    3    3  502    0  0.30689877579E+03  0.22205692248E+03 -0.15704714759E+03  0.41007309345E+03  0.00000000000E+00 0. -1.
         -1    1    3    3    0  502  0.14602434550E+03  0.12634453103E+03 -0.19490101117E+02  0.19407708273E+03  0.00000000000E+00 0.  1.
         11    1    5    5    0    0 -0.28332923549E+03 -0.40257813340E+03 -0.22588663365E+03  0.54163583748E+03  0.00000000000E+00 0. -1.
        -11    1    5    5    0    0 -0.12365475986E+03 -0.90162329495E+02 -0.56733973636E+02  0.16321301744E+03  0.00000000000E+00 0.  1.
          5    1    6    6  503    0  0.11883145132E+02  0.41991783120E+02 -0.84339988397E+02  0.95078087016E+02  0.47000000000E+01 0. -1.
         -5    1    6    6    0  503 -0.57822271080E+02  0.10234722626E+03 -0.54060695182E+02  0.12947207622E+03  0.47000000000E+01 0.  1.
<mgrwt>
<rscale>  0 0.68938182E+03</rscale>
<asrwt>0</asrwt>
<pdfrwt beam="1">  1        2 0.16393136E+00 0.68938182E+03</pdfrwt>
<pdfrwt beam="2">  1       -2 0.71999282E-01 0.68938182E+03</pdfrwt>
<totfact> 0.40899952E+01</totfact>
</mgrwt>
</event>
<event>
12    1  0.3166324E-008  0.7388201E+03  0.7818608E-02  0.9653055E-01
         -2   -1    0    0    0  501 -0.00000000000E+00  0.00000000000E+00  0.59244150322E+03  0.59244150322E+03  0.00000000000E+00 0.  1.
          2   -1    0    0  501    0  0.00000000000E+00 -0.00000000000E+00 -0.12302591935E+04  0.12302591935E+04  0.00000000000E+00 0. -1.
         23    2    1    2    0    0  0.58670404679E+03  0.21162149918E+03  0.15443746165E+03  0.64952036320E+03  0.94976182333E+02 0.  0.
    5000000    2    1    2    0    0 -0.58670404679E+03 -0.21162149918E+03 -0.79225515190E+03  0.11731803335E+04  0.59973208328E+03 0.  0.
         23    2    4    4    0    0  0.10276090152E+03 -0.75836871771E+02 -0.16059214191E+03  0.22397771222E+03  0.89806155289E+02 0.  0.
         23    2    4    4    0    0 -0.68946494832E+03 -0.13578462741E+03 -0.63166300999E+03  0.94920262126E+03  0.90487999268E+02 0.  0.
          4    1    3    3  502    0  0.43725197266E+03  0.13790389186E+03  0.73774811103E+02  0.46438076375E+03  0.00000000000E+00 0.  1.
         -4    1    3    3    0  502  0.14945207413E+03  0.73717607317E+02  0.80662650548E+02  0.18513959945E+03  0.00000000000E+00 0. -1.
         13    1    5    5    0    0  0.98069917124E+01 -0.48167683378E+02 -0.94789227474E+02  0.10677687228E+03  0.00000000000E+00 0.  1.
        -13    1    5    5    0    0  0.92953909811E+02 -0.27669188393E+02 -0.65802914435E+02  0.11720083994E+03  0.00000000000E+00 0. -1.
          5    1    6    6  503    0 -0.26276126229E+03 -0.16675169707E+02 -0.20032639378E+03  0.33086900171E+03  0.47000000000E+01 0. -1.
         -5    1    6    6    0  503 -0.42670368603E+03 -0.11910945770E+03 -0.43133661621E+03  0.61833361955E+03  0.47000000000E+01 0.  1.
<mgrwt>
<rscale>  0 0.73882011E+03</rscale>
<asrwt>0</asrwt>
<pdfrwt beam="1">  1        2 0.18927064E+00 0.73882011E+03</pdfrwt>
<pdfrwt beam="2">  1       -2 0.91144847E-01 0.73882011E+03</pdfrwt>
<totfact> 0.19039056E+01</totfact>
</mgrwt>
</event>
<event>
12    1  0.3166324E-008  0.4740915E+03  0.7818608E-02  0.1020772E+00
          2   -1    0    0  501    0  0.00000000000E+00  0.00000000000E+00  0.10225381889E+04  0.10225381889E+04  0.00000000000E+00 0. -1.
         -2   -1    0    0    0  501 -0.00000000000E+00 -0.00000000000E+00 -0.29757179201E+03  0.29757179201E+03  0.00000000000E+00 0.  1.
         23    2    1    2    0    0 -0.16392388865E+03  0.30887984915E+03  0.43949031511E+03  0.56918061313E+03  0.92396054065E+02 0.  0.
    5000000    2    1    2    0    0  0.16392388865E+03 -0.30887984915E+03  0.28547608183E+03  0.75092936783E+03  0.60010042468E+03 0.  0.
         23    2    4    4    0    0 -0.15026361235E+03 -0.19521064088E+03  0.30674660475E+03  0.40404216054E+03  0.92033909272E+02 0.  0.
         23    2    4    4    0    0  0.31418750100E+03 -0.11366920826E+03 -0.21270522919E+02  0.34688720730E+03  0.90795510636E+02 0.  0.
          3    1    3    3  502    0 -0.26432265989E+02  0.58984679810E+02  0.14730619481E+03  0.16086320949E+03  0.00000000000E+00 0. -1.
         -3    1    3    3    0  502 -0.13749162266E+03  0.24989516934E+03  0.29218412030E+03  0.40831740364E+03  0.00000000000E+00 0.  1.
         13    1    5    5    0    0 -0.12719150697E+00 -0.48316076187E+02  0.30992007130E+02  0.57401776120E+02  0.00000000000E+00 0. -1.
        -13    1    5    5    0    0 -0.15013642084E+03 -0.14689456470E+03  0.27575459762E+03  0.34664038442E+03  0.00000000000E+00 0.  1.
          5    1    6    6  503    0  0.16985413821E+03 -0.94095506303E+02 -0.44635198501E+02  0.19929571877E+03  0.47000000000E+01 0. -1.
         -5    1    6    6    0  503  0.14433336278E+03 -0.19573701958E+02  0.23364675582E+02  0.14759148853E+03  0.47000000000E+01 0.  1.
<mgrwt>
<rscale>  0 0.47409153E+03</rscale>
<asrwt>0</asrwt>
<pdfrwt beam="1">  1        2 0.15731357E+00 0.47409153E+03</pdfrwt>
<pdfrwt beam="2">  1       -2 0.45780276E-01 0.47409153E+03</pdfrwt>
<totfact> 0.11447672E+02</totfact>
</mgrwt>
</event>
<event>
12    1  0.3166324E-008  0.1793903E+04  0.7818608E-02  0.8709548E-01
         -1   -1    0    0    0  501 -0.00000000000E+00  0.00000000000E+00  0.33148245305E+04  0.33148245305E+04  0.00000000000E+00 0.  1.
          1   -1    0    0  501    0  0.00000000000E+00 -0.00000000000E+00 -0.13004303395E+04  0.13004303395E+04  0.00000000000E+00 0. -1.
         23    2    1    2    0    0 -0.12305183755E+04 -0.12840781165E+04 -0.10538756855E+03  0.17839147741E+04  0.90627257632E+02 0.  0.
    5000000    2    1    2    0    0  0.12305183755E+04  0.12840781165E+04  0.21197817595E+04  0.28313400959E+04  0.59998329069E+03 0.  0.
         23    2    4    4    0    0  0.76844758635E+03  0.10038695084E+04  0.17840759143E+04  0.21883828084E+04  0.88469007140E+02 0.  0.
         23    2    4    4    0    0  0.46207078916E+03  0.28020860815E+03  0.33570584514E+03  0.64295728751E+03  0.93109509789E+02 0.  0.
          2    1    3    3  502    0 -0.24672437264E+03 -0.27849766278E+03 -0.56051764675E+02  0.37626541769E+03  0.00000000000E+00 0. -1.
         -2    1    3    3    0  502 -0.98379400287E+03 -0.10055804537E+04 -0.49335803877E+02  0.14076493564E+04  0.00000000000E+00 0.  1.
         11    1    5    5    0    0  0.49674306438E+03  0.64147070488E+03  0.12165302983E+04  0.14622531600E+04  0.00000000000E+00 0. -1.
        -11    1    5    5    0    0  0.27170452197E+03  0.36239880349E+03  0.56754561608E+03  0.72612964845E+03  0.00000000000E+00 0.  1.
          5    1    6    6  503    0  0.49914779527E+02  0.57157493296E+02  0.22574674743E+02  0.79310593207E+02  0.47000000000E+01 0. -1.
         -5    1    6    6    0  503  0.41215600963E+03  0.22305111486E+03  0.31313117040E+03  0.56364669430E+03  0.47000000000E+01 0.  1.
<mgrwt>
<rscale>  0 0.17939033E+04</rscale>
<asrwt>0</asrwt>
<pdfrwt beam="1">  1        1 0.20006621E+00 0.17939033E+04</pdfrwt>
<pdfrwt beam="2">  1       -1 0.50997300E+00 0.17939033E+04</pdfrwt>
<totfact> 0.10537823E-02</totfact>
</mgrwt>
</event>
<event>
12    1  0.3166324E-008  0.6978472E+03  0.7818608E-02  0.9720921E-01
          1   -1    0    0  501    0  0.00000000000E+00  0.00000000000E+00  0.94489490441E+03  0.94489490441E+03  0.00000000000E+00 0. -1.
         -1   -1    0    0    0  501 -0.00000000000E+00 -0.00000000000E+00 -0.89371905622E+03  0.89371905622E+03  0.00000000000E+00 0.  1.
         23    2    1    2    0    0 -0.58077353194E+03  0.71685144688E+02  0.59484704679E+03  0.83969934314E+03  0.93889948454E+02 0.  0.
    5000000    2    1    2    0    0  0.58077353194E+03 -0.71685144688E+02 -0.54367119859E+03  0.99891461749E+03  0.59984613484E+03 0.  0.
         23    2    4    4    0    0 -0.10562040933E+03 -0.31593410940E+02 -0.66542896612E+02  0.15732229147E+03  0.90379930412E+02 0.  0.
         23    2    4    4    0    0  0.68639394128E+03 -0.40091733748E+02 -0.47712830198E+03  0.84159232602E+03  0.88781962887E+02 0.  0.
          2    1    3    3  502    0 -0.29736855168E+03  0.73921361347E+02  0.26794438161E+03  0.40704620724E+03  0.00000000000E+00 0. -1.
         -2    1    3    3    0  502 -0.28340498026E+03 -0.22362166590E+01  0.32690266518E+03  0.43265313590E+03  0.00000000000E+00 0.  1.
         11    1    5    5    0    0 -0.62193093598E+02 -0.37436947809E+02 -0.83225379545E+02  0.11043536459E+03  0.00000000000E+00 0. -1.
        -11    1    5    5    0    0 -0.43427315735E+02  0.58435368689E+01  0.16682482933E+02  0.46886926877E+02  0.00000000000E+00 0.  1.
          5    1    6    6  503    0  0.54925612968E+03 -0.12110541062E+02 -0.41425898241E+03  0.68808542762E+03  0.47000000000E+01 0. -1.
         -5    1    6    6    0  503  0.13713781160E+03 -0.27981192686E+02 -0.62869319565E+02  0.15350689840E+03  0.47000000000E+01 0.  1.
<mgrwt>
<rscale>  0 0.69784725E+03</rscale>
<asrwt>0</asrwt>
<pdfrwt beam="1">  1        1 0.14536845E+00 0.69784725E+03</pdfrwt>
<pdfrwt beam="2">  1       -1 0.13749524E+00 0.69784725E+03</pdfrwt>
<totfact> 0.76579940E+00</totfact>
</mgrwt>
</event>
<event>
12    1  0.3166324E-008  0.4010999E+03  0.7818608E-02  0.1043399E+00
          1   -1    0    0  501    0  0.00000000000E+00  0.00000000000E+00  0.99905230831E+03  0.99905230831E+03  0.00000000000E+00 0. -1.
         -1   -1    0    0    0  501 -0.00000000000E+00 -0.00000000000E+00 -0.57507418857E+03  0.57507418857E+03  0.00000000000E+00 0.  1.
         23    2    1    2    0    0 -0.73370643322E+02  0.20855089815E+03  0.79807473510E+03  0.83318655933E+03  0.91650594254E+02 0.  0.
    5000000    2    1    2    0    0  0.73370643322E+02 -0.20855089815E+03 -0.37409661536E+03  0.74093993755E+03  0.60013913804E+03 0.  0.
         23    2    4    4    0    0 -0.18926474296E+03  0.15243984800E+02 -0.31534833623E+03  0.37945583155E+03  0.92133777379E+02 0.  0.
         23    2    4    4    0    0  0.26263538628E+03 -0.22379488295E+03 -0.58748279129E+02  0.36148410600E+03  0.90321109507E+02 0.  0.
          1    1    3    3  502    0  0.16448462582E+02  0.75244972536E+02  0.30486826740E+03  0.31444716294E+03  0.00000000000E+00 0. -1.
         -1    1    3    3    0  502 -0.89819105904E+02  0.13330592562E+03  0.49320646770E+03  0.51873939639E+03  0.00000000000E+00 0.  1.
         11    1    5    5    0    0 -0.10356155105E+03  0.54099074613E+02 -0.18074138456E+03  0.21521884867E+03  0.00000000000E+00 0.  1.
        -11    1    5    5    0    0 -0.85703191912E+02 -0.38855089813E+02 -0.13460695167E+03  0.16423698288E+03  0.00000000000E+00 0. -1.
          5    1    6    6  503    0  0.26224966255E+03 -0.20162974457E+03 -0.66656189581E+02  0.33748270624E+03  0.47000000000E+01 0. -1.
         -5    1    6    6    0  503  0.38572373360E+00 -0.22165138388E+02  0.79079104519E+01  0.24001399757E+02  0.47000000000E+01 0.  1.
<mgrwt>
<rscale>  0 0.40109985E+03</rscale>
<asrwt>0</asrwt>
<pdfrwt beam="1">  1        1 0.15370035E+00 0.40109985E+03</pdfrwt>
<pdfrwt beam="2">  1       -1 0.88472952E-01 0.40109985E+03</pdfrwt>
<totfact> 0.20729671E+01</totfact>
</mgrwt>
</event>
<event>
12    1  0.3166324E-008  0.6488382E+03  0.7818608E-02  0.9808962E-01
          1   -1    0    0  501    0  0.00000000000E+00  0.00000000000E+00  0.81235556012E+03  0.81235556012E+03  0.00000000000E+00 0. -1.
         -1   -1    0    0    0  501 -0.00000000000E+00 -0.00000000000E+00 -0.82491172230E+03  0.82491172230E+03  0.00000000000E+00 0.  1.
         23    2    1    2    0    0  0.31248290531E+03  0.54789546443E+03 -0.32123865314E+03  0.71362172921E+03  0.90701124984E+02 0.  0.
    5000000    2    1    2    0    0 -0.31248290531E+03 -0.54789546443E+03  0.30868249095E+03  0.92364555321E+03  0.60000101806E+03 0.  0.
         23    2    4    4    0    0 -0.21805781216E+02 -0.94760662861E+02 -0.15630103820E+03  0.20667553600E+03  0.93966415906E+02 0.  0.
         23    2    4    4    0    0 -0.29067712410E+03 -0.45313480157E+03  0.46498352915E+03  0.71697001721E+03  0.89509688419E+02 0.  0.
          3    1    3    3  502    0  0.15599016223E+03  0.34921931368E+03 -0.21976555440E+03  0.44111671773E+03  0.00000000000E+00 0. -1.
         -3    1    3    3    0  502  0.15649274308E+03  0.19867615075E+03 -0.10147309874E+03  0.27250501148E+03  0.00000000000E+00 0.  1.
         13    1    5    5    0    0  0.15508711144E+02  0.41823442521E+00  0.44769969492E+01  0.16147400505E+02  0.00000000000E+00 0. -1.
        -13    1    5    5    0    0 -0.37314492360E+02 -0.95178897286E+02 -0.16077803515E+03  0.19052813549E+03  0.00000000000E+00 0.  1.
          5    1    6    6  503    0 -0.19105095767E+03 -0.22272407738E+03  0.27416883017E+03  0.40161812771E+03  0.47000000000E+01 0. -1.
         -5    1    6    6    0  503 -0.99626166432E+02 -0.23041072419E+03  0.19081469899E+03  0.31535188950E+03  0.47000000000E+01 0.  1.
<mgrwt>
<rscale>  0 0.64883817E+03</rscale>
<asrwt>0</asrwt>
<pdfrwt beam="1">  1        1 0.12497778E+00 0.64883817E+03</pdfrwt>
<pdfrwt beam="2">  1       -1 0.12690950E+00 0.64883817E+03</pdfrwt>
<totfact> 0.12142465E+01</totfact>
</mgrwt>
</event>
<event>
12    1  0.3166324E-008  0.1501049E+04  0.7818608E-02  0.8883756E-01
          2   -1    0    0  501    0  0.00000000000E+00  0.00000000000E+00  0.14585495926E+04  0.14585495926E+04  0.00000000000E+00 0. -1.
         -2   -1    0    0    0  501 -0.00000000000E+00 -0.00000000000E+00 -0.16008691642E+04  0.16008691642E+04  0.00000000000E+00 0.  1.
         23    2    1    2    0    0  0.66050040255E+03  0.13086749040E+04 -0.13990568479E+03  0.14758604019E+04  0.98486237926E+02 0.  0.
    5000000    2    1    2    0    0 -0.66050040255E+03 -0.13086749040E+04 -0.24138868837E+01  0.15835583549E+04  0.59896615116E+03 0.  0.
         23    2    4    4    0    0 -0.11043719323E+03 -0.69856639027E+03  0.18353594238E+03  0.73635404219E+03  0.91326108201E+02 0.  0.
         23    2    4    4    0    0 -0.55006320932E+03 -0.61010851377E+03 -0.18594982926E+03  0.84720431269E+03  0.91519809991E+02 0.  0.
          4    1    3    3  502    0  0.42575582499E+03  0.81130604574E+03 -0.41731374863E+02  0.91718429447E+03  0.00000000000E+00 0. -1.
         -4    1    3    3    0  502  0.23474457756E+03  0.49736885831E+03 -0.98174309927E+02  0.55867610745E+03  0.00000000000E+00 0.  1.
         13    1    5    5    0    0  0.53020305813E+01 -0.15139451706E+03  0.14972709499E+02  0.15222546881E+03  0.00000000000E+00 0. -1.
        -13    1    5    5    0    0 -0.11573922381E+03 -0.54717187321E+03  0.16856323288E+03  0.58412857338E+03  0.00000000000E+00 0.  1.
          5    1    6    6  503    0 -0.41041839550E+03 -0.50208672282E+03 -0.16642310533E+03  0.66951704727E+03  0.47000000000E+01 0. -1.
         -5    1    6    6    0  503 -0.13964481381E+03 -0.10802179096E+03 -0.19526723934E+02  0.17768726543E+03  0.47000000000E+01 0.  1.
<mgrwt>
<rscale>  0 0.15010486E+04</rscale>
<asrwt>0</asrwt>
<pdfrwt beam="1">  1        2 0.22439224E+00 0.15010486E+04</pdfrwt>
<pdfrwt beam="2">  1       -2 0.24628757E+00 0.15010486E+04</pdfrwt>
<totfact> 0.85391773E-01</totfact>
</mgrwt>
</event>
<event>
12    1  0.3166324E-008  0.6900609E+03  0.7818608E-02  0.9734382E-01
         -1   -1    0    0    0  501 -0.00000000000E+00  0.00000000000E+00  0.48225748420E+03  0.48225748420E+03  0.00000000000E+00 0.  1.
          1   -1    0    0  501    0  0.00000000000E+00 -0.00000000000E+00 -0.11071135539E+04  0.11071135539E+04  0.00000000000E+00 0. -1.
         23    2    1    2    0    0  0.94652204801E+02  0.57229696834E+03 -0.79881231031E+02  0.59276893088E+03  0.92255810118E+02 0.  0.
    5000000    2    1    2    0    0 -0.94652204801E+02 -0.57229696834E+03 -0.54497483863E+03  0.99660210718E+03  0.59977939732E+03 0.  0.
         23    2    4    4    0    0 -0.31341656737E+03 -0.29766732462E+03 -0.16690872758E+03  0.47239200159E+03  0.91977709127E+02 0.  0.
         23    2    4    4    0    0  0.21876436257E+03 -0.27462964372E+03 -0.37806611106E+03  0.52421010559E+03  0.92644281731E+02 0.  0.
          2    1    3    3  502    0  0.10891163377E+03  0.46245331946E+03 -0.81209464271E+02  0.48199563664E+03  0.00000000000E+00 0. -1.
         -2    1    3    3    0  502 -0.14259428970E+02  0.10984364888E+03  0.13282332400E+01  0.11077329424E+03  0.00000000000E+00 0.  1.
         11    1    5    5    0    0 -0.40635963568E+02 -0.38769982921E+02  0.95511341826E+01  0.56970319246E+02  0.00000000000E+00 0.  1.
        -11    1    5    5    0    0 -0.27278060380E+03 -0.25889734170E+03 -0.17645986176E+03  0.41542168234E+03  0.00000000000E+00 0. -1.
          5    1    6    6  503    0  0.12224414766E+03 -0.21805875406E+03 -0.24163347814E+03  0.34770976348E+03  0.47000000000E+01 0. -1.
         -5    1    6    6    0  503  0.96520214906E+02 -0.56570889660E+02 -0.13643263291E+03  0.17650034211E+03  0.47000000000E+01 0.  1.
<mgrwt>
<rscale>  0 0.69006088E+03</rscale>
<asrwt>0</asrwt>
<pdfrwt beam="1">  1        1 0.17032516E+00 0.69006088E+03</pdfrwt>
<pdfrwt beam="2">  1       -1 0.74193460E-01 0.69006088E+03</pdfrwt>
<totfact> 0.23750504E+01</totfact>
</mgrwt>
</event>
<event>
12    1  0.3166324E-008  0.8011642E+03  0.7818608E-02  0.9558333E-01
         -2   -1    0    0    0  501 -0.00000000000E+00  0.00000000000E+00  0.44959202420E+03  0.44959202420E+03  0.00000000000E+00 0.  1.
          2   -1    0    0  501    0  0.00000000000E+00 -0.00000000000E+00 -0.20285336264E+04  0.20285336264E+04  0.00000000000E+00 0. -1.
         23    2    1    2    0    0  0.30499752945E+03 -0.73495057843E+03 -0.29690402575E+03  0.85425146234E+03  0.91748104656E+02 0.  0.
    5000000    2    1    2    0    0 -0.30499752945E+03  0.73495057843E+03 -0.12820375765E+04  0.16238741883E+04  0.60014263820E+03 0.  0.
         23    2    4    4    0    0 -0.24738312013E+03  0.46086281491E+03 -0.12081611564E+04  0.13202681351E+04  0.99305722758E+02 0.  0.
         23    2    4    4    0    0 -0.57614409314E+02  0.27408776352E+03 -0.73876420150E+02  0.30360605320E+03  0.90969158581E+02 0.  0.
          2    1    3    3  502    0  0.17705155876E+03 -0.43194239758E+03 -0.12569831497E+03  0.48344757283E+03  0.00000000000E+00 0. -1.
         -2    1    3    3    0  502  0.12794597069E+03 -0.30300818084E+03 -0.17120571078E+03  0.37080388951E+03  0.00000000000E+00 0.  1.
         11    1    5    5    0    0 -0.12232702574E+03  0.22514902961E+03 -0.46920162587E+03  0.53460841041E+03  0.00000000000E+00 0.  1.
        -11    1    5    5    0    0 -0.12505609439E+03  0.23571378530E+03 -0.73895953048E+03  0.78565972470E+03  0.00000000000E+00 0. -1.
          5    1    6    6  503    0 -0.56133427001E+02  0.16543113708E+03 -0.84882819131E+02  0.19428228361E+03  0.47000000000E+01 0. -1.
         -5    1    6    6    0  503 -0.14809823127E+01  0.10865662644E+03  0.11006398981E+02  0.10932376958E+03  0.47000000000E+01 0.  1.
<mgrwt>
<rscale>  0 0.80116424E+03</rscale>
<asrwt>0</asrwt>
<pdfrwt beam="1">  1        2 0.31208209E+00 0.80116424E+03</pdfrwt>
<pdfrwt beam="2">  1       -2 0.69168005E-01 0.80116424E+03</pdfrwt>
<totfact> 0.12637010E+01</totfact>
</mgrwt>
</event>
<event>
12    1  0.3166324E-008  0.8278756E+03  0.7818608E-02  0.9520522E-01
         -2   -1    0    0    0  501 -0.00000000000E+00  0.00000000000E+00  0.63300846058E+03  0.63300846058E+03  0.00000000000E+00 0. -1.
          2   -1    0    0  501    0  0.00000000000E+00 -0.00000000000E+00 -0.11772952214E+04  0.11772952214E+04  0.00000000000E+00 0.  1.
         23    2    1    2    0    0 -0.28549718336E+02 -0.74690604504E+03 -0.11813167288E+03  0.76126957277E+03  0.83021345146E+02 0.  0.
    5000000    2    1    2    0    0  0.28549718336E+02  0.74690604504E+03 -0.42615508795E+03  0.10490341092E+04  0.60015054512E+03 0.  0.
         23    2    4    4    0    0 -0.12324759834E+03 -0.87283841209E+01 -0.17465844657E+03  0.23321560328E+03  0.92832049815E+02 0.  0.
         23    2    4    4    0    0  0.15179731667E+03  0.75563442916E+03 -0.25149664138E+03  0.81581850594E+03  0.91013505218E+02 0.  0.
          2    1    3    3  502    0 -0.30126193190E+02 -0.26509339737E+03 -0.74435790000E+01  0.26690354758E+03  0.00000000000E+00 0.  1.
         -2    1    3    3    0  502  0.15764748539E+01 -0.48181264767E+03 -0.11068809388E+03  0.49436602519E+03  0.00000000000E+00 0. -1.
         11    1    5    5    0    0 -0.42239095402E+02 -0.28730049101E+02 -0.15287183055E+02  0.53322179883E+02  0.00000000000E+00 0. -1.
        -11    1    5    5    0    0 -0.81008502936E+02  0.20001664980E+02 -0.15937126351E+03  0.17989342340E+03  0.00000000000E+00 0.  1.
          5    1    6    6  503    0  0.13194195937E+03  0.53558075131E+03 -0.14419509049E+03  0.57014887174E+03  0.47000000000E+01 0. -1.
         -5    1    6    6    0  503  0.19855357299E+02  0.22005367785E+03 -0.10730155089E+03  0.24566963421E+03  0.47000000000E+01 0. -1.
<mgrwt>
<rscale>  0 0.82787561E+03</rscale>
<asrwt>0</asrwt>
<pdfrwt beam="1">  1        2 0.18112234E+00 0.82787561E+03</pdfrwt>
<pdfrwt beam="2">  1       -2 0.97385916E-01 0.82787561E+03</pdfrwt>
<totfact> 0.17364450E+01</totfact>
</mgrwt>
</event>
<event>
12    1  0.3166324E-008  0.6269975E+03  0.7818608E-02  0.9850925E-01
          1   -1    0    0  501    0  0.00000000000E+00  0.00000000000E+00  0.12520603666E+04  0.12520603666E+04  0.00000000000E+00 0. -1.
         -1   -1    0    0    0  501 -0.00000000000E+00 -0.00000000000E+00 -0.56314326165E+03  0.56314326165E+03  0.00000000000E+00 0.  1.
         23    2    1    2    0    0 -0.34234509472E+03  0.51100725948E+03 -0.12289489678E+03  0.63382726848E+03  0.91133240374E+02 0.  0.
    5000000    2    1    2    0    0  0.34234509472E+03 -0.51100725948E+03  0.81181200175E+03  0.11813763598E+04  0.59856728459E+03 0.  0.
         23    2    4    4    0    0  0.10569082713E+03 -0.19455931970E+03  0.72931543029E+03  0.76863583896E+03  0.99378952746E+02 0.  0.
         23    2    4    4    0    0  0.23665426759E+03 -0.31644793977E+03  0.82496571453E+02  0.41274052083E+03  0.86049475765E+02 0.  0.
          3    1    3    3  502    0 -0.10632863409E+03  0.17993993691E+03  0.24050448048E+00  0.20900769642E+03  0.00000000000E+00 0. -1.
         -3    1    3    3    0  502 -0.23601646062E+03  0.33106732257E+03 -0.12313540126E+03  0.42481957205E+03  0.00000000000E+00 0.  1.
         11    1    5    5    0    0 -0.13529051085E+02 -0.39740531920E+02  0.77225574973E+02  0.87898433037E+02  0.00000000000E+00 0. -1.
        -11    1    5    5    0    0  0.11921987821E+03 -0.15481878778E+03  0.65208985532E+03  0.68073740593E+03  0.00000000000E+00 0.  1.
          5    1    6    6  503    0  0.20141048136E+02 -0.69760384174E+02 -0.52622509336E+01  0.72951725853E+02  0.47000000000E+01 0. -1.
         -5    1    6    6    0  503  0.21651321945E+03 -0.24668755560E+03  0.87758822386E+02  0.33978879498E+03  0.47000000000E+01 0.  1.
<mgrwt>
<rscale>  0 0.62699755E+03</rscale>
<asrwt>0</asrwt>
<pdfrwt beam="1">  1        1 0.19262467E+00 0.62699755E+03</pdfrwt>
<pdfrwt beam="2">  1       -1 0.86637425E-01 0.62699755E+03</pdfrwt>
<totfact> 0.13544959E+01</totfact>
</mgrwt>
</event>
<event>
12    1  0.3166324E-008  0.4262393E+03  0.7818608E-02  0.1035055E+00
         -1   -1    0    0    0  501 -0.00000000000E+00  0.00000000000E+00  0.23324425406E+03  0.23324425406E+03  0.00000000000E+00 0.  1.
          1   -1    0    0  501    0  0.00000000000E+00 -0.00000000000E+00 -0.13771625756E+04  0.13771625756E+04  0.00000000000E+00 0. -1.
         23    2    1    2    0    0 -0.30311495071E+03  0.22116716750E+03 -0.61352626037E+03  0.72598700326E+03  0.99242467801E+02 0.  0.
    5000000    2    1    2    0    0  0.30311495071E+03 -0.22116716750E+03 -0.53039206112E+03  0.88441982635E+03  0.60007424659E+03 0.  0.
         23    2    4    4    0    0  0.16245997069E+03 -0.25501235003E+03  0.11925677019E+02  0.31566393893E+03  0.89871907862E+02 0.  0.
         23    2    4    4    0    0  0.14065498003E+03  0.33845182531E+02 -0.54231773814E+03  0.56875588743E+03  0.91898915086E+02 0.  0.
          2    1    3    3  502    0 -0.26438727835E+03  0.14730640458E+03 -0.44820399439E+03  0.54082033095E+03  0.00000000000E+00 0. -1.
         -2    1    3    3    0  502 -0.38727672366E+02  0.73860762918E+02 -0.16532226598E+03  0.18516667231E+03  0.00000000000E+00 0.  1.
         13    1    5    5    0    0  0.14082684067E+03 -0.25427495592E+03  0.22569161324E+02  0.29154299735E+03  0.00000000000E+00 0. -1.
        -13    1    5    5    0    0  0.21633130022E+02 -0.73739411342E+00 -0.10643484305E+02  0.24120941582E+02  0.00000000000E+00 0.  1.
          5    1    6    6  503    0  0.34699089457E+02 -0.14062096351E+02 -0.26983972179E+03  0.27246529103E+03  0.47000000000E+01 0. -1.
         -5    1    6    6    0  503  0.10595589057E+03  0.47907278882E+02 -0.27247801635E+03  0.29629059639E+03  0.47000000000E+01 0.  1.
<mgrwt>
<rscale>  0 0.42623931E+03</rscale>
<asrwt>0</asrwt>
<pdfrwt beam="1">  1        1 0.21187117E+00 0.42623931E+03</pdfrwt>
<pdfrwt beam="2">  1       -1 0.35883731E-01 0.42623931E+03</pdfrwt>
<totfact> 0.63339941E+01</totfact>
</mgrwt>
</event>
<event>
12    1  0.3166324E-008  0.9153916E+03  0.7818608E-02  0.9406543E-01
         -1   -1    0    0    0  501 -0.00000000000E+00  0.00000000000E+00  0.47016805293E+03  0.47016805293E+03  0.00000000000E+00 0.  1.
          1   -1    0    0  501    0  0.00000000000E+00 -0.00000000000E+00 -0.20008193974E+04  0.20008193974E+04  0.00000000000E+00 0. -1.
         23    2    1    2    0    0 -0.65089836293E+03  0.57958189485E+03 -0.78610349776E+03  0.11771751892E+04  0.90547584937E+02 0.  0.
    5000000    2    1    2    0    0  0.65089836293E+03 -0.57958189485E+03 -0.74454784669E+03  0.12938122611E+04  0.60001234931E+03 0.  0.
         23    2    4    4    0    0  0.17762554439E+03  0.13441459014E+02  0.34419347742E+02  0.20266015839E+03  0.90304714494E+02 0.  0.
         23    2    4    4    0    0  0.47327281854E+03 -0.59302335387E+03 -0.77896719444E+03  0.10911521027E+04  0.90328081442E+02 0.  0.
          4    1    3    3  502    0 -0.10388103590E+03  0.91007378538E+02 -0.82828091440E+02  0.16104069455E+03  0.00000000000E+00 0. -1.
         -4    1    3    3    0  502 -0.54701732703E+03  0.48857451632E+03 -0.70327540632E+03  0.10161344946E+04  0.00000000000E+00 0.  1.
         11    1    5    5    0    0  0.16790109705E+03 -0.16045279230E+02  0.28834026390E+02  0.17111291726E+03  0.00000000000E+00 0. -1.
        -11    1    5    5    0    0  0.97244473426E+01  0.29486738244E+02  0.55853213518E+01  0.31547241131E+02  0.00000000000E+00 0.  1.
          5    1    6    6  503    0  0.35620008784E+03 -0.46835685759E+03 -0.55109508414E+03  0.80620377722E+03  0.47000000000E+01 0. -1.
         -5    1    6    6    0  503  0.11707273069E+03 -0.12466649627E+03 -0.22787211029E+03  0.28494832552E+03  0.47000000000E+01 0.  1.
<mgrwt>
<rscale>  0 0.91539160E+03</rscale>
<asrwt>0</asrwt>
<pdfrwt beam="1">  1        1 0.30781837E+00 0.91539160E+03</pdfrwt>
<pdfrwt beam="2">  1       -1 0.72333546E-01 0.91539160E+03</pdfrwt>
<totfact> 0.58686652E+00</totfact>
</mgrwt>
</event>
<event>
12    1  0.3166324E-008  0.8333176E+03  0.7818608E-02  0.9513005E-01
         -1   -1    0    0    0  501 -0.00000000000E+00  0.00000000000E+00  0.66344056290E+03  0.66344056290E+03  0.00000000000E+00 0.  1.
          1   -1    0    0  501    0  0.00000000000E+00 -0.00000000000E+00 -0.14230211593E+04  0.14230211593E+04  0.00000000000E+00 0. -1.
         23    2    1    2    0    0 -0.74420126315E+03 -0.17531621593E+03  0.11572802204E+03  0.77847861077E+03  0.89803544956E+02 0.  0.
    5000000    2    1    2    0    0  0.74420126315E+03  0.17531621593E+03 -0.87530861840E+03  0.13079831114E+04  0.60006945145E+03 0.  0.
         23    2    4    4    0    0  0.14360565899E+03 -0.13881410616E+03 -0.45516083683E+03  0.50526722156E+03  0.90728366176E+02 0.  0.
         23    2    4    4    0    0  0.60059560416E+03  0.31413032209E+03 -0.42014778157E+03  0.80271588982E+03  0.91846080061E+02 0.  0.
          4    1    3    3  502    0 -0.48630677468E+03 -0.15034584120E+03  0.52073957772E+02  0.51167357578E+03  0.00000000000E+00 0.  1.
         -4    1    3    3    0  502 -0.25789448847E+03 -0.24970374727E+02  0.63654064272E+02  0.26680503499E+03  0.00000000000E+00 0. -1.
         11    1    5    5    0    0  0.43041024340E+02 -0.96218153872E+02 -0.17143131568E+03  0.20124402825E+03  0.00000000000E+00 0. -1.
        -11    1    5    5    0    0  0.10056463465E+03 -0.42595952292E+02 -0.28372952116E+03  0.30402319331E+03  0.00000000000E+00 0.  1.
          5    1    6    6  503    0  0.18360889753E+03  0.50292869191E+02 -0.11143386497E+03  0.22063815673E+03  0.47000000000E+01 0. -1.
         -5    1    6    6    0  503  0.41698670664E+03  0.26383745290E+03 -0.30871391660E+03  0.58207773310E+03  0.47000000000E+01 0.  1.
<mgrwt>
<rscale>  0 0.83331760E+03</rscale>
<asrwt>0</asrwt>
<pdfrwt beam="1">  1        1 0.21892633E+00 0.83331760E+03</pdfrwt>
<pdfrwt beam="2">  1       -1 0.10206778E+00 0.83331760E+03</pdfrwt>
<totfact> 0.69084296E+00</totfact>
</mgrwt>
</event>
<event>
12    1  0.3166324E-008  0.3888262E+03  0.7818608E-02  0.1047719E+00
         -2   -1    0    0    0  501 -0.00000000000E+00  0.00000000000E+00  0.45194493456E+03  0.45194493456E+03  0.00000000000E+00 0.  1.
          2   -1    0    0  501    0  0.00000000000E+00 -0.00000000000E+00 -0.66934979170E+03  0.66934979170E+03  0.00000000000E+00 0. -1.
         23    2    1    2    0    0  0.32013239758E+03 -0.12674554222E+03 -0.23887477634E+03  0.42919433524E+03  0.92722349930E+02 0.  0.
    5000000    2    1    2    0    0 -0.32013239758E+03  0.12674554222E+03  0.21469919194E+02  0.69210039102E+03  0.59999400778E+03 0.  0.
         23    2    4    4    0    0 -0.69081235726E+02  0.11226396316E+03  0.27915584185E+03  0.32094252392E+03  0.87753661272E+02 0.  0.
         23    2    4    4    0    0 -0.25105116185E+03  0.14481579053E+02 -0.25768592265E+03  0.37115786711E+03  0.90109519923E+02 0.  0.
          2    1    3    3  502    0  0.44607135976E+02  0.12787261367E+02 -0.19323064646E+02  0.50266205950E+02  0.00000000000E+00 0. -1.
         -2    1    3    3    0  502  0.27552526160E+03 -0.13953280358E+03 -0.21955171169E+03  0.37892812929E+03  0.00000000000E+00 0.  1.
         11    1    5    5    0    0 -0.11284470382E+02 -0.13527855729E+02  0.52264916081E+02  0.55153998997E+02  0.00000000000E+00 0.  1.
        -11    1    5    5    0    0 -0.57796765344E+02  0.12579181889E+03  0.22689092577E+03  0.26578852492E+03  0.00000000000E+00 0. -1.
          5    1    6    6  503    0 -0.14895586447E+03  0.51465457174E+02 -0.13855392096E+03  0.20989478759E+03  0.47000000000E+01 0. -1.
         -5    1    6    6    0  503 -0.10209529738E+03 -0.36983878121E+02 -0.11913200170E+03  0.16126307952E+03  0.47000000000E+01 0.  1.
<mgrwt>
<rscale>  0 0.38882616E+03</rscale>
<asrwt>0</asrwt>
<pdfrwt beam="1">  1        2 0.10297689E+00 0.38882616E+03</pdfrwt>
<pdfrwt beam="2">  1       -2 0.69529991E-01 0.38882616E+03</pdfrwt>
<totfact> 0.85382232E+01</totfact>
</mgrwt>
</event>
<event>
12    1  0.3166324E-008  0.5748205E+03  0.7818608E-02  0.9959068E-01
          2   -1    0    0  501    0  0.00000000000E+00  0.00000000000E+00  0.22032599482E+04  0.22032599482E+04  0.00000000000E+00 0. -1.
         -2   -1    0    0    0  501 -0.00000000000E+00 -0.00000000000E+00 -0.16530347375E+03  0.16530347375E+03  0.00000000000E+00 0.  1.
         23    2    1    2    0    0 -0.21330848800E+03 -0.38338686201E+03  0.96271665500E+03  0.10614631976E+04  0.85992819424E+02 0.  0.
    5000000    2    1    2    0    0  0.21330848800E+03  0.38338686201E+03  0.10752398194E+04  0.13071002243E+04  0.59990360075E+03 0.  0.
         23    2    4    4    0    0 -0.78284086727E+02  0.39840050726E+03  0.46204612864E+03  0.62165779150E+03  0.90113385895E+02 0.  0.
         23    2    4    4    0    0  0.29159257473E+03 -0.15013645250E+02  0.61319369076E+03  0.68544243283E+03  0.92591506920E+02 0.  0.
          2    1    3    3  502    0 -0.95928210295E+02 -0.17989933104E+03  0.55002902323E+03  0.58659859976E+03  0.00000000000E+00 0. -1.
         -2    1    3    3    0  502 -0.11738027770E+03 -0.20348753096E+03  0.41268763177E+03  0.47486459783E+03  0.00000000000E+00 0.  1.
         13    1    5    5    0    0 -0.13462352032E+02  0.34002330580E+02  0.88703059052E+02  0.95945954017E+02  0.00000000000E+00 0. -1.
        -13    1    5    5    0    0 -0.64821734695E+02  0.36439817668E+03  0.37334306959E+03  0.52571183748E+03  0.00000000000E+00 0.  1.
          5    1    6    6  503    0  0.26393220845E+02 -0.27786471410E+02  0.10826052071E+03  0.11493963827E+03  0.47000000000E+01 0. -1.
         -5    1    6    6    0  503  0.26519935388E+03  0.12772826160E+02  0.50493317005E+03  0.57050279456E+03  0.47000000000E+01 0.  1.
<mgrwt>
<rscale>  0 0.57482052E+03</rscale>
<asrwt>0</asrwt>
<pdfrwt beam="1">  1        2 0.33896305E+00 0.57482052E+03</pdfrwt>
<pdfrwt beam="2">  1       -2 0.25431305E-01 0.57482052E+03</pdfrwt>
<totfact> 0.75479810E+01</totfact>
</mgrwt>
</event>
<event>
12    1  0.3166324E-008  0.4232715E+03  0.7818608E-02  0.1036007E+00
          1   -1    0    0  501    0  0.00000000000E+00  0.00000000000E+00  0.66869830755E+03  0.66869830755E+03  0.00000000000E+00 0. -1.
         -1   -1    0    0    0  501 -0.00000000000E+00 -0.00000000000E+00 -0.49197165827E+03  0.49197165827E+03  0.00000000000E+00 0.  1.
         23    2    1    2    0    0 -0.26147361919E+03  0.28222333459E+03 -0.78699535654E+02  0.40305709885E+03  0.90790659752E+02 0.  0.
    5000000    2    1    2    0    0  0.26147361919E+03 -0.28222333459E+03  0.25542618493E+03  0.75761286698E+03  0.60059658352E+03 0.  0.
         23    2    4    4    0    0  0.43129049774E+02 -0.18067035231E+03 -0.16562876062E+03  0.26478977201E+03  0.90436971860E+02 0.  0.
         23    2    4    4    0    0  0.21834456942E+03 -0.10155298228E+03  0.42105494555E+03  0.49282309497E+03  0.87177844397E+02 0.  0.
          4    1    3    3  502    0 -0.11336487299E+03  0.18532488195E+03 -0.28671123430E+02  0.21913224230E+03  0.00000000000E+00 0. -1.
         -4    1    3    3    0  502 -0.14810874620E+03  0.96898452641E+02 -0.50028412225E+02  0.18392485654E+03  0.00000000000E+00 0.  1.
         13    1    5    5    0    0  0.50375166148E+02 -0.37493677100E+02 -0.42667558352E+02  0.75920706811E+02  0.00000000000E+00 0. -1.
        -13    1    5    5    0    0 -0.72461163740E+01 -0.14317667521E+03 -0.12296120227E+03  0.18886906520E+03  0.00000000000E+00 0.  1.
          5    1    6    6  503    0  0.21365241190E+03 -0.10559939574E+03  0.36312594768E+03  0.43437441150E+03  0.47000000000E+01 0. -1.
         -5    1    6    6    0  503  0.46921575207E+01  0.40464134597E+01  0.57928997873E+02  0.58448683464E+02  0.47000000000E+01 0.  1.
<mgrwt>
<rscale>  0 0.42327153E+03</rscale>
<asrwt>0</asrwt>
<pdfrwt beam="1">  1        1 0.10287666E+00 0.42327153E+03</pdfrwt>
<pdfrwt beam="2">  1       -1 0.75687948E-01 0.42327153E+03</pdfrwt>
<totfact> 0.54343590E+01</totfact>
</mgrwt>
</event>
<event>
12    1  0.3166324E-008  0.5757948E+03  0.7818608E-02  0.9956937E-01
         -1   -1    0    0    0  501 -0.00000000000E+00  0.00000000000E+00  0.58235402046E+03  0.58235402046E+03  0.00000000000E+00 0.  1.
          1   -1    0    0  501    0  0.00000000000E+00 -0.00000000000E+00 -0.82269265403E+03  0.82269265403E+03  0.00000000000E+00 0. -1.
         23    2    1    2    0    0  0.25601847821E+03  0.34956014259E+03 -0.45393135145E+03  0.63453595936E+03  0.94044975545E+02 0.  0.
    5000000    2    1    2    0    0 -0.25601847821E+03 -0.34956014259E+03  0.21359271788E+03  0.77051071513E+03  0.60027257020E+03 0.  0.
         23    2    4    4    0    0 -0.36361901937E+03 -0.43341309974E+03  0.14512953055E+03  0.59118387747E+03  0.91488196309E+02 0.  0.
         23    2    4    4    0    0  0.10760054116E+03  0.83852957154E+02  0.68463187330E+02  0.17932683766E+03  0.94136665575E+02 0.  0.
          2    1    3    3  502    0 -0.83216980505E+01  0.12657583069E+02 -0.15525285124E+02  0.21691001493E+02  0.00000000000E+00 0. -1.
         -2    1    3    3    0  502  0.26434017626E+03  0.33690255952E+03 -0.43840606632E+03  0.61284495787E+03  0.00000000000E+00 0.  1.
         13    1    5    5    0    0 -0.25383036533E+03 -0.30648294431E+03  0.58192908587E+02  0.40217914432E+03  0.00000000000E+00 0. -1.
        -13    1    5    5    0    0 -0.10978865405E+03 -0.12693015543E+03  0.86936621958E+02  0.18900473315E+03  0.00000000000E+00 0.  1.
          5    1    6    6  503    0  0.90165074684E+02  0.47892572179E+02  0.27117819785E+01  0.10223934137E+03  0.47000000000E+01 0. -1.
         -5    1    6    6    0  503  0.17435466476E+02  0.35960384975E+02  0.65751405351E+02  0.77087496292E+02  0.47000000000E+01 0.  1.
<mgrwt>
<rscale>  0 0.57579478E+03</rscale>
<asrwt>0</asrwt>
<pdfrwt beam="1">  1        1 0.12656810E+00 0.57579478E+03</pdfrwt>
<pdfrwt beam="2">  1       -1 0.89592928E-01 0.57579478E+03</pdfrwt>
<totfact> 0.27040775E+01</totfact>
</mgrwt>
</event>
<event>
12    1  0.3166324E-008  0.5676172E+03  0.7818608E-02  0.9974965E-01
          2   -1    0    0  501    0  0.00000000000E+00  0.00000000000E+00  0.16749101317E+04  0.16749101317E+04  0.00000000000E+00 0. -1.
         -2   -1    0    0    0  501 -0.00000000000E+00 -0.00000000000E+00 -0.22922627526E+03  0.22922627526E+03  0.00000000000E+00 0.  1.
         23    2    1    2    0    0  0.40269420074E+03  0.94470697160E+02  0.21835856958E+03  0.47674400636E+03  0.92287868947E+02 0.  0.
    5000000    2    1    2    0    0 -0.40269420074E+03 -0.94470697160E+02  0.12273252869E+04  0.14273924006E+04  0.60002864398E+03 0.  0.
         23    2    4    4    0    0 -0.44132994901E+03  0.14112455461E+03  0.77784758394E+03  0.91014982941E+03  0.92938605097E+02 0.  0.
         23    2    4    4    0    0  0.38635748269E+02 -0.23559525177E+03  0.44947770293E+03  0.51724257120E+03  0.92259570421E+02 0.  0.
          3    1    3    3  502    0  0.22586806224E+03  0.99619268998E+02  0.12416052115E+03  0.27632628414E+03  0.00000000000E+00 0. -1.
         -3    1    3    3    0  502  0.17682613850E+03 -0.51485718384E+01  0.94198048430E+02  0.20041772221E+03  0.00000000000E+00 0.  1.
         13    1    5    5    0    0 -0.13928074050E+02  0.26590863217E+02  0.45595152557E+02  0.54589222289E+02  0.00000000000E+00 0. -1.
        -13    1    5    5    0    0 -0.42740187496E+03  0.11453369140E+03  0.73225243138E+03  0.85556060712E+03  0.00000000000E+00 0.  1.
          5    1    6    6  503    0  0.22974993212E+02 -0.15122119127E+03  0.19035605019E+03  0.24424007625E+03  0.47000000000E+01 0. -1.
         -5    1    6    6    0  503  0.15660755057E+02 -0.84374060505E+02  0.25912165273E+03  0.27300249495E+03  0.47000000000E+01 0.  1.
<mgrwt>
<rscale>  0 0.56761719E+03</rscale>
<asrwt>0</asrwt>
<pdfrwt beam="1">  1        2 0.25767847E+00 0.56761719E+03</pdfrwt>
<pdfrwt beam="2">  1       -2 0.35265582E-01 0.56761719E+03</pdfrwt>
<totfact> 0.79816656E+01</totfact>
</mgrwt>
</event>
<event>
12    1  0.3166324E-008  0.4354566E+03  0.7818608E-02  0.1032150E+00
         -1   -1    0    0    0  501 -0.00000000000E+00  0.00000000000E+00  0.48610775138E+03  0.48610775138E+03  0.00000000000E+00 0.  1.
          1   -1    0    0  501    0  0.00000000000E+00 -0.00000000000E+00 -0.78369046846E+03  0.78369046846E+03  0.00000000000E+00 0. -1.
         23    2    1    2    0    0  0.22533425774E+03 -0.34358958843E+03 -0.34584739647E+03  0.54091829142E+03  0.64442558616E+02 0.  0.
    5000000    2    1    2    0    0 -0.22533425774E+03  0.34358958843E+03  0.48264679397E+02  0.72887992842E+03  0.60008927485E+03 0.  0.
         23    2    4    4    0    0 -0.18145516641E+03  0.30864176709E+03  0.28636535270E+03  0.46740310467E+03  0.90966088278E+02 0.  0.
         23    2    4    4    0    0 -0.43879091331E+02  0.34947821330E+02 -0.23810067330E+03  0.26147682375E+03  0.92365977824E+02 0.  0.
          1    1    3    3  502    0  0.74423964274E+02 -0.10698241986E+03 -0.72375567830E+02  0.14907175264E+03  0.00000000000E+00 0. -1.
         -1    1    3    3    0  502  0.15091029346E+03 -0.23660716856E+03 -0.27347182864E+03  0.39184653878E+03  0.00000000000E+00 0.  1.
         13    1    5    5    0    0 -0.60321244354E+02  0.18533772423E+03  0.12968150155E+03  0.23410684823E+03  0.00000000000E+00 0. -1.
        -13    1    5    5    0    0 -0.12113392205E+03  0.12330404287E+03  0.15668385115E+03  0.23329625644E+03  0.00000000000E+00 0.  1.
          5    1    6    6  503    0 -0.37692930693E+02 -0.15593401252E+02 -0.17748787493E+03  0.18217559368E+03  0.47000000000E+01 0. -1.
         -5    1    6    6    0  503 -0.61861606376E+01  0.50541222582E+02 -0.60612798376E+02  0.79301230070E+02  0.47000000000E+01 0.  1.
<mgrwt>
<rscale>  0 0.43545659E+03</rscale>
<asrwt>0</asrwt>
<pdfrwt beam="1">  1        1 0.12056776E+00 0.43545659E+03</pdfrwt>
<pdfrwt beam="2">  1       -1 0.74785809E-01 0.43545659E+03</pdfrwt>
<totfact> 0.43772402E+01</totfact>
</mgrwt>
</event>
<event>
12    1  0.3166324E-008  0.7950720E+03  0.7818608E-02  0.9567178E-01
         -2   -1    0    0    0  501 -0.00000000000E+00  0.00000000000E+00  0.40248381983E+03  0.40248381983E+03  0.00000000000E+00 0.  1.
          2   -1    0    0  501    0  0.00000000000E+00 -0.00000000000E+00 -0.20303369940E+04  0.20303369940E+04  0.00000000000E+00 0. -1.
         23    2    1    2    0    0  0.47484869245E+03  0.52434564684E+03 -0.12332623368E+04  0.14246849282E+04  0.91495984490E+02 0.  0.
    5000000    2    1    2    0    0 -0.47484869245E+03 -0.52434564684E+03 -0.39459083739E+03  0.10081358857E+04  0.60018030366E+03 0.  0.
         23    2    4    4    0    0 -0.56344711416E+03 -0.31894382310E+03 -0.16351700698E+03  0.67404772802E+03  0.91677234465E+02 0.  0.
         23    2    4    4    0    0  0.88598421711E+02 -0.20540182374E+03 -0.23107383041E+03  0.33408815764E+03  0.90444416341E+02 0.  0.
          2    1    3    3  502    0  0.29483561063E+03  0.38281622107E+03 -0.87323766567E+03  0.99800817489E+03  0.00000000000E+00 0. -1.
         -2    1    3    3    0  502  0.18001308182E+03  0.14152942577E+03 -0.36002467108E+03  0.42667675326E+03  0.00000000000E+00 0.  1.
         11    1    5    5    0    0 -0.36829967158E+03 -0.25549937581E+03 -0.12392780848E+03  0.46506201827E+03  0.00000000000E+00 0.  1.
        -11    1    5    5    0    0 -0.19514744259E+03 -0.63444447287E+02 -0.39589198504E+02  0.20898570974E+03  0.00000000000E+00 0. -1.
          5    1    6    6  503    0  0.18845386741E+02 -0.62143391124E+02 -0.12984838636E+03  0.14525716197E+03  0.47000000000E+01 0. -1.
         -5    1    6    6    0  503  0.69753034971E+02 -0.14325843262E+03 -0.10122544405E+03  0.18883099567E+03  0.47000000000E+01 0.  1.
<mgrwt>
<rscale>  0 0.79507197E+03</rscale>
<asrwt>0</asrwt>
<pdfrwt beam="1">  1        2 0.31235954E+00 0.79507197E+03</pdfrwt>
<pdfrwt beam="2">  1       -2 0.61920587E-01 0.79507197E+03</pdfrwt>
<totfact> 0.16015067E+01</totfact>
</mgrwt>
</event>
<event>
12    1  0.3166324E-008  0.6913119E+03  0.7818608E-02  0.9732206E-01
         -1   -1    0    0    0  501 -0.00000000000E+00  0.00000000000E+00  0.42805340308E+03  0.42805340308E+03  0.00000000000E+00 0.  1.
          1   -1    0    0  501    0  0.00000000000E+00 -0.00000000000E+00 -0.18359765813E+04  0.18359765813E+04  0.00000000000E+00 0. -1.
         23    2    1    2    0    0  0.63623981485E+03 -0.12482810924E+03 -0.67008164877E+02  0.65828101481E+03  0.91981745119E+02 0.  0.
    5000000    2    1    2    0    0 -0.63623981485E+03  0.12482810924E+03 -0.13409150133E+04  0.16057489696E+04  0.59999460117E+03 0.  0.
         23    2    4    4    0    0 -0.33123766293E+02 -0.40711122267E+02  0.20066831848E+02  0.10518125135E+03  0.88914782385E+02 0.  0.
         23    2    4    4    0    0 -0.60311604856E+03  0.16553923151E+03 -0.13609818452E+04  0.15005677182E+04  0.90992795529E+02 0.  0.
          2    1    3    3  502    0  0.93164794024E+02 -0.50706419853E+02 -0.21990769815E+02  0.10832549939E+03  0.00000000000E+00 0.  1.
         -2    1    3    3    0  502  0.54307502083E+03 -0.74121689389E+02 -0.45017395063E+02  0.54995551542E+03  0.00000000000E+00 0. -1.
         11    1    5    5    0    0  0.30660930728E+02 -0.13090988320E+02  0.10878327106E+02  0.35068570671E+02  0.00000000000E+00 0.  1.
        -11    1    5    5    0    0 -0.63784697021E+02 -0.27620133947E+02  0.91885047419E+01  0.70112680684E+02  0.00000000000E+00 0. -1.
          5    1    6    6  503    0 -0.46130730258E+03  0.12226019607E+03 -0.94004101494E+03  0.10542538512E+04  0.47000000000E+01 0. -1.
         -5    1    6    6    0  503 -0.14180874598E+03  0.43279035442E+02 -0.42094083023E+03  0.44631386702E+03  0.47000000000E+01 0.  1.
<mgrwt>
<rscale>  0 0.69131186E+03</rscale>
<asrwt>0</asrwt>
<pdfrwt beam="1">  1        1 0.28245793E+00 0.69131186E+03</pdfrwt>
<pdfrwt beam="2">  1       -1 0.65854372E-01 0.69131186E+03</pdfrwt>
<totfact> 0.94842793E+00</totfact>
</mgrwt>
</event>
<event>
12    1  0.3168044E-008  0.1000742E+04  0.7818608E-02  0.9307732E-01
         -2   -1    0    0    0  501 -0.00000000000E+00  0.00000000000E+00  0.90880034772E+03  0.90880034772E+03  0.00000000000E+00 0.  1.
          2   -1    0    0  501    0  0.00000000000E+00 -0.00000000000E+00 -0.13561710347E+04  0.13561710347E+04  0.00000000000E+00 0. -1.
         23    2    1    2    0    0 -0.97142319281E+03  0.18725087038E+03  0.69990766587E+02  0.99758904122E+03  0.10751409109E+03 0.  0.
    5000000    2    1    2    0    0  0.97142319281E+03 -0.18725087038E+03 -0.51736145361E+03  0.12673823412E+04  0.59989100445E+03 0.  0.
         23    2    4    4    0    0  0.15293738259E+03 -0.83737153973E+02  0.10748198782E+03  0.22842915294E+03  0.10112243201E+03 0.  0.
         23    2    4    4    0    0  0.81848581021E+03 -0.10351371641E+03 -0.62484344143E+03  0.10389531883E+04  0.91434622438E+02 0.  0.
          3    1    3    3  502    0 -0.52963025523E+03  0.51883469153E+02  0.58601462956E+02  0.53538232422E+03  0.00000000000E+00 0. -1.
         -3    1    3    3    0  502 -0.44179293758E+03  0.13536740123E+03  0.11389303631E+02  0.46220671700E+03  0.00000000000E+00 0.  1.
         13    1    5    5    0    0  0.49808657143E+02 -0.52374610313E+02 -0.52352300737E+01  0.72466611385E+02  0.00000000000E+00 0. -1.
        -13    1    5    5    0    0  0.10312872545E+03 -0.31362543660E+02  0.11271721789E+03  0.15596254155E+03  0.00000000000E+00 0.  1.
          5    1    6    6  503    0  0.28950486786E+03 -0.65210422809E+02 -0.18335538640E+03  0.34886495307E+03  0.47000000000E+01 0. -1.
         -5    1    6    6    0  503  0.52898094235E+03 -0.38303293597E+02 -0.44148805503E+03  0.69008823523E+03  0.47000000000E+01 0.  1.
<mgrwt>
<rscale>  0 0.10007417E+04</rscale>
<asrwt>0</asrwt>
<pdfrwt beam="1">  1        2 0.20864170E+00 0.10007417E+04</pdfrwt>
<pdfrwt beam="2">  1       -2 0.13981544E+00 0.10007417E+04</pdfrwt>
<totfact> 0.54832953E+00</totfact>
</mgrwt>
</event>
<event>
12    1  0.3166324E-008  0.1260596E+04  0.7818608E-02  0.9061410E-01
         -1   -1    0    0    0  501 -0.00000000000E+00  0.00000000000E+00  0.11854303420E+04  0.11854303420E+04  0.00000000000E+00 0.  1.
          1   -1    0    0  501    0  0.00000000000E+00 -0.00000000000E+00 -0.14746256846E+04  0.14746256846E+04  0.00000000000E+00 0. -1.
         23    2    1    2    0    0 -0.14654249534E+03  0.11847420889E+04 -0.51802191319E+03  0.13044914117E+04  0.90898957430E+02 0.  0.
    5000000    2    1    2    0    0  0.14654249534E+03 -0.11847420889E+04  0.22882657055E+03  0.13555646149E+04  0.60008774830E+03 0.  0.
         23    2    4    4    0    0  0.35016973028E+03 -0.91616111107E+03  0.20034618360E+03  0.10050073609E+04  0.89057176908E+02 0.  0.
         23    2    4    4    0    0 -0.20362723494E+03 -0.26858097784E+03  0.28480386947E+02  0.35055725401E+03  0.92084002039E+02 0.  0.
          1    1    3    3  502    0 -0.77468979232E+02  0.57695552714E+03 -0.20356843096E+03  0.61670027495E+03  0.00000000000E+00 0. -1.
         -1    1    3    3    0  502 -0.69073516106E+02  0.60778656177E+03 -0.31445348223E+03  0.68779113674E+03  0.00000000000E+00 0.  1.
         13    1    5    5    0    0  0.26384237007E+03 -0.74447091134E+03  0.13057586129E+03  0.80056217100E+03  0.00000000000E+00 0.  1.
        -13    1    5    5    0    0  0.86327360205E+02 -0.17169019973E+03  0.69770322317E+02  0.20444518992E+03  0.00000000000E+00 0. -1.
          5    1    6    6  503    0 -0.70615689267E+02 -0.41236065753E+02 -0.15811899482E+02  0.83421189482E+02  0.47000000000E+01 0. -1.
         -5    1    6    6    0  503 -0.13301154567E+03 -0.22734491208E+03  0.44292286430E+02  0.26713606453E+03  0.47000000000E+01 0.  1.
<mgrwt>
<rscale>  0 0.12605965E+04</rscale>
<asrwt>0</asrwt>
<pdfrwt beam="1">  1        1 0.22686549E+00 0.12605965E+04</pdfrwt>
<pdfrwt beam="2">  1       -1 0.18237390E+00 0.12605965E+04</pdfrwt>
<totfact> 0.13265611E+00</totfact>
</mgrwt>
</event>
<event>
12    1  0.3166324E-008  0.1041914E+04  0.7818608E-02  0.9263733E-01
         -2   -1    0    0    0  501 -0.00000000000E+00  0.00000000000E+00  0.53525719108E+03  0.53525719108E+03  0.00000000000E+00 0.  1.
          2   -1    0    0  501    0  0.00000000000E+00 -0.00000000000E+00 -0.21620695757E+04  0.21620695757E+04  0.00000000000E+00 0. -1.
         23    2    1    2    0    0 -0.73156020062E+03 -0.66628788297E+03 -0.72499125180E+03  0.12301912898E+04  0.92943123563E+02 0.  0.
    5000000    2    1    2    0    0  0.73156020062E+03  0.66628788297E+03 -0.90182113287E+03  0.14671354770E+04  0.60007106418E+03 0.  0.
         23    2    4    4    0    0  0.10781056792E+03  0.38510481522E+03 -0.12779225828E+03  0.42989728492E+03  0.92476900075E+02 0.  0.
         23    2    4    4    0    0  0.62374963270E+03  0.28118306775E+03 -0.77402887459E+03  0.10372381921E+04  0.92816197583E+02 0.  0.
          2    1    3    3  502    0 -0.63907641641E+03 -0.55548130252E+03 -0.65052138270E+03  0.10677809761E+04  0.00000000000E+00 0. -1.
         -2    1    3    3    0  502 -0.92483784213E+02 -0.11080658045E+03 -0.74469869095E+02  0.16241031376E+03  0.00000000000E+00 0.  1.
         13    1    5    5    0    0  0.34303628274E+01  0.75203345416E+02  0.82248807688E+01  0.75729513498E+02  0.00000000000E+00 0.  1.
        -13    1    5    5    0    0  0.10438020510E+03  0.30990146980E+03 -0.13601713905E+03  0.35416777142E+03  0.00000000000E+00 0. -1.
          5    1    6    6  503    0  0.29265070848E+03  0.18255484988E+03 -0.38504912976E+03  0.51696772890E+03  0.47000000000E+01 0. -1.
         -5    1    6    6    0  503  0.33109892422E+03  0.98628217875E+02 -0.38897974483E+03  0.52027046319E+03  0.47000000000E+01 0.  1.
<mgrwt>
<rscale>  0 0.10419138E+04</rscale>
<asrwt>0</asrwt>
<pdfrwt beam="1">  1        2 0.33262609E+00 0.10419138E+04</pdfrwt>
<pdfrwt beam="2">  1       -2 0.82347259E-01 0.10419138E+04</pdfrwt>
<totfact> 0.70181319E+00</totfact>
</mgrwt>
</event>
<event>
12    1  0.3166324E-008  0.1104140E+04  0.7818608E-02  0.9201166E-01
         -2   -1    0    0    0  501 -0.00000000000E+00  0.00000000000E+00  0.70067446661E+03  0.70067446661E+03  0.00000000000E+00 0. -1.
          2   -1    0    0  501    0  0.00000000000E+00 -0.00000000000E+00 -0.18178511065E+04  0.18178511065E+04  0.00000000000E+00 0.  1.
         23    2    1    2    0    0 -0.71918090174E+03 -0.73252141775E+03 -0.29182538222E+03  0.10711548112E+04  0.91661218494E+02 0.  0.
    5000000    2    1    2    0    0  0.71918090174E+03  0.73252141775E+03 -0.82535125764E+03  0.14473707619E+04  0.59989051244E+03 0.  0.
         23    2    4    4    0    0  0.36651109782E+03  0.80299707889E+01 -0.28067734941E+03  0.47062944686E+03  0.91199980954E+02 0.  0.
         23    2    4    4    0    0  0.35266980393E+03  0.72449144697E+03 -0.54467390823E+03  0.97674131501E+03  0.89944887612E+02 0.  0.
          4    1    3    3  502    0 -0.43042707317E+03 -0.49537316529E+03 -0.20530810932E+03  0.68761432355E+03  0.00000000000E+00 0. -1.
         -4    1    3    3    0  502 -0.28875382857E+03 -0.23714825247E+03 -0.86517272902E+02  0.38354048766E+03  0.00000000000E+00 0.  1.
         11    1    5    5    0    0  0.32846630959E+03  0.27622567092E+02 -0.21969404422E+03  0.39612951899E+03  0.00000000000E+00 0.  1.
        -11    1    5    5    0    0  0.38044788225E+02 -0.19592596303E+02 -0.60983305181E+02  0.74499927864E+02  0.00000000000E+00 0. -1.
          5    1    6    6  503    0  0.40539289560E+02  0.90827863842E+02 -0.10497025832E+03  0.14468579744E+03  0.47000000000E+01 0. -1.
         -5    1    6    6    0  503  0.31213051437E+03  0.63366358312E+03 -0.43970364991E+03  0.83205551757E+03  0.47000000000E+01 0.  1.
<mgrwt>
<rscale>  0 0.11041405E+04</rscale>
<asrwt>0</asrwt>
<pdfrwt beam="1">  1        2 0.27966940E+00 0.11041405E+04</pdfrwt>
<pdfrwt beam="2">  1       -2 0.10779607E+00 0.11041405E+04</pdfrwt>
<totfact> 0.57402531E+00</totfact>
</mgrwt>
</event>
<event>
12    1  0.3166324E-008  0.1496650E+04  0.7818608E-02  0.8886684E-01
          1   -1    0    0  501    0  0.00000000000E+00  0.00000000000E+00  0.31014045652E+04  0.31014045652E+04  0.00000000000E+00 0. -1.
         -1   -1    0    0    0  501 -0.00000000000E+00 -0.00000000000E+00 -0.86908144967E+03  0.86908144967E+03  0.00000000000E+00 0.  1.
         23    2    1    2    0    0  0.35892130241E+03 -0.14256621721E+04  0.17983240545E+04  0.23243898257E+04  0.86495817438E+02 0.  0.
    5000000    2    1    2    0    0 -0.35892130241E+03  0.14256621721E+04  0.43399906097E+03  0.16460961892E+04  0.59995028862E+03 0.  0.
         23    2    4    4    0    0 -0.54965931507E+02  0.22891983939E+02 -0.65653223010E+02  0.12360450141E+03  0.86153528784E+02 0.  0.
         23    2    4    4    0    0 -0.30395537091E+03  0.14027701881E+04  0.49965228398E+03  0.15224916877E+04  0.90418284324E+02 0.  0.
          4    1    3    3  502    0  0.19950294931E+03 -0.89277186753E+03  0.10640967833E+04  0.14032622700E+04  0.00000000000E+00 0. -1.
         -4    1    3    3    0  502  0.15941835310E+03 -0.53289030454E+03  0.73422727122E+03  0.92112755565E+03  0.00000000000E+00 0.  1.
         11    1    5    5    0    0 -0.18833047169E+02  0.40030165428E+02 -0.70592805008E+02  0.83309314778E+02  0.00000000000E+00 0. -1.
        -11    1    5    5    0    0 -0.36132884337E+02 -0.17138181489E+02  0.49395819986E+01  0.40295186631E+02  0.00000000000E+00 0.  1.
          5    1    6    6  503    0 -0.35470082314E+02  0.34023380099E+03  0.12711899718E+03  0.36496369069E+03  0.47000000000E+01 0. -1.
         -5    1    6    6    0  503 -0.26848528859E+03  0.10625363871E+04  0.37253328680E+03  0.11575279970E+04  0.47000000000E+01 0.  1.
<mgrwt>
<rscale>  0 0.14966496E+04</rscale>
<asrwt>0</asrwt>
<pdfrwt beam="1">  1        1 0.47713916E+00 0.14966496E+04</pdfrwt>
<pdfrwt beam="2">  1       -1 0.13370484E+00 0.14966496E+04</pdfrwt>
<totfact> 0.22702978E-01</totfact>
</mgrwt>
</event>
<event>
12    1  0.3166324E-008  0.4295659E+03  0.7818608E-02  0.1033997E+00
          2   -1    0    0  501    0  0.00000000000E+00  0.00000000000E+00  0.77738720423E+03  0.77738720423E+03  0.00000000000E+00 0. -1.
         -2   -1    0    0    0  501 -0.00000000000E+00 -0.00000000000E+00 -0.36160105896E+03  0.36160105896E+03  0.00000000000E+00 0.  1.
         23    2    1    2    0    0  0.31568369644E+03  0.27745923635E+02 -0.23511782004E+02  0.33071944126E+03  0.91632485794E+02 0.  0.
    5000000    2    1    2    0    0 -0.31568369644E+03 -0.27745923635E+02  0.43929792727E+03  0.80826882194E+03  0.59990814892E+03 0.  0.
         23    2    4    4    0    0 -0.16278064680E+03  0.19555161451E+03  0.44848106643E+03  0.52341530265E+03  0.89946312794E+02 0.  0.
         23    2    4    4    0    0 -0.15290304965E+03 -0.22329753814E+03 -0.91831391612E+01  0.28485351930E+03  0.88408507954E+02 0.  0.
          2    1    3    3  502    0  0.94133794317E+02  0.33008138471E+02 -0.42217316478E+02  0.10831902071E+03  0.00000000000E+00 0.  1.
         -2    1    3    3    0  502  0.22154990213E+03 -0.52622148360E+01  0.18705534474E+02  0.22240042054E+03  0.00000000000E+00 0. -1.
         11    1    5    5    0    0 -0.15343738702E+03  0.14886546578E+03  0.30672606537E+03  0.37387810556E+03  0.00000000000E+00 0.  1.
        -11    1    5    5    0    0 -0.93432597745E+01  0.46686148729E+02  0.14175500106E+03  0.14953719708E+03  0.00000000000E+00 0. -1.
          5    1    6    6  503    0 -0.10327036795E+03 -0.10200406184E+03  0.29358564899E+02  0.14816751621E+03  0.47000000000E+01 0. -1.
         -5    1    6    6    0  503 -0.49632681694E+02 -0.12129347631E+03 -0.38541704060E+02  0.13668600308E+03  0.47000000000E+01 0.  1.
<mgrwt>
<rscale>  0 0.42956588E+03</rscale>
<asrwt>0</asrwt>
<pdfrwt beam="1">  1        2 0.11959803E+00 0.42956588E+03</pdfrwt>
<pdfrwt beam="2">  1       -2 0.55630932E-01 0.42956588E+03</pdfrwt>
<totfact> 0.11281794E+02</totfact>
</mgrwt>
</event>
<event>
12    1  0.3166324E-008  0.8574567E+03  0.7818608E-02  0.9480383E-01
          1   -1    0    0  501    0  0.00000000000E+00  0.00000000000E+00  0.18667347792E+04  0.18667347792E+04  0.00000000000E+00 0. -1.
         -1   -1    0    0    0  501 -0.00000000000E+00 -0.00000000000E+00 -0.53482016135E+03  0.53482016135E+03  0.00000000000E+00 0.  1.
         23    2    1    2    0    0  0.72002618467E+03  0.45661548022E+03  0.97796042341E+03  0.13006506549E+04  0.91379061446E+02 0.  0.
    5000000    2    1    2    0    0 -0.72002618467E+03 -0.45661548022E+03  0.35395419446E+03  0.11009042857E+04  0.59980936231E+03 0.  0.
         23    2    4    4    0    0 -0.54420075311E+03 -0.31625230495E+03 -0.39941197800E+02  0.63782119988E+03  0.95134660702E+02 0.  0.
         23    2    4    4    0    0 -0.17582543156E+03 -0.14036317528E+03  0.39389539226E+03  0.46308308582E+03  0.93144838706E+02 0.  0.
          1    1    3    3  502    0  0.22579430983E+03  0.16979918617E+03  0.26928483393E+03  0.39029367886E+03  0.00000000000E+00 0. -1.
         -1    1    3    3    0  502  0.49423187484E+03  0.28681629405E+03  0.70867558948E+03  0.91035697601E+03  0.00000000000E+00 0.  1.
         11    1    5    5    0    0 -0.17128758275E+03 -0.14842507638E+03 -0.31236644078E+02  0.22879066247E+03  0.00000000000E+00 0. -1.
        -11    1    5    5    0    0 -0.37291317036E+03 -0.16782722857E+03 -0.87045537215E+01  0.40903053741E+03  0.00000000000E+00 0.  1.
          5    1    6    6  503    0 -0.14889699839E+03 -0.12022060580E+03  0.24799753542E+03  0.31328609571E+03  0.47000000000E+01 0. -1.
         -5    1    6    6    0  503 -0.26928433165E+02 -0.20142569476E+02  0.14589785684E+03  0.14979699011E+03  0.47000000000E+01 0.  1.
<mgrwt>
<rscale>  0 0.85745668E+03</rscale>
<asrwt>0</asrwt>
<pdfrwt beam="1">  1        1 0.28718996E+00 0.85745668E+03</pdfrwt>
<pdfrwt beam="2">  1       -1 0.82280026E-01 0.85745668E+03</pdfrwt>
<totfact> 0.55486509E+00</totfact>
</mgrwt>
</event>
<event>
12    1  0.3166324E-008  0.9008616E+03  0.7818608E-02  0.9424505E-01
          2   -1    0    0  501    0  0.00000000000E+00  0.00000000000E+00  0.24481318625E+04  0.24481318625E+04  0.00000000000E+00 0. -1.
         -2   -1    0    0    0  501 -0.00000000000E+00 -0.00000000000E+00 -0.87405499845E+03  0.87405499845E+03  0.00000000000E+00 0.  1.
         23    2    1    2    0    0 -0.82255495974E+03  0.34121691334E+03  0.19810303128E+04  0.21738829594E+04  0.90886617004E+02 0.  0.
    5000000    2    1    2    0    0  0.82255495974E+03 -0.34121691334E+03 -0.40695344872E+03  0.11483039016E+04  0.59997091366E+03 0.  0.
         23    2    4    4    0    0  0.69817836994E+03 -0.35402229006E+03 -0.86884967587E+02  0.79279550630E+03  0.90503586180E+02 0.  0.
         23    2    4    4    0    0  0.12437658980E+03  0.12805376719E+02 -0.32006848113E+03  0.35550839529E+03  0.91153018274E+02 0.  0.
          4    1    3    3  502    0 -0.36995582664E+03  0.18583337317E+03  0.10020585361E+04  0.10842152305E+04  0.00000000000E+00 0. -1.
         -4    1    3    3    0  502 -0.45259913310E+03  0.15538354017E+03  0.97897177673E+03  0.10896677289E+04  0.00000000000E+00 0.  1.
         11    1    5    5    0    0  0.67459163268E+03 -0.33486549384E+03 -0.66198893707E+02  0.75603641670E+03  0.00000000000E+00 0. -1.
        -11    1    5    5    0    0  0.23586737256E+02 -0.19156796220E+02 -0.20686073879E+02  0.36759089602E+02  0.00000000000E+00 0.  1.
          5    1    6    6  503    0  0.62526480941E+02  0.10666070712E+02 -0.26502808335E+03  0.27255329909E+03  0.47000000000E+01 0. -1.
         -5    1    6    6    0  503  0.61850108860E+02  0.21393060066E+01 -0.55040397788E+02  0.82955096196E+02  0.47000000000E+01 0.  1.
<mgrwt>
<rscale>  0 0.90086157E+03</rscale>
<asrwt>0</asrwt>
<pdfrwt beam="1">  1        2 0.37663567E+00 0.90086157E+03</pdfrwt>
<pdfrwt beam="2">  1       -2 0.13447000E+00 0.90086157E+03</pdfrwt>
<totfact> 0.15178859E+00</totfact>
</mgrwt>
</event>
<event>
12    1  0.3166324E-008  0.5106990E+03  0.7818608E-02  0.1011023E+00
          2   -1    0    0  501    0  0.00000000000E+00  0.00000000000E+00  0.18977742603E+04  0.18977742603E+04  0.00000000000E+00 0. -1.
         -2   -1    0    0    0  501 -0.00000000000E+00 -0.00000000000E+00 -0.18932737808E+03  0.18932737808E+03  0.00000000000E+00 0.  1.
         23    2    1    2    0    0 -0.27243798448E+03 -0.31077086772E+03  0.92557591287E+03  0.10176727938E+04  0.90366792075E+02 0.  0.
    5000000    2    1    2    0    0  0.27243798448E+03  0.31077086772E+03  0.78287096934E+03  0.10694288446E+04  0.59999175943E+03 0.  0.
         23    2    4    4    0    0  0.28917604978E+03  0.23122425464E+02  0.94775894389E+02  0.31791253972E+03  0.89042003734E+02 0.  0.
         23    2    4    4    0    0 -0.16738065294E+02  0.28764844226E+03  0.68809507495E+03  0.75151630487E+03  0.90995247936E+02 0.  0.
          3    1    3    3  502    0 -0.22292171129E+03 -0.29658735335E+03  0.79545467489E+03  0.87772791190E+03  0.00000000000E+00 0. -1.
         -3    1    3    3    0  502 -0.49516273195E+02 -0.14183514372E+02  0.13012123798E+03  0.13994488188E+03  0.00000000000E+00 0.  1.
         11    1    5    5    0    0  0.12610678770E+02 -0.17601878489E+02 -0.27813743691E+01  0.21830973152E+02  0.00000000000E+00 0.  1.
        -11    1    5    5    0    0  0.27656537101E+03  0.40724303954E+02  0.97557268758E+02  0.29608156657E+03  0.00000000000E+00 0. -1.
          5    1    6    6  503    0  0.24824179091E+02  0.18661259682E+03  0.49495093693E+03  0.52956493570E+03  0.47000000000E+01 0. -1.
         -5    1    6    6    0  503 -0.41562244385E+02  0.10103584544E+03  0.19314413803E+03  0.22195136917E+03  0.47000000000E+01 0.  1.
<mgrwt>
<rscale>  0 0.51069903E+03</rscale>
<asrwt>0</asrwt>
<pdfrwt beam="1">  1        2 0.29196526E+00 0.51069903E+03</pdfrwt>
<pdfrwt beam="2">  1       -2 0.29127290E-01 0.51069903E+03</pdfrwt>
<totfact> 0.87174082E+01</totfact>
</mgrwt>
</event>
<event>
12    1  0.3166324E-008  0.1552096E+04  0.7818608E-02  0.8850530E-01
          2   -1    0    0  501    0  0.00000000000E+00  0.00000000000E+00  0.19752164964E+04  0.19752164964E+04  0.00000000000E+00 0. -1.
         -2   -1    0    0    0  501 -0.00000000000E+00 -0.00000000000E+00 -0.18944296709E+04  0.18944296709E+04  0.00000000000E+00 0.  1.
         23    2    1    2    0    0 -0.58372183254E+03 -0.13794226727E+04 -0.11080051980E+04  0.18654941347E+04  0.94099735174E+02 0.  0.
    5000000    2    1    2    0    0  0.58372183254E+03  0.13794226727E+04  0.11887920235E+04  0.20041520326E+04  0.59988399476E+03 0.  0.
         23    2    4    4    0    0  0.24668079529E+03  0.95776255713E+02  0.16077079423E+03  0.32294883080E+03  0.91783403259E+02 0.  0.
         23    2    4    4    0    0  0.33704103725E+03  0.12836464169E+04  0.10280212293E+04  0.16812032018E+04  0.90949290954E+02 0.  0.
          2    1    3    3  502    0 -0.28127849866E+03 -0.78438509196E+03 -0.61104779149E+03  0.10333232649E+04  0.00000000000E+00 0. -1.
         -2    1    3    3    0  502 -0.30244333388E+03 -0.59503758069E+03 -0.49695740648E+03  0.83217086977E+03  0.00000000000E+00 0.  1.
         11    1    5    5    0    0  0.15095875992E+03  0.98749295831E+02  0.78634132566E+02  0.19678236056E+03  0.00000000000E+00 0.  1.
        -11    1    5    5    0    0  0.95722035366E+02 -0.29730401184E+01  0.82136661663E+02  0.12616647023E+03  0.00000000000E+00 0. -1.
          5    1    6    6  503    0  0.23867486147E+03  0.93014498439E+03  0.69210952966E+03  0.11837115664E+04  0.47000000000E+01 0. -1.
         -5    1    6    6    0  503  0.98366175784E+02  0.35350143255E+03  0.33591169962E+03  0.49749163541E+03  0.47000000000E+01 0.  1.
<mgrwt>
<rscale>  0 0.15520957E+04</rscale>
<asrwt>0</asrwt>
<pdfrwt beam="1">  1        2 0.30387946E+00 0.15520957E+04</pdfrwt>
<pdfrwt beam="2">  1       -2 0.29145072E+00 0.15520957E+04</pdfrwt>
<totfact> 0.23049707E-01</totfact>
</mgrwt>
</event>
<event>
12    1  0.3166324E-008  0.3239422E+03  0.7818608E-02  0.1073849E+00
          2   -1    0    0  501    0  0.00000000000E+00  0.00000000000E+00  0.32564916808E+04  0.32564916808E+04  0.00000000000E+00 0. -1.
         -2   -1    0    0    0  501 -0.00000000000E+00 -0.00000000000E+00 -0.15226699927E+03  0.15226699927E+03  0.00000000000E+00 0.  1.
         23    2    1    2    0    0 -0.59611945508E+02 -0.30235374099E+03  0.11043259022E+03  0.33994893001E+03  0.91643599307E+02 0.  0.
    5000000    2    1    2    0    0  0.59611945508E+02  0.30235374099E+03  0.29937920913E+04  0.30688097500E+04  0.59985900629E+03 0.  0.
         23    2    4    4    0    0  0.41277685278E+02  0.88281833955E+02  0.26513961018E+04  0.26546770852E+04  0.88947223853E+02 0.  0.
         23    2    4    4    0    0  0.18334260230E+02  0.21407190703E+03  0.34239598943E+03  0.41413266478E+03  0.90044011353E+02 0.  0.
          4    1    3    3  502    0 -0.26069596568E+02 -0.12988733600E+03  0.94279720600E-01  0.13247774457E+03  0.00000000000E+00 0. -1.
         -4    1    3    3    0  502 -0.33542348940E+02 -0.17246640499E+03  0.11033831050E+03  0.20747118544E+03  0.00000000000E+00 0.  1.
         11    1    5    5    0    0 -0.18045360117E+02  0.52143616428E+02  0.16229950629E+04  0.16239327468E+04  0.00000000000E+00 0. -1.
        -11    1    5    5    0    0  0.59323045395E+02  0.36138217527E+02  0.10284010389E+04  0.10307443385E+04  0.00000000000E+00 0.  1.
          5    1    6    6  503    0  0.80315680930E+01  0.10317805281E+03  0.24539526069E+03  0.26636655315E+03  0.47000000000E+01 0. -1.
         -5    1    6    6    0  503  0.10302692137E+02  0.11089385422E+03  0.97000728739E+02  0.14776611163E+03  0.47000000000E+01 0.  1.
<mgrwt>
<rscale>  0 0.32394222E+03</rscale>
<asrwt>0</asrwt>
<pdfrwt beam="1">  1        2 0.50099867E+00 0.32394222E+03</pdfrwt>
<pdfrwt beam="2">  1       -2 0.23425695E-01 0.32394222E+03</pdfrwt>
<totfact> 0.22858676E+01</totfact>
</mgrwt>
</event>
<event>
12    1  0.3166324E-008  0.1456911E+04  0.7818608E-02  0.8913623E-01
          2   -1    0    0  501    0  0.00000000000E+00  0.00000000000E+00  0.44216627939E+04  0.44216627939E+04  0.00000000000E+00 0. -1.
         -2   -1    0    0    0  501 -0.00000000000E+00 -0.00000000000E+00 -0.66016925483E+03  0.66016925483E+03  0.00000000000E+00 0.  1.
         23    2    1    2    0    0 -0.78879511978E+03  0.11535064090E+04  0.31416973042E+04  0.34396566548E+04  0.90560339453E+02 0.  0.
    5000000    2    1    2    0    0  0.78879511978E+03 -0.11535064090E+04  0.61979623492E+03  0.16421753940E+04  0.59984820998E+03 0.  0.
         23    2    4    4    0    0  0.41836539710E+01 -0.46171240126E+03  0.18790585873E+03  0.50679987270E+03  0.91332660006E+02 0.  0.
         23    2    4    4    0    0  0.78461146581E+03 -0.69179400778E+03  0.43189037619E+03  0.11353755213E+04  0.91401180266E+02 0.  0.
          3    1    3    3  502    0 -0.47093638636E+03  0.76297339368E+03  0.19837619105E+04  0.21769751485E+04  0.00000000000E+00 0. -1.
         -3    1    3    3    0  502 -0.31785873342E+03  0.39053301536E+03  0.11579353937E+04  0.12626815064E+04  0.00000000000E+00 0.  1.
         13    1    5    5    0    0 -0.34317944926E+02 -0.22189533185E+03  0.12004719874E+03  0.25461066271E+03  0.00000000000E+00 0.  1.
        -13    1    5    5    0    0  0.38501598897E+02 -0.23981706942E+03  0.67858659989E+02  0.25218920999E+03  0.00000000000E+00 0. -1.
          5    1    6    6  503    0  0.28737592265E+03 -0.24131665641E+03  0.20147032409E+03  0.42594721630E+03  0.47000000000E+01 0. -1.
         -5    1    6    6    0  503  0.49723554315E+03 -0.45047735137E+03  0.23042005210E+03  0.70942830496E+03  0.47000000000E+01 0.  1.
<mgrwt>
<rscale>  0 0.14569113E+04</rscale>
<asrwt>0</asrwt>
<pdfrwt beam="1">  1        2 0.68025579E+00 0.14569113E+04</pdfrwt>
<pdfrwt beam="2">  1       -2 0.10156450E+00 0.14569113E+04</pdfrwt>
<totfact> 0.11475203E-01</totfact>
</mgrwt>
</event>
<event>
12    1  0.3166324E-008  0.6955241E+03  0.7818608E-02  0.9724917E-01
          1   -1    0    0  501    0  0.00000000000E+00  0.00000000000E+00  0.21718420311E+04  0.21718420311E+04  0.00000000000E+00 0. -1.
         -1   -1    0    0    0  501 -0.00000000000E+00 -0.00000000000E+00 -0.36536474485E+03  0.36536474485E+03  0.00000000000E+00 0.  1.
         23    2    1    2    0    0 -0.27650690393E+03 -0.56631203514E+03  0.14746697689E+04  0.16061617605E+04  0.89102663909E+02 0.  0.
    5000000    2    1    2    0    0  0.27650690393E+03  0.56631203514E+03  0.33180751738E+03  0.93104501541E+03  0.59965256863E+03 0.  0.
         23    2    4    4    0    0  0.32963902723E+03  0.23095056312E+03 -0.46017024826E+02  0.41524280546E+03  0.91153551948E+02 0.  0.
         23    2    4    4    0    0 -0.53132123299E+02  0.33536147202E+03  0.37782454220E+03  0.51580220995E+03  0.89499696431E+02 0.  0.
          3    1    3    3  502    0 -0.14864797008E+03 -0.22152126321E+03  0.55838717620E+03  0.61884095502E+03  0.00000000000E+00 0. -1.
         -3    1    3    3    0  502 -0.12785893385E+03 -0.34479077193E+03  0.91628259268E+03  0.98732080552E+03  0.00000000000E+00 0.  1.
         11    1    5    5    0    0  0.20870209483E+03  0.19602768517E+03 -0.41160786411E+02  0.28927085591E+03  0.00000000000E+00 0. -1.
        -11    1    5    5    0    0  0.12093693239E+03  0.34922877953E+02 -0.48562384155E+01  0.12597194955E+03  0.00000000000E+00 0.  1.
          5    1    6    6  503    0 -0.59248616444E+02  0.19729167865E+03  0.17507806971E+03  0.27038643736E+03  0.47000000000E+01 0. -1.
         -5    1    6    6    0  503  0.61164931448E+01  0.13806979337E+03  0.20274647249E+03  0.24541577259E+03  0.47000000000E+01 0.  1.
<mgrwt>
<rscale>  0 0.69552406E+03</rscale>
<asrwt>0</asrwt>
<pdfrwt beam="1">  1        1 0.33412954E+00 0.69552406E+03</pdfrwt>
<pdfrwt beam="2">  1       -1 0.56209962E-01 0.69552406E+03</pdfrwt>
<totfact> 0.77313627E+00</totfact>
</mgrwt>
</event>
<event>
12    1  0.3166324E-008  0.4188212E+03  0.7818608E-02  0.1037451E+00
          2   -1    0    0  501    0  0.00000000000E+00  0.00000000000E+00  0.87340007588E+03  0.87340007588E+03  0.00000000000E+00 0. -1.
         -2   -1    0    0    0  501 -0.00000000000E+00 -0.00000000000E+00 -0.30203911067E+03  0.30203911067E+03  0.00000000000E+00 0.  1.
         23    2    1    2    0    0  0.63817423208E+02 -0.20997487203E+03 -0.82292283532E+02  0.26148434423E+03  0.11593072052E+03 0.  0.
    5000000    2    1    2    0    0 -0.63817423208E+02  0.20997487203E+03  0.65365324875E+03  0.91395484232E+03  0.59990730436E+03 0.  0.
         23    2    4    4    0    0  0.12950948599E+02  0.39854695548E+03  0.47890079453E+03  0.62988872608E+03  0.91686604533E+02 0.  0.
         23    2    4    4    0    0 -0.76768371807E+02 -0.18857208345E+03  0.17475245421E+03  0.28406611624E+03  0.93286250744E+02 0.  0.
          3    1    3    3  502    0  0.78224165301E+02 -0.20400565957E+03 -0.47836897854E+02  0.22366425278E+03  0.00000000000E+00 0. -1.
         -3    1    3    3    0  502 -0.14406742093E+02 -0.59692124564E+01 -0.34455385677E+02  0.37820091450E+02  0.00000000000E+00 0.  1.
         11    1    5    5    0    0 -0.33833196257E+01  0.10208862854E+03  0.18947676994E+03  0.21525561845E+03  0.00000000000E+00 0. -1.
        -11    1    5    5    0    0  0.16334268224E+02  0.29645832694E+03  0.28942402459E+03  0.41463310763E+03  0.00000000000E+00 0.  1.
          5    1    6    6  503    0 -0.43077323611E+02 -0.83645095714E+02  0.23898984335E+02  0.97187495589E+02  0.47000000000E+01 0. -1.
         -5    1    6    6    0  503 -0.33691048196E+02 -0.10492698773E+03  0.15085346988E+03  0.18687862065E+03  0.47000000000E+01 0.  1.
<mgrwt>
<rscale>  0 0.41882124E+03</rscale>
<asrwt>0</asrwt>
<pdfrwt beam="1">  1        2 0.13436924E+00 0.41882124E+03</pdfrwt>
<pdfrwt beam="2">  1       -2 0.46467556E-01 0.41882124E+03</pdfrwt>
<totfact> 0.13950181E+02</totfact>
</mgrwt>
</event>
<event>
12    1  0.3166324E-008  0.8226648E+03  0.7818608E-02  0.9527778E-01
         -1   -1    0    0    0  501 -0.00000000000E+00  0.00000000000E+00  0.96384704409E+03  0.96384704409E+03  0.00000000000E+00 0.  1.
          1   -1    0    0  501    0  0.00000000000E+00 -0.00000000000E+00 -0.87770080014E+03  0.87770080014E+03  0.00000000000E+00 0. -1.
         23    2    1    2    0    0 -0.42237166853E+03 -0.59551490348E+03 -0.33302812418E+03  0.80769868004E+03  0.91834631758E+02 0.  0.
    5000000    2    1    2    0    0  0.42237166853E+03  0.59551490348E+03  0.41917436814E+03  0.10338491642E+04  0.60008425805E+03 0.  0.
         23    2    4    4    0    0 -0.12426953897E+02 -0.88997654716E+02  0.82362104494E+02  0.15118796915E+03  0.89438660714E+02 0.  0.
         23    2    4    4    0    0  0.43479862243E+03  0.68451255820E+03  0.33681226364E+03  0.88266119504E+03  0.89671622630E+02 0.  0.
          4    1    3    3  502    0 -0.11364037591E+03 -0.23197075012E+03 -0.10167747350E+03  0.27760200390E+03  0.00000000000E+00 0. -1.
         -4    1    3    3    0  502 -0.30873129262E+03 -0.36354415336E+03 -0.23135065068E+03  0.53009667614E+03  0.00000000000E+00 0.  1.
         13    1    5    5    0    0  0.57643371763E+01 -0.57804892981E+02  0.96313909321E+02  0.11247667476E+03  0.00000000000E+00 0.  1.
        -13    1    5    5    0    0 -0.18191291073E+02 -0.31192761735E+02 -0.13951804827E+02  0.38711294392E+02  0.00000000000E+00 0. -1.
          5    1    6    6  503    0  0.29809921208E+03  0.54036961689E+03  0.25368445185E+03  0.66726333198E+03  0.47000000000E+01 0. -1.
         -5    1    6    6    0  503  0.13669941035E+03  0.14414294131E+03  0.83127811792E+02  0.21539786306E+03  0.47000000000E+01 0.  1.
<mgrwt>
<rscale>  0 0.82266478E+03</rscale>
<asrwt>0</asrwt>
<pdfrwt beam="1">  1        1 0.13503089E+00 0.82266478E+03</pdfrwt>
<pdfrwt beam="2">  1       -1 0.14828416E+00 0.82266478E+03</pdfrwt>
<totfact> 0.69926715E+00</totfact>
</mgrwt>
</event>
<event>
12    1  0.3166324E-008  0.5584604E+03  0.7818608E-02  0.9995544E-01
          2   -1    0    0  501    0  0.00000000000E+00  0.00000000000E+00  0.49871255142E+03  0.49871255142E+03  0.00000000000E+00 0. -1.
         -2   -1    0    0    0  501 -0.00000000000E+00 -0.00000000000E+00 -0.70793564434E+03  0.70793564434E+03  0.00000000000E+00 0.  1.
         23    2    1    2    0    0  0.41665142741E+03  0.94676607387E+02 -0.17078431678E+03  0.46908563043E+03  0.91170027287E+02 0.  0.
    5000000    2    1    2    0    0 -0.41665142741E+03 -0.94676607387E+02 -0.38438776141E+02  0.73756256533E+03  0.59996577096E+03 0.  0.
         23    2    4    4    0    0 -0.49034534078E+03 -0.21554443678E+03  0.53076507693E+02  0.54587857990E+03  0.90930472768E+02 0.  0.
         23    2    4    4    0    0  0.73693913371E+02  0.12086782939E+03 -0.91515283835E+02  0.19168398543E+03  0.91257208188E+02 0.  0.
          2    1    3    3  502    0  0.17741072210E+03  0.56514720473E+02 -0.29167879930E+02  0.18846549596E+03  0.00000000000E+00 0. -1.
         -2    1    3    3    0  502  0.23924070530E+03  0.38161886914E+02 -0.14161643685E+03  0.28062013448E+03  0.00000000000E+00 0.  1.
         13    1    5    5    0    0 -0.12987057432E+03 -0.15267171763E+02  0.72590353732E+01  0.13096620252E+03  0.00000000000E+00 0. -1.
        -13    1    5    5    0    0 -0.36047476646E+03 -0.20027726502E+03  0.45817472320E+02  0.41491237738E+03  0.00000000000E+00 0.  1.
          5    1    6    6  503    0  0.38570059124E+02  0.34482704798E+02 -0.83010691550E+02  0.97926356526E+02  0.47000000000E+01 0. -1.
         -5    1    6    6    0  503  0.35123854247E+02  0.86385124593E+02 -0.85045922852E+01  0.93757628906E+02  0.47000000000E+01 0.  1.
<mgrwt>
<rscale>  0 0.55846039E+03</rscale>
<asrwt>0</asrwt>
<pdfrwt beam="1">  1        2 0.76725008E-01 0.55846039E+03</pdfrwt>
<pdfrwt beam="2">  1       -2 0.10891318E+00 0.55846039E+03</pdfrwt>
<totfact> 0.42718342E+01</totfact>
</mgrwt>
</event>
<event>
12    1  0.3166324E-008  0.4751713E+03  0.7818608E-02  0.1020471E+00
         -2   -1    0    0    0  501 -0.00000000000E+00  0.00000000000E+00  0.10468935424E+03  0.10468935424E+03  0.00000000000E+00 0. -1.
          2   -1    0    0  501    0  0.00000000000E+00 -0.00000000000E+00 -0.28283581838E+04  0.28283581838E+04  0.00000000000E+00 0.  1.
         23    2    1    2    0    0  0.34769196382E+03  0.90853108028E+02 -0.70891620941E+03  0.80034793638E+03  0.94077831402E+02 0.  0.
    5000000    2    1    2    0    0 -0.34769196382E+03 -0.90853108028E+02 -0.20147526202E+04  0.21326996017E+04  0.60002956722E+03 0.  0.
         23    2    4    4    0    0 -0.16553027423E+03  0.17812782612E+03 -0.14642452768E+04  0.14871195579E+04  0.91545368499E+02 0.  0.
         23    2    4    4    0    0 -0.18216168959E+03 -0.26898093415E+03 -0.55050734333E+03  0.64558004381E+03  0.90452384260E+02 0.  0.
          3    1    3    3  502    0  0.29524298975E+03  0.49337327678E+02 -0.62540555195E+03  0.69335034385E+03  0.00000000000E+00 0.  1.
         -3    1    3    3    0  502  0.52448974071E+02  0.41515780350E+02 -0.83510657453E+02  0.10699759253E+03  0.00000000000E+00 0. -1.
         11    1    5    5    0    0 -0.39372578218E+02  0.93412020214E+02 -0.75517982084E+03  0.76195312667E+03  0.00000000000E+00 0. -1.
        -11    1    5    5    0    0 -0.12615769601E+03  0.84715805904E+02 -0.70906545601E+03  0.72516643120E+03  0.00000000000E+00 0.  1.
          5    1    6    6  503    0 -0.10658836127E+03 -0.20720004707E+03 -0.32612389513E+03  0.40083889936E+03  0.47000000000E+01 0. -1.
         -5    1    6    6    0  503 -0.75573328327E+02 -0.61780887073E+02 -0.22438344820E+03  0.24474114445E+03  0.47000000000E+01 0.  1.
<mgrwt>
<rscale>  0 0.47517133E+03</rscale>
<asrwt>0</asrwt>
<pdfrwt beam="1">  1        2 0.43513201E+00 0.47517133E+03</pdfrwt>
<pdfrwt beam="2">  1       -2 0.16106055E-01 0.47517133E+03</pdfrwt>
<totfact> 0.75756035E+01</totfact>
</mgrwt>
</event>
<event>
12    1  0.3166324E-008  0.6660271E+03  0.7818608E-02  0.9777162E-01
          1   -1    0    0  501    0  0.00000000000E+00  0.00000000000E+00  0.14367616081E+04  0.14367616081E+04  0.00000000000E+00 0. -1.
         -1   -1    0    0    0  501 -0.00000000000E+00 -0.00000000000E+00 -0.41540969157E+03  0.41540969157E+03  0.00000000000E+00 0.  1.
         23    2    1    2    0    0 -0.62661996071E+03  0.70139319540E+02  0.63637189125E+03  0.90046201667E+03  0.91052513399E+02 0.  0.
    5000000    2    1    2    0    0  0.62661996071E+03 -0.70139319540E+02  0.38498002529E+03  0.95170928301E+03  0.59997403293E+03 0.  0.
         23    2    4    4    0    0  0.16640704148E+03 -0.15420773985E+03 -0.10669159737E+03  0.26713556617E+03  0.92233308925E+02 0.  0.
         23    2    4    4    0    0  0.46021291922E+03  0.84068420312E+02  0.49167162267E+03  0.68457371684E+03  0.89647972319E+02 0.  0.
          1    1    3    3  502    0 -0.32056499370E+03  0.21882681134E+02  0.38512310661E+03  0.50155814634E+03  0.00000000000E+00 0. -1.
         -1    1    3    3    0  502 -0.30605496701E+03  0.48256638406E+02  0.25124878464E+03  0.39890387033E+03  0.00000000000E+00 0.  1.
         11    1    5    5    0    0  0.14417726205E+03 -0.13362835275E+03 -0.49970023484E+02  0.20283151333E+03  0.00000000000E+00 0. -1.
        -11    1    5    5    0    0  0.22229779434E+02 -0.20579387102E+02 -0.56721573891E+02  0.64304052842E+02  0.00000000000E+00 0.  1.
          5    1    6    6  503    0  0.15441519657E+03  0.65007330293E+02  0.20671916212E+03  0.26612949463E+03  0.47000000000E+01 0. -1.
         -5    1    6    6    0  503  0.30579772265E+03  0.19061090019E+02  0.28495246055E+03  0.41844422221E+03  0.47000000000E+01 0.  1.
<mgrwt>
<rscale>  0 0.66602709E+03</rscale>
<asrwt>0</asrwt>
<pdfrwt beam="1">  1        1 0.22104025E+00 0.66602709E+03</pdfrwt>
<pdfrwt beam="2">  1       -1 0.63909184E-01 0.66602709E+03</pdfrwt>
<totfact> 0.18814100E+01</totfact>
</mgrwt>
</event>
<event>
12    1  0.3166324E-008  0.7866147E+03  0.7818608E-02  0.9579596E-01
         -2   -1    0    0    0  501 -0.00000000000E+00  0.00000000000E+00  0.28130405106E+03  0.28130405106E+03  0.00000000000E+00 0.  1.
          2   -1    0    0  501    0  0.00000000000E+00 -0.00000000000E+00 -0.27499647665E+04  0.27499647665E+04  0.00000000000E+00 0. -1.
         23    2    1    2    0    0  0.57307614183E+03 -0.47136865192E+03 -0.71348260827E+03  0.10334657191E+04  0.91593067333E+02 0.  0.
    5000000    2    1    2    0    0 -0.57307614183E+03  0.47136865192E+03 -0.17551781072E+04  0.19978030984E+04  0.59996863402E+03 0.  0.
         23    2    4    4    0    0 -0.45191627849E+03  0.15122673443E+03 -0.14533941104E+04  0.15323597994E+04  0.93135743418E+02 0.  0.
         23    2    4    4    0    0 -0.12115986335E+03  0.32014191749E+03 -0.30178399676E+03  0.46544329901E+03  0.91615086476E+02 0.  0.
          4    1    3    3  502    0  0.38208287138E+03 -0.33970597918E+03 -0.43716288178E+03  0.67268035358E+03  0.00000000000E+00 0. -1.
         -4    1    3    3    0  502  0.19099327046E+03 -0.13166267274E+03 -0.27631972650E+03  0.36078536556E+03  0.00000000000E+00 0.  1.
         11    1    5    5    0    0 -0.24008802301E+03  0.12637989937E+03 -0.76547763566E+03  0.81213924204E+03  0.00000000000E+00 0.  1.
        -11    1    5    5    0    0 -0.21182825547E+03  0.24846835058E+02 -0.68791647477E+03  0.72022055739E+03  0.00000000000E+00 0. -1.
          5    1    6    6  503    0 -0.21014752674E+02  0.11574636546E+03 -0.55832808446E+02  0.13030055044E+03  0.47000000000E+01 0. -1.
         -5    1    6    6    0  503 -0.10014511067E+03  0.20439555203E+03 -0.24595118832E+03  0.33514274856E+03  0.47000000000E+01 0.  1.
<mgrwt>
<rscale>  0 0.78661468E+03</rscale>
<asrwt>0</asrwt>
<pdfrwt beam="1">  1        2 0.42307150E+00 0.78661468E+03</pdfrwt>
<pdfrwt beam="2">  1       -2 0.43277546E-01 0.78661468E+03</pdfrwt>
<totfact> 0.13153974E+01</totfact>
</mgrwt>
</event>
<event>
12    1  0.3166324E-008  0.9648248E+03  0.7818608E-02  0.9347989E-01
         -2   -1    0    0    0  501 -0.00000000000E+00  0.00000000000E+00  0.54068225889E+03  0.54068225889E+03  0.00000000000E+00 0. -1.
          2   -1    0    0  501    0  0.00000000000E+00 -0.00000000000E+00 -0.20839571870E+04  0.20839571870E+04  0.00000000000E+00 0.  1.
         23    2    1    2    0    0  0.82603572144E+03  0.35680961996E+03 -0.11736259966E+04  0.14817158726E+04  0.91846770741E+02 0.  0.
    5000000    2    1    2    0    0 -0.82603572144E+03 -0.35680961996E+03 -0.36964893155E+03  0.11429235733E+04  0.59998820309E+03 0.  0.
         23    2    4    4    0    0 -0.97454131134E+02  0.10048592744E+03 -0.20052255962E+03  0.26142959483E+03  0.92419731922E+02 0.  0.
         23    2    4    4    0    0 -0.72858159031E+03 -0.45729554740E+03 -0.16912637194E+03  0.88149397849E+03  0.92073628210E+02 0.  0.
          2    1    3    3  502    0  0.59112215602E+02  0.70223917483E+01 -0.10447205879E+03  0.12024133685E+03  0.00000000000E+00 0. -1.
         -2    1    3    3    0  502  0.76692350584E+03  0.34978722821E+03 -0.10691539378E+04  0.13614745358E+04  0.00000000000E+00 0.  1.
         13    1    5    5    0    0 -0.46405092843E+02 -0.70579474856E+01 -0.40586529085E+02  0.62052506860E+02  0.00000000000E+00 0.  1.
        -13    1    5    5    0    0 -0.51049038291E+02  0.10754387493E+03 -0.15993603053E+03  0.19937708797E+03  0.00000000000E+00 0. -1.
          5    1    6    6  503    0 -0.65453960950E+03 -0.39639401782E+03 -0.12317972995E+03  0.77507783714E+03  0.47000000000E+01 0. -1.
         -5    1    6    6    0  503 -0.74041980813E+02 -0.60901529585E+02 -0.45946641985E+02  0.10641614134E+03  0.47000000000E+01 0.  1.
<mgrwt>
<rscale>  0 0.96482482E+03</rscale>
<asrwt>0</asrwt>
<pdfrwt beam="1">  1        2 0.32060880E+00 0.96482482E+03</pdfrwt>
<pdfrwt beam="2">  1       -2 0.83181885E-01 0.96482482E+03</pdfrwt>
<totfact> 0.76471531E+00</totfact>
</mgrwt>
</event>
<event>
12    1  0.3166324E-008  0.6459387E+03  0.7818608E-02  0.9814430E-01
          2   -1    0    0  501    0  0.00000000000E+00  0.00000000000E+00  0.93172025575E+03  0.93172025575E+03  0.00000000000E+00 0. -1.
         -2   -1    0    0    0  501 -0.00000000000E+00 -0.00000000000E+00 -0.53056996323E+03  0.53056996323E+03  0.00000000000E+00 0.  1.
         23    2    1    2    0    0 -0.50596969204E+03  0.68381791608E+02 -0.99393684227E+02  0.52888926467E+03  0.95725394393E+02 0.  0.
    5000000    2    1    2    0    0  0.50596969204E+03 -0.68381791608E+02  0.50054397675E+03  0.93340095432E+03  0.60000972506E+03 0.  0.
         23    2    4    4    0    0  0.99626794001E+02  0.23600872395E+03  0.16168676183E+03  0.31629816851E+03  0.90974208374E+02 0.  0.
         23    2    4    4    0    0  0.40634289804E+03 -0.30439051556E+03  0.33885721491E+03  0.61710278580E+03  0.90683512272E+02 0.  0.
          1    1    3    3  502    0 -0.38111112013E+03  0.33832585135E+02 -0.34970883962E+02  0.38420475326E+03  0.00000000000E+00 0. -1.
         -1    1    3    3    0  502 -0.12485857191E+03  0.34549206473E+02 -0.64422800265E+02  0.14468451141E+03  0.00000000000E+00 0.  1.
         11    1    5    5    0    0 -0.16020105056E+02  0.51934619670E+02  0.36009085884E+02  0.65195879874E+02  0.00000000000E+00 0. -1.
        -11    1    5    5    0    0  0.11564689906E+03  0.18407410428E+03  0.12567767595E+03  0.25110228864E+03  0.00000000000E+00 0.  1.
          5    1    6    6  503    0  0.25746794166E+03 -0.18471955020E+03  0.26187195934E+03  0.41110833888E+03  0.47000000000E+01 0. -1.
         -5    1    6    6    0  503  0.14887495639E+03 -0.11967096535E+03  0.76985255569E+02  0.20599444692E+03  0.47000000000E+01 0.  1.
<mgrwt>
<rscale>  0 0.64593869E+03</rscale>
<asrwt>0</asrwt>
<pdfrwt beam="1">  1        2 0.14334158E+00 0.64593869E+03</pdfrwt>
<pdfrwt beam="2">  1       -2 0.81626148E-01 0.64593869E+03</pdfrwt>
<totfact> 0.37816090E+01</totfact>
</mgrwt>
</event>
<event>
12    1  0.3166324E-008  0.1378137E+04  0.7818608E-02  0.8969798E-01
         -2   -1    0    0    0  501 -0.00000000000E+00  0.00000000000E+00  0.10214083975E+04  0.10214083975E+04  0.00000000000E+00 0.  1.
          2   -1    0    0  501    0  0.00000000000E+00 -0.00000000000E+00 -0.20209677746E+04  0.20209677746E+04  0.00000000000E+00 0. -1.
         23    2    1    2    0    0  0.97793512612E+03  0.96001497294E+03 -0.39748488422E+03  0.14297611369E+04  0.90756907389E+02 0.  0.
    5000000    2    1    2    0    0 -0.97793512612E+03 -0.96001497294E+03 -0.60207449289E+03  0.16126150352E+04  0.60003974675E+03 0.  0.
         23    2    4    4    0    0 -0.34698883175E+03 -0.26344355430E+03 -0.48986036864E+03  0.66192181391E+03  0.91507110629E+02 0.  0.
         23    2    4    4    0    0 -0.63094629436E+03 -0.69657141863E+03 -0.11221412425E+03  0.95069322131E+03  0.88997886167E+02 0.  0.
          4    1    3    3  502    0  0.47445486564E+03  0.42061278690E+03 -0.21681069602E+03  0.67009657061E+03  0.00000000000E+00 0. -1.
         -4    1    3    3    0  502  0.50348026048E+03  0.53940218603E+03 -0.18067418820E+03  0.75966456628E+03  0.00000000000E+00 0.  1.
         11    1    5    5    0    0 -0.29200958416E+03 -0.18561357237E+03 -0.34568142163E+03  0.48909880469E+03  0.00000000000E+00 0. -1.
        -11    1    5    5    0    0 -0.54979247592E+02 -0.77829981926E+02 -0.14417894701E+03  0.17282300921E+03  0.00000000000E+00 0.  1.
          5    1    6    6  503    0 -0.47705993034E+03 -0.47481344214E+03 -0.99726988519E+02  0.68044216816E+03  0.47000000000E+01 0. -1.
         -5    1    6    6    0  503 -0.15388636402E+03 -0.22175797650E+03 -0.12487135733E+02  0.27025105316E+03  0.47000000000E+01 0.  1.
<mgrwt>
<rscale>  0 0.13781374E+04</rscale>
<asrwt>0</asrwt>
<pdfrwt beam="1">  1        2 0.31091812E+00 0.13781374E+04</pdfrwt>
<pdfrwt beam="2">  1       -2 0.15713975E+00 0.13781374E+04</pdfrwt>
<totfact> 0.16425227E+00</totfact>
</mgrwt>
</event>
<event>
12    1  0.3166324E-008  0.4510446E+03  0.7818608E-02  0.1027411E+00
         -2   -1    0    0    0  501 -0.00000000000E+00  0.00000000000E+00  0.44309222754E+03  0.44309222754E+03  0.00000000000E+00 0.  1.
          2   -1    0    0  501    0  0.00000000000E+00 -0.00000000000E+00 -0.49162086025E+03  0.49162086025E+03  0.00000000000E+00 0. -1.
         23    2    1    2    0    0 -0.12341888039E+03 -0.23133771325E+03 -0.20111220658E+02  0.27925709692E+03  0.93971843529E+02 0.  0.
    5000000    2    1    2    0    0  0.12341888039E+03  0.23133771325E+03 -0.28417412057E+02  0.65545599087E+03  0.60005470505E+03 0.  0.
         23    2    4    4    0    0 -0.17766457777E+03 -0.59924671617E+02  0.60078148950E+02  0.21786986912E+03  0.93285730018E+02 0.  0.
         23    2    4    4    0    0  0.30108345817E+03  0.29126238487E+03 -0.88495561007E+02  0.43758612175E+03  0.90361075766E+02 0.  0.
          4    1    3    3  502    0 -0.44949096140E+02 -0.31466753299E+02 -0.33207649490E+02  0.64135214910E+02  0.00000000000E+00 0. -1.
         -4    1    3    3    0  502 -0.78469784254E+02 -0.19987095995E+03  0.13096428832E+02  0.21512188201E+03  0.00000000000E+00 0.  1.
         13    1    5    5    0    0 -0.57639487822E+02  0.24292602657E+02  0.13126795516E+02  0.63912079146E+02  0.00000000000E+00 0. -1.
        -13    1    5    5    0    0 -0.12002508995E+03 -0.84217274275E+02  0.46951353434E+02  0.15395778997E+03  0.00000000000E+00 0.  1.
          5    1    6    6  503    0  0.10456852278E+03  0.14247217464E+03 -0.35429245359E+01  0.17682629561E+03  0.47000000000E+01 0. -1.
         -5    1    6    6    0  503  0.19651493538E+03  0.14879021022E+03 -0.84952636471E+02  0.26075982614E+03  0.47000000000E+01 0.  1.
<mgrwt>
<rscale>  0 0.45104463E+03</rscale>
<asrwt>0</asrwt>
<pdfrwt beam="1">  1        2 0.75633978E-01 0.45104463E+03</pdfrwt>
<pdfrwt beam="2">  1       -2 0.68168035E-01 0.45104463E+03</pdfrwt>
<totfact> 0.12728921E+02</totfact>
</mgrwt>
</event>
<event>
12    1  0.3314600E-008  0.1525742E+04  0.7818608E-02  0.8867513E-01
          2   -1    0    0  501    0  0.00000000000E+00  0.00000000000E+00  0.17134366925E+04  0.17134366925E+04  0.00000000000E+00 0. -1.
         -2   -1    0    0    0  501 -0.00000000000E+00 -0.00000000000E+00 -0.13791841472E+04  0.13791841472E+04  0.00000000000E+00 0.  1.
         23    2    1    2    0    0  0.14078102216E+04  0.42416117508E+03  0.30397294694E+03  0.15041612080E+04  0.90879397157E+02 0.  0.
    5000000    2    1    2    0    0 -0.14078102216E+04 -0.42416117508E+03  0.30279598306E+02  0.15884596317E+04  0.60037057297E+03 0.  0.
         23    2    4    4    0    0 -0.83535392069E+03 -0.52864699143E+03  0.83123430025E+02  0.99629667899E+03  0.91726515228E+02 0.  0.
         23    2    4    4    0    0 -0.57245630090E+03  0.10448581635E+03 -0.52843831719E+02  0.59216295267E+03  0.96130066587E+02 0.  0.
          4    1    3    3  502    0  0.54694448707E+03  0.19784020542E+03  0.15203208664E+03  0.60116784194E+03  0.00000000000E+00 0. -1.
         -4    1    3    3    0  502  0.86086573452E+03  0.22632096965E+03  0.15194086030E+03  0.90299336609E+03  0.00000000000E+00 0.  1.
         13    1    5    5    0    0 -0.72794571003E+03 -0.43207770502E+03  0.92479860944E+02  0.85155658920E+03  0.00000000000E+00 0. -1.
        -13    1    5    5    0    0 -0.10740821066E+03 -0.96569286403E+02 -0.93564309184E+01  0.14474008979E+03  0.00000000000E+00 0.  1.
          5    1    6    6  503    0 -0.38089184368E+03  0.26315907738E+02 -0.50853520801E+02  0.38520032990E+03  0.47000000000E+01 0. -1.
         -5    1    6    6    0  503 -0.19156445722E+03  0.78169908613E+02 -0.19903109182E+01  0.20696262276E+03  0.47000000000E+01 0.  1.
<mgrwt>
<rscale>  0 0.15257419E+04</rscale>
<asrwt>0</asrwt>
<pdfrwt beam="1">  1        2 0.26360565E+00 0.15257419E+04</pdfrwt>
<pdfrwt beam="2">  1       -2 0.21218218E+00 0.15257419E+04</pdfrwt>
<totfact> 0.10020218E+00</totfact>
</mgrwt>
</event>
<event>
12    1  0.3166324E-008  0.6845451E+03  0.7818608E-02  0.9744033E-01
          1   -1    0    0  501    0  0.00000000000E+00  0.00000000000E+00  0.50796567211E+03  0.50796567211E+03  0.00000000000E+00 0. -1.
         -1   -1    0    0    0  501 -0.00000000000E+00 -0.00000000000E+00 -0.11281485049E+04  0.11281485049E+04  0.00000000000E+00 0.  1.
         23    2    1    2    0    0  0.33065524373E+03  0.49236229309E+03 -0.50423909781E+03  0.78401372888E+03  0.93096409406E+02 0.  0.
    5000000    2    1    2    0    0 -0.33065524373E+03 -0.49236229309E+03 -0.11594373499E+03  0.85210044815E+03  0.60073180887E+03 0.  0.
         23    2    4    4    0    0 -0.41763605177E+03 -0.47893364823E+03  0.48522307791E+02  0.64392719076E+03  0.92143917313E+02 0.  0.
         23    2    4    4    0    0  0.86980808038E+02 -0.13428644854E+02 -0.16446604278E+03  0.20817325739E+03  0.92417727703E+02 0.  0.
          2    1    3    3  502    0  0.17297636545E+03  0.17701083633E+03 -0.19621530109E+03  0.31583873032E+03  0.00000000000E+00 0. -1.
         -2    1    3    3    0  502  0.15767887828E+03  0.31535145676E+03 -0.30802379672E+03  0.46817499856E+03  0.00000000000E+00 0.  1.
         11    1    5    5    0    0 -0.24687663739E+03 -0.21456155110E+03  0.34350074769E+02  0.32888396272E+03  0.00000000000E+00 0. -1.
        -11    1    5    5    0    0 -0.17075941438E+03 -0.26437209714E+03  0.14172233022E+02  0.31504322804E+03  0.00000000000E+00 0.  1.
          5    1    6    6  503    0  0.58137631613E+02  0.36895408263E+02 -0.80880483894E+02  0.10632496431E+03  0.47000000000E+01 0. -1.
         -5    1    6    6    0  503  0.28843176425E+02 -0.50324053118E+02 -0.83585558889E+02  0.10184829308E+03  0.47000000000E+01 0.  1.
<mgrwt>
<rscale>  0 0.68454511E+03</rscale>
<asrwt>0</asrwt>
<pdfrwt beam="1">  1        1 0.78148566E-01 0.68454511E+03</pdfrwt>
<pdfrwt beam="2">  1       -1 0.17356131E+00 0.68454511E+03</pdfrwt>
<totfact> 0.10441790E+01</totfact>
</mgrwt>
</event>
<event>
12    1  0.3166324E-008  0.4297261E+03  0.7818608E-02  0.1033947E+00
          1   -1    0    0  501    0  0.00000000000E+00  0.00000000000E+00  0.59332626865E+03  0.59332626865E+03  0.00000000000E+00 0. -1.
         -1   -1    0    0    0  501 -0.00000000000E+00 -0.00000000000E+00 -0.43538914299E+03  0.43538914299E+03  0.00000000000E+00 0.  1.
         23    2    1    2    0    0  0.25617574377E+03 -0.16551380283E+03 -0.55050879737E+02  0.32269110877E+03  0.89878371694E+02 0.  0.
    5000000    2    1    2    0    0 -0.25617574377E+03  0.16551380283E+03  0.21298800540E+03  0.70602430287E+03  0.60007132507E+03 0.  0.
         23    2    4    4    0    0 -0.14653895538E+03 -0.13526575530E+03 -0.10839529988E+03  0.24305535319E+03  0.86924528642E+02 0.  0.
         23    2    4    4    0    0 -0.10963678838E+03  0.30077955813E+03  0.32138330528E+03  0.46296894968E+03  0.92544321785E+02 0.  0.
          1    1    3    3  502    0  0.35682117506E+01 -0.31748555486E+02 -0.87674302392E+01  0.33129605242E+02  0.00000000000E+00 0. -1.
         -1    1    3    3    0  502  0.25260753202E+03 -0.13376524735E+03 -0.46283449498E+02  0.28956150353E+03  0.00000000000E+00 0.  1.
         13    1    5    5    0    0 -0.15208836290E+02  0.12619013229E+02 -0.95141693670E+01  0.21933253633E+02  0.00000000000E+00 0. -1.
        -13    1    5    5    0    0 -0.13133011909E+03 -0.14788476853E+03 -0.98881130514E+02  0.22112209956E+03  0.00000000000E+00 0.  1.
          5    1    6    6  503    0 -0.37843728661E+02  0.17601579655E+03  0.12412930816E+03  0.21873244747E+03  0.47000000000E+01 0. -1.
         -5    1    6    6    0  503 -0.71793059722E+02  0.12476376158E+03  0.19725399712E+03  0.24423650220E+03  0.47000000000E+01 0.  1.
<mgrwt>
<rscale>  0 0.42972609E+03</rscale>
<asrwt>0</asrwt>
<pdfrwt beam="1">  1        1 0.91280965E-01 0.42972609E+03</pdfrwt>
<pdfrwt beam="2">  1       -1 0.66982944E-01 0.42972609E+03</pdfrwt>
<totfact> 0.82646842E+01</totfact>
</mgrwt>
</event>
<event>
12    1  0.3166324E-008  0.1309263E+04  0.7818608E-02  0.9022251E-01
         -1   -1    0    0    0  501 -0.00000000000E+00  0.00000000000E+00  0.25842993464E+04  0.25842993464E+04  0.00000000000E+00 0.  1.
          1   -1    0    0  501    0  0.00000000000E+00 -0.00000000000E+00 -0.70069256192E+03  0.70069256192E+03  0.00000000000E+00 0. -1.
         23    2    1    2    0    0 -0.81611248808E+03  0.97489970169E+03  0.75202807307E+03  0.14803015873E+04  0.96320014360E+02 0.  0.
    5000000    2    1    2    0    0  0.81611248808E+03 -0.97489970169E+03  0.11315787114E+04  0.18046903210E+04  0.59997312696E+03 0.  0.
         23    2    4    4    0    0  0.79952195336E+03 -0.96140061058E+03  0.11604042747E+04  0.17081365361E+04  0.87554880182E+02 0.  0.
         23    2    4    4    0    0  0.16590534719E+02 -0.13499091110E+02 -0.28825563316E+02  0.96553784962E+02  0.89633972281E+02 0.  0.
          1    1    3    3  502    0 -0.32551893326E+03  0.32243471215E+03  0.29113661525E+03  0.54285103689E+03  0.00000000000E+00 0. -1.
         -1    1    3    3    0  502 -0.49059355482E+03  0.65246498954E+03  0.46089145782E+03  0.93745055043E+03  0.00000000000E+00 0.  1.
         11    1    5    5    0    0  0.32826125428E+03 -0.46243544818E+03  0.51825904159E+03  0.76824112685E+03  0.00000000000E+00 0. -1.
        -11    1    5    5    0    0  0.47126069908E+03 -0.49896516240E+03  0.64214523315E+03  0.93989540920E+03  0.00000000000E+00 0.  1.
          5    1    6    6  503    0  0.39704462618E+02  0.23746110786E+02 -0.59331272838E+01  0.46878717224E+02  0.47000000000E+01 0. -1.
         -5    1    6    6    0  503 -0.23113927899E+02 -0.37245201896E+02 -0.22892436032E+02  0.49675067737E+02  0.47000000000E+01 0.  1.
<mgrwt>
<rscale>  0 0.13092632E+04</rscale>
<asrwt>0</asrwt>
<pdfrwt beam="1">  1        1 0.10779886E+00 0.13092632E+04</pdfrwt>
<pdfrwt beam="2">  1       -1 0.39758451E+00 0.13092632E+04</pdfrwt>
<totfact> 0.19818496E-01</totfact>
</mgrwt>
</event>
<event>
12    1  0.3166324E-008  0.3907328E+03  0.7818608E-02  0.1047037E+00
         -2   -1    0    0    0  501 -0.00000000000E+00  0.00000000000E+00  0.15161567598E+03  0.15161567598E+03  0.00000000000E+00 0.  1.
          2   -1    0    0  501    0  0.00000000000E+00 -0.00000000000E+00 -0.27636651542E+04  0.27636651542E+04  0.00000000000E+00 0. -1.
         23    2    1    2    0    0 -0.25109572468E+03 -0.14483941766E+03 -0.19585642620E+04  0.19820158902E+04  0.91572379528E+02 0.  0.
    5000000    2    1    2    0    0  0.25109572468E+03  0.14483941766E+03 -0.65348521628E+03  0.93326494005E+03  0.59992749610E+03 0.  0.
         23    2    4    4    0    0  0.33580370453E+03  0.11707497115E+03 -0.70886166438E+03  0.79789274777E+03  0.87620208148E+02 0.  0.
         23    2    4    4    0    0 -0.84707979858E+02  0.27764446508E+02  0.55376448096E+02  0.13537219228E+03  0.85514753682E+02 0.  0.
          1    1    3    3  502    0 -0.14822629901E+03 -0.12471249757E+03 -0.14393536309E+04  0.14523302371E+04  0.00000000000E+00 0. -1.
         -1    1    3    3    0  502 -0.10286942567E+03 -0.20126920088E+02 -0.51921063110E+03  0.52968565310E+03  0.00000000000E+00 0.  1.
         13    1    5    5    0    0  0.15498046617E+03  0.81549765085E+02 -0.42254268075E+03  0.45739657425E+03  0.00000000000E+00 0.  1.
        -13    1    5    5    0    0  0.18082323837E+03  0.35525206064E+02 -0.28631898363E+03  0.34049617353E+03  0.00000000000E+00 0. -1.
          5    1    6    6  503    0 -0.38018096691E+00  0.38143217839E+02  0.17303398272E+02  0.42149106710E+02  0.47000000000E+01 0. -1.
         -5    1    6    6    0  503 -0.84327798891E+02 -0.10378771332E+02  0.38073049823E+02  0.93223085569E+02  0.47000000000E+01 0.  1.
<mgrwt>
<rscale>  0 0.39073284E+03</rscale>
<asrwt>0</asrwt>
<pdfrwt beam="1">  1        2 0.42517924E+00 0.39073284E+03</pdfrwt>
<pdfrwt beam="2">  1       -2 0.23325489E-01 0.39073284E+03</pdfrwt>
<totfact> 0.44486030E+01</totfact>
</mgrwt>
</event>
<event>
12    1  0.3166324E-008  0.7764607E+03  0.7818608E-02  0.9594728E-01
          2   -1    0    0  501    0  0.00000000000E+00  0.00000000000E+00  0.49324464124E+03  0.49324464124E+03  0.00000000000E+00 0.  1.
         -2   -1    0    0    0  501 -0.00000000000E+00 -0.00000000000E+00 -0.14010617451E+04  0.14010617451E+04  0.00000000000E+00 0. -1.
         23    2    1    2    0    0  0.19459952755E+03 -0.65578132222E+03 -0.14089396275E+03  0.70428580642E+03  0.90825490352E+02 0.  0.
    5000000    2    1    2    0    0 -0.19459952755E+03  0.65578132222E+03 -0.76692314108E+03  0.11900205799E+04  0.60004979588E+03 0.  0.
         23    2    4    4    0    0  0.11353767462E+03  0.50023536413E+03 -0.60712755428E+03  0.79897566409E+03  0.81437224629E+02 0.  0.
         23    2    4    4    0    0 -0.30813720216E+03  0.15554595808E+03 -0.15979558680E+03  0.39104491580E+03  0.90765721378E+02 0.  0.
          2    1    3    3  502    0  0.65252112607E+02 -0.11496525585E+03 -0.47272427812E+02  0.14039063602E+03  0.00000000000E+00 0. -1.
         -2    1    3    3    0  502  0.12934741494E+03 -0.54081606637E+03 -0.93621534939E+02  0.56389517040E+03  0.00000000000E+00 0.  1.
         13    1    5    5    0    0  0.92892037091E+01  0.21015601622E+03 -0.26791060861E+03  0.34062873435E+03  0.00000000000E+00 0.  1.
        -13    1    5    5    0    0  0.10424847091E+03  0.29007934791E+03 -0.33921694566E+03  0.45834692973E+03  0.00000000000E+00 0. -1.
          5    1    6    6  503    0 -0.16437108787E+03  0.70171551359E+02 -0.13021504702E+03  0.22117854692E+03  0.47000000000E+01 0. -1.
         -5    1    6    6    0  503 -0.14376611430E+03  0.85374406721E+02 -0.29580539788E+02  0.16986636888E+03  0.47000000000E+01 0.  1.
<mgrwt>
<rscale>  0 0.77646074E+03</rscale>
<asrwt>0</asrwt>
<pdfrwt beam="1">  1        2 0.75883792E-01 0.77646074E+03</pdfrwt>
<pdfrwt beam="2">  1       -2 0.21554796E+00 0.77646074E+03</pdfrwt>
<totfact> 0.67247464E+00</totfact>
</mgrwt>
</event>
<event>
12    1  0.3166324E-008  0.7093650E+03  0.7818608E-02  0.9701349E-01
          2   -1    0    0  501    0  0.00000000000E+00  0.00000000000E+00  0.74073144983E+03  0.74073144983E+03  0.00000000000E+00 0.  1.
         -2   -1    0    0    0  501 -0.00000000000E+00 -0.00000000000E+00 -0.83230598796E+03  0.83230598796E+03  0.00000000000E+00 0. -1.
         23    2    1    2    0    0  0.58851612593E+03  0.38151357923E+02 -0.35183442559E+03  0.69237001470E+03  0.88215744821E+02 0.  0.
    5000000    2    1    2    0    0 -0.58851612593E+03 -0.38151357923E+02  0.26025988746E+03  0.88066742308E+03  0.60002761975E+03 0.  0.
         23    2    4    4    0    0 -0.46680672359E+03  0.22744178735E+03  0.10523020420E+03  0.53731552692E+03  0.89422009456E+02 0.  0.
         23    2    4    4    0    0 -0.12170940234E+03 -0.26559314527E+03  0.15502968326E+03  0.34335189616E+03  0.92214014517E+02 0.  0.
          3    1    3    3  502    0  0.51980219710E+03  0.54943641163E+02 -0.28644290049E+03  0.59603914557E+03  0.00000000000E+00 0. -1.
         -3    1    3    3    0  502  0.68713928829E+02 -0.16792283240E+02 -0.65391525105E+02  0.96330869129E+02  0.00000000000E+00 0.  1.
         11    1    5    5    0    0 -0.27685322762E+03  0.10099117810E+03  0.26350184538E+02  0.29587372294E+03  0.00000000000E+00 0. -1.
        -11    1    5    5    0    0 -0.18995349596E+03  0.12645060925E+03  0.78880019665E+02  0.24144180398E+03  0.00000000000E+00 0.  1.
          5    1    6    6  503    0 -0.13238968708E+03 -0.23678179009E+03  0.15457706116E+03  0.31226399600E+03  0.47000000000E+01 0. -1.
         -5    1    6    6    0  503  0.10680284737E+02 -0.28811355179E+02  0.45262209552E+00  0.31087900156E+02  0.47000000000E+01 0.  1.
<mgrwt>
<rscale>  0 0.70936502E+03</rscale>
<asrwt>0</asrwt>
<pdfrwt beam="1">  1        2 0.11395869E+00 0.70936502E+03</pdfrwt>
<pdfrwt beam="2">  1       -2 0.12804707E+00 0.70936502E+03</pdfrwt>
<totfact> 0.17516632E+01</totfact>
</mgrwt>
</event>
<event>
12    1  0.3166324E-008  0.4887769E+03  0.7818608E-02  0.1016751E+00
         -1   -1    0    0    0  501 -0.00000000000E+00  0.00000000000E+00  0.25158795710E+03  0.25158795710E+03  0.00000000000E+00 0.  1.
          1   -1    0    0  501    0  0.00000000000E+00 -0.00000000000E+00 -0.10906569090E+04  0.10906569090E+04  0.00000000000E+00 0. -1.
         23    2    1    2    0    0  0.31187187019E+03 -0.55552592192E+02 -0.11400600257E+03  0.34911303739E+03  0.92370938830E+02 0.  0.
    5000000    2    1    2    0    0 -0.31187187019E+03  0.55552592192E+02 -0.72506294930E+03  0.99313182868E+03  0.60020362776E+03 0.  0.
         23    2    4    4    0    0  0.10887966894E+03 -0.13111285272E+03 -0.31250363768E+03  0.36761818968E+03  0.91865376295E+02 0.  0.
         23    2    4    4    0    0 -0.42075153913E+03  0.18666544491E+03 -0.41255931162E+03  0.62551363900E+03  0.95845088360E+02 0.  0.
          4    1    3    3  502    0  0.12114151000E+03 -0.19130966626E+02  0.24957476669E+01  0.12266820324E+03  0.00000000000E+00 0. -1.
         -4    1    3    3    0  502  0.19073036019E+03 -0.36421625566E+02 -0.11650175024E+03  0.22644483415E+03  0.00000000000E+00 0.  1.
         13    1    5    5    0    0  0.46876106134E+02 -0.11889107212E+03 -0.17930573369E+03  0.22018856122E+03  0.00000000000E+00 0.  1.
        -13    1    5    5    0    0  0.62003562810E+02 -0.12221780604E+02 -0.13319790398E+03  0.14742962846E+03  0.00000000000E+00 0. -1.
          5    1    6    6  503    0 -0.27950132861E+03  0.17063426829E+03 -0.29982699873E+03  0.44402180732E+03  0.47000000000E+01 0. -1.
         -5    1    6    6    0  503 -0.14125021052E+03  0.16031176626E+02 -0.11273231289E+03  0.18149183168E+03  0.47000000000E+01 0.  1.
<mgrwt>
<rscale>  0 0.48877689E+03</rscale>
<asrwt>0</asrwt>
<pdfrwt beam="1">  1        1 0.16779337E+00 0.48877689E+03</pdfrwt>
<pdfrwt beam="2">  1       -1 0.38705840E-01 0.48877689E+03</pdfrwt>
<totfact> 0.87495015E+01</totfact>
</mgrwt>
</event>
<event>
12    1  0.3166324E-008  0.1253803E+04  0.7818608E-02  0.9067024E-01
          2   -1    0    0  501    0  0.00000000000E+00  0.00000000000E+00  0.15968457085E+04  0.15968457085E+04  0.00000000000E+00 0. -1.
         -2   -1    0    0    0  501 -0.00000000000E+00 -0.00000000000E+00 -0.13617650514E+04  0.13617650514E+04  0.00000000000E+00 0.  1.
         23    2    1    2    0    0 -0.54996136058E+03 -0.10531678270E+04 -0.65300267736E+03  0.13586977328E+04  0.89593876233E+02 0.  0.
    5000000    2    1    2    0    0  0.54996136058E+03  0.10531678270E+04  0.88808333445E+03  0.15999130272E+04  0.59950789452E+03 0.  0.
         23    2    4    4    0    0  0.63529280766E+03  0.68570155805E+03  0.57322151628E+03  0.11002754722E+04  0.90772406683E+02 0.  0.
         23    2    4    4    0    0 -0.85331447082E+02  0.36746626893E+03  0.31486181818E+03  0.49963755495E+03  0.90480976523E+02 0.  0.
          3    1    3    3  502    0 -0.42078247698E+03 -0.77790901865E+03 -0.44302250847E+03  0.98917605978E+03  0.00000000000E+00 0. -1.
         -3    1    3    3    0  502 -0.12917888360E+03 -0.27525880833E+03 -0.20998016889E+03  0.36952167306E+03  0.00000000000E+00 0.  1.
         11    1    5    5    0    0  0.16391280276E+03  0.22603037946E+03  0.19996646674E+03  0.34342936270E+03  0.00000000000E+00 0. -1.
        -11    1    5    5    0    0  0.47138000490E+03  0.45967117859E+03  0.37325504954E+03  0.75684610949E+03  0.00000000000E+00 0.  1.
          5    1    6    6  503    0 -0.90145339567E+01  0.16131031046E+03  0.89389776680E+02  0.18470219343E+03  0.47000000000E+01 0. -1.
         -5    1    6    6    0  503 -0.76316913125E+02  0.20615595847E+03  0.22547204150E+03  0.31493536153E+03  0.47000000000E+01 0.  1.
<mgrwt>
<rscale>  0 0.12538031E+04</rscale>
<asrwt>0</asrwt>
<pdfrwt beam="1">  1        2 0.24566857E+00 0.12538031E+04</pdfrwt>
<pdfrwt beam="2">  1       -2 0.20950231E+00 0.12538031E+04</pdfrwt>
<totfact> 0.12454959E+00</totfact>
</mgrwt>
</event>
<event>
12    1  0.3166324E-008  0.7914170E+03  0.7818608E-02  0.9572524E-01
          1   -1    0    0  501    0  0.00000000000E+00  0.00000000000E+00  0.13388106214E+04  0.13388106214E+04  0.00000000000E+00 0. -1.
         -1   -1    0    0    0  501 -0.00000000000E+00 -0.00000000000E+00 -0.62398186411E+03  0.62398186411E+03  0.00000000000E+00 0.  1.
         23    2    1    2    0    0  0.13515683344E+03  0.76418636080E+03  0.57902397069E+03  0.97255268521E+03  0.91333472609E+02 0.  0.
    5000000    2    1    2    0    0 -0.13515683344E+03 -0.76418636080E+03  0.13580478665E+03  0.99023980036E+03  0.59990312425E+03 0.  0.
         23    2    4    4    0    0 -0.11439710769E+02 -0.14849450271E+03 -0.20519038173E+03  0.26902178478E+03  0.89934107048E+02 0.  0.
         23    2    4    4    0    0 -0.12371712267E+03 -0.61569185808E+03  0.34099516838E+03  0.72121801558E+03  0.97443986940E+02 0.  0.
          1    1    3    3  502    0  0.10977423532E+03  0.55179781780E+03  0.46651785936E+03  0.73086943264E+03  0.00000000000E+00 0. -1.
         -1    1    3    3    0  502  0.25382598121E+02  0.21238854300E+03  0.11250611132E+03  0.24168325257E+03  0.00000000000E+00 0.  1.
         13    1    5    5    0    0 -0.46611280209E+02 -0.46111176069E+02 -0.71853995520E+02  0.97272034385E+02  0.00000000000E+00 0. -1.
        -13    1    5    5    0    0  0.35171569439E+02 -0.10238332665E+03 -0.13333638621E+03  0.17174975039E+03  0.00000000000E+00 0.  1.
          5    1    6    6  503    0 -0.10030670311E+03 -0.58530049054E+03  0.30167838606E+03  0.66608560826E+03  0.47000000000E+01 0. -1.
         -5    1    6    6    0  503 -0.23410419566E+02 -0.30391367546E+02  0.39316782320E+02  0.55132407326E+02  0.47000000000E+01 0.  1.
<mgrwt>
<rscale>  0 0.79141703E+03</rscale>
<asrwt>0</asrwt>
<pdfrwt beam="1">  1        1 0.20597086E+00 0.79141703E+03</pdfrwt>
<pdfrwt beam="2">  1       -1 0.95997210E-01 0.79141703E+03</pdfrwt>
<totfact> 0.91478814E+00</totfact>
</mgrwt>
</event>
<event>
12    1  0.3166324E-008  0.1286094E+04  0.7818608E-02  0.9040666E-01
          2   -1    0    0  501    0  0.00000000000E+00  0.00000000000E+00  0.21468504609E+04  0.21468504609E+04  0.00000000000E+00 0. -1.
         -2   -1    0    0    0  501 -0.00000000000E+00 -0.00000000000E+00 -0.21431637372E+04  0.21431637372E+04  0.00000000000E+00 0.  1.
         23    2    1    2    0    0  0.86319586893E+03  0.88213155474E+03  0.17030216178E+04  0.21057487187E+04  0.10311085142E+03 0.  0.
    5000000    2    1    2    0    0 -0.86319586893E+03 -0.88213155474E+03 -0.16993348941E+04  0.21842654794E+04  0.60001117834E+03 0.  0.
         23    2    4    4    0    0 -0.67658684899E+03 -0.92400697983E+03 -0.13239297499E+04  0.17532105371E+04  0.96946077242E+02 0.  0.
         23    2    4    4    0    0 -0.18660901994E+03  0.41875425091E+02 -0.37540514423E+03  0.43105494227E+03  0.91120049309E+02 0.  0.
          3    1    3    3  502    0  0.69823678957E+03  0.72163895518E+03  0.14495910206E+04  0.17634090629E+04  0.00000000000E+00 0. -1.
         -3    1    3    3    0  502  0.16495907936E+03  0.16049259956E+03  0.25343059711E+03  0.34233965579E+03  0.00000000000E+00 0.  1.
         13    1    5    5    0    0 -0.44068780754E+03 -0.63889495794E+03 -0.95578596264E+03  0.12312267530E+04  0.00000000000E+00 0.  1.
        -13    1    5    5    0    0 -0.23589904145E+03 -0.28511202189E+03 -0.36814378725E+03  0.52198378411E+03  0.00000000000E+00 0. -1.
          5    1    6    6  503    0 -0.10130544024E+03  0.27460388403E+02 -0.11110363484E+03  0.15291492023E+03  0.47000000000E+01 0. -1.
         -5    1    6    6    0  503 -0.85303579704E+02  0.14415036688E+02 -0.26430150939E+03  0.27814002204E+03  0.47000000000E+01 0.  1.
<mgrwt>
<rscale>  0 0.12860938E+04</rscale>
<asrwt>0</asrwt>
<pdfrwt beam="1">  1        2 0.33028469E+00 0.12860938E+04</pdfrwt>
<pdfrwt beam="2">  1       -2 0.32971750E+00 0.12860938E+04</pdfrwt>
<totfact> 0.11151751E-01</totfact>
</mgrwt>
</event>
<event>
12    1  0.3166324E-008  0.5286034E+03  0.7818608E-02  0.1006571E+00
          2   -1    0    0  501    0  0.00000000000E+00  0.00000000000E+00  0.18454246316E+04  0.18454246316E+04  0.00000000000E+00 0. -1.
         -2   -1    0    0    0  501 -0.00000000000E+00 -0.00000000000E+00 -0.16245104651E+03  0.16245104651E+03  0.00000000000E+00 0.  1.
         23    2    1    2    0    0 -0.30402733965E+03 -0.21583255564E+03  0.68391693219E+03  0.78436588096E+03  0.92038849132E+02 0.  0.
    5000000    2    1    2    0    0  0.30402733965E+03  0.21583255564E+03  0.99905665286E+03  0.12235097971E+04  0.59987141343E+03 0.  0.
         23    2    4    4    0    0 -0.35475692212E+02  0.32332246321E+03  0.47083245485E+03  0.57934758046E+03  0.90357503756E+02 0.  0.
         23    2    4    4    0    0  0.33950303186E+03 -0.10748990757E+03  0.52822419801E+03  0.64416221665E+03  0.95434632694E+02 0.  0.
          4    1    3    3  502    0 -0.17520853041E+03 -0.14859496380E+03  0.33305413566E+03  0.40460295312E+03  0.00000000000E+00 0.  1.
         -4    1    3    3    0  502 -0.12881880924E+03 -0.67237591834E+02  0.35086279653E+03  0.37976292784E+03  0.00000000000E+00 0. -1.
         11    1    5    5    0    0 -0.12847411598E+02  0.18321914248E+03  0.18756086198E+03  0.26251359413E+03  0.00000000000E+00 0. -1.
        -11    1    5    5    0    0 -0.22628280614E+02  0.14010332073E+03  0.28327159288E+03  0.31683398633E+03  0.00000000000E+00 0.  1.
          5    1    6    6  503    0  0.93641856373E+02 -0.36624140270E+02  0.82296431994E+02  0.13001891260E+03  0.47000000000E+01 0. -1.
         -5    1    6    6    0  503  0.24586117549E+03 -0.70865767301E+02  0.44592776602E+03  0.51414330404E+03  0.47000000000E+01 0.  1.
<mgrwt>
<rscale>  0 0.52860338E+03</rscale>
<asrwt>0</asrwt>
<pdfrwt beam="1">  1        2 0.28391147E+00 0.52860338E+03</pdfrwt>
<pdfrwt beam="2">  1       -2 0.24992470E-01 0.52860338E+03</pdfrwt>
<totfact> 0.12247468E+02</totfact>
</mgrwt>
</event>
<event>
12    1  0.3166324E-008  0.1157785E+04  0.7818608E-02  0.9150632E-01
          1   -1    0    0  501    0  0.00000000000E+00  0.00000000000E+00  0.27593477741E+04  0.27593477741E+04  0.00000000000E+00 0. -1.
         -1   -1    0    0    0  501 -0.00000000000E+00 -0.00000000000E+00 -0.49408826309E+03  0.49408826309E+03  0.00000000000E+00 0.  1.
         23    2    1    2    0    0 -0.13491588810E+03 -0.10796502619E+04  0.10962652505E+04  0.15473228691E+04  0.92539596245E+02 0.  0.
    5000000    2    1    2    0    0  0.13491588810E+03  0.10796502619E+04  0.11689942605E+04  0.17061131681E+04  0.60035620804E+03 0.  0.
         23    2    4    4    0    0 -0.19905246138E+03  0.64044707944E+03  0.54695405204E+03  0.86952690560E+03  0.84403557869E+02 0.  0.
         23    2    4    4    0    0  0.33396834948E+03  0.43920318244E+03  0.62204020849E+03  0.83658626254E+03  0.92240228614E+02 0.  0.
          3    1    3    3  502    0 -0.36460465407E+02 -0.36055061238E+03  0.30570759919E+03  0.47411311501E+03  0.00000000000E+00 0. -1.
         -3    1    3    3    0  502 -0.98455422689E+02 -0.71909964950E+03  0.79055765133E+03  0.10732097541E+04  0.00000000000E+00 0.  1.
         13    1    5    5    0    0 -0.18172558344E+02  0.12575972272E+03  0.13893302190E+03  0.18827674925E+03  0.00000000000E+00 0. -1.
        -13    1    5    5    0    0 -0.18087990304E+03  0.51468735672E+03  0.40802103014E+03  0.68125015635E+03  0.00000000000E+00 0.  1.
          5    1    6    6  503    0  0.19892772196E+03  0.30609402890E+03  0.35661177515E+03  0.51035266363E+03  0.47000000000E+01 0. -1.
         -5    1    6    6    0  503  0.13504062752E+03  0.13310915354E+03  0.26542843333E+03  0.32623359891E+03  0.47000000000E+01 0.  1.
<mgrwt>
<rscale>  0 0.11577849E+04</rscale>
<asrwt>0</asrwt>
<pdfrwt beam="1">  1        1 0.42451503E+00 0.11577849E+04</pdfrwt>
<pdfrwt beam="2">  1       -1 0.76013580E-01 0.11577849E+04</pdfrwt>
<totfact> 0.15495451E+00</totfact>
</mgrwt>
</event>
<event>
12    1  0.5504886E-008  0.8590408E+03  0.7818608E-02  0.9478282E-01
          2   -1    0    0  501    0  0.00000000000E+00  0.00000000000E+00  0.23281841707E+04  0.23281841707E+04  0.00000000000E+00 0. -1.
         -2   -1    0    0    0  501 -0.00000000000E+00 -0.00000000000E+00 -0.35889597427E+03  0.35889597427E+03  0.00000000000E+00 0.  1.
         23    2    1    2    0    0  0.79393933837E+03 -0.15349342361E+03  0.76010689269E+03  0.11133819358E+04  0.89201696477E+02 0.  0.
    5000000    2    1    2    0    0 -0.79393933837E+03  0.15349342361E+03  0.12091813037E+04  0.15736982091E+04  0.60042212146E+03 0.  0.
         23    2    4    4    0    0 -0.80197389804E+03  0.13814254794E+03  0.12326004319E+04  0.14793787852E+04  0.83739289720E+02 0.  0.
         23    2    4    4    0    0  0.80345596721E+01  0.15350875679E+02 -0.23419128225E+02  0.94319423873E+02  0.89707829200E+02 0.  0.
          1    1    3    3  502    0  0.39657662100E+03 -0.32490255152E+02  0.38603161395E+03  0.55439069253E+03  0.00000000000E+00 0. -1.
         -1    1    3    3    0  502  0.39736271737E+03 -0.12100316846E+03  0.37407527874E+03  0.55899124331E+03  0.00000000000E+00 0.  1.
         11    1    5    5    0    0 -0.52474556770E+03  0.95511039350E+02  0.87724755988E+03  0.10266662314E+04  0.00000000000E+00 0. -1.
        -11    1    5    5    0    0 -0.27722833034E+03  0.42631508587E+02  0.35535287205E+03  0.45271255377E+03  0.00000000000E+00 0.  1.
          5    1    6    6  503    0  0.38418858882E+02  0.36838764565E+02 -0.18195883986E+02  0.56447174301E+02  0.47000000000E+01 0. -1.
         -5    1    6    6    0  503 -0.30384299210E+02 -0.21487888887E+02 -0.52232442388E+01  0.37872249572E+02  0.47000000000E+01 0.  1.
<mgrwt>
<rscale>  0 0.85904082E+03</rscale>
<asrwt>0</asrwt>
<pdfrwt beam="1">  1        2 0.35818217E+00 0.85904082E+03</pdfrwt>
<pdfrwt beam="2">  1       -2 0.55214767E-01 0.85904082E+03</pdfrwt>
<totfact> 0.13833100E+01</totfact>
</mgrwt>
</event>
<event>
12    1  0.3166324E-008  0.7032013E+03  0.7818608E-02  0.9711773E-01
          2   -1    0    0  501    0  0.00000000000E+00  0.00000000000E+00  0.24182575413E+04  0.24182575413E+04  0.00000000000E+00 0.  1.
         -2   -1    0    0    0  501 -0.00000000000E+00 -0.00000000000E+00 -0.25040727942E+03  0.25040727942E+03  0.00000000000E+00 0. -1.
         23    2    1    2    0    0 -0.53006617819E+03  0.23017746550E+03  0.14702608510E+04  0.15823290364E+04  0.90257356874E+02 0.  0.
    5000000    2    1    2    0    0  0.53006617819E+03 -0.23017746550E+03  0.69758941092E+03  0.10863357844E+04  0.59961873831E+03 0.  0.
         23    2    4    4    0    0  0.24509763944E+03  0.18261977694E+03  0.22083825511E+03  0.38816330702E+03  0.92078130977E+02 0.  0.
         23    2    4    4    0    0  0.28496853875E+03 -0.41279724244E+03  0.47675115581E+03  0.69817247737E+03  0.92436530436E+02 0.  0.
          1    1    3    3  502    0 -0.49443713584E+03  0.23575696667E+03  0.14001756734E+04  0.15035096758E+04  0.00000000000E+00 0. -1.
         -1    1    3    3    0  502 -0.35629042356E+02 -0.55795011695E+01  0.70085177555E+02  0.78819360600E+02  0.00000000000E+00 0.  1.
         13    1    5    5    0    0  0.49940157029E+02  0.87496569944E+02  0.53625689557E+02  0.11412880275E+03  0.00000000000E+00 0. -1.
        -13    1    5    5    0    0  0.19515748241E+03  0.95123206992E+02  0.16721256556E+03  0.27403450427E+03  0.00000000000E+00 0.  1.
          5    1    6    6  503    0  0.23520310240E+03 -0.37225419877E+03  0.44627958944E+03  0.62696192056E+03  0.47000000000E+01 0. -1.
         -5    1    6    6    0  503  0.49765436352E+02 -0.40543043666E+02  0.30471566364E+02  0.71210556813E+02  0.47000000000E+01 0.  1.
<mgrwt>
<rscale>  0 0.70320128E+03</rscale>
<asrwt>0</asrwt>
<pdfrwt beam="1">  1        2 0.37203961E+00 0.70320128E+03</pdfrwt>
<pdfrwt beam="2">  1       -2 0.38524199E-01 0.70320128E+03</pdfrwt>
<totfact> 0.25929227E+01</totfact>
</mgrwt>
</event>
<event>
12    1  0.3166324E-008  0.3650764E+03  0.7818608E-02  0.1056592E+00
          2   -1    0    0  501    0  0.00000000000E+00  0.00000000000E+00  0.10657037067E+04  0.10657037067E+04  0.00000000000E+00 0. -1.
         -2   -1    0    0    0  501 -0.00000000000E+00 -0.00000000000E+00 -0.35177229281E+03  0.35177229281E+03  0.00000000000E+00 0.  1.
         23    2    1    2    0    0 -0.21122535588E+03 -0.24251831762E+03  0.65339080283E+03  0.73392968527E+03  0.91115072067E+02 0.  0.
    5000000    2    1    2    0    0  0.21122535588E+03  0.24251831762E+03  0.60540611081E+02  0.68354631425E+03  0.60011591612E+03 0.  0.
         23    2    4    4    0    0 -0.46714463879E+01  0.61233183381E+01  0.27344284285E+03  0.28847326671E+03  0.91577944195E+02 0.  0.
         23    2    4    4    0    0  0.21589680226E+03  0.23639499928E+03 -0.21290223177E+03  0.39507304753E+03  0.90891846060E+02 0.  0.
          3    1    3    3  502    0 -0.10050972207E+03 -0.54307752040E+02  0.19071486116E+03  0.22231440446E+03  0.00000000000E+00 0. -1.
         -3    1    3    3    0  502 -0.11071563381E+03 -0.18821056558E+03  0.46267594167E+03  0.51161528082E+03  0.00000000000E+00 0.  1.
         11    1    5    5    0    0 -0.60448555516E+01  0.41276787548E+02  0.66074313309E+02  0.78141719639E+02  0.00000000000E+00 0. -1.
        -11    1    5    5    0    0  0.13734091637E+01 -0.35153469210E+02  0.20736852954E+03  0.21033154708E+03  0.00000000000E+00 0.  1.
          5    1    6    6  503    0  0.69303791768E+02  0.65866333837E+02 -0.17898146375E+02  0.97384922500E+02  0.47000000000E+01 0. -1.
         -5    1    6    6    0  503  0.14659301050E+03  0.17052866545E+03 -0.19500408540E+03  0.29768812503E+03  0.47000000000E+01 0.  1.
<mgrwt>
<rscale>  0 0.36507637E+03</rscale>
<asrwt>0</asrwt>
<pdfrwt beam="1">  1        2 0.16395441E+00 0.36507637E+03</pdfrwt>
<pdfrwt beam="2">  1       -2 0.54118815E-01 0.36507637E+03</pdfrwt>
<totfact> 0.78027921E+01</totfact>
</mgrwt>
</event>
<event>
12    1  0.3166324E-008  0.1149628E+04  0.7818608E-02  0.9158127E-01
          1   -1    0    0  501    0  0.00000000000E+00  0.00000000000E+00  0.26637336351E+04  0.26637336351E+04  0.00000000000E+00 0. -1.
         -1   -1    0    0    0  501 -0.00000000000E+00 -0.00000000000E+00 -0.56993415382E+03  0.56993415382E+03  0.00000000000E+00 0.  1.
         23    2    1    2    0    0 -0.89019613219E+03 -0.60595977369E+03  0.42725345474E+03  0.11607372691E+04  0.71617681165E+02 0.  0.
    5000000    2    1    2    0    0  0.89019613219E+03  0.60595977369E+03  0.16665460265E+04  0.20729305198E+04  0.60002406632E+03 0.  0.
         23    2    4    4    0    0  0.74295814270E+03  0.70981150993E+03  0.13919999516E+04  0.17326008693E+04  0.91775410028E+02 0.  0.
         23    2    4    4    0    0  0.14723798950E+03 -0.10385173624E+03  0.27454607495E+03  0.34032965041E+03  0.89356113432E+02 0.  0.
          2    1    3    3  502    0 -0.32159515975E+03 -0.22236852296E+03  0.11846123750E+03  0.40853919221E+03  0.00000000000E+00 0. -1.
         -2    1    3    3    0  502 -0.56860097244E+03 -0.38359125073E+03  0.30879221723E+03  0.75219807692E+03  0.00000000000E+00 0.  1.
         13    1    5    5    0    0  0.41414504974E+03  0.45691758578E+03  0.84551658413E+03  0.10465123489E+04  0.00000000000E+00 0. -1.
        -13    1    5    5    0    0  0.32881309295E+03  0.25289392415E+03  0.54648336743E+03  0.68608852041E+03  0.00000000000E+00 0.  1.
          5    1    6    6  503    0  0.57688731825E+02 -0.78804826941E+02  0.19388328096E+03  0.21714282665E+03  0.47000000000E+01 0. -1.
         -5    1    6    6    0  503  0.89549257671E+02 -0.25046909299E+02  0.80662793993E+02  0.12318682377E+03  0.47000000000E+01 0.  1.
<mgrwt>
<rscale>  0 0.11496279E+04</rscale>
<asrwt>0</asrwt>
<pdfrwt beam="1">  1        1 0.40980517E+00 0.11496279E+04</pdfrwt>
<pdfrwt beam="2">  1       -1 0.87682179E-01 0.11496279E+04</pdfrwt>
<totfact> 0.13312339E+00</totfact>
</mgrwt>
</event>
<event>
12    1  0.3166324E-008  0.6445133E+03  0.7818608E-02  0.9817129E-01
          1   -1    0    0  501    0  0.00000000000E+00  0.00000000000E+00  0.94195122351E+03  0.94195122351E+03  0.00000000000E+00 0.  1.
         -1   -1    0    0    0  501 -0.00000000000E+00 -0.00000000000E+00 -0.73379901842E+03  0.73379901842E+03  0.00000000000E+00 0. -1.
         23    2    1    2    0    0 -0.36389993505E+03  0.42851117325E+03 -0.36230302072E+03  0.67496294544E+03  0.90920352862E+02 0.  0.
    5000000    2    1    2    0    0  0.36389993505E+03 -0.42851117325E+03  0.57045522581E+03  0.10007872965E+04  0.60009254271E+03 0.  0.
         23    2    4    4    0    0  0.31224064693E+03 -0.52079969996E+03  0.59901867147E+03  0.85789071340E+03  0.91796286931E+02 0.  0.
         23    2    4    4    0    0  0.51659288121E+02  0.92288526713E+02 -0.28563445665E+02  0.14289658308E+03  0.91748072542E+02 0.  0.
          2    1    3    3  502    0 -0.23136043831E+03  0.32061158809E+03 -0.21929495198E+03  0.45211693045E+03  0.00000000000E+00 0. -1.
         -2    1    3    3    0  502 -0.13253949675E+03  0.10789958516E+03 -0.14300806873E+03  0.22284601499E+03  0.00000000000E+00 0.  1.
         11    1    5    5    0    0  0.71413636371E+02 -0.17448343115E+03  0.23036299473E+03  0.29767681224E+03  0.00000000000E+00 0. -1.
        -11    1    5    5    0    0  0.24082701056E+03 -0.34631626881E+03  0.36865567674E+03  0.56021390116E+03  0.00000000000E+00 0.  1.
          5    1    6    6  503    0 -0.32666008647E+01  0.23788922392E+02 -0.47064153894E+02  0.53044397362E+02  0.47000000000E+01 0. -1.
         -5    1    6    6    0  503  0.54925888985E+02  0.68499604321E+02  0.18500708228E+02  0.89852185716E+02  0.47000000000E+01 0.  1.
<mgrwt>
<rscale>  0 0.64451325E+03</rscale>
<asrwt>0</asrwt>
<pdfrwt beam="1">  1        1 0.14491557E+00 0.64451325E+03</pdfrwt>
<pdfrwt beam="2">  1       -1 0.11289216E+00 0.64451325E+03</pdfrwt>
<totfact> 0.12632368E+01</totfact>
</mgrwt>
</event>
<event>
12    1  0.3166324E-008  0.4623924E+03  0.7818608E-02  0.1024090E+00
         -2   -1    0    0    0  501 -0.00000000000E+00  0.00000000000E+00  0.27480771590E+03  0.27480771590E+03  0.00000000000E+00 0.  1.
          2   -1    0    0  501    0  0.00000000000E+00 -0.00000000000E+00 -0.14103599241E+04  0.14103599241E+04  0.00000000000E+00 0. -1.
         23    2    1    2    0    0 -0.27524015397E+03  0.18213268466E+03  0.18876084843E+02  0.34294017104E+03  0.91226077155E+02 0.  0.
    5000000    2    1    2    0    0  0.27524015397E+03 -0.18213268466E+03 -0.11544282931E+04  0.13422274690E+04  0.59995036253E+03 0.  0.
         23    2    4    4    0    0 -0.13508574757E+03  0.47955762356E+01 -0.96521167355E+02  0.18863858723E+03  0.89426081758E+02 0.  0.
         23    2    4    4    0    0  0.41032590154E+03 -0.18692826090E+03 -0.10579071257E+04  0.11535888818E+04  0.91051091649E+02 0.  0.
          1    1    3    3  502    0 -0.18272457970E+03  0.10349540553E+03  0.53447563808E+02  0.21669382332E+03  0.00000000000E+00 0. -1.
         -1    1    3    3    0  502 -0.92515574277E+02  0.78637279139E+02 -0.34571478965E+02  0.12624634772E+03  0.00000000000E+00 0.  1.
         13    1    5    5    0    0 -0.12480188007E+03 -0.83090157689E+01 -0.11049604869E+03  0.16689495436E+03  0.00000000000E+00 0.  1.
        -13    1    5    5    0    0 -0.10283867493E+02  0.13104592005E+02  0.13974881338E+02  0.21743632876E+02  0.00000000000E+00 0. -1.
          5    1    6    6  503    0  0.20287383636E+03 -0.79300903605E+02 -0.40155198524E+03  0.45685064698E+03  0.47000000000E+01 0. -1.
         -5    1    6    6    0  503  0.20745206517E+03 -0.10762735729E+03 -0.65635514046E+03  0.69673823477E+03  0.47000000000E+01 0.  1.
<mgrwt>
<rscale>  0 0.46239245E+03</rscale>
<asrwt>0</asrwt>
<pdfrwt beam="1">  1        2 0.21697845E+00 0.46239245E+03</pdfrwt>
<pdfrwt beam="2">  1       -2 0.42278110E-01 0.46239245E+03</pdfrwt>
<totfact> 0.79744429E+01</totfact>
</mgrwt>
</event>
<event>
12    1  0.3166324E-008  0.1014363E+04  0.7818608E-02  0.9292930E-01
          1   -1    0    0  501    0  0.00000000000E+00  0.00000000000E+00  0.25071038217E+04  0.25071038217E+04  0.00000000000E+00 0. -1.
         -1   -1    0    0    0  501 -0.00000000000E+00 -0.00000000000E+00 -0.43136088759E+03  0.43136088759E+03  0.00000000000E+00 0.  1.
         23    2    1    2    0    0  0.71974266595E+03  0.61760786397E+03  0.85186616348E+03  0.12779952257E+04  0.90149084772E+02 0.  0.
    5000000    2    1    2    0    0 -0.71974266595E+03 -0.61760786397E+03  0.12238767706E+04  0.16604694836E+04  0.59984629494E+03 0.  0.
         23    2    4    4    0    0 -0.74201610986E+03 -0.67544078822E+03  0.11451266177E+04  0.15253073410E+04  0.91865925895E+02 0.  0.
         23    2    4    4    0    0  0.22273443911E+02  0.57832924250E+02  0.78750152949E+02  0.13516214262E+03  0.90699860953E+02 0.  0.
          2    1    3    3  502    0  0.44699128004E+03  0.42994783316E+03  0.58798612668E+03  0.85462508086E+03  0.00000000000E+00 0. -1.
         -2    1    3    3    0  502  0.27275138591E+03  0.18766003082E+03  0.26388003680E+03  0.42337014479E+03  0.00000000000E+00 0.  1.
         13    1    5    5    0    0 -0.63158977772E+03 -0.54507856379E+03  0.98882367344E+03  0.12937498001E+04  0.00000000000E+00 0.  1.
        -13    1    5    5    0    0 -0.11042633214E+03 -0.13036222443E+03  0.15630294421E+03  0.23155754092E+03  0.00000000000E+00 0. -1.
          5    1    6    6  503    0  0.73458797465E+01 -0.32214166098E+01 -0.17671641719E+02  0.19967884096E+02  0.47000000000E+01 0. -1.
         -5    1    6    6    0  503  0.14927564164E+02  0.61054340860E+02  0.96421794668E+02  0.11519425852E+03  0.47000000000E+01 0.  1.
<mgrwt>
<rscale>  0 0.10143634E+04</rscale>
<asrwt>0</asrwt>
<pdfrwt beam="1">  1        1 0.38570827E+00 0.10143634E+04</pdfrwt>
<pdfrwt beam="2">  1       -1 0.66363215E-01 0.10143634E+04</pdfrwt>
<totfact> 0.31340857E+00</totfact>
</mgrwt>
</event>
<event>
12    1  0.3166324E-008  0.1519787E+04  0.7818608E-02  0.8871400E-01
         -2   -1    0    0    0  501 -0.00000000000E+00  0.00000000000E+00  0.18104943652E+04  0.18104943652E+04  0.00000000000E+00 0.  1.
          2   -1    0    0  501    0  0.00000000000E+00 -0.00000000000E+00 -0.18222959600E+04  0.18222959600E+04  0.00000000000E+00 0. -1.
         23    2    1    2    0    0  0.26213658713E+03 -0.14729802300E+04 -0.94368820219E+03  0.17708867561E+04  0.84297875127E+02 0.  0.
    5000000    2    1    2    0    0 -0.26213658713E+03  0.14729802300E+04  0.93188660731E+03  0.18619035691E+04  0.59990491224E+03 0.  0.
         23    2    4    4    0    0 -0.34627241299E+02  0.10569493916E+04  0.37692757811E+03  0.11264452935E+04  0.91997487440E+02 0.  0.
         23    2    4    4    0    0 -0.22750934583E+03  0.41603083831E+03  0.55495902920E+03  0.73545827567E+03  0.89873190109E+02 0.  0.
          1    1    3    3  502    0 -0.11913382759E+01 -0.10759579783E+03 -0.77841898688E+02  0.13280676259E+03  0.00000000000E+00 0. -1.
         -1    1    3    3    0  502  0.26332792540E+03 -0.13653844321E+04 -0.86584630350E+03  0.16380799935E+04  0.00000000000E+00 0.  1.
         13    1    5    5    0    0  0.15517234906E+02  0.39788081548E+03  0.17823068377E+03  0.43625234045E+03  0.00000000000E+00 0.  1.
        -13    1    5    5    0    0 -0.50144476205E+02  0.65906857616E+03  0.19869689434E+03  0.69019295302E+03  0.00000000000E+00 0. -1.
          5    1    6    6  503    0 -0.72743522200E+02  0.22416478096E+03  0.25730835203E+03  0.34895722813E+03  0.47000000000E+01 0.  1.
         -5    1    6    6    0  503 -0.15476582363E+03  0.19186605735E+03  0.29765067717E+03  0.38650104754E+03  0.47000000000E+01 0. -1.
<mgrwt>
<rscale>  0 0.15197871E+04</rscale>
<asrwt>0</asrwt>
<pdfrwt beam="1">  1        2 0.28035322E+00 0.15197871E+04</pdfrwt>
<pdfrwt beam="2">  1       -2 0.27853760E+00 0.15197871E+04</pdfrwt>
<totfact> 0.33748885E-01</totfact>
</mgrwt>
</event>
<event>
12    1  0.3166324E-008  0.6390232E+03  0.7818608E-02  0.9827597E-01
         -2   -1    0    0    0  501 -0.00000000000E+00  0.00000000000E+00  0.31496780855E+03  0.31496780855E+03  0.00000000000E+00 0. -1.
          2   -1    0    0  501    0  0.00000000000E+00 -0.00000000000E+00 -0.22543248118E+04  0.22543248118E+04  0.00000000000E+00 0.  1.
         23    2    1    2    0    0 -0.29247304563E+03  0.43551557543E+03 -0.16294396492E+04  0.17141950256E+04  0.90425199592E+02 0.  0.
    5000000    2    1    2    0    0  0.29247304563E+03 -0.43551557543E+03 -0.30991735401E+03  0.85509759465E+03  0.59994068973E+03 0.  0.
         23    2    4    4    0    0  0.34350519835E+03 -0.45578017314E+02 -0.19642721088E+02  0.35892661117E+03  0.91483871569E+02 0.  0.
         23    2    4    4    0    0 -0.51032152720E+02 -0.38993755812E+03 -0.29027463293E+03  0.49617098348E+03  0.85268414339E+02 0.  0.
          3    1    3    3  502    0 -0.15412338788E+03  0.23411471369E+03 -0.72392288771E+03  0.77629122448E+03  0.00000000000E+00 0. -1.
         -3    1    3    3    0  502 -0.13834965775E+03  0.20140086175E+03 -0.90551676149E+03  0.93790380117E+03  0.00000000000E+00 0.  1.
         13    1    5    5    0    0  0.13347968111E+03  0.12821990373E+02  0.25010367576E+02  0.13640655114E+03  0.00000000000E+00 0.  1.
        -13    1    5    5    0    0  0.21002551724E+03 -0.58400007687E+02 -0.44653088664E+02  0.22252006003E+03  0.00000000000E+00 0. -1.
          5    1    6    6  503    0  0.20352868955E+02 -0.55024929346E+02 -0.55981145962E+02  0.81227832838E+02  0.47000000000E+01 0. -1.
         -5    1    6    6    0  503 -0.71385021675E+02 -0.33491262877E+03 -0.23429348696E+03  0.41494315064E+03  0.47000000000E+01 0.  1.
<mgrwt>
<rscale>  0 0.63902317E+03</rscale>
<asrwt>0</asrwt>
<pdfrwt beam="1">  1        2 0.34681920E+00 0.63902317E+03</pdfrwt>
<pdfrwt beam="2">  1       -2 0.48456586E-01 0.63902317E+03</pdfrwt>
<totfact> 0.20540379E+01</totfact>
</mgrwt>
</event>
<event>
12    1  0.3166324E-008  0.1204397E+04  0.7818608E-02  0.9109017E-01
          1   -1    0    0  501    0  0.00000000000E+00  0.00000000000E+00  0.66143309174E+03  0.66143309174E+03  0.00000000000E+00 0. -1.
         -1   -1    0    0    0  501 -0.00000000000E+00 -0.00000000000E+00 -0.25458850413E+04  0.25458850413E+04  0.00000000000E+00 0.  1.
         23    2    1    2    0    0  0.11079216301E+04  0.40677849464E+03 -0.48061686499E+03  0.12776143395E+04  0.91360535143E+02 0.  0.
    5000000    2    1    2    0    0 -0.11079216301E+04 -0.40677849464E+03 -0.14038350846E+04  0.19297037936E+04  0.60003725218E+03 0.  0.
         23    2    4    4    0    0 -0.62726485355E+03 -0.64829306027E+02 -0.10715758761E+04  0.12466189922E+04  0.90111143393E+02 0.  0.
         23    2    4    4    0    0 -0.48065677656E+03 -0.34194918862E+03 -0.33225920850E+03  0.68308480134E+03  0.90821141444E+02 0.  0.
          1    1    3    3  502    0  0.57809410504E+03  0.18179713643E+03 -0.20803295262E+03  0.64071889505E+03  0.00000000000E+00 0. -1.
         -1    1    3    3    0  502  0.52982752507E+03  0.22498135821E+03 -0.27258391236E+03  0.63689544444E+03  0.00000000000E+00 0.  1.
         13    1    5    5    0    0 -0.41766925161E+03 -0.46674426581E+02 -0.62759315900E+03  0.75531402679E+03  0.00000000000E+00 0. -1.
        -13    1    5    5    0    0 -0.20959560194E+03 -0.18154879446E+02 -0.44398271706E+03  0.49130496542E+03  0.00000000000E+00 0.  1.
          5    1    6    6  503    0 -0.29846751507E+03 -0.15867549252E+03 -0.19917244379E+03  0.39236783997E+03  0.47000000000E+01 0. -1.
         -5    1    6    6    0  503 -0.18218926149E+03 -0.18327369610E+03 -0.13308676471E+03  0.29071696137E+03  0.47000000000E+01 0.  1.
<mgrwt>
<rscale>  0 0.12043970E+04</rscale>
<asrwt>0</asrwt>
<pdfrwt beam="1">  1        1 0.10175894E+00 0.12043970E+04</pdfrwt>
<pdfrwt beam="2">  1       -1 0.39167463E+00 0.12043970E+04</pdfrwt>
<totfact> 0.24058010E-01</totfact>
</mgrwt>
</event>
<event>
12    1  0.3166324E-008  0.5842227E+03  0.7818608E-02  0.9938691E-01
          2   -1    0    0  501    0  0.00000000000E+00  0.00000000000E+00  0.19858873792E+04  0.19858873792E+04  0.00000000000E+00 0. -1.
         -2   -1    0    0    0  501 -0.00000000000E+00 -0.00000000000E+00 -0.17841407509E+03  0.17841407509E+03  0.00000000000E+00 0.  1.
         23    2    1    2    0    0 -0.15371079072E+03  0.40893107537E+03  0.73933221297E+03  0.86359808246E+03  0.91312076461E+02 0.  0.
    5000000    2    1    2    0    0  0.15371079072E+03 -0.40893107537E+03  0.10681410911E+04  0.13007033718E+04  0.60004353118E+03 0.  0.
         23    2    4    4    0    0 -0.87788891591E+02 -0.46124740589E+03  0.69847972473E+03  0.84582580001E+03  0.84209851949E+02 0.  0.
         23    2    4    4    0    0  0.24149968231E+03  0.52316330523E+02  0.36966136640E+03  0.45487757181E+03  0.95942610624E+02 0.  0.
          3    1    3    3  502    0 -0.16240326089E+03  0.36140695105E+03  0.63258879160E+03  0.74643042721E+03  0.00000000000E+00 0. -1.
         -3    1    3    3    0  502  0.86924701693E+01  0.47524124322E+02  0.10674342137E+03  0.11716765524E+03  0.00000000000E+00 0.  1.
         11    1    5    5    0    0 -0.54562004791E+02 -0.11443204338E+03  0.22048071763E+03  0.25432941585E+03  0.00000000000E+00 0. -1.
        -11    1    5    5    0    0 -0.33226886800E+02 -0.34681536252E+03  0.47799900710E+03  0.59149638416E+03  0.00000000000E+00 0.  1.
          5    1    6    6  503    0  0.98708177241E+02  0.34935952367E+02  0.23699502166E+03  0.25913810085E+03  0.47000000000E+01 0. -1.
         -5    1    6    6    0  503  0.14279150507E+03  0.17380378156E+02  0.13266634474E+03  0.19573947096E+03  0.47000000000E+01 0.  1.
<mgrwt>
<rscale>  0 0.58422270E+03</rscale>
<asrwt>0</asrwt>
<pdfrwt beam="1">  1        2 0.30552112E+00 0.58422270E+03</pdfrwt>
<pdfrwt beam="2">  1       -2 0.27448321E-01 0.58422270E+03</pdfrwt>
<totfact> 0.86161153E+01</totfact>
</mgrwt>
</event>
<event>
12    1  0.3166324E-008  0.1950067E+04  0.7818608E-02  0.8630328E-01
         -1   -1    0    0    0  501 -0.00000000000E+00  0.00000000000E+00  0.17265958453E+04  0.17265958453E+04  0.00000000000E+00 0.  1.
          1   -1    0    0  501    0  0.00000000000E+00 -0.00000000000E+00 -0.22980913279E+04  0.22980913279E+04  0.00000000000E+00 0. -1.
         23    2    1    2    0    0  0.13579487447E+04 -0.13794321212E+04 -0.47544486131E+03  0.19952971333E+04  0.91132124238E+02 0.  0.
    5000000    2    1    2    0    0 -0.13579487447E+04  0.13794321212E+04 -0.96050621258E+02  0.20293900399E+04  0.60194720887E+03 0.  0.
         23    2    4    4    0    0 -0.71210427377E+03  0.94933643156E+03  0.17386224774E+03  0.12028050714E+04  0.90442255403E+02 0.  0.
         23    2    4    4    0    0 -0.64584447091E+03  0.43009568960E+03 -0.26991286900E+03  0.82658496854E+03  0.91062454150E+02 0.  0.
          1    1    3    3  502    0  0.89895748953E+03 -0.95093446428E+03 -0.35559999619E+03  0.13560428757E+04  0.00000000000E+00 0. -1.
         -1    1    3    3    0  502  0.45899125515E+03 -0.42849765687E+03 -0.11984486512E+03  0.63925425766E+03  0.00000000000E+00 0.  1.
         11    1    5    5    0    0 -0.17162465320E+03  0.21813351271E+03  0.27327799405E+01  0.27756930493E+03  0.00000000000E+00 0.  1.
        -11    1    5    5    0    0 -0.54047962057E+03  0.73120291884E+03  0.17112946780E+03  0.92523576646E+03  0.00000000000E+00 0. -1.
          5    1    6    6  503    0 -0.12419021637E+03  0.66863862065E+02 -0.84213841319E+02  0.16434125155E+03  0.47000000000E+01 0. -1.
         -5    1    6    6    0  503 -0.52165425454E+03  0.36323182753E+03 -0.18569902768E+03  0.66224371699E+03  0.47000000000E+01 0.  1.
<mgrwt>
<rscale>  0 0.19500672E+04</rscale>
<asrwt>0</asrwt>
<pdfrwt beam="1">  1        1 0.35355251E+00 0.19500672E+04</pdfrwt>
<pdfrwt beam="2">  1       -1 0.26563013E+00 0.19500672E+04</pdfrwt>
<totfact> 0.92270054E-02</totfact>
</mgrwt>
</event>
<event>
12    1  0.3166324E-008  0.5572518E+03  0.7818608E-02  0.9998292E-01
          1   -1    0    0  501    0  0.00000000000E+00  0.00000000000E+00  0.65035086617E+03  0.65035086617E+03  0.00000000000E+00 0. -1.
         -1   -1    0    0    0  501 -0.00000000000E+00 -0.00000000000E+00 -0.53605052292E+03  0.53605052292E+03  0.00000000000E+00 0.  1.
         23    2    1    2    0    0  0.12108669566E+03  0.39096875183E+03  0.18344998950E+03  0.45693811480E+03  0.87292550279E+02 0.  0.
    5000000    2    1    2    0    0 -0.12108669566E+03 -0.39096875183E+03 -0.69149646248E+02  0.72946327429E+03  0.59984701565E+03 0.  0.
         23    2    4    4    0    0 -0.15909260731E+03  0.10827346323E+03  0.18571448498E+02  0.21326688565E+03  0.90023692866E+02 0.  0.
         23    2    4    4    0    0  0.38005911643E+02 -0.49924221506E+03 -0.87721094746E+02  0.51619638864E+03  0.89869252591E+02 0.  0.
          2    1    3    3  502    0  0.11745132647E+03  0.35264009361E+03  0.13588889383E+03  0.39574694083E+03  0.00000000000E+00 0. -1.
         -2    1    3    3    0  502  0.36353691936E+01  0.38328658215E+02  0.47561095669E+02  0.61191173963E+02  0.00000000000E+00 0.  1.
         13    1    5    5    0    0 -0.84499292770E+02  0.20202843108E+02  0.40385614504E+02  0.95808575854E+02  0.00000000000E+00 0.  1.
        -13    1    5    5    0    0 -0.74593314536E+02  0.88070620123E+02 -0.21814166006E+02  0.11745830980E+03  0.00000000000E+00 0. -1.
          5    1    6    6  503    0  0.18138682347E+02 -0.75577335754E+02 -0.44900873027E+02  0.89883946707E+02  0.47000000000E+01 0. -1.
         -5    1    6    6    0  503  0.19867229297E+02 -0.42366487930E+03 -0.42820221719E+02  0.42631244193E+03  0.47000000000E+01 0.  1.
<mgrwt>
<rscale>  0 0.55725178E+03</rscale>
<asrwt>0</asrwt>
<pdfrwt beam="1">  1        1 0.10005398E+00 0.55725178E+03</pdfrwt>
<pdfrwt beam="2">  1       -1 0.82469312E-01 0.55725178E+03</pdfrwt>
<totfact> 0.46412377E+01</totfact>
</mgrwt>
</event>
<event>
12    1  0.3166324E-008  0.1647850E+04  0.7818608E-02  0.8791679E-01
          2   -1    0    0  501    0  0.00000000000E+00  0.00000000000E+00  0.43252289950E+04  0.43252289950E+04  0.00000000000E+00 0. -1.
         -2   -1    0    0    0  501 -0.00000000000E+00 -0.00000000000E+00 -0.93652217288E+03  0.93652217288E+03  0.00000000000E+00 0.  1.
         23    2    1    2    0    0 -0.15654807474E+04 -0.36102354828E+03  0.17446284725E+03  0.16185978892E+04  0.91399501234E+02 0.  0.
    5000000    2    1    2    0    0  0.15654807474E+04  0.36102354828E+03  0.32142439749E+04  0.36431532787E+04  0.60011124727E+03 0.  0.
         23    2    4    4    0    0  0.74412961534E+03 -0.83347692280E+02  0.11436634919E+04  0.13699049888E+04  0.89430270468E+02 0.  0.
         23    2    4    4    0    0  0.82135113210E+03  0.44437124056E+03  0.20705804830E+04  0.22732482900E+04  0.90943771847E+02 0.  0.
          2    1    3    3  502    0 -0.23478179317E+03 -0.22485019465E+02  0.16017634551E+02  0.23639930440E+03  0.00000000000E+00 0. -1.
         -2    1    3    3    0  502 -0.13306989543E+04 -0.33853852881E+03  0.15844521270E+03  0.13821985848E+04  0.00000000000E+00 0.  1.
         13    1    5    5    0    0  0.37993880411E+03 -0.49993573833E+02  0.66509970648E+03  0.76760046369E+03  0.00000000000E+00 0. -1.
        -13    1    5    5    0    0  0.36419081123E+03 -0.33354118446E+02  0.47856378542E+03  0.60230452507E+03  0.00000000000E+00 0.  1.
          5    1    6    6  503    0  0.21554280949E+03  0.74938063676E+02  0.47444677210E+03  0.52649429785E+03  0.47000000000E+01 0. -1.
         -5    1    6    6    0  503  0.60580832260E+03  0.36943317688E+03  0.15961337109E+04  0.17467539921E+04  0.47000000000E+01 0.  1.
<mgrwt>
<rscale>  0 0.16478503E+04</rscale>
<asrwt>0</asrwt>
<pdfrwt beam="1">  1        2 0.66541984E+00 0.16478503E+04</pdfrwt>
<pdfrwt beam="2">  1       -2 0.14408034E+00 0.16478503E+04</pdfrwt>
<totfact> 0.56866833E-02</totfact>
</mgrwt>
</event>
<event>
12    1  0.3166324E-008  0.5841832E+03  0.7818608E-02  0.9938775E-01
         -2   -1    0    0    0  501 -0.00000000000E+00  0.00000000000E+00  0.26317783192E+03  0.26317783192E+03  0.00000000000E+00 0.  1.
          2   -1    0    0  501    0  0.00000000000E+00 -0.00000000000E+00 -0.18939591295E+04  0.18939591295E+04  0.00000000000E+00 0. -1.
         23    2    1    2    0    0 -0.37286486246E+03 -0.43335181518E+03 -0.75898167465E+03  0.95426170493E+03  0.87978506786E+02 0.  0.
    5000000    2    1    2    0    0  0.37286486246E+03  0.43335181518E+03 -0.87179962292E+03  0.12028752565E+04  0.60004358073E+03 0.  0.
         23    2    4    4    0    0  0.28528974779E+03  0.26811009639E+03 -0.90736143383E+03  0.99233974785E+03  0.90333490974E+02 0.  0.
         23    2    4    4    0    0  0.87575114672E+02  0.16524171879E+03  0.35561810905E+02  0.21053550864E+03  0.89924032740E+02 0.  0.
          3    1    3    3  502    0 -0.28550045522E+03 -0.30707920036E+03 -0.49349501981E+03  0.64756889966E+03  0.00000000000E+00 0. -1.
         -3    1    3    3    0  502 -0.87364407244E+02 -0.12627261481E+03 -0.26548665484E+03  0.30669280527E+03  0.00000000000E+00 0.  1.
         11    1    5    5    0    0  0.13479726194E+03  0.12156262435E+03 -0.31138187812E+03  0.36042537020E+03  0.00000000000E+00 0. -1.
        -11    1    5    5    0    0  0.15049248585E+03  0.14654747204E+03 -0.59597955571E+03  0.63191437765E+03  0.00000000000E+00 0.  1.
          5    1    6    6  503    0  0.73925602766E+02  0.53734852009E+02  0.35336460355E+02  0.98097831246E+02  0.47000000000E+01 0. -1.
         -5    1    6    6    0  503  0.13649511906E+02  0.11150686678E+03  0.22535054981E+00  0.11243767739E+03  0.47000000000E+01 0.  1.
<mgrwt>
<rscale>  0 0.58418322E+03</rscale>
<asrwt>0</asrwt>
<pdfrwt beam="1">  1        2 0.29137833E+00 0.58418322E+03</pdfrwt>
<pdfrwt beam="2">  1       -2 0.40488897E-01 0.58418322E+03</pdfrwt>
<totfact> 0.46477251E+01</totfact>
</mgrwt>
</event>
<event>
12    1  0.3166324E-008  0.1562402E+04  0.7818608E-02  0.8843984E-01
         -2   -1    0    0    0  501 -0.00000000000E+00  0.00000000000E+00  0.15510256192E+04  0.15510256192E+04  0.00000000000E+00 0.  1.
          2   -1    0    0  501    0  0.00000000000E+00 -0.00000000000E+00 -0.18079240981E+04  0.18079240981E+04  0.00000000000E+00 0. -1.
         23    2    1    2    0    0 -0.90170518044E+03 -0.12551129052E+04  0.36074732718E+03  0.15895754838E+04  0.90724568840E+02 0.  0.
    5000000    2    1    2    0    0  0.90170518044E+03  0.12551129052E+04 -0.61764580613E+03  0.17693742336E+04  0.60068144584E+03 0.  0.
         23    2    4    4    0    0  0.80164125550E+03  0.92059690016E+03 -0.24095416279E+03  0.12475675511E+04  0.90766353540E+02 0.  0.
         23    2    4    4    0    0  0.10006392494E+03  0.33451600501E+03 -0.37669164334E+03  0.52180668244E+03  0.92042778039E+02 0.  0.
          4    1    3    3  502    0 -0.41669718916E+03 -0.61539317216E+03  0.13200292092E+03  0.75483115657E+03  0.00000000000E+00 0. -1.
         -4    1    3    3    0  502 -0.48500799128E+03 -0.63971973302E+03  0.22874440625E+03  0.83474432721E+03  0.00000000000E+00 0.  1.
         11    1    5    5    0    0  0.54052247772E+03  0.60166444743E+03 -0.11755911033E+03  0.81730337125E+03  0.00000000000E+00 0. -1.
        -11    1    5    5    0    0  0.26111877778E+03  0.31893245273E+03 -0.12339505246E+03  0.43026417987E+03  0.00000000000E+00 0.  1.
          5    1    6    6  503    0  0.65084338371E+02  0.92252435541E+02 -0.15282624685E+03  0.19006429094E+03  0.47000000000E+01 0. -1.
         -5    1    6    6    0  503  0.34979586566E+02  0.24226356947E+03 -0.22386539649E+03  0.33174239150E+03  0.47000000000E+01 0.  1.
<mgrwt>
<rscale>  0 0.15624024E+04</rscale>
<asrwt>0</asrwt>
<pdfrwt beam="1">  1        2 0.27814217E+00 0.15624024E+04</pdfrwt>
<pdfrwt beam="2">  1       -2 0.23861933E+00 0.15624024E+04</pdfrwt>
<totfact> 0.60182884E-01</totfact>
</mgrwt>
</event>
<event>
12    1  0.3166324E-008  0.1076063E+04  0.7818608E-02  0.9228842E-01
          2   -1    0    0  501    0  0.00000000000E+00  0.00000000000E+00  0.10005727131E+04  0.10005727131E+04  0.00000000000E+00 0. -1.
         -2   -1    0    0    0  501 -0.00000000000E+00 -0.00000000000E+00 -0.11941431604E+04  0.11941431604E+04  0.00000000000E+00 0.  1.
         23    2    1    2    0    0  0.95577234883E+03 -0.31816822149E+03 -0.13776453671E+03  0.10208389167E+04  0.91658203443E+02 0.  0.
    5000000    2    1    2    0    0 -0.95577234883E+03  0.31816822149E+03 -0.55805910554E+02  0.11738769568E+04  0.60011749696E+03 0.  0.
         23    2    4    4    0    0 -0.76703149832E+02  0.24152577999E+03  0.75648609841E+02  0.27713495105E+03  0.82843185164E+02 0.  0.
         23    2    4    4    0    0 -0.87906919900E+03  0.76642441501E+02 -0.13145452040E+03  0.89674200578E+03  0.90715012714E+02 0.  0.
          2    1    3    3  502    0  0.68218087287E+03 -0.20020251623E+03 -0.63491186919E+02  0.71378072377E+03  0.00000000000E+00 0. -1.
         -2    1    3    3    0  502  0.27359147596E+03 -0.11796570526E+03 -0.74273349793E+02  0.30705819290E+03  0.00000000000E+00 0.  1.
         13    1    5    5    0    0 -0.80197737274E+02  0.24323930235E+03  0.62794789793E+02  0.26370479877E+03  0.00000000000E+00 0.  1.
        -13    1    5    5    0    0  0.34945874425E+01 -0.17135223606E+01  0.12853820048E+02  0.13430152274E+02  0.00000000000E+00 0. -1.
          5    1    6    6  503    0 -0.41683159542E+02 -0.29426079754E+01  0.11299692366E+02  0.43542137966E+02  0.47000000000E+01 0. -1.
         -5    1    6    6    0  503 -0.83738603946E+03  0.79585049476E+02 -0.14275421276E+03  0.85319986782E+03  0.47000000000E+01 0.  1.
<mgrwt>
<rscale>  0 0.10760627E+04</rscale>
<asrwt>0</asrwt>
<pdfrwt beam="1">  1        2 0.15393426E+00 0.10760627E+04</pdfrwt>
<pdfrwt beam="2">  1       -2 0.18371433E+00 0.10760627E+04</pdfrwt>
<totfact> 0.42335974E+00</totfact>
</mgrwt>
</event>
<event>
12    1  0.3166324E-008  0.6887385E+03  0.7818608E-02  0.9736687E-01
          1   -1    0    0  501    0  0.00000000000E+00  0.00000000000E+00  0.17599666422E+04  0.17599666422E+04  0.00000000000E+00 0. -1.
         -1   -1    0    0    0  501 -0.00000000000E+00 -0.00000000000E+00 -0.35767792159E+03  0.35767792159E+03  0.00000000000E+00 0.  1.
         23    2    1    2    0    0 -0.60666241316E+03 -0.20148563323E+03  0.30696819273E+03  0.71447726237E+03  0.87249889104E+02 0.  0.
    5000000    2    1    2    0    0  0.60666241316E+03  0.20148563323E+03  0.10953205278E+04  0.14031673014E+04  0.60042957376E+03 0.  0.
         23    2    4    4    0    0  0.43650301984E+03  0.30587413047E+03  0.10468787139E+04  0.11782984253E+04  0.91314113493E+02 0.  0.
         23    2    4    4    0    0  0.17015939332E+03 -0.10438849724E+03  0.48441813919E+02  0.22486887612E+03  0.91478000732E+02 0.  0.
          2    1    3    3  502    0 -0.29568371851E+03 -0.13114357523E+03  0.12088537792E+03  0.34531257334E+03  0.00000000000E+00 0. -1.
         -2    1    3    3    0  502 -0.31097869466E+03 -0.70342058000E+02  0.18608281481E+03  0.36916468903E+03  0.00000000000E+00 0.  1.
         13    1    5    5    0    0  0.23439851263E+03  0.17744918900E+03  0.67164499060E+03  0.73316974215E+03  0.00000000000E+00 0.  1.
        -13    1    5    5    0    0  0.20210450721E+03  0.12842494147E+03  0.37523372332E+03  0.44512868313E+03  0.00000000000E+00 0. -1.
          5    1    6    6  503    0  0.77027427896E+02 -0.63388822391E+02 -0.20390770188E+02  0.10192762610E+03  0.47000000000E+01 0. -1.
         -5    1    6    6    0  503  0.93131965424E+02 -0.40999674850E+02  0.68832584107E+02  0.12294125002E+03  0.47000000000E+01 0.  1.
<mgrwt>
<rscale>  0 0.68873850E+03</rscale>
<asrwt>0</asrwt>
<pdfrwt beam="1">  1        1 0.27076409E+00 0.68873850E+03</pdfrwt>
<pdfrwt beam="2">  1       -1 0.55027373E-01 0.68873850E+03</pdfrwt>
<totfact> 0.15193435E+01</totfact>
</mgrwt>
</event>
<event>
12    1  0.3166324E-008  0.6113998E+03  0.7818608E-02  0.9882033E-01
          1   -1    0    0  501    0  0.00000000000E+00  0.00000000000E+00  0.26009582763E+03  0.26009582763E+03  0.00000000000E+00 0. -1.
         -1   -1    0    0    0  501 -0.00000000000E+00 -0.00000000000E+00 -0.17465990270E+04  0.17465990270E+04  0.00000000000E+00 0.  1.
         23    2    1    2    0    0  0.41893326288E+03  0.21101038045E+03 -0.98315138432E+03  0.10933096676E+04  0.93321623761E+02 0.  0.
    5000000    2    1    2    0    0 -0.41893326288E+03 -0.21101038045E+03 -0.50335181501E+03  0.91338518695E+03  0.60073204564E+03 0.  0.
         23    2    4    4    0    0 -0.11297265046E+03 -0.37514577766E+03 -0.23519235327E+03  0.46602871535E+03  0.91488503386E+02 0.  0.
         23    2    4    4    0    0 -0.30596061241E+03  0.16413539721E+03 -0.26815946174E+03  0.44735647159E+03  0.87555643950E+02 0.  0.
          1    1    3    3  502    0  0.10192198460E+03  0.23782477600E+02 -0.15522728756E+03  0.18721433702E+03  0.00000000000E+00 0. -1.
         -1    1    3    3    0  502  0.31701127828E+03  0.18722790285E+03 -0.82792409676E+03  0.90609533061E+03  0.00000000000E+00 0.  1.
         13    1    5    5    0    0 -0.87853998182E+02 -0.16698888566E+03 -0.14413910347E+03  0.23744408622E+03  0.00000000000E+00 0.  1.
        -13    1    5    5    0    0 -0.25118652280E+02 -0.20815689200E+03 -0.91053249793E+02  0.22858462913E+03  0.00000000000E+00 0. -1.
          5    1    6    6  503    0 -0.25186731586E+03  0.10981110286E+03 -0.17162803013E+03  0.32399674974E+03  0.47000000000E+01 0. -1.
         -5    1    6    6    0  503 -0.54093296552E+02  0.54324294349E+02 -0.96531431608E+02  0.12335972186E+03  0.47000000000E+01 0.  1.
<mgrwt>
<rscale>  0 0.61139981E+03</rscale>
<asrwt>0</asrwt>
<pdfrwt beam="1">  1        1 0.40014743E-01 0.61139981E+03</pdfrwt>
<pdfrwt beam="2">  1       -1 0.26870754E+00 0.61139981E+03</pdfrwt>
<totfact> 0.59088366E+00</totfact>
</mgrwt>
</event>
<event>
12    1  0.3166324E-008  0.4265550E+03  0.7818608E-02  0.1034954E+00
          4   -1    0    0  501    0  0.00000000000E+00  0.00000000000E+00  0.53277703623E+03  0.53277703623E+03  0.00000000000E+00 0. -1.
         -4   -1    0    0    0  501 -0.00000000000E+00 -0.00000000000E+00 -0.46748573944E+03  0.46748573944E+03  0.00000000000E+00 0.  1.
         23    2    1    2    0    0 -0.72282658285E+02  0.24989593114E+03  0.18829792430E+03  0.33501017938E+03  0.95409396315E+02 0.  0.
    5000000    2    1    2    0    0  0.72282658285E+02 -0.24989593114E+03 -0.12300662751E+03  0.66525259628E+03  0.59979798879E+03 0.  0.
         23    2    4    4    0    0  0.27391186913E+03 -0.25447802085E+03  0.43916734887E+02  0.38746870888E+03  0.91741733186E+02 0.  0.
         23    2    4    4    0    0 -0.20162921085E+03  0.45820897064E+01 -0.16692336240E+03  0.27778388741E+03  0.92871658612E+02 0.  0.
          1    1    3    3  502    0 -0.80433344231E+02  0.12851377273E+03  0.13174128843E+03  0.20085088928E+03  0.00000000000E+00 0. -1.
         -1    1    3    3    0  502  0.81506859456E+01  0.12138215841E+03  0.56556635874E+02  0.13415929011E+03  0.00000000000E+00 0.  1.
         11    1    5    5    0    0  0.49582132104E+02 -0.42171051639E+02  0.44063896132E+02  0.78602877572E+02  0.00000000000E+00 0.  1.
        -11    1    5    5    0    0  0.22432973703E+03 -0.21230696921E+03 -0.14716124556E+00  0.30886583130E+03  0.00000000000E+00 0. -1.
          5    1    6    6  503    0 -0.14973951806E+03  0.20962486390E+02 -0.16396517462E+03  0.22308746624E+03  0.47000000000E+01 0. -1.
         -5    1    6    6    0  503 -0.51889692788E+02 -0.16380396684E+02 -0.29581877764E+01  0.54696421164E+02  0.47000000000E+01 0.  1.
<mgrwt>
<rscale>  0 0.42655504E+03</rscale>
<asrwt>0</asrwt>
<pdfrwt beam="1">  1        4 0.81965698E-01 0.42655504E+03</pdfrwt>
<pdfrwt beam="2">  1       -4 0.71920883E-01 0.42655504E+03</pdfrwt>
<totfact> 0.44756534E+00</totfact>
</mgrwt>
</event>
<event>
12    1  0.3166324E-008  0.4268825E+03  0.7818608E-02  0.1034849E+00
         -1   -1    0    0    0  501 -0.00000000000E+00  0.00000000000E+00  0.30530830495E+03  0.30530830495E+03  0.00000000000E+00 0.  1.
          1   -1    0    0  501    0  0.00000000000E+00 -0.00000000000E+00 -0.78077388916E+03  0.78077388916E+03  0.00000000000E+00 0. -1.
         23    2    1    2    0    0 -0.29094834225E+03  0.39546016230E+02 -0.12935719212E+03  0.33376754140E+03  0.91938366773E+02 0.  0.
    5000000    2    1    2    0    0  0.29094834225E+03 -0.39546016230E+02 -0.34610839209E+03  0.75231465270E+03  0.59997624314E+03 0.  0.
         23    2    4    4    0    0  0.14433015717E+03 -0.23891553291E+03 -0.38840974431E+03  0.48693038832E+03  0.91253753158E+02 0.  0.
         23    2    4    4    0    0  0.14661818508E+03  0.19936951668E+03  0.42301352216E+02  0.26538426438E+03  0.85990156416E+02 0.  0.
          1    1    3    3  502    0 -0.17844045991E+03  0.64063205558E+02 -0.57844244136E+02  0.19821969785E+03  0.00000000000E+00 0. -1.
         -1    1    3    3    0  502 -0.11250788235E+03 -0.24517189327E+02 -0.71512947982E+02  0.13554784355E+03  0.00000000000E+00 0.  1.
         11    1    5    5    0    0  0.42744461946E+02 -0.15819646676E+03 -0.21254125051E+03  0.26837845348E+03  0.00000000000E+00 0. -1.
        -11    1    5    5    0    0  0.10158569522E+03 -0.80719066149E+02 -0.17586849379E+03  0.21855193484E+03  0.00000000000E+00 0.  1.
          5    1    6    6  503    0  0.60335474956E+02  0.13406974881E+03  0.53443543881E+02  0.15650357653E+03  0.47000000000E+01 0. -1.
         -5    1    6    6    0  503  0.86282710125E+02  0.65299767872E+02 -0.11142191664E+02  0.10888068785E+03  0.47000000000E+01 0.  1.
<mgrwt>
<rscale>  0 0.42688253E+03</rscale>
<asrwt>0</asrwt>
<pdfrwt beam="1">  1        1 0.12011906E+00 0.42688253E+03</pdfrwt>
<pdfrwt beam="2">  1       -1 0.46970508E-01 0.42688253E+03</pdfrwt>
<totfact> 0.10906703E+02</totfact>
</mgrwt>
</event>
<event>
12    1  0.3166324E-008  0.1207503E+04  0.7818608E-02  0.9106314E-01
          2   -1    0    0  501    0  0.00000000000E+00  0.00000000000E+00  0.13624545025E+04  0.13624545025E+04  0.00000000000E+00 0.  1.
         -2   -1    0    0    0  501 -0.00000000000E+00 -0.00000000000E+00 -0.11158612669E+04  0.11158612669E+04  0.00000000000E+00 0. -1.
         23    2    1    2    0    0 -0.38618948574E+03 -0.10903215733E+04  0.17337941495E+03  0.11731491843E+04  0.90967769358E+02 0.  0.
    5000000    2    1    2    0    0  0.38618948574E+03  0.10903215733E+04  0.73213820673E+02  0.13051665850E+04  0.60013006849E+03 0.  0.
         23    2    4    4    0    0  0.31581529388E+03  0.11081248691E+04 -0.19161572708E+02  0.11561672010E+04  0.93141856293E+02 0.  0.
         23    2    4    4    0    0  0.70374191853E+02 -0.17803295804E+02  0.92375393381E+02  0.14899938407E+03  0.91641251245E+02 0.  0.
          1    1    3    3  502    0 -0.22122393424E+03 -0.66725030444E+03  0.62687719762E+02  0.70575686186E+03  0.00000000000E+00 0. -1.
         -1    1    3    3    0  502 -0.16496555150E+03 -0.42307126885E+03  0.11069169519E+03  0.46739232246E+03  0.00000000000E+00 0.  1.
         11    1    5    5    0    0  0.67150184653E+02  0.12542455189E+03  0.16928963052E+01  0.14227906175E+03  0.00000000000E+00 0. -1.
        -11    1    5    5    0    0  0.24866510923E+03  0.98270031720E+03 -0.20854469013E+02  0.10138881392E+04  0.00000000000E+00 0.  1.
          5    1    6    6  503    0  0.70729445347E+02 -0.38574860263E+02  0.35309712167E+02  0.88088251525E+02  0.47000000000E+01 0. -1.
         -5    1    6    6    0  503 -0.35525349470E+00  0.20771564460E+02  0.57065681214E+02  0.60911132542E+02  0.47000000000E+01 0.  1.
<mgrwt>
<rscale>  0 0.12075035E+04</rscale>
<asrwt>0</asrwt>
<pdfrwt beam="1">  1        2 0.20960839E+00 0.12075035E+04</pdfrwt>
<pdfrwt beam="2">  1       -2 0.17167096E+00 0.12075035E+04</pdfrwt>
<totfact> 0.30602842E+00</totfact>
</mgrwt>
</event>
<event>
12    1  0.3166324E-008  0.4620672E+03  0.7818608E-02  0.1024183E+00
         -2   -1    0    0    0  501 -0.00000000000E+00  0.00000000000E+00  0.16316210332E+04  0.16316210332E+04  0.00000000000E+00 0.  1.
          2   -1    0    0  501    0  0.00000000000E+00 -0.00000000000E+00 -0.20663986191E+03  0.20663986191E+03  0.00000000000E+00 0. -1.
         23    2    1    2    0    0  0.14484755266E+03  0.38119336550E+03  0.68014908775E+03  0.79840731454E+03  0.92532496598E+02 0.  0.
    5000000    2    1    2    0    0 -0.14484755266E+03 -0.38119336550E+03  0.74483208349E+03  0.10398535805E+04  0.60019283644E+03 0.  0.
         23    2    4    4    0    0 -0.17583751063E+03 -0.90365145483E+02 -0.18128290506E+02  0.21753305263E+03  0.88923025162E+02 0.  0.
         23    2    4    4    0    0  0.30989957974E+02 -0.29082822002E+03  0.76296037400E+03  0.82232052790E+03  0.92526143659E+02 0.  0.
          4    1    3    3  502    0  0.12513598901E+03  0.31585059149E+03  0.48895951052E+03  0.59540071785E+03  0.00000000000E+00 0. -1.
         -4    1    3    3    0  502  0.19711563648E+02  0.65342774016E+02  0.19118957723E+03  0.20300659669E+03  0.00000000000E+00 0.  1.
         13    1    5    5    0    0 -0.17566670267E+02 -0.48687634620E+02  0.59668221985E+01  0.52102558827E+02  0.00000000000E+00 0. -1.
        -13    1    5    5    0    0 -0.15827084037E+03 -0.41677510863E+02 -0.24095112704E+02  0.16543049380E+03  0.00000000000E+00 0.  1.
          5    1    6    6  503    0  0.50083871784E+02 -0.14298285013E+03  0.30324959783E+03  0.33902049824E+03  0.47000000000E+01 0. -1.
         -5    1    6    6    0  503 -0.19093913810E+02 -0.14784536988E+03  0.45971077617E+03  0.48330002966E+03  0.47000000000E+01 0.  1.
<mgrwt>
<rscale>  0 0.46206719E+03</rscale>
<asrwt>0</asrwt>
<pdfrwt beam="1">  1        2 0.31790749E-01 0.46206719E+03</pdfrwt>
<pdfrwt beam="2">  1       -2 0.25101861E+00 0.46206719E+03</pdfrwt>
<totfact> 0.11242153E+01</totfact>
</mgrwt>
</event>
<event>
12    1  0.3166324E-008  0.5948668E+03  0.7818608E-02  0.9916113E-01
         -1   -1    0    0    0  501 -0.00000000000E+00  0.00000000000E+00  0.72502089649E+03  0.72502089649E+03  0.00000000000E+00 0.  1.
          1   -1    0    0  501    0  0.00000000000E+00 -0.00000000000E+00 -0.56061091723E+03  0.56061091723E+03  0.00000000000E+00 0. -1.
         23    2    1    2    0    0 -0.38775437939E+03  0.24447186104E+03 -0.11375472020E+03  0.48078159509E+03  0.89949186979E+02 0.  0.
    5000000    2    1    2    0    0  0.38775437939E+03 -0.24447186104E+03  0.27816469946E+03  0.80485021863E+03  0.60024022260E+03 0.  0.
         23    2    4    4    0    0  0.49223611261E+03 -0.51343757130E+02  0.11077744201E+03  0.51465199281E+03  0.87535479075E+02 0.  0.
         23    2    4    4    0    0 -0.10448173322E+03 -0.19312810391E+03  0.16738725745E+03  0.29019822582E+03  0.89339908303E+02 0.  0.
          4    1    3    3  502    0 -0.23151977521E+03  0.11311316419E+03 -0.99321342784E+02  0.27615344169E+03  0.00000000000E+00 0. -1.
         -4    1    3    3    0  502 -0.15623460418E+03  0.13135869685E+03 -0.14433377416E+02  0.20462815340E+03  0.00000000000E+00 0.  1.
         11    1    5    5    0    0  0.46702330805E+03 -0.66162413334E+02  0.94085244115E+02  0.48097844895E+03  0.00000000000E+00 0.  1.
        -11    1    5    5    0    0  0.25212804557E+02  0.14818656204E+02  0.16692197893E+02  0.33673543856E+02  0.00000000000E+00 0. -1.
          5    1    6    6  503    0  0.52726069067E+01 -0.26513548124E+02  0.54237463361E+02  0.60782900964E+02  0.47000000000E+01 0. -1.
         -5    1    6    6    0  503 -0.10975434012E+03 -0.16661455579E+03  0.11314979409E+03  0.22941532485E+03  0.47000000000E+01 0.  1.
<mgrwt>
<rscale>  0 0.59486676E+03</rscale>
<asrwt>0</asrwt>
<pdfrwt beam="1">  1        1 0.86247833E-01 0.59486676E+03</pdfrwt>
<pdfrwt beam="2">  1       -1 0.11154168E+00 0.59486676E+03</pdfrwt>
<totfact> 0.29057008E+01</totfact>
</mgrwt>
</event>
<event>
12    1  0.3166324E-008  0.1436776E+04  0.7818608E-02  0.8927620E-01
          2   -1    0    0  501    0  0.00000000000E+00  0.00000000000E+00  0.32336519809E+04  0.32336519809E+04  0.00000000000E+00 0. -1.
         -2   -1    0    0    0  501 -0.00000000000E+00 -0.00000000000E+00 -0.67615343509E+03  0.67615343509E+03  0.00000000000E+00 0.  1.
         23    2    1    2    0    0 -0.19377053840E+03 -0.13748103742E+04  0.15972154269E+04  0.21182385424E+04  0.90481026064E+02 0.  0.
    5000000    2    1    2    0    0  0.19377053840E+03  0.13748103742E+04  0.96028311883E+03  0.17915668735E+04  0.59993133568E+03 0.  0.
         23    2    4    4    0    0  0.14799615766E+03  0.13879488602E+04  0.83731486703E+03  0.16302441153E+04  0.91075726062E+02 0.  0.
         23    2    4    4    0    0  0.45774380736E+02 -0.13138485983E+02  0.12296825179E+03  0.16132275821E+03  0.92929691820E+02 0.  0.
          2    1    3    3  502    0 -0.39089906711E+02 -0.32466940596E+03  0.43553314077E+03  0.54463507111E+03  0.00000000000E+00 0.  1.
         -2    1    3    3    0  502 -0.15468063169E+03 -0.10501409682E+04  0.11616822862E+04  0.15736034713E+04  0.00000000000E+00 0. -1.
         13    1    5    5    0    0  0.79743746307E+02  0.10234034217E+04  0.58248547358E+03  0.11802554620E+04  0.00000000000E+00 0. -1.
        -13    1    5    5    0    0  0.68252411355E+02  0.36454543843E+03  0.25482939345E+03  0.44998865330E+03  0.00000000000E+00 0.  1.
          5    1    6    6  503    0 -0.17754351668E+02 -0.15355568028E+02  0.82304897384E+02  0.85715789712E+02  0.47000000000E+01 0. -1.
         -5    1    6    6    0  503  0.63528732404E+02  0.22170820446E+01  0.40663354408E+02  0.75606968497E+02  0.47000000000E+01 0.  1.
<mgrwt>
<rscale>  0 0.14367758E+04</rscale>
<asrwt>0</asrwt>
<pdfrwt beam="1">  1        2 0.49748491E+00 0.14367758E+04</pdfrwt>
<pdfrwt beam="2">  1       -2 0.10402361E+00 0.14367758E+04</pdfrwt>
<totfact> 0.89402393E-01</totfact>
</mgrwt>
</event>
<event>
12    1  0.3166324E-008  0.1068468E+04  0.7818608E-02  0.9236482E-01
          2   -1    0    0  501    0  0.00000000000E+00  0.00000000000E+00  0.18048730556E+04  0.18048730556E+04  0.00000000000E+00 0.  1.
         -2   -1    0    0    0  501 -0.00000000000E+00 -0.00000000000E+00 -0.74527464880E+03  0.74527464880E+03  0.00000000000E+00 0. -1.
         23    2    1    2    0    0  0.82974250279E+03  0.55348400667E+03  0.95115269676E+03  0.13811798599E+04  0.90272843223E+02 0.  0.
    5000000    2    1    2    0    0 -0.82974250279E+03 -0.55348400667E+03  0.10844571001E+03  0.11689678445E+04  0.59992348081E+03 0.  0.
         23    2    4    4    0    0 -0.68676203656E+03 -0.64308676478E+03 -0.22355432674E+01  0.94529473947E+03  0.91512102665E+02 0.  0.
         23    2    4    4    0    0 -0.14298046624E+03  0.89602758113E+02  0.11068125327E+03  0.22367310500E+03  0.96474090244E+02 0.  0.
          2    1    3    3  502    0  0.45080043846E+03  0.25048355644E+03  0.51353590929E+03  0.72779267480E+03  0.00000000000E+00 0. -1.
         -2    1    3    3    0  502  0.37894206433E+03  0.30300045023E+03  0.43761678746E+03  0.65338718508E+03  0.00000000000E+00 0.  1.
         11    1    5    5    0    0 -0.17278419353E+03 -0.19619452043E+03  0.31766372866E+02  0.26335483634E+03  0.00000000000E+00 0.  1.
        -11    1    5    5    0    0 -0.51397784302E+03 -0.44689224435E+03 -0.34001916134E+02  0.68193990313E+03  0.00000000000E+00 0. -1.
          5    1    6    6  503    0 -0.36377825522E+02  0.77973697455E+02  0.38890287042E+02  0.94539875770E+02  0.47000000000E+01 0. -1.
         -5    1    6    6    0  503 -0.10660264072E+03  0.11629060658E+02  0.71790966231E+02  0.12913322923E+03  0.47000000000E+01 0.  1.
<mgrwt>
<rscale>  0 0.10684675E+04</rscale>
<asrwt>0</asrwt>
<pdfrwt beam="1">  1        2 0.27767278E+00 0.10684675E+04</pdfrwt>
<pdfrwt beam="2">  1       -2 0.11465764E+00 0.10684675E+04</pdfrwt>
<totfact> 0.50390368E+00</totfact>
</mgrwt>
</event>
<event>
12    1  0.3166324E-008  0.6813001E+03  0.7818608E-02  0.9749757E-01
         -2   -1    0    0    0  501 -0.00000000000E+00  0.00000000000E+00  0.30766040546E+03  0.30766040546E+03  0.00000000000E+00 0.  1.
          2   -1    0    0  501    0  0.00000000000E+00 -0.00000000000E+00 -0.20006529604E+04  0.20006529604E+04  0.00000000000E+00 0. -1.
         23    2    1    2    0    0 -0.64693591749E+03  0.64854803322E+02 -0.50948959834E+03  0.83062224111E+03  0.87300800508E+02 0.  0.
    5000000    2    1    2    0    0  0.64693591749E+03 -0.64854803322E+02 -0.11835029566E+04  0.14776911247E+04  0.60013297275E+03 0.  0.
         23    2    4    4    0    0  0.50958590274E+03 -0.16404910492E+03 -0.40949877320E+03  0.68012617992E+03  0.91063023591E+02 0.  0.
         23    2    4    4    0    0  0.13735001474E+03  0.99194301594E+02 -0.77400418336E+03  0.79756494478E+03  0.91229541606E+02 0.  0.
          3    1    3    3  502    0 -0.33635434459E+03  0.64687723253E+02 -0.30614393617E+03  0.45939400988E+03  0.00000000000E+00 0. -1.
         -3    1    3    3    0  502 -0.31058157290E+03  0.16708006811E+00 -0.20334566217E+03  0.37122823123E+03  0.00000000000E+00 0.  1.
         13    1    5    5    0    0  0.41547917067E+02 -0.54322148107E+01 -0.63948575205E+01  0.42386702786E+02  0.00000000000E+00 0.  1.
        -13    1    5    5    0    0  0.46803798568E+03 -0.15861689011E+03 -0.40310391568E+03  0.63773947714E+03  0.00000000000E+00 0. -1.
          5    1    6    6  503    0  0.42809931323E+02  0.52384076470E+02 -0.14905225072E+03  0.16375422173E+03  0.47000000000E+01 0.  1.
         -5    1    6    6    0  503  0.94540083422E+02  0.46810225124E+02 -0.62495193263E+03  0.63381072305E+03  0.47000000000E+01 0. -1.
<mgrwt>
<rscale>  0 0.68130014E+03</rscale>
<asrwt>0</asrwt>
<pdfrwt beam="1">  1        2 0.30779276E+00 0.68130014E+03</pdfrwt>
<pdfrwt beam="2">  1       -2 0.47332371E-01 0.68130014E+03</pdfrwt>
<totfact> 0.29440115E+01</totfact>
</mgrwt>
</event>
<event>
12    1  0.3166324E-008  0.4333390E+03  0.7818608E-02  0.1032810E+00
         -2   -1    0    0    0  501 -0.00000000000E+00  0.00000000000E+00  0.47376589958E+03  0.47376589958E+03  0.00000000000E+00 0.  1.
          2   -1    0    0  501    0  0.00000000000E+00 -0.00000000000E+00 -0.56454360216E+03  0.56454360216E+03  0.00000000000E+00 0. -1.
         23    2    1    2    0    0 -0.25377048746E+03  0.26378492675E+02  0.18755299235E+03  0.32905573352E+03  0.89477738245E+02 0.  0.
    5000000    2    1    2    0    0  0.25377048746E+03 -0.26378492675E+02 -0.27833069493E+03  0.70925376821E+03  0.60039790706E+03 0.  0.
         23    2    4    4    0    0 -0.32981110904E+02 -0.23157927545E+03 -0.12403723231E+01  0.25157543843E+03  0.92584816246E+02 0.  0.
         23    2    4    4    0    0  0.28675159836E+03  0.20520078278E+03 -0.27709032261E+03  0.45767832979E+03  0.91414256315E+02 0.  0.
          2    1    3    3  502    0 -0.46697422026E+02  0.38860669641E+02  0.60787931701E+02  0.85941686679E+02  0.00000000000E+00 0. -1.
         -2    1    3    3    0  502 -0.20707306543E+03 -0.12482176965E+02  0.12676506065E+03  0.24311404684E+03  0.00000000000E+00 0.  1.
         13    1    5    5    0    0  0.21415994363E+02 -0.73671231528E+02  0.28671052256E+02  0.81903140397E+02  0.00000000000E+00 0. -1.
        -13    1    5    5    0    0 -0.54397105267E+02 -0.15790804393E+03 -0.29911424579E+02  0.16967229803E+03  0.00000000000E+00 0.  1.
          5    1    6    6  503    0  0.60838397721E+02  0.25921585929E+02 -0.15059666610E+02  0.67986195751E+02  0.47000000000E+01 0. -1.
         -5    1    6    6    0  503  0.22591320064E+03  0.17927919685E+03 -0.26203065600E+03  0.38969213404E+03  0.47000000000E+01 0.  1.
<mgrwt>
<rscale>  0 0.43333897E+03</rscale>
<asrwt>0</asrwt>
<pdfrwt beam="1">  1        2 0.86852862E-01 0.43333897E+03</pdfrwt>
<pdfrwt beam="2">  1       -2 0.72887062E-01 0.43333897E+03</pdfrwt>
<totfact> 0.93981362E+01</totfact>
</mgrwt>
</event>
<event>
12    1  0.3166324E-008  0.4901765E+03  0.7818608E-02  0.1016375E+00
         -1   -1    0    0    0  501 -0.00000000000E+00  0.00000000000E+00  0.30774242664E+03  0.30774242664E+03  0.00000000000E+00 0.  1.
          1   -1    0    0  501    0  0.00000000000E+00 -0.00000000000E+00 -0.93204782440E+03  0.93204782440E+03  0.00000000000E+00 0. -1.
         23    2    1    2    0    0  0.31732671519E+03 -0.74237531297E+02 -0.39789020606E+02  0.34087311657E+03  0.91672570664E+02 0.  0.
    5000000    2    1    2    0    0 -0.31732671519E+03  0.74237531297E+02 -0.58451637715E+03  0.89891713447E+03  0.60015428372E+03 0.  0.
         23    2    4    4    0    0 -0.15198732004E+03  0.31688361610E+03 -0.39857949190E+03  0.53959938901E+03  0.93736426489E+02 0.  0.
         23    2    4    4    0    0 -0.16533939515E+03 -0.24264608480E+03 -0.18593688525E+03  0.35931774546E+03  0.91227621099E+02 0.  0.
          2    1    3    3  502    0  0.20700770079E+03 -0.73034046349E+02 -0.62492845138E+02  0.22823565849E+03  0.00000000000E+00 0. -1.
         -2    1    3    3    0  502  0.11031901440E+03 -0.12034849471E+01  0.22703824532E+02  0.11263745808E+03  0.00000000000E+00 0.  1.
         13    1    5    5    0    0 -0.12680397013E+03  0.23983688219E+03 -0.24318770999E+03  0.36433671129E+03  0.00000000000E+00 0.  1.
        -13    1    5    5    0    0 -0.25183349913E+02  0.77046733910E+02 -0.15539178190E+03  0.17526267772E+03  0.00000000000E+00 0. -1.
          5    1    6    6  503    0 -0.64743857088E+01  0.11407264535E+00 -0.27665267295E+02  0.28799091954E+02  0.47000000000E+01 0. -1.
         -5    1    6    6    0  503 -0.15886500944E+03 -0.24276015745E+03 -0.15827161796E+03  0.33051865351E+03  0.47000000000E+01 0.  1.
<mgrwt>
<rscale>  0 0.49017654E+03</rscale>
<asrwt>0</asrwt>
<pdfrwt beam="1">  1        1 0.14339197E+00 0.49017654E+03</pdfrwt>
<pdfrwt beam="2">  1       -1 0.47344989E-01 0.49017654E+03</pdfrwt>
<totfact> 0.80004187E+01</totfact>
</mgrwt>
</event>
<event>
12    1  0.3166324E-008  0.8002039E+03  0.7818608E-02  0.9559722E-01
          1   -1    0    0  501    0  0.00000000000E+00  0.00000000000E+00  0.19745532392E+04  0.19745532392E+04  0.00000000000E+00 0. -1.
         -1   -1    0    0    0  501 -0.00000000000E+00 -0.00000000000E+00 -0.40747323916E+03  0.40747323916E+03  0.00000000000E+00 0.  1.
         23    2    1    2    0    0  0.61219880625E+03  0.50176966361E+03  0.77560004905E+03  0.11119853308E+04  0.91628413337E+02 0.  0.
    5000000    2    1    2    0    0 -0.61219880625E+03 -0.50176966361E+03  0.79147995097E+03  0.12700411475E+04  0.60000319164E+03 0.  0.
         23    2    4    4    0    0 -0.25575024918E+03 -0.25336156657E+03  0.73518864928E+03  0.82242982400E+03  0.79298121138E+02 0.  0.
         23    2    4    4    0    0 -0.35644855707E+03 -0.24840809704E+03  0.56291301689E+02  0.44761132354E+03  0.91787961084E+02 0.  0.
          2    1    3    3  502    0  0.40598044700E+03  0.27801957849E+03  0.49832140898E+03  0.70031366973E+03  0.00000000000E+00 0. -1.
         -2    1    3    3    0  502  0.20621835925E+03  0.22375008512E+03  0.27727864007E+03  0.41167166106E+03  0.00000000000E+00 0.  1.
         11    1    5    5    0    0 -0.18188649773E+03 -0.18457792086E+03  0.60128143836E+03  0.65474504584E+03  0.00000000000E+00 0. -1.
        -11    1    5    5    0    0 -0.73863751448E+02 -0.68783645704E+02  0.13390721092E+03  0.16768477817E+03  0.00000000000E+00 0.  1.
          5    1    6    6  503    0 -0.31974960112E+03 -0.18190814331E+03  0.43977536610E+02  0.37052192073E+03  0.47000000000E+01 0. -1.
         -5    1    6    6    0  503 -0.36698955952E+02 -0.66499953732E+02  0.12313765079E+02  0.77089402805E+02  0.47000000000E+01 0.  1.
<mgrwt>
<rscale>  0 0.80020390E+03</rscale>
<asrwt>0</asrwt>
<pdfrwt beam="1">  1        1 0.30377742E+00 0.80020390E+03</pdfrwt>
<pdfrwt beam="2">  1       -1 0.62688192E-01 0.80020390E+03</pdfrwt>
<totfact> 0.83109535E+00</totfact>
</mgrwt>
</event>
<event>
12    1  0.3166324E-008  0.5502258E+03  0.7818608E-02  0.1001442E+00
          1   -1    0    0  501    0  0.00000000000E+00  0.00000000000E+00  0.22300668106E+04  0.22300668106E+04  0.00000000000E+00 0. -1.
         -1   -1    0    0    0  501 -0.00000000000E+00 -0.00000000000E+00 -0.95723924990E+03  0.95723924990E+03  0.00000000000E+00 0.  1.
         23    2    1    2    0    0  0.30610908583E+03 -0.33626767670E+03  0.20521903320E+04  0.21038904943E+04  0.89951823899E+02 0.  0.
    5000000    2    1    2    0    0 -0.30610908583E+03  0.33626767670E+03 -0.77936277131E+03  0.10834155661E+04  0.59967010667E+03 0.  0.
         23    2    4    4    0    0 -0.80778009222E+02  0.38345438278E+03 -0.19217165342E+03  0.44590348342E+03  0.91310578243E+02 0.  0.
         23    2    4    4    0    0 -0.22533107661E+03 -0.47186706071E+02 -0.58719111788E+03  0.63751208273E+03  0.92884699402E+02 0.  0.
          3    1    3    3  502    0  0.29613952507E+03 -0.29449650575E+03  0.17804695363E+04  0.18287970308E+04  0.00000000000E+00 0. -1.
         -3    1    3    3    0  502  0.99695607625E+01 -0.41771170959E+02  0.27172079570E+03  0.27509346354E+03  0.00000000000E+00 0.  1.
         13    1    5    5    0    0 -0.56920015470E+02  0.20565456065E+03 -0.55800939494E+02  0.22056162705E+03  0.00000000000E+00 0.  1.
        -13    1    5    5    0    0 -0.23857993752E+02  0.17779982212E+03 -0.13637071393E+03  0.22534185636E+03  0.00000000000E+00 0. -1.
          5    1    6    6  503    0 -0.15305769215E+03  0.11929637851E+02 -0.39429849124E+03  0.42315761080E+03  0.47000000000E+01 0. -1.
         -5    1    6    6    0  503 -0.72273384465E+02 -0.59116343922E+02 -0.19289262664E+03  0.21435447192E+03  0.47000000000E+01 0.  1.
<mgrwt>
<rscale>  0 0.55022582E+03</rscale>
<asrwt>0</asrwt>
<pdfrwt beam="1">  1        1 0.34308720E+00 0.55022582E+03</pdfrwt>
<pdfrwt beam="2">  1       -1 0.14726758E+00 0.55022582E+03</pdfrwt>
<totfact> 0.85401511E-01</totfact>
</mgrwt>
</event>
<event>
12    1  0.3166324E-008  0.5917848E+03  0.7818608E-02  0.9922598E-01
          2   -1    0    0  501    0  0.00000000000E+00  0.00000000000E+00  0.67443666641E+03  0.67443666641E+03  0.00000000000E+00 0. -1.
         -2   -1    0    0    0  501 -0.00000000000E+00 -0.00000000000E+00 -0.80322860009E+03  0.80322860009E+03  0.00000000000E+00 0.  1.
         23    2    1    2    0    0  0.35454101262E+03  0.44547426075E+03 -0.27338121766E+03  0.63803373955E+03  0.90571054999E+02 0.  0.
    5000000    2    1    2    0    0 -0.35454101262E+03 -0.44547426075E+03  0.14458928398E+03  0.83963152695E+03  0.59994032485E+03 0.  0.
         23    2    4    4    0    0 -0.32042532526E+03 -0.33745405601E+03 -0.16141023902E+03  0.50159882973E+03  0.94870921427E+02 0.  0.
         23    2    4    4    0    0 -0.34115687359E+02 -0.10802020474E+03  0.30599952300E+03  0.33803269722E+03  0.88307143314E+02 0.  0.
          1    1    3    3  502    0  0.62938625787E+02  0.10402776930E+03 -0.97297106910E+02  0.15572339071E+03  0.00000000000E+00 0. -1.
         -1    1    3    3    0  502  0.29160238684E+03  0.34144649145E+03 -0.17608411075E+03  0.48231034883E+03  0.00000000000E+00 0.  1.
         13    1    5    5    0    0 -0.10670354629E+03 -0.58527097088E+02 -0.61048460551E+02  0.13615425965E+03  0.00000000000E+00 0. -1.
        -13    1    5    5    0    0 -0.21372177897E+03 -0.27892695892E+03 -0.10036177847E+03  0.36544457008E+03  0.00000000000E+00 0.  1.
          5    1    6    6  503    0 -0.60378528278E+02 -0.61954826412E+02  0.22502307939E+03  0.24112536875E+03  0.47000000000E+01 0. -1.
         -5    1    6    6    0  503  0.26262840919E+02 -0.46065378331E+02  0.80976443605E+02  0.96907328478E+02  0.47000000000E+01 0.  1.
<mgrwt>
<rscale>  0 0.59178476E+03</rscale>
<asrwt>0</asrwt>
<pdfrwt beam="1">  1        2 0.10375949E+00 0.59178476E+03</pdfrwt>
<pdfrwt beam="2">  1       -2 0.12357363E+00 0.59178476E+03</pdfrwt>
<totfact> 0.21831169E+01</totfact>
</mgrwt>
</event>
<event>
12    1  0.3166324E-008  0.1214181E+04  0.7818608E-02  0.9100534E-01
          1   -1    0    0  501    0  0.00000000000E+00  0.00000000000E+00  0.11667147633E+04  0.11667147633E+04  0.00000000000E+00 0. -1.
         -1   -1    0    0    0  501 -0.00000000000E+00 -0.00000000000E+00 -0.13252456594E+04  0.13252456594E+04  0.00000000000E+00 0.  1.
         23    2    1    2    0    0  0.10877956729E+04 -0.41745048431E+03 -0.17311806741E+03  0.11813159343E+04  0.89292432933E+02 0.  0.
    5000000    2    1    2    0    0 -0.10877956729E+04  0.41745048431E+03  0.14587171358E+02  0.13106444884E+04  0.60000988050E+03 0.  0.
         23    2    4    4    0    0 -0.83562884292E+03  0.84322223586E+02 -0.13838658795E+03  0.85671710210E+03  0.97095544720E+02 0.  0.
         23    2    4    4    0    0 -0.25216682994E+03  0.33312826072E+03  0.15297375930E+03  0.45392738631E+03  0.89925262243E+02 0.  0.
          1    1    3    3  502    0  0.53950174520E+03 -0.22857153447E+03 -0.46704909286E+02  0.58778263669E+03  0.00000000000E+00 0. -1.
         -1    1    3    3    0  502  0.54829392766E+03 -0.18887894984E+03 -0.12641315812E+03  0.59353329759E+03  0.00000000000E+00 0.  1.
         11    1    5    5    0    0 -0.43570395654E+03  0.82453350153E+02 -0.10287757951E+03  0.45521455278E+03  0.00000000000E+00 0. -1.
        -11    1    5    5    0    0 -0.39992488638E+03  0.18688734327E+01 -0.35509008433E+02  0.40150254933E+03  0.00000000000E+00 0.  1.
          5    1    6    6  503    0 -0.14405465088E+03  0.16359786401E+03  0.35193944887E+02  0.22085449351E+03  0.47000000000E+01 0. -1.
         -5    1    6    6    0  503 -0.10811217906E+03  0.16953039671E+03  0.11777981442E+03  0.23307289279E+03  0.47000000000E+01 0.  1.
<mgrwt>
<rscale>  0 0.12141810E+04</rscale>
<asrwt>0</asrwt>
<pdfrwt beam="1">  1        1 0.17949458E+00 0.12141810E+04</pdfrwt>
<pdfrwt beam="2">  1       -1 0.20388395E+00 0.12141810E+04</pdfrwt>
<totfact> 0.15658814E+00</totfact>
</mgrwt>
</event>
<event>
12    1  0.3166324E-008  0.3918281E+03  0.7818608E-02  0.1046647E+00
          1   -1    0    0  501    0  0.00000000000E+00  0.00000000000E+00  0.47087842032E+03  0.47087842032E+03  0.00000000000E+00 0. -1.
         -1   -1    0    0    0  501 -0.00000000000E+00 -0.00000000000E+00 -0.42269350417E+03  0.42269350417E+03  0.00000000000E+00 0.  1.
         23    2    1    2    0    0  0.98741289405E+02  0.15236889383E+03  0.15674511245E+03  0.25715156021E+03  0.92691815173E+02 0.  0.
    5000000    2    1    2    0    0 -0.98741289405E+02 -0.15236889383E+03 -0.10856019630E+03  0.63642036429E+03  0.60023282301E+03 0.  0.
         23    2    4    4    0    0 -0.10869822576E+03  0.19724391992E+03  0.40273991146E+02  0.24591565151E+03  0.90177852410E+02 0.  0.
         23    2    4    4    0    0  0.99569363554E+01 -0.34961281375E+03 -0.14883418745E+03  0.39050471278E+03  0.89521255731E+02 0.  0.
          2    1    3    3  502    0  0.50739185413E+01  0.91770824704E+02  0.78706971784E+02  0.12100585244E+03  0.00000000000E+00 0. -1.
         -2    1    3    3    0  502  0.93667370863E+02  0.60598069126E+02  0.78038140665E+02  0.13614570777E+03  0.00000000000E+00 0.  1.
         13    1    5    5    0    0 -0.49584580599E+02  0.10560549461E+03 -0.24313678262E+02  0.11917342857E+03  0.00000000000E+00 0. -1.
        -13    1    5    5    0    0 -0.59113645161E+02  0.91638425310E+02  0.64587669407E+02  0.12674222294E+03  0.00000000000E+00 0.  1.
          5    1    6    6  503    0 -0.22315220371E+02 -0.20268015163E+03 -0.12188344978E+03  0.23760235322E+03  0.47000000000E+01 0. -1.
         -5    1    6    6    0  503  0.32272156727E+02 -0.14693266212E+03 -0.26950737669E+02  0.15290235956E+03  0.47000000000E+01 0.  1.
<mgrwt>
<rscale>  0 0.39182810E+03</rscale>
<asrwt>0</asrwt>
<pdfrwt beam="1">  1        1 0.72442834E-01 0.39182810E+03</pdfrwt>
<pdfrwt beam="2">  1       -1 0.65029770E-01 0.39182810E+03</pdfrwt>
<totfact> 0.12087809E+02</totfact>
</mgrwt>
</event>
<event>
12    1  0.3166324E-008  0.9011926E+03  0.7818608E-02  0.9424092E-01
          1   -1    0    0  501    0  0.00000000000E+00  0.00000000000E+00  0.10815868191E+04  0.10815868191E+04  0.00000000000E+00 0. -1.
         -1   -1    0    0    0  501 -0.00000000000E+00 -0.00000000000E+00 -0.92282455092E+03  0.92282455092E+03  0.00000000000E+00 0.  1.
         23    2    1    2    0    0 -0.44838308442E+03 -0.77005733904E+03  0.23954891739E+03  0.92707111315E+03  0.89674239399E+02 0.  0.
    5000000    2    1    2    0    0  0.44838308442E+03  0.77005733904E+03 -0.80786649194E+02  0.10773402569E+04  0.60008320306E+03 0.  0.
         23    2    4    4    0    0  0.16671250160E+03  0.42628318173E+03 -0.31911407483E+03  0.56545543808E+03  0.91627782293E+02 0.  0.
         23    2    4    4    0    0  0.28167058283E+03  0.34377415731E+03  0.23832742564E+03  0.51188481880E+03  0.87790189861E+02 0.  0.
          1    1    3    3  502    0 -0.14317967303E+03 -0.28393476806E+03  0.45859784673E+02  0.32128257210E+03  0.00000000000E+00 0. -1.
         -1    1    3    3    0  502 -0.30520341139E+03 -0.48612257098E+03  0.19368913271E+03  0.60578854105E+03  0.00000000000E+00 0.  1.
         11    1    5    5    0    0  0.24773944599E+02  0.39509987517E+02 -0.40731287042E+01  0.46812154639E+02  0.00000000000E+00 0. -1.
        -11    1    5    5    0    0  0.14193855700E+03  0.38677319421E+03 -0.31504094613E+03  0.51864328344E+03  0.00000000000E+00 0.  1.
          5    1    6    6  503    0  0.18797840626E+03  0.16627458473E+03  0.15119574594E+03  0.29302792075E+03  0.47000000000E+01 0. -1.
         -5    1    6    6    0  503  0.93692176573E+02  0.17749957258E+03  0.87131679695E+02  0.21885689805E+03  0.47000000000E+01 0.  1.
<mgrwt>
<rscale>  0 0.90119265E+03</rscale>
<asrwt>0</asrwt>
<pdfrwt beam="1">  1        1 0.16639797E+00 0.90119265E+03</pdfrwt>
<pdfrwt beam="2">  1       -1 0.14197301E+00 0.90119265E+03</pdfrwt>
<totfact> 0.53679644E+00</totfact>
</mgrwt>
</event>
<event>
12    1  0.3166324E-008  0.5994700E+03  0.7818608E-02  0.9906506E-01
          2   -1    0    0  501    0  0.00000000000E+00  0.00000000000E+00  0.89120866969E+03  0.89120866969E+03  0.00000000000E+00 0.  1.
         -2   -1    0    0    0  501 -0.00000000000E+00 -0.00000000000E+00 -0.20178871852E+04  0.20178871852E+04  0.00000000000E+00 0. -1.
         23    2    1    2    0    0  0.44583074381E+03 -0.22340153966E+03 -0.18054016899E+04  0.18750521676E+04  0.87590348120E+02 0.  0.
    5000000    2    1    2    0    0 -0.44583074381E+03  0.22340153966E+03  0.67872317437E+03  0.10340436874E+04  0.59992324500E+03 0.  0.
         23    2    4    4    0    0 -0.37505195655E+03 -0.65316313815E+02  0.59792478732E+03  0.71399172405E+03  0.85673448406E+02 0.  0.
         23    2    4    4    0    0 -0.70778787255E+02  0.28871785348E+03  0.80798387056E+02  0.32005196331E+03  0.86817303716E+02 0.  0.
          2    1    3    3  502    0  0.40511336202E+03 -0.22875532826E+03 -0.16595711209E+04  0.17235492861E+04  0.00000000000E+00 0.  1.
         -2    1    3    3    0  502  0.40717381790E+02  0.53537885921E+01 -0.14583056899E+03  0.15150288144E+03  0.00000000000E+00 0. -1.
         11    1    5    5    0    0 -0.25719887416E+03 -0.12126848027E+02  0.35167432714E+03  0.43585909843E+03  0.00000000000E+00 0.  1.
        -11    1    5    5    0    0 -0.11785308240E+03 -0.53189465788E+02  0.24625046017E+03  0.27813262562E+03  0.00000000000E+00 0. -1.
          5    1    6    6  503    0 -0.50839456270E+02  0.72552522084E+02  0.10089955427E+01  0.88722189144E+02  0.47000000000E+01 0. -1.
         -5    1    6    6    0  503 -0.19939330986E+02  0.21616533140E+03  0.79789391514E+02  0.23132977417E+03  0.47000000000E+01 0.  1.
<mgrwt>
<rscale>  0 0.59947004E+03</rscale>
<asrwt>0</asrwt>
<pdfrwt beam="1">  1        2 0.13710903E+00 0.59947004E+03</pdfrwt>
<pdfrwt beam="2">  1       -2 0.31044418E+00 0.59947004E+03</pdfrwt>
<totfact> 0.88221320E-01</totfact>
</mgrwt>
</event>
<event>
12    1  0.3166324E-008  0.6369364E+03  0.7818608E-02  0.9831606E-01
          1   -1    0    0  501    0  0.00000000000E+00  0.00000000000E+00  0.12084922364E+04  0.12084922364E+04  0.00000000000E+00 0. -1.
         -1   -1    0    0    0  501 -0.00000000000E+00 -0.00000000000E+00 -0.59130308359E+03  0.59130308359E+03  0.00000000000E+00 0.  1.
         23    2    1    2    0    0  0.26880880074E+03  0.46011060856E+03  0.81110114737E+03  0.97459441439E+03  0.89382648285E+02 0.  0.
    5000000    2    1    2    0    0 -0.26880880074E+03 -0.46011060856E+03 -0.19391199455E+03  0.82520090561E+03  0.59949539575E+03 0.  0.
         23    2    4    4    0    0 -0.14356460611E+03  0.86425467571E+02  0.64464942175E+02  0.20119468646E+03  0.90793256993E+02 0.  0.
         23    2    4    4    0    0 -0.12524419463E+03 -0.54653607613E+03 -0.25837693672E+03  0.62400621915E+03  0.90759733957E+02 0.  0.
          2    1    3    3  502    0  0.81032721547E+02  0.15423077438E+03  0.34318672320E+03  0.38487733202E+03  0.00000000000E+00 0. -1.
         -2    1    3    3    0  502  0.18777607919E+03  0.30587983419E+03  0.46791442418E+03  0.58971708236E+03  0.00000000000E+00 0.  1.
         13    1    5    5    0    0 -0.42399240275E+02  0.77414199955E-01  0.52745354946E+02  0.67674027789E+02  0.00000000000E+00 0. -1.
        -13    1    5    5    0    0 -0.10116536584E+03  0.86348053371E+02  0.11719587229E+02  0.13352065867E+03  0.00000000000E+00 0.  1.
          5    1    6    6  503    0 -0.94671033044E+02 -0.25312579535E+03 -0.93379541374E+02  0.28596695878E+03  0.47000000000E+01 0. -1.
         -5    1    6    6    0  503 -0.30573161584E+02 -0.29341028079E+03 -0.16499739535E+03  0.33803926037E+03  0.47000000000E+01 0.  1.
<mgrwt>
<rscale>  0 0.63693641E+03</rscale>
<asrwt>0</asrwt>
<pdfrwt beam="1">  1        1 0.18592188E+00 0.63693641E+03</pdfrwt>
<pdfrwt beam="2">  1       -1 0.90969705E-01 0.63693641E+03</pdfrwt>
<totfact> 0.13060265E+01</totfact>
</mgrwt>
</event>
<event>
12    1  0.3166324E-008  0.2623351E+03  0.7818608E-02  0.1105748E+00
          2   -1    0    0  501    0  0.00000000000E+00  0.00000000000E+00  0.11220092375E+04  0.11220092375E+04  0.00000000000E+00 0. -1.
         -2   -1    0    0    0  501 -0.00000000000E+00 -0.00000000000E+00 -0.31048194452E+03  0.31048194452E+03  0.00000000000E+00 0.  1.
         23    2    1    2    0    0 -0.12183945779E+01 -0.22998959536E+03  0.74693185107E+03  0.78671388692E+03  0.90082469275E+02 0.  0.
    5000000    2    1    2    0    0  0.12183945779E+01  0.22998959536E+03  0.64595441871E+02  0.64577729505E+03  0.59996587006E+03 0.  0.
         23    2    4    4    0    0  0.45093282591E+02  0.12637119800E+03  0.31558366035E+03  0.35500359766E+03  0.91822785042E+02 0.  0.
         23    2    4    4    0    0 -0.43874888013E+02  0.10361839736E+03 -0.25098821848E+03  0.29077369739E+03  0.94299942773E+02 0.  0.
          2    1    3    3  502    0  0.40162233144E+02 -0.14691325748E+03  0.50985829578E+03  0.53212027961E+03  0.00000000000E+00 0. -1.
         -2    1    3    3    0  502 -0.41380627722E+02 -0.83076337877E+02  0.23707355529E+03  0.25459360731E+03  0.00000000000E+00 0.  1.
         13    1    5    5    0    0 -0.17013621654E+02  0.78449255713E+02  0.12103800313E+03  0.14523755452E+03  0.00000000000E+00 0.  1.
        -13    1    5    5    0    0  0.62106904245E+02  0.47921942285E+02  0.19454565723E+03  0.20976604314E+03  0.00000000000E+00 0. -1.
          5    1    6    6  503    0 -0.45629011362E+02  0.53524810337E+02 -0.22146173814E+03  0.23240977488E+03  0.47000000000E+01 0. -1.
         -5    1    6    6    0  503  0.17541233489E+01  0.50093587023E+02 -0.29526480346E+02  0.58363922514E+02  0.47000000000E+01 0.  1.
<mgrwt>
<rscale>  0 0.26233507E+03</rscale>
<asrwt>0</asrwt>
<pdfrwt beam="1">  1        2 0.17261680E+00 0.26233507E+03</pdfrwt>
<pdfrwt beam="2">  1       -2 0.47766454E-01 0.26233507E+03</pdfrwt>
<totfact> 0.94745155E+01</totfact>
</mgrwt>
</event>
<event>
12    1  0.3166324E-008  0.9139752E+03  0.7818608E-02  0.9408278E-01
         -1   -1    0    0    0  501 -0.00000000000E+00  0.00000000000E+00  0.98754892384E+03  0.98754892384E+03  0.00000000000E+00 0.  1.
          1   -1    0    0  501    0  0.00000000000E+00 -0.00000000000E+00 -0.10492581007E+04  0.10492581007E+04  0.00000000000E+00 0. -1.
         23    2    1    2    0    0 -0.19297089060E+03 -0.81499427125E+03  0.36776040833E+03  0.92082618011E+03  0.10592312898E+03 0.  0.
    5000000    2    1    2    0    0  0.19297089060E+03  0.81499427125E+03 -0.42946958515E+03  0.11159808444E+04  0.59959627555E+03 0.  0.
         23    2    4    4    0    0 -0.15424497324E+03  0.43394836302E+03 -0.55336151236E+02  0.47245608102E+03  0.89721598940E+02 0.  0.
         23    2    4    4    0    0  0.34721586385E+03  0.38104590823E+03 -0.37413343391E+03  0.64352476336E+03  0.91615797755E+02 0.  0.
          2    1    3    3  502    0 -0.16226051829E+03 -0.53207511740E+03  0.20401399167E+03  0.59249819844E+03  0.00000000000E+00 0. -1.
         -2    1    3    3    0  502 -0.30710372317E+02 -0.28291915385E+03  0.16374641666E+03  0.32832798168E+03  0.00000000000E+00 0.  1.
         11    1    5    5    0    0 -0.45893045068E+02  0.25634312151E+03 -0.17590532057E+02  0.26101224943E+03  0.00000000000E+00 0. -1.
        -11    1    5    5    0    0 -0.10835192818E+03  0.17760524151E+03 -0.37745619179E+02  0.21144383159E+03  0.00000000000E+00 0.  1.
          5    1    6    6  503    0  0.21255187811E+03  0.27239797334E+03 -0.20639864205E+03  0.40249403251E+03  0.47000000000E+01 0. -1.
         -5    1    6    6    0  503  0.13466398574E+03  0.10864793489E+03 -0.16773479187E+03  0.24103073085E+03  0.47000000000E+01 0.  1.
<mgrwt>
<rscale>  0 0.91397524E+03</rscale>
<asrwt>0</asrwt>
<pdfrwt beam="1">  1        1 0.16142432E+00 0.91397524E+03</pdfrwt>
<pdfrwt beam="2">  1       -1 0.15193060E+00 0.91397524E+03</pdfrwt>
<totfact> 0.47326292E+00</totfact>
</mgrwt>
</event>
<event>
12    1  0.3166324E-008  0.1126695E+04  0.7818608E-02  0.9179557E-01
         -1   -1    0    0    0  501 -0.00000000000E+00  0.00000000000E+00  0.73892346583E+03  0.73892346583E+03  0.00000000000E+00 0.  1.
          1   -1    0    0  501    0  0.00000000000E+00 -0.00000000000E+00 -0.32840241188E+04  0.32840241188E+04  0.00000000000E+00 0. -1.
         23    2    1    2    0    0 -0.93133660401E+03 -0.62557177513E+03  0.56370004507E+02  0.11270364672E+04  0.91135641237E+02 0.  0.
    5000000    2    1    2    0    0  0.93133660401E+03  0.62557177513E+03 -0.26014706575E+04  0.28959111175E+04  0.59993641566E+03 0.  0.
         23    2    4    4    0    0  0.50872148083E+03  0.33252306830E+03 -0.73612804915E+03  0.95870599975E+03  0.88676677891E+02 0.  0.
         23    2    4    4    0    0  0.42261512318E+03  0.29304870683E+03 -0.18653426084E+04  0.19372051178E+04  0.93699171799E+02 0.  0.
          2    1    3    3  502    0 -0.44717113147E+03 -0.34793701019E+03  0.56399951726E+01  0.56661626646E+03  0.00000000000E+00 0. -1.
         -2    1    3    3    0  502 -0.48416547254E+03 -0.27763476494E+03  0.50730009334E+02  0.56042020070E+03  0.00000000000E+00 0.  1.
         13    1    5    5    0    0  0.34471290004E+03  0.26012563383E+03 -0.56228538372E+03  0.70898320260E+03  0.00000000000E+00 0. -1.
        -13    1    5    5    0    0  0.16400858079E+03  0.72397434471E+02 -0.17384266543E+03  0.24972279715E+03  0.00000000000E+00 0.  1.
          5    1    6    6  503    0  0.37178097179E+03  0.23318991176E+03 -0.14703595766E+04  0.15344634243E+04  0.47000000000E+01 0. -1.
         -5    1    6    6    0  503  0.50834151389E+02  0.59858795065E+02 -0.39498303173E+03  0.40274169346E+03  0.47000000000E+01 0.  1.
<mgrwt>
<rscale>  0 0.11266949E+04</rscale>
<asrwt>0</asrwt>
<pdfrwt beam="1">  1        1 0.50523448E+00 0.11266949E+04</pdfrwt>
<pdfrwt beam="2">  1       -1 0.11368053E+00 0.11266949E+04</pdfrwt>
<totfact> 0.26207937E-01</totfact>
</mgrwt>
</event>
<event>
12    1  0.3166324E-008  0.6545461E+03  0.7818608E-02  0.9798286E-01
          1   -1    0    0  501    0  0.00000000000E+00  0.00000000000E+00  0.81737469463E+03  0.81737469463E+03  0.00000000000E+00 0. -1.
         -1   -1    0    0    0  501 -0.00000000000E+00 -0.00000000000E+00 -0.75218239886E+03  0.75218239886E+03  0.00000000000E+00 0.  1.
         23    2    1    2    0    0 -0.48229140199E+03  0.39546237664E+03  0.26011890871E+03  0.68255474534E+03  0.96039814366E+02 0.  0.
    5000000    2    1    2    0    0  0.48229140199E+03 -0.39546237664E+03 -0.19492661294E+03  0.88700234816E+03  0.59981771685E+03 0.  0.
         23    2    4    4    0    0  0.44445070177E+03 -0.28788250568E+03  0.11100384106E+03  0.54794473346E+03  0.86653417814E+02 0.  0.
         23    2    4    4    0    0  0.37840700213E+02 -0.10757987096E+03 -0.30593045400E+03  0.33905761470E+03  0.91440014068E+02 0.  0.
          3    1    3    3  502    0 -0.21735078612E+03  0.12071918575E+03  0.11886276325E+03  0.27557728956E+03  0.00000000000E+00 0. -1.
         -3    1    3    3    0  502 -0.26494061587E+03  0.27474319090E+03  0.14125614546E+03  0.40697745578E+03  0.00000000000E+00 0.  1.
         13    1    5    5    0    0  0.44022510215E+03 -0.27494562288E+03  0.11852937338E+03  0.53239313337E+03  0.00000000000E+00 0. -1.
        -13    1    5    5    0    0  0.42255996191E+01 -0.12936882795E+02 -0.75255323241E+01  0.15551600090E+02  0.00000000000E+00 0.  1.
          5    1    6    6  503    0  0.67744976601E+02 -0.82384219506E+02 -0.22618498702E+03  0.25011653250E+03  0.47000000000E+01 0. -1.
         -5    1    6    6    0  503 -0.29904276387E+02 -0.25195651457E+02 -0.79745466976E+02  0.88941082194E+02  0.47000000000E+01 0.  1.
<mgrwt>
<rscale>  0 0.65454606E+03</rscale>
<asrwt>0</asrwt>
<pdfrwt beam="1">  1        1 0.12574995E+00 0.65454606E+03</pdfrwt>
<pdfrwt beam="2">  1       -1 0.11572037E+00 0.65454606E+03</pdfrwt>
<totfact> 0.15049135E+01</totfact>
</mgrwt>
</event>
<event>
12    1  0.3166324E-008  0.1118807E+04  0.7818608E-02  0.9187053E-01
         -2   -1    0    0    0  501 -0.00000000000E+00  0.00000000000E+00  0.10715907099E+04  0.10715907099E+04  0.00000000000E+00 0.  1.
          2   -1    0    0  501    0  0.00000000000E+00 -0.00000000000E+00 -0.17837602168E+04  0.17837602168E+04  0.00000000000E+00 0. -1.
         23    2    1    2    0    0  0.10011547980E+04  0.47625782551E+03  0.39336847635E+03  0.11789504669E+04  0.77801024238E+02 0.  0.
    5000000    2    1    2    0    0 -0.10011547980E+04 -0.47625782551E+03 -0.11055379832E+04  0.16764004598E+04  0.59914257341E+03 0.  0.
         23    2    4    4    0    0 -0.22597496880E+03 -0.10262512243E+03 -0.64183462043E+03  0.69449687812E+03  0.93689014658E+02 0.  0.
         23    2    4    4    0    0 -0.77517982921E+03 -0.37363270308E+03 -0.46370336279E+03  0.98190358165E+03  0.92782921758E+02 0.  0.
          1    1    3    3  502    0  0.86144222834E+03  0.41288903814E+03  0.30983003776E+03  0.10042682525E+04  0.00000000000E+00 0. -1.
         -1    1    3    3    0  502  0.13971256967E+03  0.63368787371E+02  0.83538438587E+02  0.17468221449E+03  0.00000000000E+00 0.  1.
         11    1    5    5    0    0 -0.61690631591E+02 -0.77109640936E+02 -0.25468714628E+03  0.27316144170E+03  0.00000000000E+00 0.  1.
        -11    1    5    5    0    0 -0.16428433721E+03 -0.25515481489E+02 -0.38714747414E+03  0.42133543642E+03  0.00000000000E+00 0. -1.
          5    1    6    6  503    0 -0.13246670323E+03 -0.33415245128E+02 -0.95740350181E+02  0.16689011572E+03  0.47000000000E+01 0. -1.
         -5    1    6    6    0  503 -0.64271312598E+03 -0.34021745796E+03 -0.36796301261E+03  0.81501346594E+03  0.47000000000E+01 0.  1.
<mgrwt>
<rscale>  0 0.11188071E+04</rscale>
<asrwt>0</asrwt>
<pdfrwt beam="1">  1        2 0.27442465E+00 0.11188071E+04</pdfrwt>
<pdfrwt beam="2">  1       -2 0.16486011E+00 0.11188071E+04</pdfrwt>
<totfact> 0.20043011E+00</totfact>
</mgrwt>
</event>
<event>
12    1  0.3166324E-008  0.9507412E+03  0.7818608E-02  0.9364285E-01
         -3   -1    0    0    0  501 -0.00000000000E+00  0.00000000000E+00  0.13264522477E+04  0.13264522477E+04  0.00000000000E+00 0.  1.
          3   -1    0    0  501    0  0.00000000000E+00 -0.00000000000E+00 -0.10519580371E+04  0.10519580371E+04  0.00000000000E+00 0. -1.
         23    2    1    2    0    0  0.41408626630E+03  0.81634649146E+03  0.74819177614E+03  0.11858721869E+04  0.92805601127E+02 0.  0.
    5000000    2    1    2    0    0 -0.41408626630E+03 -0.81634649146E+03 -0.47369756550E+03  0.11925380979E+04  0.59989057450E+03 0.  0.
         23    2    4    4    0    0 -0.20623738890E+03 -0.72218636889E+03 -0.54955273385E+03  0.93526650248E+03  0.92888165916E+02 0.  0.
         23    2    4    4    0    0 -0.20784887739E+03 -0.94160122569E+02  0.75855168358E+02  0.25727159545E+03  0.91473399090E+02 0.  0.
          4    1    3    3  502    0  0.31835552272E+03  0.70256938425E+03  0.62374079955E+03  0.99197104975E+03  0.00000000000E+00 0. -1.
         -4    1    3    3    0  502  0.95730743582E+02  0.11377710721E+03  0.12445097659E+03  0.19390113710E+03  0.00000000000E+00 0.  1.
         11    1    5    5    0    0 -0.49457403479E+02 -0.10346786099E+03 -0.51720272505E+02  0.12580389344E+03  0.00000000000E+00 0. -1.
        -11    1    5    5    0    0 -0.15677998543E+03 -0.61871850791E+03 -0.49783246135E+03  0.80946260904E+03  0.00000000000E+00 0.  1.
          5    1    6    6  503    0 -0.16648289465E+03 -0.76570721510E+02  0.96982259092E+02  0.20738196205E+03  0.47000000000E+01 0.  1.
         -5    1    6    6    0  503 -0.41365982743E+02 -0.17589401059E+02 -0.21127090734E+02  0.49889633400E+02  0.47000000000E+01 0. -1.
<mgrwt>
<rscale>  0 0.95074118E+03</rscale>
<asrwt>0</asrwt>
<pdfrwt beam="1">  1        3 0.16183970E+00 0.95074118E+03</pdfrwt>
<pdfrwt beam="2">  1       -3 0.20406958E+00 0.95074118E+03</pdfrwt>
<totfact> 0.92970285E-02</totfact>
</mgrwt>
</event>
<event>
12    1  0.3166324E-008  0.7572766E+03  0.7818608E-02  0.9624003E-01
          2   -1    0    0  501    0  0.00000000000E+00  0.00000000000E+00  0.24761753515E+04  0.24761753515E+04  0.00000000000E+00 0. -1.
         -2   -1    0    0    0  501 -0.00000000000E+00 -0.00000000000E+00 -0.40693462301E+03  0.40693462301E+03  0.00000000000E+00 0.  1.
         23    2    1    2    0    0  0.25205759377E+02 -0.64161807494E+03  0.18738360857E+04  0.19829345041E+04  0.91970034516E+02 0.  0.
    5000000    2    1    2    0    0 -0.25205759377E+02  0.64161807494E+03  0.19540464275E+03  0.90017547033E+03  0.59985316418E+03 0.  0.
         23    2    4    4    0    0 -0.25329185589E+03  0.10892118497E+03  0.89733206614E+02  0.30417292628E+03  0.91915895889E+02 0.  0.
         23    2    4    4    0    0  0.22808609651E+03  0.53269688997E+03  0.10567143613E+03  0.59600254405E+03  0.90902893705E+02 0.  0.
          2    1    3    3  502    0  0.50363802318E+02 -0.21216915223E+03  0.59718270266E+03  0.63575108501E+03  0.00000000000E+00 0.  1.
         -2    1    3    3    0  502 -0.25158042941E+02 -0.42944892271E+03  0.12766533831E+04  0.13471834191E+04  0.00000000000E+00 0. -1.
         11    1    5    5    0    0 -0.19663468528E+03  0.11714465746E+03  0.49436768508E+02  0.23416247416E+03  0.00000000000E+00 0.  1.
        -11    1    5    5    0    0 -0.56657170615E+02 -0.82234724911E+01  0.40296438106E+02  0.70010452119E+02  0.00000000000E+00 0. -1.
          5    1    6    6  503    0  0.13903802103E+03  0.29094283258E+03  0.15005280200E+02  0.32284137212E+03  0.47000000000E+01 0. -1.
         -5    1    6    6    0  503  0.89048075489E+02  0.24175405739E+03  0.90666155934E+02  0.27316117192E+03  0.47000000000E+01 0.  1.
<mgrwt>
<rscale>  0 0.75727663E+03</rscale>
<asrwt>0</asrwt>
<pdfrwt beam="1">  1        2 0.38095004E+00 0.75727663E+03</pdfrwt>
<pdfrwt beam="2">  1       -2 0.62605328E-01 0.75727663E+03</pdfrwt>
<totfact> 0.89015000E+00</totfact>
</mgrwt>
</event>
<event>
12    1  0.3511311E-008  0.1154163E+04  0.7818608E-02  0.9153951E-01
         -1   -1    0    0    0  501 -0.00000000000E+00  0.00000000000E+00  0.93590389775E+03  0.93590389775E+03  0.00000000000E+00 0.  1.
          1   -1    0    0  501    0  0.00000000000E+00 -0.00000000000E+00 -0.15217642551E+04  0.15217642551E+04  0.00000000000E+00 0. -1.
         23    2    1    2    0    0 -0.45225022204E+03 -0.10160481358E+04 -0.18286353173E+03  0.11308042231E+04  0.91624463321E+02 0.  0.
    5000000    2    1    2    0    0  0.45225022204E+03  0.10160481358E+04 -0.40299682564E+03  0.13268639297E+04  0.60106353158E+03 0.  0.
         23    2    4    4    0    0  0.44128789441E+03  0.50334801547E+03 -0.43717079522E+03  0.80471750702E+03  0.91420629426E+02 0.  0.
         23    2    4    4    0    0  0.10962327635E+02  0.51270012031E+03  0.34173969575E+02  0.52214642271E+03  0.92127306292E+02 0.  0.
          4    1    3    3  502    0 -0.19429876469E+03 -0.45142596358E+03 -0.35173876296E+02  0.49272163757E+03  0.00000000000E+00 0.  1.
         -4    1    3    3    0  502 -0.25795145735E+03 -0.56462217219E+03 -0.14768965543E+03  0.63808258557E+03  0.00000000000E+00 0. -1.
         11    1    5    5    0    0  0.62101524542E+02  0.12495134343E+03 -0.10151627159E+03  0.17255431311E+03  0.00000000000E+00 0. -1.
        -11    1    5    5    0    0  0.37918636986E+03  0.37839667204E+03 -0.33565452363E+03  0.63216319391E+03  0.00000000000E+00 0.  1.
          5    1    6    6  503    0 -0.37734255612E+02  0.14343604071E+03  0.15303084758E+02  0.14917790125E+03  0.47000000000E+01 0. -1.
         -5    1    6    6    0  503  0.48696583247E+02  0.36926407960E+03  0.18870884818E+02  0.37296852146E+03  0.47000000000E+01 0.  1.
<mgrwt>
<rscale>  0 0.11541635E+04</rscale>
<asrwt>0</asrwt>
<pdfrwt beam="1">  1        1 0.23411758E+00 0.11541635E+04</pdfrwt>
<pdfrwt beam="2">  1       -1 0.14398522E+00 0.11541635E+04</pdfrwt>
<totfact> 0.24263515E+00</totfact>
</mgrwt>
</event>
<event>
12    1  0.3166324E-008  0.9281262E+03  0.7818608E-02  0.9391089E-01
         -1   -1    0    0    0  501 -0.00000000000E+00  0.00000000000E+00  0.63938142081E+03  0.63938142081E+03  0.00000000000E+00 0. -1.
          1   -1    0    0  501    0  0.00000000000E+00 -0.00000000000E+00 -0.14662169996E+04  0.14662169996E+04  0.00000000000E+00 0.  1.
         23    2    1    2    0    0  0.31218871356E+03  0.78408200611E+03 -0.13325800403E+03  0.85928726567E+03  0.91490568486E+02 0.  0.
    5000000    2    1    2    0    0 -0.31218871356E+03 -0.78408200611E+03 -0.69357757475E+03  0.12463111547E+04  0.59999604751E+03 0.  0.
         23    2    4    4    0    0 -0.74200424341E+01 -0.66823526995E+03 -0.57954541372E+03  0.88906789942E+03  0.89305152059E+02 0.  0.
         23    2    4    4    0    0 -0.30476867113E+03 -0.11584673616E+03 -0.11403216104E+03  0.35724325531E+03  0.91186624763E+02 0.  0.
          4    1    3    3  502    0  0.61639995728E+02  0.19233311723E+03  0.47699921168E+01  0.20202541890E+03  0.00000000000E+00 0. -1.
         -4    1    3    3    0  502  0.25054871783E+03  0.59174888888E+03 -0.13802799614E+03  0.65726184677E+03  0.00000000000E+00 0.  1.
         13    1    5    5    0    0 -0.41369039919E+02 -0.20705491559E+03 -0.19987174932E+03  0.29074361852E+03  0.00000000000E+00 0. -1.
        -13    1    5    5    0    0  0.33948997485E+02 -0.46118035436E+03 -0.37967366439E+03  0.59832428090E+03  0.00000000000E+00 0.  1.
          5    1    6    6  503    0 -0.21507249114E+03 -0.36384772495E+02 -0.64710682651E+02  0.22757326416E+03  0.47000000000E+01 0. -1.
         -5    1    6    6    0  503 -0.89696179990E+02 -0.79461963661E+02 -0.49321478386E+02  0.12966999115E+03  0.47000000000E+01 0.  1.
<mgrwt>
<rscale>  0 0.92812625E+03</rscale>
<asrwt>0</asrwt>
<pdfrwt beam="1">  1        1 0.22557184E+00 0.92812625E+03</pdfrwt>
<pdfrwt beam="2">  1       -1 0.98366374E-01 0.92812625E+03</pdfrwt>
<totfact> 0.69300827E+00</totfact>
</mgrwt>
</event>
<event>
12    1  0.3932923E-008  0.1491405E+04  0.7818608E-02  0.8890189E-01
         -1   -1    0    0    0  501 -0.00000000000E+00  0.00000000000E+00  0.12206963968E+04  0.12206963968E+04  0.00000000000E+00 0.  1.
          1   -1    0    0  501    0  0.00000000000E+00 -0.00000000000E+00 -0.18986654792E+04  0.18986654792E+04  0.00000000000E+00 0. -1.
         23    2    1    2    0    0  0.59858376567E+03 -0.13336782814E+04 -0.32314395441E+03  0.14998040358E+04  0.89385948079E+02 0.  0.
    5000000    2    1    2    0    0 -0.59858376567E+03  0.13336782814E+04 -0.35482512800E+03  0.16195578401E+04  0.60005536666E+03 0.  0.
         23    2    4    4    0    0 -0.48713602149E+03  0.13183811748E+04 -0.22780304984E+03  0.14268059576E+04  0.91927065435E+02 0.  0.
         23    2    4    4    0    0 -0.11144774418E+03  0.15297106587E+02 -0.12702207816E+03  0.19275188254E+03  0.91455337358E+02 0.  0.
          3    1    3    3  502    0  0.42426668208E+03 -0.96986078989E+03 -0.19411088450E+03  0.10762486724E+04  0.00000000000E+00 0. -1.
         -3    1    3    3    0  502  0.17431708359E+03 -0.36381749155E+03 -0.12903306991E+03  0.42355536346E+03  0.00000000000E+00 0.  1.
         13    1    5    5    0    0 -0.33063270946E+03  0.78255818045E+03 -0.11461578855E+03  0.85723513305E+03  0.00000000000E+00 0. -1.
        -13    1    5    5    0    0 -0.15650331204E+03  0.53582299440E+03 -0.11318726129E+03  0.56957082450E+03  0.00000000000E+00 0.  1.
          5    1    6    6  503    0 -0.63951107431E+02  0.11635760736E+02 -0.95060005460E+01  0.65860375917E+02  0.47000000000E+01 0. -1.
         -5    1    6    6    0  503 -0.47496636746E+02  0.36613458511E+01 -0.11751607762E+03  0.12689150663E+03  0.47000000000E+01 0.  1.
<mgrwt>
<rscale>  0 0.14914052E+04</rscale>
<asrwt>0</asrwt>
<pdfrwt beam="1">  1        1 0.29210238E+00 0.14914052E+04</pdfrwt>
<pdfrwt beam="2">  1       -1 0.18779945E+00 0.14914052E+04</pdfrwt>
<totfact> 0.60572397E-01</totfact>
</mgrwt>
</event>
<event>
12    1  0.3166324E-008  0.5288983E+03  0.7818608E-02  0.1006500E+00
         -1   -1    0    0    0  501 -0.00000000000E+00  0.00000000000E+00  0.18682547986E+03  0.18682547986E+03  0.00000000000E+00 0.  1.
          1   -1    0    0  501    0  0.00000000000E+00 -0.00000000000E+00 -0.15382609464E+04  0.15382609464E+04  0.00000000000E+00 0. -1.
         23    2    1    2    0    0 -0.84982565117E+02  0.34544994878E+03 -0.56385781485E+03  0.67293553754E+03  0.91372308890E+02 0.  0.
    5000000    2    1    2    0    0  0.84982565117E+02 -0.34544994878E+03 -0.78757765171E+03  0.10521508887E+04  0.60015433989E+03 0.  0.
         23    2    4    4    0    0  0.84908779014E+01 -0.49575118024E+03 -0.55959894126E+03  0.75312040417E+03  0.90543030725E+02 0.  0.
         23    2    4    4    0    0  0.76491687215E+02  0.15030123145E+03 -0.22797871045E+03  0.29903048455E+03  0.94886774021E+02 0.  0.
          1    1    3    3  502    0 -0.68044953505E+02  0.99798288130E+02 -0.19790406609E+03  0.23185304265E+03  0.00000000000E+00 0. -1.
         -1    1    3    3    0  502 -0.16937611612E+02  0.24565166065E+03 -0.36595374875E+03  0.44108249489E+03  0.00000000000E+00 0.  1.
         11    1    5    5    0    0 -0.26810655465E+02 -0.14589390340E+03 -0.12424354000E+03  0.19349495995E+03  0.00000000000E+00 0.  1.
        -11    1    5    5    0    0  0.35301533366E+02 -0.34985727683E+03 -0.43535540126E+03  0.55962544422E+03  0.00000000000E+00 0. -1.
          5    1    6    6  503    0  0.91781996235E+01  0.11345119370E+03 -0.11105220483E+03  0.15909146708E+03  0.47000000000E+01 0. -1.
         -5    1    6    6    0  503  0.67313487592E+02  0.36850037747E+02 -0.11692650562E+03  0.13993901747E+03  0.47000000000E+01 0.  1.
<mgrwt>
<rscale>  0 0.52889827E+03</rscale>
<asrwt>0</asrwt>
<pdfrwt beam="1">  1        1 0.23665552E+00 0.52889827E+03</pdfrwt>
<pdfrwt beam="2">  1       -1 0.28742382E-01 0.52889827E+03</pdfrwt>
<totfact> 0.71302997E+01</totfact>
</mgrwt>
</event>
<event>
12    1  0.3166324E-008  0.5650812E+03  0.7818608E-02  0.9980623E-01
          1   -1    0    0  501    0  0.00000000000E+00  0.00000000000E+00  0.13012990649E+04  0.13012990649E+04  0.00000000000E+00 0. -1.
         -1   -1    0    0    0  501 -0.00000000000E+00 -0.00000000000E+00 -0.34334049220E+03  0.34334049220E+03  0.00000000000E+00 0.  1.
         23    2    1    2    0    0 -0.18364880820E+03 -0.43872386609E+03  0.67067523850E+03  0.82686483260E+03  0.87719213528E+02 0.  0.
    5000000    2    1    2    0    0  0.18364880820E+03  0.43872386609E+03  0.28728333420E+03  0.81777472449E+03  0.60001522520E+03 0.  0.
         23    2    4    4    0    0 -0.13905882868E+03  0.15879793665E+03  0.30301475591E+03  0.38050098870E+03  0.91700150399E+02 0.  0.
         23    2    4    4    0    0  0.32270763688E+03  0.27992592944E+03 -0.15731421707E+02  0.43727373580E+03  0.91989659832E+02 0.  0.
          4    1    3    3  502    0 -0.12591335393E+03 -0.29566078386E+03  0.37898318430E+03  0.49688804150E+03  0.00000000000E+00 0. -1.
         -4    1    3    3    0  502 -0.57735454274E+02 -0.14306308224E+03  0.29169205420E+03  0.32997679110E+03  0.00000000000E+00 0.  1.
         13    1    5    5    0    0 -0.62259501723E+02  0.28575863266E+02  0.15244695964E+03  0.16713138850E+03  0.00000000000E+00 0. -1.
        -13    1    5    5    0    0 -0.76799326954E+02  0.13022207339E+03  0.15056779626E+03  0.21336960020E+03  0.00000000000E+00 0.  1.
          5    1    6    6  503    0  0.14608351718E+03  0.75034496386E+02  0.15018120950E+02  0.16497940355E+03  0.47000000000E+01 0. -1.
         -5    1    6    6    0  503  0.17662411969E+03  0.20489143305E+03 -0.30749542658E+02  0.27229433224E+03  0.47000000000E+01 0.  1.
<mgrwt>
<rscale>  0 0.56508123E+03</rscale>
<asrwt>0</asrwt>
<pdfrwt beam="1">  1        1 0.20019985E+00 0.56508123E+03</pdfrwt>
<pdfrwt beam="2">  1       -1 0.52821615E-01 0.56508123E+03</pdfrwt>
<totfact> 0.34393819E+01</totfact>
</mgrwt>
</event>
<event>
12    1  0.3166324E-008  0.7717004E+03  0.7818608E-02  0.9601908E-01
         -1   -1    0    0    0  501 -0.00000000000E+00  0.00000000000E+00  0.49894329143E+03  0.49894329143E+03  0.00000000000E+00 0.  1.
          1   -1    0    0  501    0  0.00000000000E+00 -0.00000000000E+00 -0.14245402642E+04  0.14245402642E+04  0.00000000000E+00 0. -1.
         23    2    1    2    0    0  0.67164753229E+03 -0.16537018391E+02 -0.74057115234E+03  0.10039469325E+04  0.89888436130E+02 0.  0.
    5000000    2    1    2    0    0 -0.67164753229E+03  0.16537018391E+02 -0.18502582047E+03  0.91953662318E+03  0.59994096921E+03 0.  0.
         23    2    4    4    0    0 -0.52016767630E+03 -0.22345747261E+03 -0.52691925480E+01  0.57351159150E+03  0.91543037229E+02 0.  0.
         23    2    4    4    0    0 -0.15147985599E+03  0.23999449100E+03 -0.17975662792E+03  0.34602503168E+03  0.82929939044E+02 0.  0.
          4    1    3    3  502    0  0.33184181023E+03  0.35161363115E+02 -0.34710429518E+03  0.48149423694E+03  0.00000000000E+00 0. -1.
         -4    1    3    3    0  502  0.33980572206E+03 -0.51698381506E+02 -0.39346685716E+03  0.52245269554E+03  0.00000000000E+00 0.  1.
         11    1    5    5    0    0 -0.16525026338E+03 -0.32978942819E+02 -0.24350021265E+02  0.17025916643E+03  0.00000000000E+00 0.  1.
        -11    1    5    5    0    0 -0.35491741291E+03 -0.19047852979E+03  0.19080828717E+02  0.40325242507E+03  0.00000000000E+00 0. -1.
          5    1    6    6  503    0 -0.12418747449E+02  0.86457561470E+02 -0.66567959474E+02  0.10992050970E+03  0.47000000000E+01 0. -1.
         -5    1    6    6    0  503 -0.13906110854E+03  0.15353692953E+03 -0.11318866845E+03  0.23610452199E+03  0.47000000000E+01 0.  1.
<mgrwt>
<rscale>  0 0.77170038E+03</rscale>
<asrwt>0</asrwt>
<pdfrwt beam="1">  1        1 0.21916004E+00 0.77170038E+03</pdfrwt>
<pdfrwt beam="2">  1       -1 0.76760506E-01 0.77170038E+03</pdfrwt>
<totfact> 0.12988118E+01</totfact>
</mgrwt>
</event>
<event>
12    1  0.3166324E-008  0.8370786E+03  0.7818608E-02  0.9507846E-01
          1   -1    0    0  501    0  0.00000000000E+00  0.00000000000E+00  0.21747027013E+04  0.21747027013E+04  0.00000000000E+00 0. -1.
         -1   -1    0    0    0  501 -0.00000000000E+00 -0.00000000000E+00 -0.33192741415E+03  0.33192741415E+03  0.00000000000E+00 0.  1.
         23    2    1    2    0    0  0.72430222898E+03  0.87225084482E+02  0.99589428397E+03  0.12379626025E+04  0.92325761145E+02 0.  0.
    5000000    2    1    2    0    0 -0.72430222898E+03 -0.87225084482E+02  0.84688100317E+03  0.12686675129E+04  0.60007323763E+03 0.  0.
         23    2    4    4    0    0  0.74130713033E-01  0.15114946915E+03  0.18100659771E+03  0.25238963542E+03  0.89949831207E+02 0.  0.
         23    2    4    4    0    0 -0.72437635969E+03 -0.23837455363E+03  0.66587440546E+03  0.10162778775E+04  0.88817014866E+02 0.  0.
          4    1    3    3  502    0  0.52602167435E+03  0.25090967447E+02  0.74185993577E+03  0.90977168720E+03  0.00000000000E+00 0. -1.
         -4    1    3    3    0  502  0.19828055463E+03  0.62134117035E+02  0.25403434820E+03  0.32819091534E+03  0.00000000000E+00 0.  1.
         13    1    5    5    0    0  0.26531871327E+02  0.46499833183E+01  0.24984893872E+02  0.36739725949E+02  0.00000000000E+00 0.  1.
        -13    1    5    5    0    0 -0.26457740614E+02  0.14649948583E+03  0.15602170384E+03  0.21564990947E+03  0.00000000000E+00 0. -1.
          5    1    6    6  503    0 -0.20180840679E+03 -0.87499909914E+02  0.23894846661E+03  0.32480967809E+03  0.47000000000E+01 0.  1.
         -5    1    6    6    0  503 -0.52256795290E+03 -0.15087464372E+03  0.42692593884E+03  0.69146819939E+03  0.47000000000E+01 0. -1.
<mgrwt>
<rscale>  0 0.83707856E+03</rscale>
<asrwt>0</asrwt>
<pdfrwt beam="1">  1        1 0.33456964E+00 0.83707856E+03</pdfrwt>
<pdfrwt beam="2">  1       -1 0.51065757E-01 0.83707856E+03</pdfrwt>
<totfact> 0.90477623E+00</totfact>
</mgrwt>
</event>
<event>
12    1  0.3166324E-008  0.6017477E+03  0.7818608E-02  0.9901787E-01
          2   -1    0    0  501    0  0.00000000000E+00  0.00000000000E+00  0.21928615929E+03  0.21928615929E+03  0.00000000000E+00 0.  1.
         -2   -1    0    0    0  501 -0.00000000000E+00 -0.00000000000E+00 -0.24582234505E+04  0.24582234505E+04  0.00000000000E+00 0. -1.
         23    2    1    2    0    0 -0.19530458558E+03 -0.50012577445E+03 -0.41753216322E+03  0.68618424289E+03  0.90807689358E+02 0.  0.
    5000000    2    1    2    0    0  0.19530458558E+03  0.50012577445E+03 -0.18214051279E+04  0.19913253669E+04  0.59965857386E+03 0.  0.
         23    2    4    4    0    0  0.28042661090E+03  0.25350157367E+03 -0.46064182298E+03  0.60280875984E+03  0.91024062250E+02 0.  0.
         23    2    4    4    0    0 -0.85122025323E+02  0.24662420079E+03 -0.13607633050E+04  0.13885166070E+04  0.90732244758E+02 0.  0.
          4    1    3    3  502    0 -0.12141825052E+03 -0.23641879661E+03 -0.15979628067E+03  0.31011464052E+03  0.00000000000E+00 0. -1.
         -4    1    3    3    0  502 -0.73886335051E+02 -0.26370697785E+03 -0.25773588254E+03  0.37606960236E+03  0.00000000000E+00 0.  1.
         13    1    5    5    0    0  0.29402683789E+02  0.74286945198E+02 -0.82742945735E+02  0.11501940319E+03  0.00000000000E+00 0. -1.
        -13    1    5    5    0    0  0.25102392711E+03  0.17921462847E+03 -0.37789887724E+03  0.48778935665E+03  0.00000000000E+00 0.  1.
          5    1    6    6  503    0 -0.41609770857E+02  0.23221911539E+02 -0.20130871769E+03  0.20692491398E+03  0.47000000000E+01 0. -1.
         -5    1    6    6    0  503 -0.43512254466E+02  0.22340228925E+03 -0.11594545873E+04  0.11815916931E+04  0.47000000000E+01 0.  1.
<mgrwt>
<rscale>  0 0.60174768E+03</rscale>
<asrwt>0</asrwt>
<pdfrwt beam="1">  1        2 0.33736333E-01 0.60174768E+03</pdfrwt>
<pdfrwt beam="2">  1       -2 0.37818821E+00 0.60174768E+03</pdfrwt>
<totfact> 0.17399739E+00</totfact>
</mgrwt>
</event>
<event>
12    1  0.3166324E-008  0.4212428E+03  0.7818608E-02  0.1036663E+00
          2   -1    0    0  501    0  0.00000000000E+00  0.00000000000E+00  0.23520920065E+04  0.23520920065E+04  0.00000000000E+00 0. -1.
         -2   -1    0    0    0  501 -0.00000000000E+00 -0.00000000000E+00 -0.76366366488E+02  0.76366366488E+02  0.00000000000E+00 0.  1.
         23    2    1    2    0    0  0.17994145378E+03 -0.77779263421E+02  0.56073324423E+03  0.60100534839E+03  0.91417268619E+02 0.  0.
    5000000    2    1    2    0    0 -0.17994145378E+03  0.77779263421E+02  0.17149923958E+04  0.18274530246E+04  0.59996424803E+03 0.  0.
         23    2    4    4    0    0 -0.33272077676E+03  0.21365025132E+03  0.10703617408E+04  0.11448342587E+04  0.92852993980E+02 0.  0.
         23    2    4    4    0    0  0.15277932298E+03 -0.13587098789E+03  0.64463065497E+03  0.68261876591E+03  0.92829151477E+02 0.  0.
          4    1    3    3  502    0  0.12498747153E+03 -0.92443645028E+02  0.45677661613E+03  0.48250655187E+03  0.00000000000E+00 0. -1.
         -4    1    3    3    0  502  0.54953982246E+02  0.14664381607E+02  0.10395662810E+03  0.11849879653E+03  0.00000000000E+00 0.  1.
         11    1    5    5    0    0 -0.17110502614E+03  0.56522172412E+02  0.50553418196E+03  0.53669031580E+03  0.00000000000E+00 0. -1.
        -11    1    5    5    0    0 -0.16161575062E+03  0.15712807890E+03  0.56482755884E+03  0.60814394287E+03  0.00000000000E+00 0.  1.
          5    1    6    6  503    0  0.12724615013E+02 -0.67073166645E+02  0.19760993842E+03  0.20912317728E+03  0.47000000000E+01 0. -1.
         -5    1    6    6    0  503  0.14005470797E+03 -0.68797821250E+02  0.44702071655E+03  0.47349558864E+03  0.47000000000E+01 0.  1.
<mgrwt>
<rscale>  0 0.42124282E+03</rscale>
<asrwt>0</asrwt>
<pdfrwt beam="1">  1        2 0.36186025E+00 0.42124282E+03</pdfrwt>
<pdfrwt beam="2">  1       -2 0.11748674E-01 0.42124282E+03</pdfrwt>
<totfact> 0.24017733E+02</totfact>
</mgrwt>
</event>
<event>
12    1  0.3166324E-008  0.1067239E+04  0.7818608E-02  0.9237725E-01
         -2   -1    0    0    0  501 -0.00000000000E+00  0.00000000000E+00  0.93107212636E+03  0.93107212636E+03  0.00000000000E+00 0. -1.
          2   -1    0    0  501    0  0.00000000000E+00 -0.00000000000E+00 -0.14500323296E+04  0.14500323296E+04  0.00000000000E+00 0.  1.
         23    2    1    2    0    0  0.63731608379E+03 -0.79581289972E+03 -0.61491568115E+03  0.11942014233E+04  0.92226799025E+02 0.  0.
    5000000    2    1    2    0    0 -0.63731608379E+03  0.79581289972E+03  0.95955477955E+02  0.11869030326E+04  0.60003449324E+03 0.  0.
         23    2    4    4    0    0 -0.61832706510E+03  0.81870592143E+03  0.19687521692E+03  0.10488016778E+04  0.92829753186E+02 0.  0.
         23    2    4    4    0    0 -0.18989018693E+02 -0.22893021707E+02 -0.10091973897E+03  0.13810135484E+03  0.89456789683E+02 0.  0.
          1    1    3    3  502    0  0.38510862464E+03 -0.45087539005E+03 -0.30867718260E+03  0.66848999482E+03  0.00000000000E+00 0. -1.
         -1    1    3    3    0  502  0.25220745915E+03 -0.34493750968E+03 -0.30623849856E+03  0.52571142848E+03  0.00000000000E+00 0.  1.
         13    1    5    5    0    0 -0.32419879141E+03  0.44726854475E+03  0.60117953868E+02  0.55566912444E+03  0.00000000000E+00 0. -1.
        -13    1    5    5    0    0 -0.29412827369E+03  0.37143737668E+03  0.13675726306E+03  0.49313255335E+03  0.00000000000E+00 0.  1.
          5    1    6    6  503    0 -0.12810127545E+02  0.30841115537E+02 -0.16044127652E+02  0.37346724186E+02  0.47000000000E+01 0. -1.
         -5    1    6    6    0  503 -0.61788911474E+01 -0.53734137244E+02 -0.84875611316E+02  0.10075463065E+03  0.47000000000E+01 0.  1.
<mgrwt>
<rscale>  0 0.10672385E+04</rscale>
<asrwt>0</asrwt>
<pdfrwt beam="1">  1        2 0.22308190E+00 0.10672385E+04</pdfrwt>
<pdfrwt beam="2">  1       -2 0.14324187E+00 0.10672385E+04</pdfrwt>
<totfact> 0.45172432E+00</totfact>
</mgrwt>
</event>
<event>
12    1  0.3166324E-008  0.1394453E+04  0.7818608E-02  0.8957843E-01
         -2   -1    0    0    0  501 -0.00000000000E+00  0.00000000000E+00  0.76441708973E+03  0.76441708973E+03  0.00000000000E+00 0.  1.
          2   -1    0    0  501    0  0.00000000000E+00 -0.00000000000E+00 -0.44552148111E+04  0.44552148111E+04  0.00000000000E+00 0. -1.
         23    2    1    2    0    0  0.97809513990E+03 -0.91106573573E+03 -0.34931865148E+04  0.37413207014E+04  0.91747947404E+02 0.  0.
    5000000    2    1    2    0    0 -0.97809513990E+03  0.91106573573E+03 -0.19761120649E+03  0.14783111994E+04  0.59970237263E+03 0.  0.
         23    2    4    4    0    0 -0.83411381375E+02  0.42272466111E+03 -0.33716361060E+02  0.44206084565E+03  0.92883801615E+02 0.  0.
         23    2    4    4    0    0 -0.89468375853E+03  0.48834107462E+03 -0.16389484543E+03  0.10362503537E+04  0.89539054549E+02 0.  0.
          4    1    3    3  502    0  0.21022117372E+03 -0.16252207864E+03 -0.77273254063E+03  0.81714255016E+03  0.00000000000E+00 0.  1.
         -4    1    3    3    0  502  0.76787396618E+03 -0.74854365708E+03 -0.27204539742E+04  0.29241781513E+04  0.00000000000E+00 0. -1.
         13    1    5    5    0    0 -0.37653160704E+02  0.13510728182E+03 -0.53598556425E+02  0.15014840446E+03  0.00000000000E+00 0.  1.
        -13    1    5    5    0    0 -0.45758220670E+02  0.28761737929E+03  0.19882195365E+02  0.29191244119E+03  0.00000000000E+00 0. -1.
          5    1    6    6  503    0 -0.45249985247E+03  0.25024598235E+03 -0.38142679231E+02  0.51851337702E+03  0.47000000000E+01 0. -1.
         -5    1    6    6    0  503 -0.44218390605E+03  0.23809509227E+03 -0.12575216620E+03  0.51773697669E+03  0.47000000000E+01 0.  1.
<mgrwt>
<rscale>  0 0.13944535E+04</rscale>
<asrwt>0</asrwt>
<pdfrwt beam="1">  1        2 0.68541769E+00 0.13944535E+04</pdfrwt>
<pdfrwt beam="2">  1       -2 0.11760263E+00 0.13944535E+04</pdfrwt>
<totfact> 0.75311742E-02</totfact>
</mgrwt>
</event>
<event>
12    1  0.3166324E-008  0.6028803E+03  0.7818608E-02  0.9899448E-01
         -2   -1    0    0    0  501 -0.00000000000E+00  0.00000000000E+00  0.28770050256E+03  0.28770050256E+03  0.00000000000E+00 0.  1.
          2   -1    0    0  501    0  0.00000000000E+00 -0.00000000000E+00 -0.24083255384E+04  0.24083255384E+04  0.00000000000E+00 0. -1.
         23    2    1    2    0    0  0.29003417444E+02  0.46015729281E+03 -0.18234716657E+04  0.18830563853E+04  0.90920306178E+02 0.  0.
    5000000    2    1    2    0    0 -0.29003417444E+02 -0.46015729281E+03 -0.29715337017E+03  0.81296965575E+03  0.60002800219E+03 0.  0.
         23    2    4    4    0    0  0.16348926989E+03  0.45622920376E+02 -0.84400914246E+01  0.19292032431E+03  0.91306210954E+02 0.  0.
         23    2    4    4    0    0 -0.19249268733E+03 -0.50578021318E+03 -0.28871327875E+03  0.62004933143E+03  0.90767600840E+02 0.  0.
          4    1    3    3  502    0  0.42283135870E+02  0.11151789311E+03 -0.39626410786E+03  0.41382284524E+03  0.00000000000E+00 0. -1.
         -4    1    3    3    0  502 -0.13279718426E+02  0.34863939970E+03 -0.14272075579E+04  0.14692335400E+04  0.00000000000E+00 0.  1.
         13    1    5    5    0    0  0.16700279246E+03  0.21527829352E+02 -0.75883369462E+01  0.16855551900E+03  0.00000000000E+00 0. -1.
        -13    1    5    5    0    0 -0.35135225779E+01  0.24095091024E+02 -0.85175447841E+00  0.24364805316E+02  0.00000000000E+00 0.  1.
          5    1    6    6  503    0 -0.15958662074E+02 -0.11296449380E+03 -0.91673266192E+02  0.14642996104E+03  0.47000000000E+01 0. -1.
         -5    1    6    6    0  503 -0.17653402526E+03 -0.39281571938E+03 -0.19704001256E+03  0.47361937040E+03  0.47000000000E+01 0.  1.
<mgrwt>
<rscale>  0 0.60288034E+03</rscale>
<asrwt>0</asrwt>
<pdfrwt beam="1">  1        2 0.37051161E+00 0.60288034E+03</pdfrwt>
<pdfrwt beam="2">  1       -2 0.44261617E-01 0.60288034E+03</pdfrwt>
<totfact> 0.20358868E+01</totfact>
</mgrwt>
</event>
<event>
12    1  0.3166324E-008  0.1339237E+04  0.7818608E-02  0.8999016E-01
          2   -1    0    0  501    0  0.00000000000E+00  0.00000000000E+00  0.11865088695E+04  0.11865088695E+04  0.00000000000E+00 0. -1.
         -2   -1    0    0    0  501 -0.00000000000E+00 -0.00000000000E+00 -0.15259895402E+04  0.15259895402E+04  0.00000000000E+00 0.  1.
         23    2    1    2    0    0 -0.76167045651E+03 -0.10251823564E+04 -0.13706316601E+03  0.12865753799E+04  0.73137873099E+02 0.  0.
    5000000    2    1    2    0    0  0.76167045651E+03  0.10251823564E+04 -0.20241750463E+03  0.14259230298E+04  0.60095165570E+03 0.  0.
         23    2    4    4    0    0 -0.20672729189E+02  0.38569009370E+03 -0.74975503272E+02  0.40384683849E+03  0.91031493215E+02 0.  0.
         23    2    4    4    0    0  0.78234318570E+03  0.63949226269E+03 -0.12744200136E+03  0.10220761913E+04  0.85948023981E+02 0.  0.
          4    1    3    3  502    0 -0.55196090629E+03 -0.68655388993E+03 -0.98448281928E+02  0.88640236352E+03  0.00000000000E+00 0. -1.
         -4    1    3    3    0  502 -0.20970955022E+03 -0.33862846647E+03 -0.38614884081E+02  0.40017301637E+03  0.00000000000E+00 0.  1.
         11    1    5    5    0    0 -0.32280420285E+02  0.22699314263E+03 -0.32312194921E+01  0.22929970152E+03  0.00000000000E+00 0.  1.
        -11    1    5    5    0    0  0.11607691096E+02  0.15869695107E+03 -0.71744283780E+02  0.17454713698E+03  0.00000000000E+00 0. -1.
          5    1    6    6  503    0  0.56371206173E+03  0.47594963397E+03 -0.12914777280E+03  0.74899971952E+03  0.47000000000E+01 0. -1.
         -5    1    6    6    0  503  0.21863112397E+03  0.16354262872E+03  0.17057714368E+01  0.27307647177E+03  0.47000000000E+01 0.  1.
<mgrwt>
<rscale>  0 0.13392372E+04</rscale>
<asrwt>0</asrwt>
<pdfrwt beam="1">  1        2 0.18253983E+00 0.13392372E+04</pdfrwt>
<pdfrwt beam="2">  1       -2 0.23476762E+00 0.13392372E+04</pdfrwt>
<totfact> 0.14763837E+00</totfact>
</mgrwt>
</event>
<event>
12    1  0.3166324E-008  0.1027377E+04  0.7818608E-02  0.9279018E-01
         -2   -1    0    0    0  501 -0.00000000000E+00  0.00000000000E+00  0.40566358693E+03  0.40566358693E+03  0.00000000000E+00 0.  1.
          2   -1    0    0  501    0  0.00000000000E+00 -0.00000000000E+00 -0.34636191841E+04  0.34636191841E+04  0.00000000000E+00 0. -1.
         23    2    1    2    0    0  0.39152188738E+03  0.85616232496E+03 -0.23862127889E+04  0.25663994757E+04  0.78047933331E+02 0.  0.
    5000000    2    1    2    0    0 -0.39152188738E+03 -0.85616232496E+03 -0.67174280819E+03  0.13028832953E+04  0.59996930400E+03 0.  0.
         23    2    4    4    0    0  0.92961867346E+02 -0.47538789381E+01 -0.10928911731E+03  0.16961494011E+03  0.90336086931E+02 0.  0.
         23    2    4    4    0    0 -0.48448375472E+03 -0.85140844602E+03 -0.56245369088E+03  0.11332683551E+04  0.91225872712E+02 0.  0.
          4    1    3    3  502    0  0.15645774798E+03  0.43103381891E+03 -0.11249251836E+04  0.12147945706E+04  0.00000000000E+00 0. -1.
         -4    1    3    3    0  502  0.23506413939E+03  0.42512850604E+03 -0.12612876053E+04  0.13516049052E+04  0.00000000000E+00 0.  1.
         13    1    5    5    0    0 -0.14595662000E+02  0.13944248063E+02 -0.12698231902E+02  0.23847861470E+02  0.00000000000E+00 0. -1.
        -13    1    5    5    0    0  0.10755752935E+03 -0.18698127001E+02 -0.96590885406E+02  0.14576707864E+03  0.00000000000E+00 0.  1.
          5    1    6    6  503    0 -0.72908017851E+02 -0.94208425511E+02 -0.41616382954E+02  0.12627279927E+03  0.47000000000E+01 0. -1.
         -5    1    6    6    0  503 -0.41157573687E+03 -0.75720002051E+03 -0.52083730793E+03  0.10069955559E+04  0.47000000000E+01 0.  1.
<mgrwt>
<rscale>  0 0.10273767E+04</rscale>
<asrwt>0</asrwt>
<pdfrwt beam="1">  1        2 0.53286449E+00 0.10273767E+04</pdfrwt>
<pdfrwt beam="2">  1       -2 0.62409782E-01 0.10273767E+04</pdfrwt>
<totfact> 0.21163780E+00</totfact>
</mgrwt>
</event>
<event>
12    1  0.3166324E-008  0.8757008E+03  0.7818608E-02  0.9456477E-01
         -1   -1    0    0    0  501 -0.00000000000E+00  0.00000000000E+00  0.93429624296E+03  0.93429624296E+03  0.00000000000E+00 0.  1.
          1   -1    0    0  501    0  0.00000000000E+00 -0.00000000000E+00 -0.11254925171E+04  0.11254925171E+04  0.00000000000E+00 0. -1.
         23    2    1    2    0    0 -0.53720138910E+03  0.57245627744E+03 -0.59779085673E+03  0.99122684545E+03  0.94261491144E+02 0.  0.
    5000000    2    1    2    0    0  0.53720138910E+03 -0.57245627744E+03  0.40659458263E+03  0.10685619146E+04  0.60017821407E+03 0.  0.
         23    2    4    4    0    0  0.73309359505E+01  0.92372014263E+02  0.25768087046E+02  0.13237822114E+03  0.90959702511E+02 0.  0.
         23    2    4    4    0    0  0.52987045315E+03 -0.66482829170E+03  0.38082649558E+03  0.93618369345E+03  0.93014695453E+02 0.  0.
          3    1    3    3  502    0 -0.47097736186E+03  0.46825137860E+03 -0.53435193213E+03  0.85241481470E+03  0.00000000000E+00 0. -1.
         -3    1    3    3    0  502 -0.66224027234E+02  0.10420489884E+03 -0.63438924601E+02  0.13881203075E+03  0.00000000000E+00 0.  1.
         13    1    5    5    0    0 -0.17484079305E+00 -0.10445539610E+02  0.27347467317E+02  0.29274969439E+02  0.00000000000E+00 0. -1.
        -13    1    5    5    0    0  0.75057767436E+01  0.10281755387E+03 -0.15793802703E+01  0.10310325170E+03  0.00000000000E+00 0.  1.
          5    1    6    6  503    0  0.32964599283E+03 -0.42073677217E+03  0.28754342297E+03  0.60695075759E+03  0.47000000000E+01 0. -1.
         -5    1    6    6    0  503  0.20022446032E+03 -0.24409151953E+03  0.93283072614E+02  0.32923293586E+03  0.47000000000E+01 0.  1.
<mgrwt>
<rscale>  0 0.87570083E+03</rscale>
<asrwt>0</asrwt>
<pdfrwt beam="1">  1        1 0.17315269E+00 0.87570083E+03</pdfrwt>
<pdfrwt beam="2">  1       -1 0.14373788E+00 0.87570083E+03</pdfrwt>
<totfact> 0.48330723E+00</totfact>
</mgrwt>
</event>
<event>
12    1  0.3166324E-008  0.6518734E+03  0.7818608E-02  0.9803270E-01
          1   -1    0    0  501    0  0.00000000000E+00  0.00000000000E+00  0.14332078929E+04  0.14332078929E+04  0.00000000000E+00 0. -1.
         -1   -1    0    0    0  501 -0.00000000000E+00 -0.00000000000E+00 -0.45683255811E+03  0.45683255811E+03  0.00000000000E+00 0.  1.
         23    2    1    2    0    0  0.57545719621E+03 -0.22412957188E+03  0.51055473021E+02  0.62612003907E+03  0.89635887560E+02 0.  0.
    5000000    2    1    2    0    0 -0.57545719621E+03  0.22412957188E+03  0.92531986182E+03  0.12639204120E+04  0.59991075293E+03 0.  0.
         23    2    4    4    0    0 -0.33367555367E+03  0.27010224976E+03  0.18013557701E+03  0.47401510189E+03  0.89145332328E+02 0.  0.
         23    2    4    4    0    0 -0.24178164255E+03 -0.45972677881E+02  0.74518428481E+03  0.78990531009E+03  0.89882872667E+02 0.  0.
          4    1    3    3  502    0  0.15630485202E+03 -0.64382345951E+02  0.54281184549E+02  0.17754644528E+03  0.00000000000E+00 0.  1.
         -4    1    3    3    0  502  0.41915234419E+03 -0.15974722593E+03 -0.32257115278E+01  0.44857359379E+03  0.00000000000E+00 0. -1.
         11    1    5    5    0    0 -0.25790536396E+03  0.16005471104E+03  0.10799263026E+03  0.32217246231E+03  0.00000000000E+00 0. -1.
        -11    1    5    5    0    0 -0.75770189709E+02  0.11004753873E+03  0.72142946755E+02  0.15184263958E+03  0.00000000000E+00 0.  1.
          5    1    6    6  503    0 -0.76853055067E+02 -0.32094404080E+02  0.14482271566E+03  0.16712914712E+03  0.47000000000E+01 0. -1.
         -5    1    6    6    0  503 -0.16492858748E+03 -0.13878273800E+02  0.60036156914E+03  0.62277616296E+03  0.47000000000E+01 0.  1.
<mgrwt>
<rscale>  0 0.65187336E+03</rscale>
<asrwt>0</asrwt>
<pdfrwt beam="1">  1        1 0.22049352E+00 0.65187336E+03</pdfrwt>
<pdfrwt beam="2">  1       -1 0.70281933E-01 0.65187336E+03</pdfrwt>
<totfact> 0.15650336E+01</totfact>
</mgrwt>
</event>
<event>
12    1  0.3166324E-008  0.1812896E+04  0.7818608E-02  0.8699471E-01
          2   -1    0    0  501    0  0.00000000000E+00  0.00000000000E+00  0.12635524189E+04  0.12635524189E+04  0.00000000000E+00 0. -1.
         -2   -1    0    0    0  501 -0.00000000000E+00 -0.00000000000E+00 -0.28042473829E+04  0.28042473829E+04  0.00000000000E+00 0.  1.
         23    2    1    2    0    0  0.33255891247E+03  0.17727106124E+04 -0.11062121456E+04  0.21179171619E+04  0.93645332207E+02 0.  0.
    5000000    2    1    2    0    0 -0.33255891247E+03 -0.17727106124E+04 -0.43448281832E+03  0.19498826398E+04  0.60014052045E+03 0.  0.
         23    2    4    4    0    0 -0.19264472243E+03 -0.57577702780E+03  0.11136253404E+03  0.62390506466E+03  0.90690357305E+02 0.  0.
         23    2    4    4    0    0 -0.13991419004E+03 -0.11969335846E+04 -0.54584535236E+03  0.13259775752E+04  0.89684975020E+02 0.  0.
          3    1    3    3  502    0  0.29755869826E+03  0.15552286696E+04 -0.10054213964E+04  0.18756731000E+04  0.00000000000E+00 0. -1.
         -3    1    3    3    0  502  0.35000214213E+02  0.21748194276E+03 -0.10079074923E+03  0.24224406196E+03  0.00000000000E+00 0.  1.
         11    1    5    5    0    0 -0.61163234939E+02 -0.32511325032E+03  0.62197913186E+02  0.33661275562E+03  0.00000000000E+00 0. -1.
        -11    1    5    5    0    0 -0.13148148749E+03 -0.25066377747E+03  0.49164620850E+02  0.28729230904E+03  0.00000000000E+00 0.  1.
          5    1    6    6  503    0  0.25052668157E+01 -0.29779254016E+03 -0.14534620217E+03  0.33141255532E+03  0.47000000000E+01 0. -1.
         -5    1    6    6    0  503 -0.14241945686E+03 -0.89914104440E+03 -0.40049915019E+03  0.99456501986E+03  0.47000000000E+01 0.  1.
<mgrwt>
<rscale>  0 0.18128961E+04</rscale>
<asrwt>0</asrwt>
<pdfrwt beam="1">  1        2 0.19439268E+00 0.18128961E+04</pdfrwt>
<pdfrwt beam="2">  1       -2 0.43142267E+00 0.18128961E+04</pdfrwt>
<totfact> 0.73028272E-02</totfact>
</mgrwt>
</event>
<event>
12    1  0.3166324E-008  0.1004414E+04  0.7818608E-02  0.9303717E-01
          1   -1    0    0  501    0  0.00000000000E+00  0.00000000000E+00  0.11130636690E+04  0.11130636690E+04  0.00000000000E+00 0. -1.
         -1   -1    0    0    0  501 -0.00000000000E+00 -0.00000000000E+00 -0.98691266671E+03  0.98691266671E+03  0.00000000000E+00 0.  1.
         23    2    1    2    0    0  0.56263368051E+03  0.76128885273E+03  0.21728416254E+03  0.97545905672E+03  0.90501869069E+02 0.  0.
    5000000    2    1    2    0    0 -0.56263368051E+03 -0.76128885273E+03 -0.91133160206E+02  0.11245172790E+04  0.60009706065E+03 0.  0.
         23    2    4    4    0    0  0.56826296097E+02 -0.23879844737E+03  0.11296399411E+03  0.28390350933E+03  0.87100012921E+02 0.  0.
         23    2    4    4    0    0 -0.61945997661E+03 -0.52249040537E+03 -0.20409715431E+03  0.84061376970E+03  0.90823868529E+02 0.  0.
          1    1    3    3  502    0  0.31734797503E+03  0.37829601538E+03  0.78728198185E+02  0.50001574145E+03  0.00000000000E+00 0. -1.
         -1    1    3    3    0  502  0.24528570548E+03  0.38299283735E+03  0.13855596435E+03  0.47544331527E+03  0.00000000000E+00 0.  1.
         13    1    5    5    0    0  0.57638200796E+02 -0.14575235069E+03  0.10873167849E+03  0.19075766781E+03  0.00000000000E+00 0.  1.
        -13    1    5    5    0    0 -0.81190469908E+00 -0.93046096678E+02  0.42323156206E+01  0.93145841516E+02  0.00000000000E+00 0. -1.
          5    1    6    6  503    0 -0.31868650710E+03 -0.27216699147E+03 -0.15196119744E+03  0.44581415027E+03  0.47000000000E+01 0. -1.
         -5    1    6    6    0  503 -0.30077346950E+03 -0.25032341390E+03 -0.52135956872E+02  0.39479961943E+03  0.47000000000E+01 0.  1.
<mgrwt>
<rscale>  0 0.10044138E+04</rscale>
<asrwt>0</asrwt>
<pdfrwt beam="1">  1        1 0.17124057E+00 0.10044138E+04</pdfrwt>
<pdfrwt beam="2">  1       -1 0.15183272E+00 0.10044138E+04</pdfrwt>
<totfact> 0.41951838E+00</totfact>
</mgrwt>
</event>
<event>
12    1  0.3166324E-008  0.1255892E+04  0.7818608E-02  0.9065294E-01
         -2   -1    0    0    0  501 -0.00000000000E+00  0.00000000000E+00  0.11946054045E+04  0.11946054045E+04  0.00000000000E+00 0.  1.
          2   -1    0    0  501    0  0.00000000000E+00 -0.00000000000E+00 -0.14288715873E+04  0.14288715873E+04  0.00000000000E+00 0. -1.
         23    2    1    2    0    0  0.50960216645E+03 -0.10816760701E+04  0.20302199774E+03  0.12160216303E+04  0.88165668456E+02 0.  0.
    5000000    2    1    2    0    0 -0.50960216645E+03  0.10816760701E+04 -0.43728818054E+03  0.14074553615E+04  0.59999346091E+03 0.  0.
         23    2    4    4    0    0  0.52748201028E+02  0.50575823755E+03 -0.80876242783E+02  0.52282802268E+03  0.90743633862E+02 0.  0.
         23    2    4    4    0    0 -0.56235036747E+03  0.57591783251E+03 -0.35641193776E+03  0.88462733881E+03  0.87274128968E+02 0.  0.
          1    1    3    3  502    0  0.39225608900E+03 -0.88245778546E+03  0.19157094621E+03  0.98452831849E+03  0.00000000000E+00 0. -1.
         -1    1    3    3    0  502  0.11734607745E+03 -0.19921828460E+03  0.11451051533E+02  0.23149331176E+03  0.00000000000E+00 0.  1.
         11    1    5    5    0    0  0.30555458408E+02  0.14745015376E+03 -0.63467482291E+02  0.16341145979E+03  0.00000000000E+00 0. -1.
        -11    1    5    5    0    0  0.22192742620E+02  0.35830808380E+03 -0.17408760492E+02  0.35941656289E+03  0.00000000000E+00 0.  1.
          5    1    6    6  503    0 -0.60740948164E+02  0.54440347906E+02 -0.65647562789E+02  0.10480890594E+03  0.47000000000E+01 0. -1.
         -5    1    6    6    0  503 -0.50160941931E+03  0.52147748460E+03 -0.29076437497E+03  0.77981843287E+03  0.47000000000E+01 0.  1.
<mgrwt>
<rscale>  0 0.12558919E+04</rscale>
<asrwt>0</asrwt>
<pdfrwt beam="1">  1        2 0.21982640E+00 0.12558919E+04</pdfrwt>
<pdfrwt beam="2">  1       -2 0.18378545E+00 0.12558919E+04</pdfrwt>
<totfact> 0.22957896E+00</totfact>
</mgrwt>
</event>
<event>
12    1  0.3166324E-008  0.1170284E+04  0.7818608E-02  0.9139272E-01
         -2   -1    0    0    0  501 -0.00000000000E+00  0.00000000000E+00  0.21879322194E+04  0.21879322194E+04  0.00000000000E+00 0.  1.
          2   -1    0    0  501    0  0.00000000000E+00 -0.00000000000E+00 -0.11362530774E+04  0.11362530774E+04  0.00000000000E+00 0. -1.
         23    2    1    2    0    0  0.10095729121E+04  0.43873290226E+03  0.16095020301E+04  0.19520044335E+04  0.90002772542E+02 0.  0.
    5000000    2    1    2    0    0 -0.10095729121E+04 -0.43873290226E+03 -0.55782288818E+03  0.13721808633E+04  0.59999160228E+03 0.  0.
         23    2    4    4    0    0 -0.10284547761E+04 -0.49172568629E+03 -0.46915218548E+03  0.12362233865E+04  0.92903772739E+02 0.  0.
         23    2    4    4    0    0  0.18881864076E+02  0.52992784034E+02 -0.88670702699E+02  0.13595747686E+03  0.86354976959E+02 0.  0.
          2    1    3    3  502    0  0.30854810439E+03  0.17894937861E+03  0.53544059902E+03  0.64336727295E+03  0.00000000000E+00 0. -1.
         -2    1    3    3    0  502  0.70102480768E+03  0.25978352364E+03  0.10740614311E+04  0.13086371605E+04  0.00000000000E+00 0.  1.
         13    1    5    5    0    0 -0.65096970446E+03 -0.31128090730E+03 -0.24813738275E+03  0.76303965827E+03  0.00000000000E+00 0.  1.
        -13    1    5    5    0    0 -0.37748507169E+03 -0.18044477899E+03 -0.22101480274E+03  0.47318372821E+03  0.00000000000E+00 0. -1.
          5    1    6    6  503    0 -0.30092551824E+02  0.13953930521E+02 -0.55761757543E+02  0.65051805944E+02  0.47000000000E+01 0. -1.
         -5    1    6    6    0  503  0.48974415900E+02  0.39038853514E+02 -0.32908945156E+02  0.70905670914E+02  0.47000000000E+01 0.  1.
<mgrwt>
<rscale>  0 0.11702837E+04</rscale>
<asrwt>0</asrwt>
<pdfrwt beam="1">  1        2 0.17480817E+00 0.11702837E+04</pdfrwt>
<pdfrwt beam="2">  1       -2 0.33660496E+00 0.11702837E+04</pdfrwt>
<totfact> 0.38469769E-01</totfact>
</mgrwt>
</event>
<event>
12    1  0.3166324E-008  0.9757117E+03  0.7818608E-02  0.9335592E-01
         -1   -1    0    0    0  501 -0.00000000000E+00  0.00000000000E+00  0.41354959649E+03  0.41354959649E+03  0.00000000000E+00 0.  1.
          1   -1    0    0  501    0  0.00000000000E+00 -0.00000000000E+00 -0.24043809074E+04  0.24043809074E+04  0.00000000000E+00 0. -1.
         23    2    1    2    0    0 -0.88746994417E+03  0.17393663916E+03 -0.91853619316E+03  0.12922318275E+04  0.91090622554E+02 0.  0.
    5000000    2    1    2    0    0  0.88746994417E+03 -0.17393663916E+03 -0.10722951178E+04  0.15256986765E+04  0.60006897562E+03 0.  0.
         23    2    4    4    0    0 -0.37974743357E+02 -0.91272228691E+01 -0.26614415846E+03  0.28400486363E+03  0.91107969753E+02 0.  0.
         23    2    4    4    0    0  0.92544468753E+03 -0.16480941629E+03 -0.80615095933E+03  0.12416938128E+04  0.91181918461E+02 0.  0.
          2    1    3    3  502    0 -0.38903375185E+03  0.31271710157E+02 -0.40761126672E+03  0.56433334537E+03  0.00000000000E+00 0. -1.
         -2    1    3    3    0  502 -0.49843619232E+03  0.14266492901E+03 -0.51092492643E+03  0.72789848209E+03  0.00000000000E+00 0.  1.
         11    1    5    5    0    0  0.29001898706E+02  0.74937638604E+01 -0.73229859694E+02  0.79119396965E+02  0.00000000000E+00 0.  1.
        -11    1    5    5    0    0 -0.66976642063E+02 -0.16620986729E+02 -0.19291429876E+03  0.20488546666E+03  0.00000000000E+00 0. -1.
          5    1    6    6  503    0  0.73054727532E+03 -0.16409812655E+03 -0.65857806779E+03  0.99718337230E+03  0.47000000000E+01 0. -1.
         -5    1    6    6    0  503  0.19489741221E+03 -0.71128974627E+00 -0.14757289154E+03  0.24451044055E+03  0.47000000000E+01 0. -1.
<mgrwt>
<rscale>  0 0.97571170E+03</rscale>
<asrwt>0</asrwt>
<pdfrwt beam="1">  1        1 0.36990475E+00 0.97571170E+03</pdfrwt>
<pdfrwt beam="2">  1       -1 0.63623015E-01 0.97571170E+03</pdfrwt>
<totfact> 0.40346233E+00</totfact>
</mgrwt>
</event>
<event>
12    1  0.3166324E-008  0.1003292E+04  0.7818608E-02  0.9304942E-01
          1   -1    0    0  501    0  0.00000000000E+00  0.00000000000E+00  0.13294698460E+04  0.13294698460E+04  0.00000000000E+00 0. -1.
         -1   -1    0    0    0  501 -0.00000000000E+00 -0.00000000000E+00 -0.85999169247E+03  0.85999169247E+03  0.00000000000E+00 0.  1.
         23    2    1    2    0    0 -0.63717225724E+03  0.73437679022E+03  0.36377807169E+03  0.10420588383E+04  0.90853627113E+02 0.  0.
    5000000    2    1    2    0    0  0.63717225724E+03 -0.73437679022E+03  0.10570008185E+03  0.11474027002E+04  0.60005224250E+03 0.  0.
         23    2    4    4    0    0  0.66619147947E+03 -0.62736389304E+03  0.23982771848E+03  0.95016830416E+03  0.88915297145E+02 0.  0.
         23    2    4    4    0    0 -0.29019222228E+02 -0.10701289718E+03 -0.13412763663E+03  0.19723439605E+03  0.92829460058E+02 0.  0.
          4    1    3    3  502    0 -0.11411493249E+03  0.14144194371E+03  0.10619330017E+03  0.21048766772E+03  0.00000000000E+00 0. -1.
         -4    1    3    3    0  502 -0.52305732475E+03  0.59293484651E+03  0.25758477151E+03  0.83157117055E+03  0.00000000000E+00 0.  1.
         11    1    5    5    0    0  0.36761053119E+03 -0.32740984424E+03  0.17246442802E+03  0.52161162533E+03  0.00000000000E+00 0. -1.
        -11    1    5    5    0    0  0.29858094828E+03 -0.29995404880E+03  0.67363290466E+02  0.42855667883E+03  0.00000000000E+00 0.  1.
          5    1    6    6  503    0 -0.29304258501E+02 -0.32505319829E+02 -0.32969731432E+00  0.44017429318E+02  0.47000000000E+01 0. -1.
         -5    1    6    6    0  503  0.28503627332E+00 -0.74507577356E+02 -0.13379793932E+03  0.15321696673E+03  0.47000000000E+01 0.  1.
<mgrwt>
<rscale>  0 0.10032920E+04</rscale>
<asrwt>0</asrwt>
<pdfrwt beam="1">  1        1 0.20453382E+00 0.10032920E+04</pdfrwt>
<pdfrwt beam="2">  1       -1 0.13230641E+00 0.10032920E+04</pdfrwt>
<totfact> 0.41951578E+00</totfact>
</mgrwt>
</event>
<event>
12    1  0.3166324E-008  0.5034218E+03  0.7818608E-02  0.1012890E+00
         -1   -1    0    0    0  501 -0.00000000000E+00  0.00000000000E+00  0.46053229752E+03  0.46053229752E+03  0.00000000000E+00 0.  1.
          1   -1    0    0  501    0  0.00000000000E+00 -0.00000000000E+00 -0.22234118557E+04  0.22234118557E+04  0.00000000000E+00 0. -1.
         23    2    1    2    0    0 -0.29123272101E+03  0.38073899799E+03  0.23689437163E+03  0.54180666992E+03  0.87503382127E+02 0.  0.
    5000000    2    1    2    0    0  0.29123272101E+03 -0.38073899799E+03 -0.19997739298E+04  0.21421374833E+04  0.59989877867E+03 0.  0.
         23    2    4    4    0    0  0.37758399991E+02 -0.18239539597E+03 -0.16300663645E+04  0.16431221414E+04  0.89667395063E+02 0.  0.
         23    2    4    4    0    0  0.25347432102E+03 -0.19834360202E+03 -0.36970756530E+03  0.49901534187E+03  0.93505142626E+02 0.  0.
          1    1    3    3  502    0 -0.97075115034E+02  0.13620908027E+03  0.12978550250E+03  0.21170915938E+03  0.00000000000E+00 0. -1.
         -1    1    3    3    0  502 -0.19415760598E+03  0.24452991772E+03  0.10710886913E+03  0.33009751054E+03  0.00000000000E+00 0.  1.
         11    1    5    5    0    0 -0.26979942004E+02 -0.41505616240E+02 -0.50526380985E+03  0.50768312065E+03  0.00000000000E+00 0.  1.
        -11    1    5    5    0    0  0.64738341995E+02 -0.14088977973E+03 -0.11248025547E+04  0.11354390208E+04  0.00000000000E+00 0. -1.
          5    1    6    6  503    0  0.18691989127E+03 -0.15818544046E+03 -0.33181119383E+03  0.41241052081E+03  0.47000000000E+01 0. -1.
         -5    1    6    6    0  503  0.66554429746E+02 -0.40158161561E+02 -0.37896371473E+02  0.86604821052E+02  0.47000000000E+01 0.  1.
<mgrwt>
<rscale>  0 0.50342177E+03</rscale>
<asrwt>0</asrwt>
<pdfrwt beam="1">  1        1 0.34206336E+00 0.50342177E+03</pdfrwt>
<pdfrwt beam="2">  1       -1 0.70851124E-01 0.50342177E+03</pdfrwt>
<totfact> 0.47064790E+00</totfact>
</mgrwt>
</event>
<event>
12    1  0.3166324E-008  0.3457677E+03  0.7818608E-02  0.1064366E+00
          2   -1    0    0  501    0  0.00000000000E+00  0.00000000000E+00  0.78449667964E+03  0.78449667964E+03  0.00000000000E+00 0.  1.
         -2   -1    0    0    0  501 -0.00000000000E+00 -0.00000000000E+00 -0.29938250807E+03  0.29938250807E+03  0.00000000000E+00 0. -1.
         23    2    1    2    0    0  0.16637248666E+03 -0.17034540957E+03 -0.31672592376E+02  0.25684600710E+03  0.90935996060E+02 0.  0.
    5000000    2    1    2    0    0 -0.16637248666E+03  0.17034540957E+03  0.51678676395E+03  0.82703318061E+03  0.60018160548E+03 0.  0.
         23    2    4    4    0    0  0.10236315686E+03  0.88743953753E+02 -0.63960836179E+02  0.17538820310E+03  0.91193903366E+02 0.  0.
         23    2    4    4    0    0 -0.26873564352E+03  0.81601455816E+02  0.58074760013E+03  0.65164497751E+03  0.92172436049E+02 0.  0.
          4    1    3    3  502    0  0.10762205847E+03 -0.47177272871E+02 -0.25504264019E+02  0.12024420995E+03  0.00000000000E+00 0. -1.
         -4    1    3    3    0  502  0.58750428193E+02 -0.12316813670E+03 -0.61683283568E+01  0.13660179715E+03  0.00000000000E+00 0.  1.
         13    1    5    5    0    0  0.52920383094E+02  0.14828528906E+02 -0.66691646220E+02  0.86418909342E+02  0.00000000000E+00 0. -1.
        -13    1    5    5    0    0  0.49442773770E+02  0.73915424847E+02  0.27308100411E+01  0.88969293758E+02  0.00000000000E+00 0.  1.
          5    1    6    6  503    0 -0.20768180274E+03  0.23143066316E+02  0.37819131618E+03  0.43210889177E+03  0.47000000000E+01 0. -1.
         -5    1    6    6    0  503 -0.61053840782E+02  0.58458389500E+02  0.20255628394E+03  0.21953608574E+03  0.47000000000E+01 0.  1.
<mgrwt>
<rscale>  0 0.34576767E+03</rscale>
<asrwt>0</asrwt>
<pdfrwt beam="1">  1        2 0.12069180E+00 0.34576767E+03</pdfrwt>
<pdfrwt beam="2">  1       -2 0.46058848E-01 0.34576767E+03</pdfrwt>
<totfact> 0.16479567E+02</totfact>
</mgrwt>
</event>
<event>
12    1  0.3166324E-008  0.7118008E+03  0.7818608E-02  0.9697261E-01
          2   -1    0    0  501    0  0.00000000000E+00  0.00000000000E+00  0.21719118292E+04  0.21719118292E+04  0.00000000000E+00 0. -1.
         -2   -1    0    0    0  501 -0.00000000000E+00 -0.00000000000E+00 -0.53309973911E+03  0.53309973911E+03  0.00000000000E+00 0.  1.
         23    2    1    2    0    0  0.19247265023E+02 -0.59136138294E+03  0.17551307415E+04  0.18544207418E+04  0.91179082593E+02 0.  0.
    5000000    2    1    2    0    0 -0.19247265023E+02  0.59136138294E+03 -0.11631865148E+03  0.85059082653E+03  0.59991331294E+03 0.  0.
         23    2    4    4    0    0  0.26990323275E+03  0.25102125933E+03 -0.10708930736E+03  0.39487253445E+03  0.92718773870E+02 0.  0.
         23    2    4    4    0    0 -0.28915049777E+03  0.34034012361E+03 -0.92293441222E+01  0.45571829208E+03  0.90302662423E+02 0.  0.
          1    1    3    3  502    0  0.50833933908E+02 -0.21457529270E+03  0.63668146505E+03  0.67378775071E+03  0.00000000000E+00 0. -1.
         -1    1    3    3    0  502 -0.31586668885E+02 -0.37678609024E+03  0.11184492765E+04  0.11806329910E+04  0.00000000000E+00 0.  1.
         11    1    5    5    0    0  0.16959207529E+03  0.99808792299E+02 -0.36345832958E+02  0.20011068586E+03  0.00000000000E+00 0. -1.
        -11    1    5    5    0    0  0.10031115746E+03  0.15121246703E+03 -0.70743474404E+02  0.19476184860E+03  0.00000000000E+00 0.  1.
          5    1    6    6  503    0 -0.99697198963E+02  0.12191118979E+03 -0.46183176760E+02  0.16418539975E+03  0.47000000000E+01 0. -1.
         -5    1    6    6    0  503 -0.18945329881E+03  0.21842893382E+03  0.36953832638E+02  0.29153289232E+03  0.47000000000E+01 0.  1.
<mgrwt>
<rscale>  0 0.71180077E+03</rscale>
<asrwt>0</asrwt>
<pdfrwt beam="1">  1        2 0.33414028E+00 0.71180077E+03</pdfrwt>
<pdfrwt beam="2">  1       -2 0.82015346E-01 0.71180077E+03</pdfrwt>
<totfact> 0.73252374E+00</totfact>
</mgrwt>
</event>
<event>
12    1  0.3166324E-008  0.1122060E+04  0.7818608E-02  0.9183953E-01
          2   -1    0    0  501    0  0.00000000000E+00  0.00000000000E+00  0.31596352420E+04  0.31596352420E+04  0.00000000000E+00 0. -1.
         -2   -1    0    0    0  501 -0.00000000000E+00 -0.00000000000E+00 -0.43597247464E+03  0.43597247464E+03  0.00000000000E+00 0.  1.
         23    2    1    2    0    0  0.10761713606E+04 -0.13317958534E+03  0.14891224900E+04  0.18463082042E+04  0.12444515075E+03 0.  0.
    5000000    2    1    2    0    0 -0.10761713606E+04  0.13317958534E+03  0.12345402774E+04  0.17492995124E+04  0.60006456999E+03 0.  0.
         23    2    4    4    0    0 -0.10835292289E+04  0.16403114672E+03  0.96404944071E+03  0.14624087784E+04  0.91138926657E+02 0.  0.
         23    2    4    4    0    0  0.73578682760E+01 -0.30851561380E+02  0.27049083668E+03  0.28689073401E+03  0.90194475834E+02 0.  0.
          1    1    3    3  502    0  0.41947678668E+03 -0.30897041346E+02  0.48274737749E+03  0.64028152574E+03  0.00000000000E+00 0. -1.
         -1    1    3    3    0  502  0.65669457395E+03 -0.10228254399E+03  0.10063751125E+04  0.12060266785E+04  0.00000000000E+00 0.  1.
         11    1    5    5    0    0 -0.60723684001E+03  0.11115394793E+03  0.59693905802E+03  0.85873629188E+03  0.00000000000E+00 0. -1.
        -11    1    5    5    0    0 -0.47629238889E+03  0.52877198788E+02  0.36711038269E+03  0.60367248650E+03  0.00000000000E+00 0.  1.
          5    1    6    6  503    0 -0.21886364291E+02 -0.47772243441E+01  0.22705702747E+03  0.22820784065E+03  0.47000000000E+01 0. -1.
         -5    1    6    6    0  503  0.29244232567E+02 -0.26074337036E+02  0.43433809210E+02  0.58682893357E+02  0.47000000000E+01 0.  1.
<mgrwt>
<rscale>  0 0.11220604E+04</rscale>
<asrwt>0</asrwt>
<pdfrwt beam="1">  1        2 0.48609771E+00 0.11220604E+04</pdfrwt>
<pdfrwt beam="2">  1       -2 0.67072690E-01 0.11220604E+04</pdfrwt>
<totfact> 0.28344176E+00</totfact>
</mgrwt>
</event>
<event>
12    1  0.3166324E-008  0.5788313E+03  0.7818608E-02  0.9950324E-01
         -2   -1    0    0    0  501 -0.00000000000E+00  0.00000000000E+00  0.86966262574E+03  0.86966262574E+03  0.00000000000E+00 0.  1.
          2   -1    0    0  501    0  0.00000000000E+00 -0.00000000000E+00 -0.58961641354E+03  0.58961641354E+03  0.00000000000E+00 0. -1.
         23    2    1    2    0    0 -0.44962066948E+03  0.24154452336E+03 -0.17798472252E+03  0.54811800570E+03  0.90842080159E+02 0.  0.
    5000000    2    1    2    0    0  0.44962066948E+03 -0.24154452336E+03  0.45803093471E+03  0.91116103358E+03  0.59993298690E+03 0.  0.
         23    2    4    4    0    0  0.30824698764E+03  0.49425785627E+02 -0.21057131159E+02  0.32622023371E+03  0.92288268137E+02 0.  0.
         23    2    4    4    0    0  0.14137368185E+03 -0.29097030899E+03  0.47908806587E+03  0.58494079988E+03  0.89331550214E+02 0.  0.
          1    1    3    3  502    0 -0.40369240669E+03  0.18127277101E+03 -0.14785173027E+03  0.46656994210E+03  0.00000000000E+00 0. -1.
         -1    1    3    3    0  502 -0.45928262799E+02  0.60271752352E+02 -0.30132992249E+02  0.81548063602E+02  0.00000000000E+00 0.  1.
         11    1    5    5    0    0  0.14925821321E+03  0.13956588641E+02  0.35011931460E+02  0.15394361280E+03  0.00000000000E+00 0.  1.
        -11    1    5    5    0    0  0.15898877442E+03  0.35469196987E+02 -0.56069062619E+02  0.17227662090E+03  0.00000000000E+00 0. -1.
          5    1    6    6  503    0  0.14256716436E+03 -0.28607009576E+03  0.43230987209E+03  0.53765733656E+03  0.47000000000E+01 0. -1.
         -5    1    6    6    0  503 -0.11934825132E+01 -0.49002132285E+01  0.46778193779E+02  0.47283463318E+02  0.47000000000E+01 0.  1.
<mgrwt>
<rscale>  0 0.57883128E+03</rscale>
<asrwt>0</asrwt>
<pdfrwt beam="1">  1        2 0.90710217E-01 0.57883128E+03</pdfrwt>
<pdfrwt beam="2">  1       -2 0.13379425E+00 0.57883128E+03</pdfrwt>
<totfact> 0.21082106E+01</totfact>
</mgrwt>
</event>
<event>
12    1  0.3166324E-008  0.1256336E+04  0.7818608E-02  0.9064927E-01
         -2   -1    0    0    0  501 -0.00000000000E+00  0.00000000000E+00  0.12846186597E+04  0.12846186597E+04  0.00000000000E+00 0. -1.
          2   -1    0    0  501    0  0.00000000000E+00 -0.00000000000E+00 -0.12750868514E+04  0.12750868514E+04  0.00000000000E+00 0.  1.
         23    2    1    2    0    0  0.10935112738E+04  0.51028320117E+03  0.52956880169E+02  0.12113414889E+04  0.91585589179E+02 0.  0.
    5000000    2    1    2    0    0 -0.10935112738E+04 -0.51028320117E+03 -0.43425071858E+02  0.13483640222E+04  0.60003662231E+03 0.  0.
         23    2    4    4    0    0 -0.10015757013E+04 -0.27663603224E+03  0.95750713154E+02  0.10471928115E+04  0.88109055694E+02 0.  0.
         23    2    4    4    0    0 -0.91935572541E+02 -0.23364716893E+03 -0.13917578501E+03  0.30117121067E+03  0.91055202807E+02 0.  0.
          4    1    3    3  502    0  0.86165274896E+03  0.36003375297E+03  0.45571356251E+02  0.93495802664E+03  0.00000000000E+00 0. -1.
         -4    1    3    3    0  502  0.23185852488E+03  0.15024944820E+03  0.73855239182E+01  0.27638346225E+03  0.00000000000E+00 0.  1.
         13    1    5    5    0    0 -0.63321218552E+03 -0.18812926538E+03  0.20145808312E+02  0.66087528777E+03  0.00000000000E+00 0. -1.
        -13    1    5    5    0    0 -0.36836351577E+03 -0.88506766860E+02  0.75604904842E+02  0.38631752377E+03  0.00000000000E+00 0.  1.
          5    1    6    6  503    0 -0.92393788547E+02 -0.13102624334E+03 -0.10961528502E+03  0.19427323366E+03  0.47000000000E+01 0. -1.
         -5    1    6    6    0  503  0.45821600632E+00 -0.10262092559E+03 -0.29560499995E+02  0.10689797702E+03  0.47000000000E+01 0.  1.
<mgrwt>
<rscale>  0 0.12563357E+04</rscale>
<asrwt>0</asrwt>
<pdfrwt beam="1">  1        2 0.19616721E+00 0.12563357E+04</pdfrwt>
<pdfrwt beam="2">  1       -2 0.19763364E+00 0.12563357E+04</pdfrwt>
<totfact> 0.22751665E+00</totfact>
</mgrwt>
</event>
<event>
12    1  0.3166324E-008  0.4983801E+03  0.7818608E-02  0.1014203E+00
          1   -1    0    0  501    0  0.00000000000E+00  0.00000000000E+00  0.34231958793E+03  0.34231958793E+03  0.00000000000E+00 0. -1.
         -1   -1    0    0    0  501 -0.00000000000E+00 -0.00000000000E+00 -0.10926223729E+04  0.10926223729E+04  0.00000000000E+00 0.  1.
         23    2    1    2    0    0  0.37814727204E+03  0.15326579781E+03 -0.41738639164E+02  0.42078913003E+03  0.93997945858E+02 0.  0.
    5000000    2    1    2    0    0 -0.37814727204E+03 -0.15326579781E+03 -0.70856414585E+03  0.10141528308E+04  0.59996420843E+03 0.  0.
         23    2    4    4    0    0  0.65366386720E+02 -0.10072967662E+02  0.52346802568E+02  0.11742051037E+03  0.81689407675E+02 0.  0.
         23    2    4    4    0    0 -0.44351365876E+03 -0.14319283015E+03 -0.76091094842E+03  0.89673232047E+03  0.89077668633E+02 0.  0.
          1    1    3    3  502    0  0.98704384560E+02  0.85262320597E+02 -0.19006967517E+01  0.13044474498E+03  0.00000000000E+00 0. -1.
         -1    1    3    3    0  502  0.27944288748E+03  0.68003477215E+02 -0.39837942412E+02  0.29034438505E+03  0.00000000000E+00 0.  1.
         11    1    5    5    0    0 -0.82863722586E+01 -0.27600918550E+02  0.20067968043E+02  0.35116919162E+02  0.00000000000E+00 0. -1.
        -11    1    5    5    0    0  0.73652758979E+02  0.17527950889E+02  0.32278834525E+02  0.82303591209E+02  0.00000000000E+00 0.  1.
          5    1    6    6  503    0 -0.22973829056E+03 -0.11968657065E+03 -0.40010026304E+03  0.47666221565E+03  0.47000000000E+01 0. -1.
         -5    1    6    6    0  503 -0.21377536820E+03 -0.23506259498E+02 -0.36081068537E+03  0.42007010482E+03  0.47000000000E+01 0.  1.
<mgrwt>
<rscale>  0 0.49838009E+03</rscale>
<asrwt>0</asrwt>
<pdfrwt beam="1">  1        1 0.52664552E-01 0.49838009E+03</pdfrwt>
<pdfrwt beam="2">  1       -1 0.16809575E+00 0.49838009E+03</pdfrwt>
<totfact> 0.19853967E+01</totfact>
</mgrwt>
</event>
<event>
12    1  0.4239835E-008  0.1327573E+04  0.7818608E-02  0.9007981E-01
         -2   -1    0    0    0  501 -0.00000000000E+00  0.00000000000E+00  0.20967966303E+04  0.20967966303E+04  0.00000000000E+00 0.  1.
          2   -1    0    0  501    0  0.00000000000E+00 -0.00000000000E+00 -0.19021289353E+04  0.19021289353E+04  0.00000000000E+00 0. -1.
         23    2    1    2    0    0  0.38461265169E+03 -0.12206592692E+04 -0.13790321551E+04  0.18836316259E+04  0.91665010187E+02 0.  0.
    5000000    2    1    2    0    0 -0.38461265169E+03  0.12206592692E+04  0.15736998500E+04  0.21152939397E+04  0.60000107526E+03 0.  0.
         23    2    4    4    0    0 -0.61880640497E+02  0.93870598151E+03  0.12666419212E+04  0.15803431998E+04  0.90026324102E+02 0.  0.
         23    2    4    4    0    0 -0.32273201120E+03  0.28195328765E+03  0.30705792875E+03  0.53495073994E+03  0.90742024948E+02 0.  0.
          3    1    3    3  502    0  0.17919397107E+03 -0.42254405750E+03 -0.49339742990E+03  0.67386570148E+03  0.00000000000E+00 0. -1.
         -3    1    3    3    0  502  0.20541868062E+03 -0.79811521165E+03 -0.88563472517E+03  0.12097659244E+04  0.00000000000E+00 0.  1.
         11    1    5    5    0    0  0.15367135355E+02  0.22013808585E+03  0.33712581787E+03  0.40292771407E+03  0.00000000000E+00 0. -1.
        -11    1    5    5    0    0 -0.77247775852E+02  0.71856789566E+03  0.92951610337E+03  0.11774154857E+04  0.00000000000E+00 0.  1.
          5    1    6    6  503    0 -0.21876812214E+03  0.19136089336E+03  0.25751664051E+03  0.38834957565E+03  0.47000000000E+01 0. -1.
         -5    1    6    6    0  503 -0.10396388905E+03  0.90592394290E+02  0.49541288243E+02  0.14660116429E+03  0.47000000000E+01 0.  1.
<mgrwt>
<rscale>  0 0.13275728E+04</rscale>
<asrwt>0</asrwt>
<pdfrwt beam="1">  1        2 0.29263522E+00 0.13275728E+04</pdfrwt>
<pdfrwt beam="2">  1       -2 0.32258410E+00 0.13275728E+04</pdfrwt>
<totfact> 0.16783358E-01</totfact>
</mgrwt>
</event>
<event>
12    1  0.3166324E-008  0.1597512E+04  0.7818608E-02  0.8822078E-01
         -2   -1    0    0    0  501 -0.00000000000E+00  0.00000000000E+00  0.83013838444E+03  0.83013838444E+03  0.00000000000E+00 0.  1.
          2   -1    0    0  501    0  0.00000000000E+00 -0.00000000000E+00 -0.33693784095E+04  0.33693784095E+04  0.00000000000E+00 0. -1.
         23    2    1    2    0    0  0.13640527757E+04 -0.81513442886E+03 -0.85296785221E+03  0.18060446630E+04  0.95702956994E+02 0.  0.
    5000000    2    1    2    0    0 -0.13640527757E+04  0.81513442886E+03 -0.16862721729E+04  0.23934721309E+04  0.60009240004E+03 0.  0.
         23    2    4    4    0    0 -0.11424975427E+04  0.67345120837E+03 -0.16430459664E+04  0.21135010343E+04  0.91920668448E+02 0.  0.
         23    2    4    4    0    0 -0.22155523294E+03  0.14168322049E+03 -0.43226206517E+02  0.27997109662E+03  0.85758112133E+02 0.  0.
          1    1    3    3  502    0  0.67488013642E+03 -0.35460292526E+03 -0.43500092337E+03  0.87774269377E+03  0.00000000000E+00 0. -1.
         -1    1    3    3    0  502  0.68917263927E+03 -0.46053150360E+03 -0.41796692884E+03  0.92830196926E+03  0.00000000000E+00 0.  1.
         11    1    5    5    0    0 -0.71349510232E+03  0.37048953084E+03 -0.97380290845E+03  0.12627865449E+04  0.00000000000E+00 0.  1.
        -11    1    5    5    0    0 -0.42900244042E+03  0.30296167753E+03 -0.66924305790E+03  0.85071448941E+03  0.00000000000E+00 0. -1.
          5    1    6    6  503    0 -0.26178041029E+02  0.54465952093E+02 -0.23657800818E+02  0.65066207120E+02  0.47000000000E+01 0. -1.
         -5    1    6    6    0  503 -0.19537719191E+03  0.87217268402E+02 -0.19568405700E+02  0.21490488950E+03  0.47000000000E+01 0.  1.
<mgrwt>
<rscale>  0 0.15975116E+04</rscale>
<asrwt>0</asrwt>
<pdfrwt beam="1">  1        2 0.51836592E+00 0.15975116E+04</pdfrwt>
<pdfrwt beam="2">  1       -2 0.12771359E+00 0.15975116E+04</pdfrwt>
<totfact> 0.42912048E-01</totfact>
</mgrwt>
</event>
<event>
12    1  0.3166324E-008  0.8751030E+03  0.7818608E-02  0.9457250E-01
          1   -1    0    0  501    0  0.00000000000E+00  0.00000000000E+00  0.19121174512E+04  0.19121174512E+04  0.00000000000E+00 0. -1.
         -1   -1    0    0    0  501 -0.00000000000E+00 -0.00000000000E+00 -0.42080330564E+03  0.42080330564E+03  0.00000000000E+00 0.  1.
         23    2    1    2    0    0  0.55132014611E+03 -0.56706630046E+03  0.57597776638E+03  0.98260821496E+03  0.90831845336E+02 0.  0.
    5000000    2    1    2    0    0 -0.55132014611E+03  0.56706630046E+03  0.91533637914E+03  0.13503125418E+04  0.59998765074E+03 0.  0.
         23    2    4    4    0    0  0.36070378833E+02  0.28751908001E+03  0.13904441071E+03  0.33332976784E+03  0.88357752252E+02 0.  0.
         23    2    4    4    0    0 -0.58739052495E+03  0.27954722045E+03  0.77629196842E+03  0.10169827740E+04  0.91926411309E+02 0.  0.
          4    1    3    3  502    0  0.25943913821E+03 -0.20489095484E+03  0.22485433068E+03  0.39981050491E+03  0.00000000000E+00 0.  1.
         -4    1    3    3    0  502  0.29188100790E+03 -0.36217534561E+03  0.35112343570E+03  0.58279771005E+03  0.00000000000E+00 0. -1.
         13    1    5    5    0    0  0.51795569260E+02  0.84363965967E+02  0.50980033423E+02  0.11135090281E+03  0.00000000000E+00 0.  1.
        -13    1    5    5    0    0 -0.15725190426E+02  0.20315511404E+03  0.88064377290E+02  0.22197886503E+03  0.00000000000E+00 0. -1.
          5    1    6    6  503    0 -0.45091279725E+02  0.32428805391E+02  0.34950039172E+02  0.65790927676E+02  0.47000000000E+01 0. -1.
         -5    1    6    6    0  503 -0.54229924522E+03  0.24711841506E+03  0.74134192925E+03  0.95119184632E+03  0.47000000000E+01 0.  1.
<mgrwt>
<rscale>  0 0.87510303E+03</rscale>
<asrwt>0</asrwt>
<pdfrwt beam="1">  1        1 0.29417191E+00 0.87510303E+03</pdfrwt>
<pdfrwt beam="2">  1       -1 0.64738971E-01 0.87510303E+03</pdfrwt>
<totfact> 0.84882008E+00</totfact>
</mgrwt>
</event>
<event>
12    1  0.3166324E-008  0.1055382E+04  0.7818608E-02  0.9249805E-01
         -2   -1    0    0    0  501 -0.00000000000E+00  0.00000000000E+00  0.10737974172E+04  0.10737974172E+04  0.00000000000E+00 0.  1.
          2   -1    0    0  501    0  0.00000000000E+00 -0.00000000000E+00 -0.15430028528E+04  0.15430028528E+04  0.00000000000E+00 0. -1.
         23    2    1    2    0    0  0.17705596836E+03  0.97558927591E+03  0.49247087966E+03  0.11108188070E+04  0.90926363185E+02 0.  0.
    5000000    2    1    2    0    0 -0.17705596836E+03 -0.97558927591E+03 -0.96167631521E+03  0.15059814630E+04  0.60002964962E+03 0.  0.
         23    2    4    4    0    0 -0.30821947923E+03 -0.35297659501E+03 -0.22353631610E+03  0.52722831218E+03  0.91703241724E+02 0.  0.
         23    2    4    4    0    0  0.13116351087E+03 -0.62261268090E+03 -0.73813999911E+03  0.97875315081E+03  0.90866137467E+02 0.  0.
          4    1    3    3  502    0  0.80558638201E+02  0.65245319140E+03  0.34938132528E+03  0.74448114255E+03  0.00000000000E+00 0. -1.
         -4    1    3    3    0  502  0.96497330161E+02  0.32313608451E+03  0.14308955439E+03  0.36633766448E+03  0.00000000000E+00 0.  1.
         11    1    5    5    0    0 -0.20786219289E+03 -0.28309191793E+03 -0.19475999856E+03  0.40159579463E+03  0.00000000000E+00 0.  1.
        -11    1    5    5    0    0 -0.10035728635E+03 -0.69884677080E+02 -0.28776317545E+02  0.12563251755E+03  0.00000000000E+00 0. -1.
          5    1    6    6  503    0 -0.91690784978E+01 -0.12934122931E+03 -0.14163407321E+03  0.19208208218E+03  0.47000000000E+01 0. -1.
         -5    1    6    6    0  503  0.14033258937E+03 -0.49327145159E+03 -0.59650592590E+03  0.78667106864E+03  0.47000000000E+01 0.  1.
<mgrwt>
<rscale>  0 0.10553817E+04</rscale>
<asrwt>0</asrwt>
<pdfrwt beam="1">  1        2 0.23738505E+00 0.10553817E+04</pdfrwt>
<pdfrwt beam="2">  1       -2 0.16519960E+00 0.10553817E+04</pdfrwt>
<totfact> 0.27320360E+00</totfact>
</mgrwt>
</event>
<event>
12    1  0.3166324E-008  0.8874348E+03  0.7818608E-02  0.9441426E-01
          1   -1    0    0  501    0  0.00000000000E+00  0.00000000000E+00  0.12454919567E+04  0.12454919567E+04  0.00000000000E+00 0. -1.
         -1   -1    0    0    0  501 -0.00000000000E+00 -0.00000000000E+00 -0.78592225886E+03  0.78592225886E+03  0.00000000000E+00 0.  1.
         23    2    1    2    0    0  0.56065923799E+03  0.55315316511E+03 -0.22908896836E+03  0.82537317052E+03  0.91879867103E+02 0.  0.
    5000000    2    1    2    0    0 -0.56065923799E+03 -0.55315316511E+03  0.68865866621E+03  0.12060410451E+04  0.59997253153E+03 0.  0.
         23    2    4    4    0    0 -0.57289668784E+03 -0.63445039847E+03  0.58807867646E+03  0.10410341371E+04  0.84720846449E+02 0.  0.
         23    2    4    4    0    0  0.12237449849E+02  0.81297233362E+02  0.10057998976E+03  0.16500690797E+03  0.10174453305E+03 0.  0.
          1    1    3    3  502    0  0.27289467435E+03  0.26229999757E+03 -0.15765384188E+03  0.41003356676E+03  0.00000000000E+00 0. -1.
         -1    1    3    3    0  502  0.28776456364E+03  0.29085316754E+03 -0.71435126483E+02  0.41533960376E+03  0.00000000000E+00 0.  1.
         11    1    5    5    0    0 -0.24997380972E+03 -0.32731157155E+03  0.31331378194E+03  0.51747975455E+03  0.00000000000E+00 0. -1.
        -11    1    5    5    0    0 -0.32292287812E+03 -0.30713882692E+03  0.27476489452E+03  0.52355438253E+03  0.00000000000E+00 0.  1.
          5    1    6    6  503    0  0.54359771460E+02  0.63513339789E+02  0.74970889959E+02  0.11239062873E+03  0.47000000000E+01 0. -1.
         -5    1    6    6    0  503 -0.42122321611E+02  0.17783893573E+02  0.25609099798E+02  0.52616279239E+02  0.47000000000E+01 0.  1.
<mgrwt>
<rscale>  0 0.88743477E+03</rscale>
<asrwt>0</asrwt>
<pdfrwt beam="1">  1        1 0.19161415E+00 0.88743477E+03</pdfrwt>
<pdfrwt beam="2">  1       -1 0.12091112E+00 0.88743477E+03</pdfrwt>
<totfact> 0.61215450E+00</totfact>
</mgrwt>
</event>
<event>
12    1  0.3166324E-008  0.8232939E+03  0.7818608E-02  0.9526899E-01
          1   -1    0    0  501    0  0.00000000000E+00  0.00000000000E+00  0.78721312722E+03  0.78721312722E+03  0.00000000000E+00 0. -1.
         -1   -1    0    0    0  501 -0.00000000000E+00 -0.00000000000E+00 -0.10239541782E+04  0.10239541782E+04  0.00000000000E+00 0.  1.
         23    2    1    2    0    0  0.66038834451E+03 -0.29643753344E+03 -0.43854716588E+03  0.84948325559E+03  0.72871174198E+02 0.  0.
    5000000    2    1    2    0    0 -0.66038834451E+03  0.29643753344E+03  0.20180611492E+03  0.96168404981E+03  0.60010209701E+03 0.  0.
         23    2    4    4    0    0 -0.40504794696E+03  0.45684807816E+03  0.75753457825E+02  0.62200395707E+03  0.91522294425E+02 0.  0.
         23    2    4    4    0    0 -0.25534039755E+03 -0.16041054472E+03  0.12605265710E+03  0.33968009274E+03  0.92536649843E+02 0.  0.
          3    1    3    3  502    0  0.50819388180E+03 -0.19716722376E+03 -0.34504753792E+03  0.64513079220E+03  0.00000000000E+00 0. -1.
         -3    1    3    3    0  502  0.15219446271E+03 -0.99270309678E+02 -0.93499627962E+02  0.20435246339E+03  0.00000000000E+00 0.  1.
         11    1    5    5    0    0 -0.64607927724E+02  0.70433498060E+02  0.46220776234E+02  0.10616695404E+03  0.00000000000E+00 0.  1.
        -11    1    5    5    0    0 -0.34044001923E+03  0.38641458010E+03  0.29532681592E+02  0.51583700303E+03  0.00000000000E+00 0. -1.
          5    1    6    6  503    0 -0.18429895227E+03 -0.77664914924E+02  0.11295776093E+03  0.22973786926E+03  0.47000000000E+01 0.  1.
         -5    1    6    6    0  503 -0.71041445280E+02 -0.82745629799E+02  0.13094896169E+02  0.10994222348E+03  0.47000000000E+01 0. -1.
<mgrwt>
<rscale>  0 0.82329386E+03</rscale>
<asrwt>0</asrwt>
<pdfrwt beam="1">  1        1 0.12110971E+00 0.82329386E+03</pdfrwt>
<pdfrwt beam="2">  1       -1 0.15753141E+00 0.82329386E+03</pdfrwt>
<totfact> 0.70834774E+00</totfact>
</mgrwt>
</event>
<event>
12    1  0.3166324E-008  0.6728994E+03  0.7818608E-02  0.9764734E-01
         -1   -1    0    0    0  501 -0.00000000000E+00  0.00000000000E+00  0.54764352299E+03  0.54764352299E+03  0.00000000000E+00 0.  1.
          1   -1    0    0  501    0  0.00000000000E+00 -0.00000000000E+00 -0.90391765726E+03  0.90391765726E+03  0.00000000000E+00 0. -1.
         23    2    1    2    0    0  0.51644183525E+03  0.22597267460E+03 -0.24154885910E+03  0.62016413002E+03  0.92097111612E+02 0.  0.
    5000000    2    1    2    0    0 -0.51644183525E+03 -0.22597267460E+03 -0.11472527517E+03  0.83139705024E+03  0.60023607649E+03 0.  0.
         23    2    4    4    0    0 -0.57250564762E+03 -0.30364773714E+03  0.24251506740E+01  0.65438888898E+03  0.90853023271E+02 0.  0.
         23    2    4    4    0    0  0.56063812371E+02  0.77675062539E+02 -0.11715042584E+03  0.17700816125E+03  0.91821024156E+02 0.  0.
          2    1    3    3  502    0  0.13571783408E+03  0.82309765615E+02 -0.30015610596E+02  0.16153997920E+03  0.00000000000E+00 0.  1.
         -2    1    3    3    0  502  0.38072400117E+03  0.14366290899E+03 -0.21153324850E+03  0.45862415081E+03  0.00000000000E+00 0. -1.
         11    1    5    5    0    0 -0.41340949577E+03 -0.17343518051E+03  0.13289811988E+02  0.44851286730E+03  0.00000000000E+00 0.  1.
        -11    1    5    5    0    0 -0.15909615185E+03 -0.13021255663E+03 -0.10864661314E+02  0.20587602168E+03  0.00000000000E+00 0. -1.
          5    1    6    6  503    0 -0.29506287760E+01 -0.15154696787E+02  0.13811149248E+00  0.16139396508E+02  0.47000000000E+01 0. -1.
         -5    1    6    6    0  503  0.59014441147E+02  0.92829759326E+02 -0.11728853734E+03  0.16086876475E+03  0.47000000000E+01 0.  1.
<mgrwt>
<rscale>  0 0.67289936E+03</rscale>
<asrwt>0</asrwt>
<pdfrwt beam="1">  1        1 0.13906426E+00 0.67289936E+03</pdfrwt>
<pdfrwt beam="2">  1       -1 0.84252850E-01 0.67289936E+03</pdfrwt>
<totfact> 0.26125746E+01</totfact>
</mgrwt>
</event>
<event>
12    1  0.3166324E-008  0.6143739E+03  0.7818608E-02  0.9876026E-01
         -2   -1    0    0    0  501 -0.00000000000E+00  0.00000000000E+00  0.11107558913E+03  0.11107558913E+03  0.00000000000E+00 0.  1.
          2   -1    0    0  501    0  0.00000000000E+00 -0.00000000000E+00 -0.35900858266E+04  0.35900858266E+04  0.00000000000E+00 0. -1.
         23    2    1    2    0    0 -0.45752084998E+03 -0.14716013792E+03 -0.15112254100E+04  0.15885319235E+04  0.93005364880E+02 0.  0.
    5000000    2    1    2    0    0  0.45752084998E+03  0.14716013792E+03 -0.19677848275E+04  0.21126294922E+04  0.60003734028E+03 0.  0.
         23    2    4    4    0    0  0.52106699048E+03  0.26823066625E+03 -0.16704619836E+04  0.17727165646E+04  0.92856237472E+02 0.  0.
         23    2    4    4    0    0 -0.63546140497E+02 -0.12107052833E+03 -0.29732284384E+03  0.33991292758E+03  0.91889825693E+02 0.  0.
          4    1    3    3  502    0 -0.11756832225E+03 -0.39868097267E+02 -0.27082800279E+03  0.29792546496E+03  0.00000000000E+00 0. -1.
         -4    1    3    3    0  502 -0.33995252773E+03 -0.10729204066E+03 -0.12403974072E+04  0.12906064586E+04  0.00000000000E+00 0.  1.
         13    1    5    5    0    0  0.27833709771E+03  0.14128800965E+03 -0.10266916378E+04  0.10730934539E+04  0.00000000000E+00 0. -1.
        -13    1    5    5    0    0  0.24272989278E+03  0.12694265660E+03 -0.64377034581E+03  0.69962311072E+03  0.00000000000E+00 0.  1.
          5    1    6    6  503    0  0.75681953561E+01 -0.78579363887E+02 -0.17575343271E+03  0.19272610908E+03  0.47000000000E+01 0. -1.
         -5    1    6    6    0  503 -0.71114335853E+02 -0.42491164439E+02 -0.12156941113E+03  0.14718681851E+03  0.47000000000E+01 0.  1.
<mgrwt>
<rscale>  0 0.61437389E+03</rscale>
<asrwt>0</asrwt>
<pdfrwt beam="1">  1        2 0.55232089E+00 0.61437389E+03</pdfrwt>
<pdfrwt beam="2">  1       -2 0.17088552E-01 0.61437389E+03</pdfrwt>
<totfact> 0.21839616E+01</totfact>
</mgrwt>
</event>
<event>
12    1  0.3166324E-008  0.4190595E+03  0.7818608E-02  0.1037373E+00
         -2   -1    0    0    0  501 -0.00000000000E+00  0.00000000000E+00  0.26621983803E+03  0.26621983803E+03  0.00000000000E+00 0.  1.
          2   -1    0    0  501    0  0.00000000000E+00 -0.00000000000E+00 -0.19132141931E+04  0.19132141931E+04  0.00000000000E+00 0. -1.
         23    2    1    2    0    0  0.34830078862E+03  0.51579492858E+02  0.30475340014E+02  0.36344184137E+03  0.84778194566E+02 0.  0.
    5000000    2    1    2    0    0 -0.34830078862E+03 -0.51579492858E+02 -0.16774696951E+04  0.18159921897E+04  0.59995764176E+03 0.  0.
         23    2    4    4    0    0 -0.34396052090E+03  0.46898860357E+02 -0.16371359586E+04  0.16759763202E+04  0.90410927875E+02 0.  0.
         23    2    4    4    0    0 -0.43402677188E+01 -0.98478353215E+02 -0.40333736477E+02  0.14001586956E+03  0.90888995228E+02 0.  0.
          1    1    3    3  502    0  0.12169317306E+03  0.57833401718E+02  0.21110300075E+00  0.13473668872E+03  0.00000000000E+00 0. -1.
         -1    1    3    3    0  502  0.22660761556E+03 -0.62539088596E+01  0.30264237013E+02  0.22870515265E+03  0.00000000000E+00 0.  1.
         13    1    5    5    0    0 -0.18016636771E+03  0.56367160705E+02 -0.10247461966E+04  0.10419894166E+04  0.00000000000E+00 0. -1.
        -13    1    5    5    0    0 -0.16379415318E+03 -0.94683003481E+01 -0.61238976199E+03  0.63398690358E+03  0.00000000000E+00 0.  1.
          5    1    6    6  503    0  0.33458010274E+02 -0.28635945541E+02  0.10618184729E+02  0.45544392361E+02  0.47000000000E+01 0. -1.
         -5    1    6    6    0  503 -0.37798277993E+02 -0.69842407674E+02 -0.50951921206E+02  0.94471477196E+02  0.47000000000E+01 0.  1.
<mgrwt>
<rscale>  0 0.41905949E+03</rscale>
<asrwt>0</asrwt>
<pdfrwt beam="1">  1        2 0.29434063E+00 0.41905949E+03</pdfrwt>
<pdfrwt beam="2">  1       -2 0.40956900E-01 0.41905949E+03</pdfrwt>
<totfact> 0.45737827E+01</totfact>
</mgrwt>
</event>
<event>
12    1  0.3166324E-008  0.7648921E+03  0.7818608E-02  0.9612272E-01
         -1   -1    0    0    0  501 -0.00000000000E+00  0.00000000000E+00  0.35181588110E+03  0.35181588110E+03  0.00000000000E+00 0.  1.
          1   -1    0    0  501    0  0.00000000000E+00 -0.00000000000E+00 -0.20086423851E+04  0.20086423851E+04  0.00000000000E+00 0. -1.
         23    2    1    2    0    0 -0.64545334026E+03 -0.16802642537E+03 -0.30670085915E+03  0.73957540344E+03  0.89796805589E+02 0.  0.
    5000000    2    1    2    0    0  0.64545334026E+03  0.16802642537E+03 -0.13501256448E+04  0.16208828627E+04  0.59964915060E+03 0.  0.
         23    2    4    4    0    0  0.58570222018E+03 -0.75649729995E+02 -0.71849028807E+03  0.93478380530E+03  0.93928143945E+02 0.  0.
         23    2    4    4    0    0  0.59751120078E+02  0.24367615536E+03 -0.63163535674E+03  0.68609905742E+03  0.93917131914E+02 0.  0.
          2    1    3    3  502    0 -0.25967816270E+03 -0.10720892529E+03 -0.15281754040E+03  0.31981197991E+03  0.00000000000E+00 0.  1.
         -2    1    3    3    0  502 -0.38577517756E+03 -0.60817500078E+02 -0.15388331875E+03  0.41976342352E+03  0.00000000000E+00 0. -1.
         13    1    5    5    0    0  0.49880330603E+03 -0.95748439710E+02 -0.59224456911E+03  0.78020903061E+03  0.00000000000E+00 0.  1.
        -13    1    5    5    0    0  0.86898914152E+02  0.20098709715E+02 -0.12624571896E+03  0.15457477468E+03  0.00000000000E+00 0. -1.
          5    1    6    6  503    0 -0.16721549848E+02  0.40919625423E+02 -0.59421975868E+02  0.74209751314E+02  0.47000000000E+01 0.  1.
         -5    1    6    6    0  503  0.76472669926E+02  0.20275652994E+03 -0.57221338088E+03  0.61188930611E+03  0.47000000000E+01 0.  1.
<mgrwt>
<rscale>  0 0.76489213E+03</rscale>
<asrwt>0</asrwt>
<pdfrwt beam="1">  1        1 0.30902190E+00 0.76489213E+03</pdfrwt>
<pdfrwt beam="2">  1       -1 0.54125521E-01 0.76489213E+03</pdfrwt>
<totfact> 0.10571211E+01</totfact>
</mgrwt>
</event>
<event>
12    1  0.3166324E-008  0.4533162E+03  0.7818608E-02  0.1026738E+00
         -2   -1    0    0    0  501 -0.00000000000E+00  0.00000000000E+00  0.30541931517E+03  0.30541931517E+03  0.00000000000E+00 0.  1.
          2   -1    0    0  501    0  0.00000000000E+00 -0.00000000000E+00 -0.94192133298E+03  0.94192133298E+03  0.00000000000E+00 0. -1.
         23    2    1    2    0    0  0.26737123867E+03  0.81605982474E+02  0.45494239723E+02  0.29700444210E+03  0.89414747855E+02 0.  0.
    5000000    2    1    2    0    0 -0.26737123867E+03 -0.81605982474E+02 -0.68199625754E+03  0.95033620606E+03  0.59989423535E+03 0.  0.
         23    2    4    4    0    0  0.15308084307E+03 -0.64881443481E+02 -0.38221944016E+03  0.42661282607E+03  0.90903557181E+02 0.  0.
         23    2    4    4    0    0 -0.42045208174E+03 -0.16724538994E+02 -0.29977681738E+03  0.52372337999E+03  0.85792629412E+02 0.  0.
          2    1    3    3  502    0  0.13884584371E+03  0.81991410322E+02  0.48691275389E+02  0.16843871284E+03  0.00000000000E+00 0. -1.
         -2    1    3    3    0  502  0.12852539495E+03 -0.38542784718E+00 -0.31970356662E+01  0.12856572926E+03  0.00000000000E+00 0.  1.
         13    1    5    5    0    0  0.11331249752E+03 -0.86210572127E+02 -0.26174322344E+03  0.29796224569E+03  0.00000000000E+00 0.  1.
        -13    1    5    5    0    0  0.39768345552E+02  0.21329128646E+02 -0.12047621672E+03  0.12865058038E+03  0.00000000000E+00 0. -1.
          5    1    6    6  503    0 -0.35527339121E+03 -0.45012156631E+02 -0.24604044376E+03  0.43451497870E+03  0.47000000000E+01 0. -1.
         -5    1    6    6    0  503 -0.65178690534E+02  0.28287617637E+02 -0.53736373612E+02  0.89208401287E+02  0.47000000000E+01 0.  1.
<mgrwt>
<rscale>  0 0.45331617E+03</rscale>
<asrwt>0</asrwt>
<pdfrwt beam="1">  1        2 0.14491097E+00 0.45331617E+03</pdfrwt>
<pdfrwt beam="2">  1       -2 0.46987588E-01 0.45331617E+03</pdfrwt>
<totfact> 0.12253461E+02</totfact>
</mgrwt>
</event>
<event>
12    1  0.3166324E-008  0.1465646E+04  0.7818608E-02  0.8907625E-01
          1   -1    0    0  501    0  0.00000000000E+00  0.00000000000E+00  0.11708241093E+04  0.11708241093E+04  0.00000000000E+00 0. -1.
         -1   -1    0    0    0  501 -0.00000000000E+00 -0.00000000000E+00 -0.21481731676E+04  0.21481731676E+04  0.00000000000E+00 0.  1.
         23    2    1    2    0    0  0.10202935471E+04  0.10358334405E+04 -0.96249373000E+03  0.17460464155E+04  0.91291105677E+02 0.  0.
    5000000    2    1    2    0    0 -0.10202935471E+04 -0.10358334405E+04 -0.14855328287E+02  0.15729508614E+04  0.60000324409E+03 0.  0.
         23    2    4    4    0    0 -0.41374902632E+03 -0.56920751095E+03 -0.27329628769E+03  0.76022724696E+03  0.89828496916E+02 0.  0.
         23    2    4    4    0    0 -0.60654452076E+03 -0.46662592955E+03  0.25844095940E+03  0.81272361443E+03  0.89955156445E+02 0.  0.
          1    1    3    3  502    0  0.86502710468E+03  0.87807712760E+03 -0.77526950025E+03  0.14561367147E+04  0.00000000000E+00 0. -1.
         -1    1    3    3    0  502  0.15526644240E+03  0.15775631289E+03 -0.18722422975E+03  0.28990970076E+03  0.00000000000E+00 0.  1.
         11    1    5    5    0    0 -0.34819187494E+03 -0.52551002514E+03 -0.24886233203E+03  0.67773949906E+03  0.00000000000E+00 0.  1.
        -11    1    5    5    0    0 -0.65557151383E+02 -0.43697485811E+02 -0.24433955657E+02  0.82487747895E+02  0.00000000000E+00 0. -1.
          5    1    6    6  503    0 -0.38054770457E+03 -0.33221795763E+03  0.13947954567E+03  0.52408201695E+03  0.47000000000E+01 0.  1.
         -5    1    6    6    0  503 -0.22599681618E+03 -0.13440797192E+03  0.11896141373E+03  0.28864159748E+03  0.47000000000E+01 0. -1.
<mgrwt>
<rscale>  0 0.14656459E+04</rscale>
<asrwt>0</asrwt>
<pdfrwt beam="1">  1        1 0.18012679E+00 0.14656459E+04</pdfrwt>
<pdfrwt beam="2">  1       -1 0.33048817E+00 0.14656459E+04</pdfrwt>
<totfact> 0.22365637E-01</totfact>
</mgrwt>
</event>
<event>
12    1  0.3166324E-008  0.1114876E+04  0.7818608E-02  0.9190813E-01
          1   -1    0    0  501    0  0.00000000000E+00  0.00000000000E+00  0.70195800220E+03  0.70195800220E+03  0.00000000000E+00 0. -1.
         -1   -1    0    0    0  501 -0.00000000000E+00 -0.00000000000E+00 -0.20293125521E+04  0.20293125521E+04  0.00000000000E+00 0.  1.
         23    2    1    2    0    0 -0.91916763320E+02 -0.11026695724E+04 -0.45474612381E+03  0.11996894066E+04  0.90176260310E+02 0.  0.
    5000000    2    1    2    0    0  0.91916763320E+02  0.11026695724E+04 -0.87260842606E+03  0.15315811477E+04  0.59997205734E+03 0.  0.
         23    2    4    4    0    0  0.81498227323E+01  0.75580228665E+03 -0.87776717239E+03  0.11623020998E+04  0.95746780902E+02 0.  0.
         23    2    4    4    0    0  0.83766940588E+02  0.34686728571E+03  0.51587463359E+01  0.36927904794E+03  0.94903047148E+02 0.  0.
          3    1    3    3  502    0 -0.19273775735E+02 -0.72458050212E+03 -0.31069188417E+03  0.78861766996E+03  0.00000000000E+00 0. -1.
         -3    1    3    3    0  502 -0.72642987585E+02 -0.37808907024E+03 -0.14405423965E+03  0.41107173661E+03  0.00000000000E+00 0.  1.
         11    1    5    5    0    0 -0.39851173714E+01  0.18767895988E+02 -0.48644005369E+01  0.19793369417E+02  0.00000000000E+00 0.  1.
        -11    1    5    5    0    0  0.12134940104E+02  0.73703439067E+03 -0.87290277186E+03  0.11425087303E+04  0.00000000000E+00 0. -1.
          5    1    6    6  503    0  0.51838268873E+02  0.31106535740E+03 -0.17795348400E+02  0.31589179653E+03  0.47000000000E+01 0. -1.
         -5    1    6    6    0  503  0.31928671715E+02  0.35801928311E+02  0.22954094736E+02  0.53387251413E+02  0.47000000000E+01 0.  1.
<mgrwt>
<rscale>  0 0.11148763E+04</rscale>
<asrwt>0</asrwt>
<pdfrwt beam="1">  1        1 0.10799354E+00 0.11148763E+04</pdfrwt>
<pdfrwt beam="2">  1       -1 0.31220193E+00 0.11148763E+04</pdfrwt>
<totfact> 0.74606875E-01</totfact>
</mgrwt>
</event>
<event>
12    1  0.3166324E-008  0.6007176E+03  0.7818608E-02  0.9903918E-01
         -1   -1    0    0    0  501 -0.00000000000E+00  0.00000000000E+00  0.12022990800E+04  0.12022990800E+04  0.00000000000E+00 0.  1.
          1   -1    0    0  501    0  0.00000000000E+00 -0.00000000000E+00 -0.33867729342E+03  0.33867729342E+03  0.00000000000E+00 0. -1.
         23    2    1    2    0    0 -0.21216439065E+03 -0.44385126246E+03  0.32627478428E+03  0.59719890350E+03  0.90408094990E+02 0.  0.
    5000000    2    1    2    0    0  0.21216439065E+03  0.44385126246E+03  0.53734700233E+03  0.94377746994E+03  0.59996369892E+03 0.  0.
         23    2    4    4    0    0  0.15321366862E+03  0.55064839240E+03  0.54166662278E+03  0.79256517831E+03  0.89826228515E+02 0.  0.
         23    2    4    4    0    0  0.58950722028E+02 -0.10679712994E+03 -0.43196204497E+01  0.15121229164E+03  0.89250677474E+02 0.  0.
          4    1    3    3  502    0  0.88742472160E+01 -0.18648029401E+02  0.17900450875E+02  0.27329972662E+02  0.00000000000E+00 0. -1.
         -4    1    3    3    0  502 -0.22103863786E+03 -0.42520323306E+03  0.30837433340E+03  0.56986893083E+03  0.00000000000E+00 0.  1.
         11    1    5    5    0    0  0.71317134659E+02  0.29131191926E+03  0.34386001890E+03  0.45627675877E+03  0.00000000000E+00 0. -1.
        -11    1    5    5    0    0  0.81896533960E+02  0.25933647314E+03  0.19780660388E+03  0.33628841953E+03  0.00000000000E+00 0.  1.
          5    1    6    6  503    0  0.82948176770E+01 -0.59375346927E+02 -0.40806809389E+02  0.72674077329E+02  0.47000000000E+01 0. -1.
         -5    1    6    6    0  503  0.50655904351E+02 -0.47421783016E+02  0.36487188940E+02  0.78538214308E+02  0.47000000000E+01 0.  1.
<mgrwt>
<rscale>  0 0.60071755E+03</rscale>
<asrwt>0</asrwt>
<pdfrwt beam="1">  1        1 0.52104200E-01 0.60071755E+03</pdfrwt>
<pdfrwt beam="2">  1       -1 0.18496909E+00 0.60071755E+03</pdfrwt>
<totfact> 0.15020625E+01</totfact>
</mgrwt>
</event>
<event>
12    1  0.3166324E-008  0.1410658E+04  0.7818608E-02  0.8946140E-01
         -1   -1    0    0    0  501 -0.00000000000E+00  0.00000000000E+00  0.95728623074E+03  0.95728623074E+03  0.00000000000E+00 0.  1.
          1   -1    0    0  501    0  0.00000000000E+00 -0.00000000000E+00 -0.22480837387E+04  0.22480837387E+04  0.00000000000E+00 0. -1.
         23    2    1    2    0    0  0.97155871593E+03 -0.10133186501E+04 -0.65702755693E+03  0.15523802228E+04  0.86360410839E+02 0.  0.
    5000000    2    1    2    0    0 -0.97155871593E+03  0.10133186501E+04 -0.63376995107E+03  0.16529897467E+04  0.59997477165E+03 0.  0.
         23    2    4    4    0    0 -0.52582544741E+03  0.62641621296E+03 -0.60250169235E+02  0.82496159730E+03  0.89676536063E+02 0.  0.
         23    2    4    4    0    0 -0.44573326852E+03  0.38690243711E+03 -0.57351978184E+03  0.82802814936E+03  0.91290927673E+02 0.  0.
          3    1    3    3  502    0  0.80443635019E+03 -0.81520781296E+03 -0.56740875535E+03  0.12781370488E+04  0.00000000000E+00 0. -1.
         -3    1    3    3    0  502  0.16712236573E+03 -0.19811083711E+03 -0.89618801583E+02  0.27424317404E+03  0.00000000000E+00 0.  1.
         13    1    5    5    0    0 -0.48245587938E+03  0.53053582238E+03 -0.61388613609E+02  0.71972251337E+03  0.00000000000E+00 0. -1.
        -13    1    5    5    0    0 -0.43369568022E+02  0.95880390587E+02  0.11384443736E+01  0.10523908392E+03  0.00000000000E+00 0.  1.
          5    1    6    6  503    0 -0.25884467174E+03  0.17802591744E+03 -0.26341125853E+03  0.41000167376E+03  0.47000000000E+01 0. -1.
         -5    1    6    6    0  503 -0.18688859678E+03  0.20887651967E+03 -0.31010852331E+03  0.41802647560E+03  0.47000000000E+01 0.  1.
<mgrwt>
<rscale>  0 0.14106580E+04</rscale>
<asrwt>0</asrwt>
<pdfrwt beam="1">  1        1 0.34585903E+00 0.14106580E+04</pdfrwt>
<pdfrwt beam="2">  1       -1 0.14727481E+00 0.14106580E+04</pdfrwt>
<totfact> 0.71028516E-01</totfact>
</mgrwt>
</event>
<event>
12    1  0.3166324E-008  0.5680957E+03  0.7818608E-02  0.9973901E-01
          1   -1    0    0  501    0  0.00000000000E+00  0.00000000000E+00  0.53311983019E+03  0.53311983019E+03  0.00000000000E+00 0. -1.
         -1   -1    0    0    0  501 -0.00000000000E+00 -0.00000000000E+00 -0.64777187786E+03  0.64777187786E+03  0.00000000000E+00 0.  1.
         23    2    1    2    0    0 -0.34139776083E+03  0.25534626522E+03 -0.86700269860E+02  0.44459409198E+03  0.91612354869E+02 0.  0.
    5000000    2    1    2    0    0  0.34139776083E+03 -0.25534626522E+03 -0.27951777810E+02  0.73629761606E+03  0.59966551616E+03 0.  0.
         23    2    4    4    0    0  0.45800063476E+03 -0.57066251576E+02 -0.93890514247E+02  0.48000588509E+03  0.92569339128E+02 0.  0.
         23    2    4    4    0    0 -0.11660287392E+03 -0.19828001364E+03  0.65938736438E+02  0.25629173097E+03  0.91795100003E+02 0.  0.
          3    1    3    3  502    0 -0.18544351163E+03  0.81653769360E+02 -0.40851640905E+02  0.20670145287E+03  0.00000000000E+00 0. -1.
         -3    1    3    3    0  502 -0.15595424921E+03  0.17369249586E+03 -0.45848628955E+02  0.23789263911E+03  0.00000000000E+00 0.  1.
         13    1    5    5    0    0  0.17122060236E+03 -0.56758604102E+02 -0.76743783237E+01  0.18054619879E+03  0.00000000000E+00 0. -1.
        -13    1    5    5    0    0  0.28678003240E+03 -0.30764747381E+00 -0.86216135924E+02  0.29945968630E+03  0.00000000000E+00 0.  1.
          5    1    6    6  503    0 -0.59211658716E+02 -0.66531421475E+02  0.68544694330E+02  0.11248517988E+03  0.47000000000E+01 0. -1.
         -5    1    6    6    0  503 -0.57391215208E+02 -0.13174859217E+03 -0.26059578926E+01  0.14380655110E+03  0.47000000000E+01 0.  1.
<mgrwt>
<rscale>  0 0.56809571E+03</rscale>
<asrwt>0</asrwt>
<pdfrwt beam="1">  1        1 0.82018435E-01 0.56809571E+03</pdfrwt>
<pdfrwt beam="2">  1       -1 0.99657213E-01 0.56809571E+03</pdfrwt>
<totfact> 0.40578258E+01</totfact>
</mgrwt>
</event>
<event>
12    1  0.3166324E-008  0.4881407E+03  0.7818608E-02  0.1016922E+00
         -2   -1    0    0    0  501 -0.00000000000E+00  0.00000000000E+00  0.12386670655E+04  0.12386670655E+04  0.00000000000E+00 0. -1.
          2   -1    0    0  501    0  0.00000000000E+00 -0.00000000000E+00 -0.36783819083E+03  0.36783819083E+03  0.00000000000E+00 0.  1.
         23    2    1    2    0    0  0.34415747209E+03  0.12094702581E+03 -0.11742947873E+03  0.39418621930E+03  0.92306794787E+02 0.  0.
    5000000    2    1    2    0    0 -0.34415747209E+03 -0.12094702581E+03  0.98825835340E+03  0.12123190370E+04  0.59999193814E+03 0.  0.
         23    2    4    4    0    0 -0.21432300890E+03  0.16563832288E+03  0.75882378987E+03  0.81093561157E+03  0.91829275785E+02 0.  0.
         23    2    4    4    0    0 -0.12983446319E+03 -0.28658534870E+03  0.22943456353E+03  0.40138342546E+03  0.97366757022E+02 0.  0.
          3    1    3    3  502    0  0.18313026386E+03  0.15482033730E+02 -0.59083342113E+02  0.19304721760E+03  0.00000000000E+00 0. -1.
         -3    1    3    3    0  502  0.16102720823E+03  0.10546499208E+03 -0.58346136614E+02  0.20113900170E+03  0.00000000000E+00 0.  1.
         13    1    5    5    0    0 -0.15056265922E+03  0.11547664224E+03  0.39546387412E+03  0.43862927968E+03  0.00000000000E+00 0. -1.
        -13    1    5    5    0    0 -0.63760349677E+02  0.50161680646E+02  0.36335991575E+03  0.37230633190E+03  0.00000000000E+00 0.  1.
          5    1    6    6  503    0 -0.11309602118E+03 -0.13334849009E+03  0.12911128955E+03  0.21740364511E+03  0.47000000000E+01 0. -1.
         -5    1    6    6    0  503 -0.16738442005E+02 -0.15323685861E+03  0.10032327398E+03  0.18397978035E+03  0.47000000000E+01 0.  1.
<mgrwt>
<rscale>  0 0.48814065E+03</rscale>
<asrwt>0</asrwt>
<pdfrwt beam="1">  1        2 0.56590491E-01 0.48814065E+03</pdfrwt>
<pdfrwt beam="2">  1       -2 0.19056416E+00 0.48814065E+03</pdfrwt>
<totfact> 0.14072471E+01</totfact>
</mgrwt>
</event>
<event>
12    1  0.3166324E-008  0.5039985E+03  0.7818608E-02  0.1012740E+00
          1   -1    0    0  501    0  0.00000000000E+00  0.00000000000E+00  0.93337797510E+03  0.93337797510E+03  0.00000000000E+00 0. -1.
         -1   -1    0    0    0  501 -0.00000000000E+00 -0.00000000000E+00 -0.37242470513E+03  0.37242470513E+03  0.00000000000E+00 0.  1.
         23    2    1    2    0    0  0.20494924856E+03  0.35703986693E+03  0.35106064292E+03  0.54860406187E+03  0.90780948592E+02 0.  0.
    5000000    2    1    2    0    0 -0.20494924856E+03 -0.35703986693E+03  0.20989262705E+03  0.75719861835E+03  0.59984428953E+03 0.  0.
         23    2    4    4    0    0 -0.13859338728E+03 -0.44876807184E+03  0.32140406580E+03  0.57677809061E+03  0.93656195699E+02 0.  0.
         23    2    4    4    0    0 -0.66355861284E+02  0.91728204908E+02 -0.11151143875E+03  0.18042052774E+03  0.85437708054E+02 0.  0.
          4    1    3    3  502    0  0.65134682183E+02  0.17756230362E+03  0.11808053702E+03  0.22296616719E+03  0.00000000000E+00 0. -1.
         -4    1    3    3    0  502  0.13981456638E+03  0.17947756332E+03  0.23298010590E+03  0.32563789468E+03  0.00000000000E+00 0.  1.
         13    1    5    5    0    0 -0.34018486254E+02 -0.25252328726E+03  0.19615586802E+03  0.32156242407E+03  0.00000000000E+00 0.  1.
        -13    1    5    5    0    0 -0.10457490102E+03 -0.19624478458E+03  0.12524819778E+03  0.25521566654E+03  0.00000000000E+00 0. -1.
          5    1    6    6  503    0 -0.17041613734E+02  0.16994612681E+02 -0.82677232339E+02  0.86237162559E+02  0.47000000000E+01 0. -1.
         -5    1    6    6    0  503 -0.49314247550E+02  0.74733592227E+02 -0.28834206409E+02  0.94183365186E+02  0.47000000000E+01 0.  1.
<mgrwt>
<rscale>  0 0.50399852E+03</rscale>
<asrwt>0</asrwt>
<pdfrwt beam="1">  1        1 0.14359661E+00 0.50399852E+03</pdfrwt>
<pdfrwt beam="2">  1       -1 0.57296109E-01 0.50399852E+03</pdfrwt>
<totfact> 0.55491409E+01</totfact>
</mgrwt>
</event>
<event>
12    1  0.3166324E-008  0.2594057E+03  0.7818608E-02  0.1107501E+00
          1   -1    0    0  501    0  0.00000000000E+00  0.00000000000E+00  0.46923154060E+03  0.46923154060E+03  0.00000000000E+00 0. -1.
         -1   -1    0    0    0  501 -0.00000000000E+00 -0.00000000000E+00 -0.36217097167E+03  0.36217097167E+03  0.00000000000E+00 0.  1.
         23    2    1    2    0    0 -0.14663037578E+03  0.91448013208E+02  0.61080919827E+02  0.20534547252E+03  0.92588757949E+02 0.  0.
    5000000    2    1    2    0    0  0.14663037578E+03 -0.91448013208E+02  0.45979649095E+02  0.62605703975E+03  0.59997506837E+03 0.  0.
         23    2    4    4    0    0  0.78419707745E+02 -0.16562502619E+03  0.28522234961E+03  0.35077792301E+03  0.90066990018E+02 0.  0.
         23    2    4    4    0    0  0.68210668032E+02  0.74177012982E+02 -0.23924270052E+03  0.27527911673E+03  0.91578370103E+02 0.  0.
          4    1    3    3  502    0 -0.14861969665E+03  0.55863170940E+02  0.59869128297E+02  0.16968447372E+03  0.00000000000E+00 0. -1.
         -4    1    3    3    0  502  0.19893208713E+01  0.35584842268E+02  0.12117915300E+01  0.35660998800E+02  0.00000000000E+00 0.  1.
         11    1    5    5    0    0  0.59137935097E+02 -0.47200241565E+02  0.63954471559E+02  0.99072360443E+02  0.00000000000E+00 0.  1.
        -11    1    5    5    0    0  0.19281772648E+02 -0.11842478462E+03  0.22126787805E+03  0.25170556257E+03  0.00000000000E+00 0. -1.
          5    1    6    6  503    0 -0.17606350887E+02  0.20459191340E+02 -0.95814737378E+02  0.99654984826E+02  0.47000000000E+01 0. -1.
         -5    1    6    6    0  503  0.85817018919E+02  0.53717821642E+02 -0.14342796314E+03  0.17562413191E+03  0.47000000000E+01 0.  1.
<mgrwt>
<rscale>  0 0.25940573E+03</rscale>
<asrwt>0</asrwt>
<pdfrwt beam="1">  1        1 0.72189468E-01 0.25940573E+03</pdfrwt>
<pdfrwt beam="2">  1       -1 0.55718611E-01 0.25940573E+03</pdfrwt>
<totfact> 0.16666181E+02</totfact>
</mgrwt>
</event>
<event>
12    1  0.3166324E-008  0.8051770E+03  0.7818608E-02  0.9552554E-01
          2   -1    0    0  501    0  0.00000000000E+00  0.00000000000E+00  0.18666925424E+04  0.18666925424E+04  0.00000000000E+00 0. -1.
         -2   -1    0    0    0  501 -0.00000000000E+00 -0.00000000000E+00 -0.46388243384E+03  0.46388243384E+03  0.00000000000E+00 0.  1.
         23    2    1    2    0    0 -0.66932560563E+03 -0.26237497202E+03  0.10777509687E+03  0.73248216123E+03  0.89873537453E+02 0.  0.
    5000000    2    1    2    0    0  0.66932560563E+03  0.26237497202E+03  0.12950350116E+04  0.15980928150E+04  0.59995630806E+03 0.  0.
         23    2    4    4    0    0  0.75772267941E+03  0.23050045526E+03  0.10200772295E+04  0.12946169819E+04  0.90561895549E+02 0.  0.
         23    2    4    4    0    0 -0.88397073787E+02  0.31874516752E+02  0.27495778215E+03  0.30347583306E+03  0.87554393473E+02 0.  0.
          1    1    3    3  502    0 -0.44462829661E+03 -0.21060873418E+03  0.98261337285E+02  0.50170275210E+03  0.00000000000E+00 0. -1.
         -1    1    3    3    0  502 -0.22469730902E+03 -0.51766237831E+02  0.95137595843E+01  0.23077940913E+03  0.00000000000E+00 0.  1.
         13    1    5    5    0    0  0.30141452843E+03  0.77596158221E+02  0.33348256389E+03  0.45616061002E+03  0.00000000000E+00 0.  1.
        -13    1    5    5    0    0  0.45630815098E+03  0.15290429704E+03  0.68659466561E+03  0.83845637188E+03  0.00000000000E+00 0. -1.
          5    1    6    6  503    0 -0.69358048405E+02  0.19858589440E+02  0.27056904156E+03  0.28006177659E+03  0.47000000000E+01 0. -1.
         -5    1    6    6    0  503 -0.19039025382E+02  0.12015927311E+02  0.43887405849E+01  0.23414056474E+02  0.47000000000E+01 0.  1.
<mgrwt>
<rscale>  0 0.80517698E+03</rscale>
<asrwt>0</asrwt>
<pdfrwt beam="1">  1        2 0.28718346E+00 0.80517698E+03</pdfrwt>
<pdfrwt beam="2">  1       -2 0.71366529E-01 0.80517698E+03</pdfrwt>
<totfact> 0.14459285E+01</totfact>
</mgrwt>
</event>
<event>
12    1  0.3166324E-008  0.7851728E+03  0.7818608E-02  0.9581730E-01
          2   -1    0    0  501    0  0.00000000000E+00  0.00000000000E+00  0.16277885418E+04  0.16277885418E+04  0.00000000000E+00 0. -1.
         -2   -1    0    0    0  501 -0.00000000000E+00 -0.00000000000E+00 -0.45522504123E+03  0.45522504123E+03  0.00000000000E+00 0.  1.
         23    2    1    2    0    0 -0.72011177291E+03 -0.16430385417E+03  0.33877790453E+03  0.81772496610E+03  0.91361532427E+02 0.  0.
    5000000    2    1    2    0    0  0.72011177291E+03  0.16430385417E+03  0.83378559606E+03  0.12652886170E+04  0.60016676184E+03 0.  0.
         23    2    4    4    0    0  0.59130858025E+03 -0.79413360466E+01  0.27248368457E+03  0.65736715503E+03  0.90417455521E+02 0.  0.
         23    2    4    4    0    0  0.12880319267E+03  0.17224519022E+03  0.56130191150E+03  0.60792146193E+03  0.90829510790E+02 0.  0.
          1    1    3    3  502    0 -0.35361385517E+03 -0.33906128666E+02  0.15991513760E+03  0.38957057816E+03  0.00000000000E+00 0. -1.
         -1    1    3    3    0  502 -0.36649791774E+03 -0.13039772550E+03  0.17886276693E+03  0.42815438795E+03  0.00000000000E+00 0.  1.
         13    1    5    5    0    0  0.48166682987E+03  0.10028333574E+02  0.18544832275E+03  0.51623113320E+03  0.00000000000E+00 0. -1.
        -13    1    5    5    0    0  0.10964175038E+03 -0.17969669621E+02  0.87035361812E+02  0.14113602183E+03  0.00000000000E+00 0.  1.
          5    1    6    6  503    0  0.10036393571E+03  0.17746750763E+03  0.49953195157E+03  0.53955712997E+03  0.47000000000E+01 0. -1.
         -5    1    6    6    0  503  0.28439256959E+02 -0.52223174172E+01  0.61769959924E+02  0.68364331962E+02  0.47000000000E+01 0.  1.
<mgrwt>
<rscale>  0 0.78517277E+03</rscale>
<asrwt>0</asrwt>
<pdfrwt beam="1">  1        2 0.25042900E+00 0.78517277E+03</pdfrwt>
<pdfrwt beam="2">  1       -2 0.70034622E-01 0.78517277E+03</pdfrwt>
<totfact> 0.20417082E+01</totfact>
</mgrwt>
</event>
<event>
12    1  0.3166324E-008  0.1258371E+04  0.7818608E-02  0.9063244E-01
         -2   -1    0    0    0  501 -0.00000000000E+00  0.00000000000E+00  0.14876526254E+04  0.14876526254E+04  0.00000000000E+00 0.  1.
          2   -1    0    0  501    0  0.00000000000E+00 -0.00000000000E+00 -0.11855212282E+04  0.11855212282E+04  0.00000000000E+00 0. -1.
         23    2    1    2    0    0  0.10830213130E+04 -0.62252493082E+03 -0.10406224278E+02  0.12525624157E+04  0.91279031834E+02 0.  0.
    5000000    2    1    2    0    0 -0.10830213130E+04  0.62252493082E+03  0.31253762145E+03  0.14206114379E+04  0.59998719877E+03 0.  0.
         23    2    4    4    0    0 -0.18927027563E+03  0.18661115017E+03 -0.15154848821E+03  0.31955746738E+03  0.92212103754E+02 0.  0.
         23    2    4    4    0    0 -0.89375103740E+03  0.43591378066E+03  0.46408610966E+03  0.11010539705E+04  0.90178643760E+02 0.  0.
          1    1    3    3  502    0  0.41473919296E+03 -0.27796929646E+03  0.24494262101E+02  0.49987548133E+03  0.00000000000E+00 0. -1.
         -1    1    3    3    0  502  0.66828212007E+03 -0.34455563436E+03 -0.34900486379E+02  0.75268693434E+03  0.00000000000E+00 0.  1.
         13    1    5    5    0    0 -0.96679236811E+02  0.73062348435E+02 -0.20333898347E+02  0.12287574623E+03  0.00000000000E+00 0.  1.
        -13    1    5    5    0    0 -0.92591038822E+02  0.11354880173E+03 -0.13121458986E+03  0.19668172116E+03  0.00000000000E+00 0. -1.
          5    1    6    6  503    0 -0.27089946966E+03  0.90466078559E+02  0.14986589992E+03  0.32257171604E+03  0.47000000000E+01 0. -1.
         -5    1    6    6    0  503 -0.62285156775E+03  0.34544770210E+03  0.31422020973E+03  0.77848225448E+03  0.47000000000E+01 0.  1.
<mgrwt>
<rscale>  0 0.12583714E+04</rscale>
<asrwt>0</asrwt>
<pdfrwt beam="1">  1        2 0.18238788E+00 0.12583714E+04</pdfrwt>
<pdfrwt beam="2">  1       -2 0.22886963E+00 0.12583714E+04</pdfrwt>
<totfact> 0.16219479E+00</totfact>
</mgrwt>
</event>
<event>
12    1  0.3166324E-008  0.4973497E+03  0.7818608E-02  0.1014473E+00
          2   -1    0    0  501    0  0.00000000000E+00  0.00000000000E+00  0.81706323716E+03  0.81706323716E+03  0.00000000000E+00 0. -1.
         -2   -1    0    0    0  501 -0.00000000000E+00 -0.00000000000E+00 -0.35271707260E+03  0.35271707260E+03  0.00000000000E+00 0.  1.
         23    2    1    2    0    0  0.17240796465E+02  0.35714750922E+03  0.22289092385E+03  0.43084806242E+03  0.89989446940E+02 0.  0.
    5000000    2    1    2    0    0 -0.17240796465E+02 -0.35714750922E+03  0.24145524071E+03  0.73893224733E+03  0.59989052708E+03 0.  0.
         23    2    4    4    0    0  0.18318010403E+03  0.27018508043E+02 -0.48457903667E+02  0.20999906722E+03  0.86408850915E+02 0.  0.
         23    2    4    4    0    0 -0.20042090049E+03 -0.38416601726E+03  0.28991314438E+03  0.52893318012E+03  0.89267080021E+02 0.  0.
          2    1    3    3  502    0 -0.56485956288E+01  0.17607179103E+03  0.15948542084E+03  0.23763160920E+03  0.00000000000E+00 0. -1.
         -2    1    3    3    0  502  0.22889392094E+02  0.18107571818E+03  0.63405503009E+02  0.19321645323E+03  0.00000000000E+00 0.  1.
         13    1    5    5    0    0  0.86725806262E+02 -0.26151739464E+02 -0.41511145917E+02  0.99641628771E+02  0.00000000000E+00 0.  1.
        -13    1    5    5    0    0  0.96454297765E+02  0.53170247507E+02 -0.69467577496E+01  0.11035743845E+03  0.00000000000E+00 0. -1.
          5    1    6    6  503    0 -0.23894539591E+02 -0.79600223809E+02  0.95783785754E+02  0.12690062358E+03  0.47000000000E+01 0. -1.
         -5    1    6    6    0  503 -0.17652636090E+03 -0.30456579345E+03  0.19412935862E+03  0.40203255653E+03  0.47000000000E+01 0.  1.
<mgrwt>
<rscale>  0 0.49734971E+03</rscale>
<asrwt>0</asrwt>
<pdfrwt beam="1">  1        2 0.12570204E+00 0.49734971E+03</pdfrwt>
<pdfrwt beam="2">  1       -2 0.54264165E-01 0.49734971E+03</pdfrwt>
<totfact> 0.11053551E+02</totfact>
</mgrwt>
</event>
<event>
12    1  0.3166324E-008  0.6863166E+03  0.7818608E-02  0.9740923E-01
         -1   -1    0    0    0  501 -0.00000000000E+00  0.00000000000E+00  0.36502740383E+03  0.36502740383E+03  0.00000000000E+00 0.  1.
          1   -1    0    0  501    0  0.00000000000E+00 -0.00000000000E+00 -0.14248292026E+04  0.14248292026E+04  0.00000000000E+00 0. -1.
         23    2    1    2    0    0 -0.51988196437E+02 -0.57045418541E+03 -0.62777053388E+03  0.85455257451E+03  0.89685612884E+02 0.  0.
    5000000    2    1    2    0    0  0.51988196437E+02  0.57045418541E+03 -0.43203126491E+03  0.93530403195E+03  0.60001822314E+03 0.  0.
         23    2    4    4    0    0  0.25541434431E+03  0.52912325374E+03 -0.36904156098E+03  0.70098675686E+03  0.99914236394E+02 0.  0.
         23    2    4    4    0    0 -0.20342614787E+03  0.41330931676E+02 -0.62989703931E+02  0.23431727509E+03  0.88580127872E+02 0.  0.
          3    1    3    3  502    0 -0.40690601962E+02 -0.51855423201E+03 -0.52597208611E+03  0.73973025624E+03  0.00000000000E+00 0. -1.
         -3    1    3    3    0  502 -0.11297594475E+02 -0.51899953405E+02 -0.10179844777E+03  0.11482231827E+03  0.00000000000E+00 0.  1.
         13    1    5    5    0    0  0.23600865550E+03  0.50660948447E+03 -0.37160910122E+03  0.67115317129E+03  0.00000000000E+00 0.  1.
        -13    1    5    5    0    0  0.19405688813E+02  0.22513769269E+02  0.25675402383E+01  0.29833585569E+02  0.00000000000E+00 0. -1.
          5    1    6    6  503    0 -0.14270418204E+03  0.45115808839E+02 -0.45241400996E+01  0.14980813604E+03  0.47000000000E+01 0. -1.
         -5    1    6    6    0  503 -0.60721965827E+02 -0.37848771633E+01 -0.58465563831E+02  0.84509139051E+02  0.47000000000E+01 0.  1.
<mgrwt>
<rscale>  0 0.68631656E+03</rscale>
<asrwt>0</asrwt>
<pdfrwt beam="1">  1        1 0.21920449E+00 0.68631656E+03</pdfrwt>
<pdfrwt beam="2">  1       -1 0.56158063E-01 0.68631656E+03</pdfrwt>
<totfact> 0.24652245E+01</totfact>
</mgrwt>
</event>
<event>
12    1  0.3166324E-008  0.3729121E+03  0.7818608E-02  0.1053585E+00
         -3   -1    0    0    0  501 -0.00000000000E+00  0.00000000000E+00  0.12345052037E+03  0.12345052037E+03  0.00000000000E+00 0.  1.
          3   -1    0    0  501    0  0.00000000000E+00 -0.00000000000E+00 -0.22771145034E+04  0.22771145034E+04  0.00000000000E+00 0. -1.
         23    2    1    2    0    0 -0.28667629811E+03  0.15232868811E+03 -0.42759151771E+03  0.54457031743E+03  0.91296196460E+02 0.  0.
    5000000    2    1    2    0    0  0.28667629811E+03 -0.15232868811E+03 -0.17260724653E+04  0.18559947063E+04  0.60000238775E+03 0.  0.
         23    2    4    4    0    0  0.76419585494E+02 -0.14657185217E+03 -0.97806467675E+02  0.21178818816E+03  0.89246123895E+02 0.  0.
         23    2    4    4    0    0  0.21025671261E+03 -0.57568359326E+01 -0.16282659976E+04  0.16442065181E+04  0.89016228693E+02 0.  0.
          3    1    3    3  502    0 -0.17742312880E+03  0.53659588933E+02 -0.19285589274E+03  0.26749152039E+03  0.00000000000E+00 0. -1.
         -3    1    3    3    0  502 -0.10925316931E+03  0.98669099172E+02 -0.23473562497E+03  0.27707879704E+03  0.00000000000E+00 0.  1.
         11    1    5    5    0    0  0.41259065988E+02 -0.47915380468E+01 -0.17278014036E+02  0.44986655044E+02  0.00000000000E+00 0. -1.
        -11    1    5    5    0    0  0.35160519506E+02 -0.14178031413E+03 -0.80528453640E+02  0.16680153312E+03  0.00000000000E+00 0.  1.
          5    1    6    6  503    0  0.14732302300E+03 -0.41477095608E+02 -0.12171474991E+04  0.12267414345E+04  0.47000000000E+01 0.  1.
         -5    1    6    6    0  503  0.62933689612E+02  0.35720259675E+02 -0.41111849854E+03  0.41746508366E+03  0.47000000000E+01 0. -1.
<mgrwt>
<rscale>  0 0.37291213E+03</rscale>
<asrwt>0</asrwt>
<pdfrwt beam="1">  1        3 0.35032530E+00 0.37291213E+03</pdfrwt>
<pdfrwt beam="2">  1       -3 0.18992388E-01 0.37291213E+03</pdfrwt>
<totfact> 0.14510934E+00</totfact>
</mgrwt>
</event>
<event>
12    1  0.3166324E-008  0.1387789E+04  0.7818608E-02  0.8962705E-01
          2   -1    0    0  501    0  0.00000000000E+00  0.00000000000E+00  0.32739716426E+04  0.32739716426E+04  0.00000000000E+00 0.  1.
         -2   -1    0    0    0  501 -0.00000000000E+00 -0.00000000000E+00 -0.66194177400E+03  0.66194177400E+03  0.00000000000E+00 0. -1.
         23    2    1    2    0    0 -0.12762992269E+04 -0.35043740553E+03  0.60560581562E+03  0.14585108075E+04  0.93537585218E+02 0.  0.
    5000000    2    1    2    0    0  0.12762992269E+04  0.35043740553E+03  0.20064240530E+04  0.24774026092E+04  0.60003342888E+03 0.  0.
         23    2    4    4    0    0  0.13068895959E+04  0.32965840094E+03  0.18280807220E+04  0.22730643301E+04  0.91144091366E+02 0.  0.
         23    2    4    4    0    0 -0.30590369032E+02  0.20779004597E+02  0.17834333100E+03  0.20433827909E+03  0.92629643622E+02 0.  0.
          2    1    3    3  502    0 -0.60727125416E+03 -0.11835517773E+03  0.28302463320E+03  0.68035966019E+03  0.00000000000E+00 0. -1.
         -2    1    3    3    0  502 -0.66902797271E+03 -0.23208222780E+03  0.32258118243E+03  0.77815114726E+03  0.00000000000E+00 0.  1.
         11    1    5    5    0    0  0.56970931431E+02  0.33633526037E+02  0.99316791280E+02  0.11933451358E+03  0.00000000000E+00 0. -1.
        -11    1    5    5    0    0  0.12499186645E+04  0.29602487490E+03  0.17287639307E+04  0.21537298165E+04  0.00000000000E+00 0.  1.
          5    1    6    6  503    0 -0.29596032314E+02 -0.32722962803E+02  0.99380688057E+02  0.10883624664E+03  0.47000000000E+01 0. -1.
         -5    1    6    6    0  503 -0.99433671806E+00  0.53501967399E+02  0.78962642947E+02  0.95502032451E+02  0.47000000000E+01 0.  1.
<mgrwt>
<rscale>  0 0.13877889E+04</rscale>
<asrwt>0</asrwt>
<pdfrwt beam="1">  1        2 0.50368793E+00 0.13877889E+04</pdfrwt>
<pdfrwt beam="2">  1       -2 0.10183720E+00 0.13877889E+04</pdfrwt>
<totfact> 0.89066592E-01</totfact>
</mgrwt>
</event>
<event>
12    1  0.3166324E-008  0.6529161E+03  0.7818608E-02  0.9801323E-01
          2   -1    0    0  501    0  0.00000000000E+00  0.00000000000E+00  0.11488656521E+04  0.11488656521E+04  0.00000000000E+00 0. -1.
         -2   -1    0    0    0  501 -0.00000000000E+00 -0.00000000000E+00 -0.59497290033E+03  0.59497290033E+03  0.00000000000E+00 0.  1.
         23    2    1    2    0    0  0.40252244910E+03 -0.49414414973E+03  0.58275216743E+03  0.86837096259E+03  0.90913570414E+02 0.  0.
    5000000    2    1    2    0    0 -0.40252244910E+03  0.49414414973E+03 -0.28859415642E+02  0.87546758985E+03  0.59950635715E+03 0.  0.
         23    2    4    4    0    0 -0.21158906392E+03  0.14452625058E+03 -0.28409600471E+03  0.39323913777E+03  0.90932450243E+02 0.  0.
         23    2    4    4    0    0 -0.19093338518E+03  0.34961789915E+03  0.25523658907E+03  0.48222845208E+03  0.93329151997E+02 0.  0.
          2    1    3    3  502    0  0.15093777815E+03 -0.12843726744E+03  0.20975658218E+03  0.28857610488E+03  0.00000000000E+00 0. -1.
         -2    1    3    3    0  502  0.25158467095E+03 -0.36570688229E+03  0.37299558525E+03  0.57979485771E+03  0.00000000000E+00 0.  1.
         13    1    5    5    0    0 -0.11069876414E+03  0.41982048115E+02 -0.77534522957E+02  0.14152141533E+03  0.00000000000E+00 0. -1.
        -13    1    5    5    0    0 -0.10089029978E+03  0.10254420246E+03 -0.20656148175E+03  0.25171772244E+03  0.00000000000E+00 0.  1.
          5    1    6    6  503    0 -0.12883212470E+03  0.18485105038E+03  0.96662477428E+02  0.24522102627E+03  0.47000000000E+01 0. -1.
         -5    1    6    6    0  503 -0.62101260476E+02  0.16476684877E+03  0.15857411164E+03  0.23700742581E+03  0.47000000000E+01 0.  1.
<mgrwt>
<rscale>  0 0.65291610E+03</rscale>
<asrwt>0</asrwt>
<pdfrwt beam="1">  1        2 0.17674856E+00 0.65291610E+03</pdfrwt>
<pdfrwt beam="2">  1       -2 0.91534293E-01 0.65291610E+03</pdfrwt>
<totfact> 0.21285034E+01</totfact>
</mgrwt>
</event>
<event>
12    1  0.3166324E-008  0.1491820E+04  0.7818608E-02  0.8889911E-01
         -1   -1    0    0    0  501 -0.00000000000E+00  0.00000000000E+00  0.11462369540E+04  0.11462369540E+04  0.00000000000E+00 0.  1.
          1   -1    0    0  501    0  0.00000000000E+00 -0.00000000000E+00 -0.23774719504E+04  0.23774719504E+04  0.00000000000E+00 0. -1.
         23    2    1    2    0    0 -0.10206834731E+04  0.10781846139E+04  0.25968288996E+02  0.14877966611E+04  0.92670053836E+02 0.  0.
    5000000    2    1    2    0    0  0.10206834731E+04 -0.10781846139E+04 -0.12572032855E+04  0.20359122433E+04  0.60008478372E+03 0.  0.
         23    2    4    4    0    0  0.26211049677E+03 -0.27870266779E+03 -0.46301929283E+02  0.39601698943E+03  0.91150961098E+02 0.  0.
         23    2    4    4    0    0  0.75857297632E+03 -0.79948194611E+03 -0.12109013562E+04  0.16398952539E+04  0.91487741289E+02 0.  0.
          1    1    3    3  502    0 -0.12951261931E+03  0.99519293166E+02 -0.10542201204E+02  0.16367268030E+03  0.00000000000E+00 0. -1.
         -1    1    3    3    0  502 -0.89117085377E+03  0.97866532074E+03  0.36510490199E+02  0.13241239808E+04  0.00000000000E+00 0.  1.
         13    1    5    5    0    0  0.19604979575E+03 -0.14403202861E+03 -0.26293009110E+02  0.24468769893E+03  0.00000000000E+00 0.  1.
        -13    1    5    5    0    0  0.66060701020E+02 -0.13467063918E+03 -0.20008920174E+02  0.15132929050E+03  0.00000000000E+00 0. -1.
          5    1    6    6  503    0  0.49726631557E+03 -0.56010095562E+03 -0.76987522609E+03  0.10741121091E+04  0.47000000000E+01 0. -1.
         -5    1    6    6    0  503  0.26130666075E+03 -0.23938099049E+03 -0.44102613009E+03  0.56578314484E+03  0.47000000000E+01 0.  1.
<mgrwt>
<rscale>  0 0.14918202E+04</rscale>
<asrwt>0</asrwt>
<pdfrwt beam="1">  1        1 0.36576491E+00 0.14918202E+04</pdfrwt>
<pdfrwt beam="2">  1       -1 0.17634415E+00 0.14918202E+04</pdfrwt>
<totfact> 0.34519919E-01</totfact>
</mgrwt>
</event>
<event>
12    1  0.3166324E-008  0.3038904E+03  0.7818608E-02  0.1083312E+00
         -2   -1    0    0    0  501 -0.00000000000E+00  0.00000000000E+00  0.33272128012E+03  0.33272128012E+03  0.00000000000E+00 0.  1.
          2   -1    0    0  501    0  0.00000000000E+00 -0.00000000000E+00 -0.73532456043E+03  0.73532456043E+03  0.00000000000E+00 0. -1.
         23    2    1    2    0    0  0.27197122652E+03 -0.11918525030E+03 -0.61627942478E+02  0.31673920903E+03  0.91390652157E+02 0.  0.
    5000000    2    1    2    0    0 -0.27197122652E+03  0.11918525030E+03 -0.34097533783E+03  0.75130663151E+03  0.60002000099E+03 0.  0.
         23    2    4    4    0    0 -0.15685033062E+03  0.90814948039E+02 -0.49689241882E+03  0.53670897141E+03  0.91132118954E+02 0.  0.
         23    2    4    4    0    0 -0.11512089590E+03  0.28370302261E+02  0.15591708099E+03  0.21459766010E+03  0.87660280937E+02 0.  0.
          3    1    3    3  502    0  0.88384986214E+02 -0.32948688170E+02 -0.63833326471E+02  0.11389563384E+03  0.00000000000E+00 0. -1.
         -3    1    3    3    0  502  0.18358624031E+03 -0.86236562129E+02  0.22053839931E+01  0.20284357519E+03  0.00000000000E+00 0.  1.
         11    1    5    5    0    0 -0.15380893871E+03  0.96786279870E+02 -0.39727420661E+03  0.43686561874E+03  0.00000000000E+00 0.  1.
        -11    1    5    5    0    0 -0.30413919170E+01 -0.59713318312E+01 -0.99618212208E+02  0.99843352669E+02  0.00000000000E+00 0. -1.
          5    1    6    6  503    0 -0.17161840440E+02 -0.51964906874E+01  0.89700597156E+02  0.91595957404E+02  0.47000000000E+01 0. -1.
         -5    1    6    6    0  503 -0.97959055456E+02  0.33566792948E+02  0.66216483833E+02  0.12300170270E+03  0.47000000000E+01 0.  1.
<mgrwt>
<rscale>  0 0.30389044E+03</rscale>
<asrwt>0</asrwt>
<pdfrwt beam="1">  1        2 0.11312686E+00 0.30389044E+03</pdfrwt>
<pdfrwt beam="2">  1       -2 0.51187889E-01 0.30389044E+03</pdfrwt>
<totfact> 0.14556615E+02</totfact>
</mgrwt>
</event>
<event>
12    1  0.3166324E-008  0.8815594E+03  0.7818608E-02  0.9448931E-01
         -2   -1    0    0    0  501 -0.00000000000E+00  0.00000000000E+00  0.47816121920E+03  0.47816121920E+03  0.00000000000E+00 0.  1.
          2   -1    0    0  501    0  0.00000000000E+00 -0.00000000000E+00 -0.18240035408E+04  0.18240035408E+04  0.00000000000E+00 0. -1.
         23    2    1    2    0    0 -0.51378348592E+02  0.79722552256E+03 -0.30670489255E+03  0.86059590680E+03  0.91373711514E+02 0.  0.
    5000000    2    1    2    0    0  0.51378348592E+02 -0.79722552256E+03 -0.10391374291E+04  0.14415688532E+04  0.60008823812E+03 0.  0.
         23    2    4    4    0    0  0.28870132282E+03 -0.40988819998E+03 -0.37781898000E+03  0.63428521003E+03  0.90629772904E+02 0.  0.
         23    2    4    4    0    0 -0.23732297423E+03 -0.38733732258E+03 -0.66131844906E+03  0.80728364317E+03  0.89511976308E+02 0.  0.
          2    1    3    3  502    0 -0.49879053666E+02  0.52055262384E+03 -0.15690541277E+03  0.54596910420E+03  0.00000000000E+00 0. -1.
         -2    1    3    3    0  502 -0.14992949260E+01  0.27667289872E+03 -0.14979947978E+03  0.31462680260E+03  0.00000000000E+00 0.  1.
         11    1    5    5    0    0  0.78236322236E+02 -0.12865266105E+03 -0.65319983705E+02  0.16413143996E+03  0.00000000000E+00 0. -1.
        -11    1    5    5    0    0  0.21046500059E+03 -0.28123553893E+03 -0.31249899630E+03  0.47015377008E+03  0.00000000000E+00 0.  1.
          5    1    6    6  503    0 -0.16546800811E+03 -0.19216798587E+03 -0.33269109040E+03  0.41834632559E+03  0.47000000000E+01 0. -1.
         -5    1    6    6    0  503 -0.71854966118E+02 -0.19516933672E+03 -0.32862735866E+03  0.38893731759E+03  0.47000000000E+01 0.  1.
<mgrwt>
<rscale>  0 0.88155941E+03</rscale>
<asrwt>0</asrwt>
<pdfrwt beam="1">  1        2 0.28061592E+00 0.88155941E+03</pdfrwt>
<pdfrwt beam="2">  1       -2 0.73563266E-01 0.88155941E+03</pdfrwt>
<totfact> 0.14137435E+01</totfact>
</mgrwt>
</event>
<event>
12    1  0.3166324E-008  0.4390175E+03  0.7818608E-02  0.1031049E+00
         -2   -1    0    0    0  501 -0.00000000000E+00  0.00000000000E+00  0.13994453375E+03  0.13994453375E+03  0.00000000000E+00 0.  1.
          2   -1    0    0  501    0  0.00000000000E+00 -0.00000000000E+00 -0.14502931280E+04  0.14502931280E+04  0.00000000000E+00 0. -1.
         23    2    1    2    0    0 -0.22923166693E+03  0.59799102462E+02 -0.33748008957E+03  0.42295146199E+03  0.94191499442E+02 0.  0.
    5000000    2    1    2    0    0  0.22923166693E+03 -0.59799102462E+02 -0.97286850470E+03  0.11672861998E+04  0.59996737827E+03 0.  0.
         23    2    4    4    0    0  0.41368660334E+03 -0.12637109282E+02 -0.74531907783E+03  0.85642745173E+03  0.81677108089E+02 0.  0.
         23    2    4    4    0    0 -0.18445493642E+03 -0.47161993180E+02 -0.22754942687E+03  0.31085874805E+03  0.92771452514E+02 0.  0.
          4    1    3    3  502    0 -0.13061639250E+03 -0.12699078385E+02 -0.19597565038E+03  0.23585666012E+03  0.00000000000E+00 0. -1.
         -4    1    3    3    0  502 -0.98615274422E+02  0.72498180847E+02 -0.14150443919E+03  0.18709480187E+03  0.00000000000E+00 0.  1.
         11    1    5    5    0    0  0.26624782818E+03 -0.32317285582E+02 -0.41445570804E+03  0.49366572383E+03  0.00000000000E+00 0. -1.
        -11    1    5    5    0    0  0.14743877516E+03  0.19680176301E+02 -0.33086336979E+03  0.36276172790E+03  0.00000000000E+00 0.  1.
          5    1    6    6  503    0 -0.22636402934E+02 -0.39033945334E+02 -0.78446439187E+02  0.90620027848E+02  0.47000000000E+01 0. -1.
         -5    1    6    6    0  503 -0.16181853348E+03 -0.81280478463E+01 -0.14910298768E+03  0.22023872020E+03  0.47000000000E+01 0.  1.
<mgrwt>
<rscale>  0 0.43901746E+03</rscale>
<asrwt>0</asrwt>
<pdfrwt beam="1">  1        2 0.22312203E+00 0.43901746E+03</pdfrwt>
<pdfrwt beam="2">  1       -2 0.21529928E-01 0.43901746E+03</pdfrwt>
<totfact> 0.26415073E+02</totfact>
</mgrwt>
</event>
<event>
12    1  0.3166324E-008  0.4419178E+03  0.7818608E-02  0.1030160E+00
         -4   -1    0    0    0  501 -0.00000000000E+00  0.00000000000E+00  0.24674528864E+03  0.24674528864E+03  0.00000000000E+00 0.  1.
          4   -1    0    0  501    0  0.00000000000E+00 -0.00000000000E+00 -0.14845635033E+04  0.14845635033E+04  0.00000000000E+00 0. -1.
         23    2    1    2    0    0 -0.77872278778E+02 -0.41055077760E+03 -0.23167947079E+03  0.48752154166E+03  0.96880563601E+02 0.  0.
    5000000    2    1    2    0    0  0.77872278778E+02  0.41055077760E+03 -0.10061387439E+04  0.12437872503E+04  0.60006292943E+03 0.  0.
         23    2    4    4    0    0  0.80700197476E+02  0.14166019677E+03 -0.93244931324E+03  0.95125797160E+03  0.94073766528E+02 0.  0.
         23    2    4    4    0    0 -0.28279186978E+01  0.26889058083E+03 -0.73689430657E+02  0.29252927871E+03  0.88504831112E+02 0.  0.
          1    1    3    3  502    0 -0.40570930615E+02 -0.56691166260E+02 -0.16299595362E+02  0.71593055192E+02  0.00000000000E+00 0. -1.
         -1    1    3    3    0  502 -0.37301348163E+02 -0.35385961134E+03 -0.21537987543E+03  0.41592848647E+03  0.00000000000E+00 0.  1.
         13    1    5    5    0    0  0.18406605422E+02  0.97407718566E+02 -0.68910243760E+03  0.69619626275E+03  0.00000000000E+00 0. -1.
        -13    1    5    5    0    0  0.62293592054E+02  0.44252478208E+02 -0.24334687564E+03  0.25506170885E+03  0.00000000000E+00 0.  1.
          5    1    6    6  503    0 -0.30484645962E+02  0.24180381291E+03 -0.58538312738E+02  0.25069348144E+03  0.47000000000E+01 0. -1.
         -5    1    6    6    0  503  0.27656727264E+02  0.27086767917E+02 -0.15151117919E+02  0.41835797271E+02  0.47000000000E+01 0.  1.
<mgrwt>
<rscale>  0 0.44191779E+03</rscale>
<asrwt>0</asrwt>
<pdfrwt beam="1">  1        4 0.22839439E+00 0.44191779E+03</pdfrwt>
<pdfrwt beam="2">  1       -4 0.37960813E-01 0.44191779E+03</pdfrwt>
<totfact> 0.11704657E+00</totfact>
</mgrwt>
</event>
<event>
12    1  0.3166324E-008  0.6922316E+03  0.7818608E-02  0.9730610E-01
         -1   -1    0    0    0  501 -0.00000000000E+00  0.00000000000E+00  0.41521045851E+03  0.41521045851E+03  0.00000000000E+00 0. -1.
          1   -1    0    0  501    0  0.00000000000E+00 -0.00000000000E+00 -0.20339153258E+04  0.20339153258E+04  0.00000000000E+00 0.  1.
         23    2    1    2    0    0 -0.33983764147E+03  0.48686201988E+03 -0.14752141588E+04  0.15928852367E+04  0.92207993407E+02 0.  0.
    5000000    2    1    2    0    0  0.33983764147E+03 -0.48686201988E+03 -0.14349070846E+03  0.85624054757E+03  0.60002836844E+03 0.  0.
         23    2    4    4    0    0 -0.10983292707E+03 -0.20388367196E+03 -0.19237852233E+03  0.31676579861E+03  0.98484779296E+02 0.  0.
         23    2    4    4    0    0  0.44967056854E+03 -0.28297834792E+03  0.48887813873E+02  0.53947474896E+03  0.79766038034E+02 0.  0.
          1    1    3    3  502    0 -0.16805798255E+03  0.31019011792E+03 -0.92583670345E+03  0.99077494731E+03  0.00000000000E+00 0. -1.
         -1    1    3    3    0  502 -0.17177965892E+03  0.17667190196E+03 -0.54937745535E+03  0.60211028941E+03  0.00000000000E+00 0.  1.
         13    1    5    5    0    0  0.16827279382E+02 -0.15663141404E+02 -0.77384945959E+01  0.24256455402E+02  0.00000000000E+00 0. -1.
        -13    1    5    5    0    0 -0.12666020645E+03 -0.18822053056E+03 -0.18464002774E+03  0.29250934321E+03  0.00000000000E+00 0.  1.
          5    1    6    6  503    0 -0.64120940879E-01 -0.21995092581E+01  0.53956246567E+01  0.74863020182E+01  0.47000000000E+01 0. -1.
         -5    1    6    6    0  503  0.44973468948E+03 -0.28077883866E+03  0.43492189217E+02  0.53198844695E+03  0.47000000000E+01 0.  1.
<mgrwt>
<rscale>  0 0.69223165E+03</rscale>
<asrwt>0</asrwt>
<pdfrwt beam="1">  1        1 0.31291005E+00 0.69223165E+03</pdfrwt>
<pdfrwt beam="2">  1       -1 0.63878533E-01 0.69223165E+03</pdfrwt>
<totfact> 0.74369533E+00</totfact>
</mgrwt>
</event>
<event>
12    1  0.3166324E-008  0.1124692E+04  0.7818608E-02  0.9181454E-01
         -1   -1    0    0    0  501 -0.00000000000E+00  0.00000000000E+00  0.16898716253E+04  0.16898716253E+04  0.00000000000E+00 0.  1.
          1   -1    0    0  501    0  0.00000000000E+00 -0.00000000000E+00 -0.99502031420E+03  0.99502031420E+03  0.00000000000E+00 0. -1.
         23    2    1    2    0    0 -0.31790156386E+03 -0.10701786772E+04  0.85241034838E+03  0.14076886905E+04  0.92952902367E+02 0.  0.
    5000000    2    1    2    0    0  0.31790156386E+03  0.10701786772E+04 -0.15755903729E+03  0.12772032490E+04  0.60006623263E+03 0.  0.
         23    2    4    4    0    0  0.50062375871E+02  0.29011845951E+03 -0.30600696170E+03  0.43406847572E+03  0.90001216523E+02 0.  0.
         23    2    4    4    0    0  0.26783918799E+03  0.78006021766E+03  0.14844792441E+03  0.84313477324E+03  0.92777614681E+02 0.  0.
          3    1    3    3  502    0 -0.12599144353E+03 -0.52784633442E+03  0.45888649421E+03  0.71068446668E+03  0.00000000000E+00 0. -1.
         -3    1    3    3    0  502 -0.19191012033E+03 -0.54233234275E+03  0.39352385417E+03  0.69700422386E+03  0.00000000000E+00 0.  1.
         13    1    5    5    0    0  0.68017759841E+02  0.27039459037E+03 -0.26195187944E+03  0.38256821260E+03  0.00000000000E+00 0. -1.
        -13    1    5    5    0    0 -0.17955383970E+02  0.19723869142E+02 -0.44055082267E+02  0.51500263116E+02  0.00000000000E+00 0.  1.
          5    1    6    6  503    0  0.16438500153E+03  0.54003387256E+03  0.62568807865E+02  0.56797531456E+03  0.47000000000E+01 0. -1.
         -5    1    6    6    0  503  0.10345418647E+03  0.24002634510E+03  0.85879116546E+02  0.27515945867E+03  0.47000000000E+01 0.  1.
<mgrwt>
<rscale>  0 0.11246921E+04</rscale>
<asrwt>0</asrwt>
<pdfrwt beam="1">  1        1 0.15308005E+00 0.11246921E+04</pdfrwt>
<pdfrwt beam="2">  1       -1 0.25998025E+00 0.11246921E+04</pdfrwt>
<totfact> 0.90909911E-01</totfact>
</mgrwt>
</event>
<event>
12    1  0.3166324E-008  0.7283220E+03  0.7818608E-02  0.9669987E-01
          1   -1    0    0  501    0  0.00000000000E+00  0.00000000000E+00  0.14643160485E+04  0.14643160485E+04  0.00000000000E+00 0. -1.
         -1   -1    0    0    0  501 -0.00000000000E+00 -0.00000000000E+00 -0.37311350208E+03  0.37311350208E+03  0.00000000000E+00 0.  1.
         23    2    1    2    0    0  0.58339515278E+03 -0.18892090080E+03  0.44636838977E+03  0.76413951165E+03  0.92862494270E+02 0.  0.
    5000000    2    1    2    0    0 -0.58339515278E+03  0.18892090080E+03  0.64483415665E+03  0.10732900389E+04  0.60008283347E+03 0.  0.
         23    2    4    4    0    0 -0.61569591386E+03 -0.10979093793E+02  0.38869336165E+03  0.73412858556E+03  0.93060474413E+02 0.  0.
         23    2    4    4    0    0  0.32300761086E+02  0.19989999460E+03  0.25614079500E+03  0.33916145337E+03  0.91755313622E+02 0.  0.
          2    1    3    3  502    0  0.28565302880E+03 -0.84666424599E+02  0.16050446644E+03  0.33841947353E+03  0.00000000000E+00 0. -1.
         -2    1    3    3    0  502  0.29774212397E+03 -0.10425447621E+03  0.28586392333E+03  0.42572003812E+03  0.00000000000E+00 0.  1.
         11    1    5    5    0    0 -0.91501298178E+02  0.27902173619E+02  0.42130694003E+02  0.10452757645E+03  0.00000000000E+00 0.  1.
        -11    1    5    5    0    0 -0.52419461568E+03 -0.38881267412E+02  0.34656266764E+03  0.62960100911E+03  0.00000000000E+00 0. -1.
          5    1    6    6  503    0 -0.28287713050E+02  0.10820786420E+03  0.13891602093E+03  0.17840652301E+03  0.47000000000E+01 0. -1.
         -5    1    6    6    0  503  0.60588474136E+02  0.91692130402E+02  0.11722477408E+03  0.16075493035E+03  0.47000000000E+01 0.  1.
<mgrwt>
<rscale>  0 0.72832202E+03</rscale>
<asrwt>0</asrwt>
<pdfrwt beam="1">  1        1 0.22527939E+00 0.72832202E+03</pdfrwt>
<pdfrwt beam="2">  1       -1 0.57402078E-01 0.72832202E+03</pdfrwt>
<totfact> 0.22064899E+01</totfact>
</mgrwt>
</event>
<event>
12    1  0.3166324E-008  0.9440751E+03  0.7818608E-02  0.9372103E-01
         -1   -1    0    0    0  501 -0.00000000000E+00  0.00000000000E+00  0.35761773290E+03  0.35761773290E+03  0.00000000000E+00 0.  1.
          1   -1    0    0  501    0  0.00000000000E+00 -0.00000000000E+00 -0.27071750214E+04  0.27071750214E+04  0.00000000000E+00 0. -1.
         23    2    1    2    0    0 -0.24901768119E+03 -0.84693993591E+03 -0.12420190831E+04  0.15265572596E+04  0.91916285347E+02 0.  0.
    5000000    2    1    2    0    0  0.24901768119E+03  0.84693993591E+03 -0.11075382054E+04  0.15382354947E+04  0.60017539110E+03 0.  0.
         23    2    4    4    0    0  0.25250902833E+02  0.75804499682E+03 -0.60295151744E+03  0.97274951310E+03  0.86146721141E+02 0.  0.
         23    2    4    4    0    0  0.22376677836E+03  0.88894939087E+02 -0.50458668793E+03  0.56548598155E+03  0.84810308357E+02 0.  0.
          4    1    3    3  502    0 -0.86750727907E+02 -0.37291380128E+03 -0.47004676023E+03  0.60624611238E+03  0.00000000000E+00 0. -1.
         -4    1    3    3    0  502 -0.16226695328E+03 -0.47402613463E+03 -0.77197232286E+03  0.92031114722E+03  0.00000000000E+00 0.  1.
         13    1    5    5    0    0 -0.41597477024E+01  0.47584521479E+02 -0.14937406696E+02  0.50047140819E+02  0.00000000000E+00 0.  1.
        -13    1    5    5    0    0  0.29410650535E+02  0.71046047534E+03 -0.58801411074E+03  0.92270237228E+03  0.00000000000E+00 0. -1.
          5    1    6    6  503    0  0.95552067126E+02  0.13541572317E+02 -0.27891846883E+03  0.29517990102E+03  0.47000000000E+01 0. -1.
         -5    1    6    6    0  503  0.12821471123E+03  0.75353366770E+02 -0.22566821910E+03  0.27030608053E+03  0.47000000000E+01 0.  1.
<mgrwt>
<rscale>  0 0.94407515E+03</rscale>
<asrwt>0</asrwt>
<pdfrwt beam="1">  1        1 0.41648846E+00 0.94407515E+03</pdfrwt>
<pdfrwt beam="2">  1       -1 0.55018113E-01 0.94407515E+03</pdfrwt>
<totfact> 0.33380743E+00</totfact>
</mgrwt>
</event>
<event>
12    1  0.3166324E-008  0.5520190E+03  0.7818608E-02  0.1001028E+00
          1   -1    0    0  501    0  0.00000000000E+00  0.00000000000E+00  0.79983621529E+03  0.79983621529E+03  0.00000000000E+00 0. -1.
         -1   -1    0    0    0  501 -0.00000000000E+00 -0.00000000000E+00 -0.53407598724E+03  0.53407598724E+03  0.00000000000E+00 0.  1.
         23    2    1    2    0    0 -0.21691938492E+03  0.37336585950E+03 -0.17315069767E+03  0.47425476105E+03  0.92088705487E+02 0.  0.
    5000000    2    1    2    0    0  0.21691938492E+03 -0.37336585950E+03  0.43891092573E+03  0.85965744148E+03  0.59992668833E+03 0.  0.
         23    2    4    4    0    0 -0.15403401737E+03 -0.71437547940E+02  0.29347923573E+03  0.35109495391E+03  0.91147150740E+02 0.  0.
         23    2    4    4    0    0  0.37095340229E+03 -0.30192831156E+03  0.14543168999E+03  0.50856248757E+03  0.93371812223E+02 0.  0.
          2    1    3    3  502    0 -0.11221451693E+03  0.14996847811E+03 -0.32011719859E+02  0.19001945281E+03  0.00000000000E+00 0. -1.
         -2    1    3    3    0  502 -0.10470486799E+03  0.22339738139E+03 -0.14113897781E+03  0.28423530824E+03  0.00000000000E+00 0.  1.
         13    1    5    5    0    0 -0.56679139418E+02 -0.68164952877E+02  0.18597246861E+03  0.20602122397E+03  0.00000000000E+00 0. -1.
        -13    1    5    5    0    0 -0.97354877953E+02 -0.32725950628E+01  0.10750676713E+03  0.14507372994E+03  0.00000000000E+00 0.  1.
          5    1    6    6  503    0  0.10471659421E+03 -0.13000158413E+03  0.78892641031E+02  0.18469465554E+03  0.47000000000E+01 0. -1.
         -5    1    6    6    0  503  0.26623680809E+03 -0.17192672743E+03  0.66539048960E+02  0.32386783203E+03  0.47000000000E+01 0.  1.
<mgrwt>
<rscale>  0 0.55201896E+03</rscale>
<asrwt>0</asrwt>
<pdfrwt beam="1">  1        1 0.12305172E+00 0.55201896E+03</pdfrwt>
<pdfrwt beam="2">  1       -1 0.82165537E-01 0.55201896E+03</pdfrwt>
<totfact> 0.34197551E+01</totfact>
</mgrwt>
</event>
<event>
12    1  0.3166324E-008  0.7431001E+03  0.7818608E-02  0.9646238E-01
          1   -1    0    0  501    0  0.00000000000E+00  0.00000000000E+00  0.19880326676E+04  0.19880326676E+04  0.00000000000E+00 0. -1.
         -1   -1    0    0    0  501 -0.00000000000E+00 -0.00000000000E+00 -0.34478375478E+03  0.34478375478E+03  0.00000000000E+00 0.  1.
         23    2    1    2    0    0 -0.71487803909E+03 -0.21885317644E+02  0.66234691788E+03  0.97867458813E+03  0.87011102247E+02 0.  0.
    5000000    2    1    2    0    0  0.71487803909E+03  0.21885317644E+02  0.98090199490E+03  0.13541418342E+04  0.60000150471E+03 0.  0.
         23    2    4    4    0    0  0.29354410600E+02  0.66236068258E+01 -0.53435295784E+02  0.10996046994E+03  0.91271137419E+02 0.  0.
         23    2    4    4    0    0  0.68552362849E+03  0.15261710818E+02  0.10343372907E+04  0.12441813643E+04  0.89208022337E+02 0.  0.
          4    1    3    3  502    0 -0.43978544267E+03  0.42355775312E+01  0.35356842874E+03  0.56430471334E+03  0.00000000000E+00 0. -1.
         -4    1    3    3    0  502 -0.27509259643E+03 -0.26120895175E+02  0.30877848914E+03  0.41436987479E+03  0.00000000000E+00 0.  1.
         11    1    5    5    0    0  0.35386675272E+02 -0.27808375376E+02  0.12891158514E+01  0.45024263987E+02  0.00000000000E+00 0. -1.
        -11    1    5    5    0    0 -0.60322646715E+01  0.34431982202E+02 -0.54724411635E+02  0.64936205958E+02  0.00000000000E+00 0.  1.
          5    1    6    6  503    0  0.18577027714E+03 -0.30182612515E+02  0.24822220147E+03  0.31154122884E+03  0.47000000000E+01 0. -1.
         -5    1    6    6    0  503  0.49975335136E+03  0.45444323334E+02  0.78611508921E+03  0.93264013542E+03  0.47000000000E+01 0.  1.
<mgrwt>
<rscale>  0 0.74310010E+03</rscale>
<asrwt>0</asrwt>
<pdfrwt beam="1">  1        1 0.30585117E+00 0.74310010E+03</pdfrwt>
<pdfrwt beam="2">  1       -1 0.53043656E-01 0.74310010E+03</pdfrwt>
<totfact> 0.11381457E+01</totfact>
</mgrwt>
</event>
<event>
12    1  0.3166324E-008  0.7727058E+03  0.7818608E-02  0.9600387E-01
          2   -1    0    0  501    0  0.00000000000E+00  0.00000000000E+00  0.10251693140E+04  0.10251693140E+04  0.00000000000E+00 0. -1.
         -2   -1    0    0    0  501 -0.00000000000E+00 -0.00000000000E+00 -0.62509137152E+03  0.62509137152E+03  0.00000000000E+00 0.  1.
         23    2    1    2    0    0  0.22217319126E+03  0.63254065004E+03  0.31662143416E+03  0.74667234314E+03  0.88328107469E+02 0.  0.
    5000000    2    1    2    0    0 -0.22217319126E+03 -0.63254065004E+03  0.83456508313E+02  0.90358834237E+03  0.60003191817E+03 0.  0.
         23    2    4    4    0    0 -0.40309324920E+03 -0.36886407484E+03  0.12388208684E+03  0.56775674907E+03  0.91956954117E+02 0.  0.
         23    2    4    4    0    0  0.18092005795E+03 -0.26367657520E+03 -0.40425578531E+02  0.33583159330E+03  0.94293308259E+02 0.  0.
          2    1    3    3  502    0  0.86157666510E+01  0.91901065665E+02  0.66971980774E+02  0.11404070990E+03  0.00000000000E+00 0. -1.
         -2    1    3    3    0  502  0.21355742460E+03  0.54063958438E+03  0.24964945338E+03  0.63263163324E+03  0.00000000000E+00 0.  1.
         11    1    5    5    0    0 -0.66433073724E+02 -0.81176959676E+02  0.58542498490E+02  0.12012608458E+03  0.00000000000E+00 0. -1.
        -11    1    5    5    0    0 -0.33666017548E+03 -0.28768711516E+03  0.65339588354E+02  0.44763066449E+03  0.00000000000E+00 0.  1.
          5    1    6    6  503    0  0.52367365727E+02 -0.40027562620E+02  0.23308429417E+02  0.70070818779E+02  0.47000000000E+01 0. -1.
         -5    1    6    6    0  503  0.12855269222E+03 -0.22364901258E+03 -0.63734007948E+02  0.26576077452E+03  0.47000000000E+01 0.  1.
<mgrwt>
<rscale>  0 0.77270576E+03</rscale>
<asrwt>0</asrwt>
<pdfrwt beam="1">  1        2 0.15771836E+00 0.77270576E+03</pdfrwt>
<pdfrwt beam="2">  1       -2 0.96167903E-01 0.77270576E+03</pdfrwt>
<totfact> 0.22298509E+01</totfact>
</mgrwt>
</event>
<event>
12    1  0.3166324E-008  0.5732015E+03  0.7818608E-02  0.9962619E-01
         -2   -1    0    0    0  501 -0.00000000000E+00  0.00000000000E+00  0.41298856651E+03  0.41298856651E+03  0.00000000000E+00 0.  1.
          2   -1    0    0  501    0  0.00000000000E+00 -0.00000000000E+00 -0.10176950666E+04  0.10176950666E+04  0.00000000000E+00 0. -1.
         23    2    1    2    0    0  0.19376742726E+03  0.46553689931E+03 -0.21817601233E+03  0.55686198909E+03  0.90686724795E+02 0.  0.
    5000000    2    1    2    0    0 -0.19376742726E+03 -0.46553689931E+03 -0.38653048775E+03  0.87382164402E+03  0.59990668200E+03 0.  0.
         23    2    4    4    0    0 -0.83568516098E+02 -0.48247092810E+03 -0.48867260017E+03  0.69733658581E+03  0.87837978203E+02 0.  0.
         23    2    4    4    0    0 -0.11019891116E+03  0.16934028790E+02  0.10214211241E+03  0.17648505820E+03  0.91013203927E+02 0.  0.
          1    1    3    3  502    0  0.19314444696E+02  0.13188159482E+03 -0.33168593094E+02  0.13735340693E+03  0.00000000000E+00 0. -1.
         -1    1    3    3    0  502  0.17445298256E+03  0.33365530449E+03 -0.18500741923E+03  0.41950858216E+03  0.00000000000E+00 0.  1.
         11    1    5    5    0    0 -0.51286225706E+01 -0.27410007478E+03 -0.25151137325E+03  0.37204183184E+03  0.00000000000E+00 0. -1.
        -11    1    5    5    0    0 -0.78439893527E+02 -0.20837085331E+03 -0.23716122692E+03  0.32529475397E+03  0.00000000000E+00 0.  1.
          5    1    6    6  503    0 -0.12457861458E+02  0.37521985356E+02  0.49351185331E+02  0.63409204307E+02  0.47000000000E+01 0. -1.
         -5    1    6    6    0  503 -0.97741049702E+02 -0.20587956566E+02  0.52790927083E+02  0.11307585390E+03  0.47000000000E+01 0.  1.
<mgrwt>
<rscale>  0 0.57320155E+03</rscale>
<asrwt>0</asrwt>
<pdfrwt beam="1">  1        2 0.15656847E+00 0.57320155E+03</pdfrwt>
<pdfrwt beam="2">  1       -2 0.63536703E-01 0.57320155E+03</pdfrwt>
<totfact> 0.58109028E+01</totfact>
</mgrwt>
</event>
<event>
12    1  0.3166324E-008  0.1076927E+04  0.7818608E-02  0.9227976E-01
         -2   -1    0    0    0  501 -0.00000000000E+00  0.00000000000E+00  0.66433494378E+03  0.66433494378E+03  0.00000000000E+00 0.  1.
          2   -1    0    0  501    0  0.00000000000E+00 -0.00000000000E+00 -0.17830812882E+04  0.17830812882E+04  0.00000000000E+00 0. -1.
         23    2    1    2    0    0  0.37913735508E+03 -0.92508072085E+03 -0.61331595708E+03  0.11765930267E+04  0.93248126751E+02 0.  0.
    5000000    2    1    2    0    0 -0.37913735508E+03  0.92508072085E+03 -0.50543038735E+03  0.12708232053E+04  0.60001022371E+03 0.  0.
         23    2    4    4    0    0 -0.52416517664E+03  0.65851071137E+03 -0.32939386149E+03  0.90829411916E+03  0.90068870940E+02 0.  0.
         23    2    4    4    0    0  0.14502782156E+03  0.26657000948E+03 -0.17603652586E+03  0.36252908614E+03  0.91355573894E+02 0.  0.
          4    1    3    3  502    0  0.19257325967E+03 -0.53679167162E+03 -0.30393887043E+03  0.64622642783E+03  0.00000000000E+00 0. -1.
         -4    1    3    3    0  502  0.18656409541E+03 -0.38828904922E+03 -0.30937708665E+03  0.53036659886E+03  0.00000000000E+00 0.  1.
         13    1    5    5    0    0 -0.76912937642E+02  0.15392571470E+03 -0.73145772480E+02  0.18697333942E+03  0.00000000000E+00 0.  1.
        -13    1    5    5    0    0 -0.44725223900E+03  0.50458499667E+03 -0.25624808901E+03  0.72132077974E+03  0.00000000000E+00 0. -1.
          5    1    6    6  503    0  0.58467902704E+02  0.68192690136E+02 -0.11651279899E+02  0.90700501420E+02  0.47000000000E+01 0. -1.
         -5    1    6    6    0  503  0.86559918857E+02  0.19837731934E+03 -0.16438524596E+03  0.27182858472E+03  0.47000000000E+01 0.  1.
<mgrwt>
<rscale>  0 0.10769275E+04</rscale>
<asrwt>0</asrwt>
<pdfrwt beam="1">  1        2 0.27432020E+00 0.10769275E+04</pdfrwt>
<pdfrwt beam="2">  1       -2 0.10220538E+00 0.10769275E+04</pdfrwt>
<totfact> 0.68417408E+00</totfact>
</mgrwt>
</event>
<event>
12    1  0.3166324E-008  0.6658288E+03  0.7818608E-02  0.9777523E-01
         -1   -1    0    0    0  501 -0.00000000000E+00  0.00000000000E+00  0.71634023083E+03  0.71634023083E+03  0.00000000000E+00 0.  1.
          1   -1    0    0  501    0  0.00000000000E+00 -0.00000000000E+00 -0.94951837326E+03  0.94951837326E+03  0.00000000000E+00 0. -1.
         23    2    1    2    0    0  0.14158937409E+03 -0.59940787940E+03 -0.46501602839E+03  0.77529936829E+03  0.74241814882E+02 0.  0.
    5000000    2    1    2    0    0 -0.14158937409E+03  0.59940787940E+03  0.23183788596E+03  0.89055923579E+03  0.60000799190E+03 0.  0.
         23    2    4    4    0    0  0.96655680534E+02  0.33739343722E+03  0.35232155463E+03  0.50534582323E+03  0.89817988985E+02 0.  0.
         23    2    4    4    0    0 -0.23824505463E+03  0.26201444218E+03 -0.12048366867E+03  0.38521341256E+03  0.91982524605E+02 0.  0.
          1    1    3    3  502    0  0.68667264651E+01 -0.14094669342E+03 -0.12846596491E+03  0.19083140848E+03  0.00000000000E+00 0. -1.
         -1    1    3    3    0  502  0.13472264763E+03 -0.45846118597E+03 -0.33655006348E+03  0.58446795982E+03  0.00000000000E+00 0.  1.
         11    1    5    5    0    0  0.98804885678E+02  0.25544785710E+03  0.30797159492E+03  0.41214380550E+03  0.00000000000E+00 0. -1.
        -11    1    5    5    0    0 -0.21492051440E+01  0.81945580123E+02  0.44349959705E+02  0.93202017737E+02  0.00000000000E+00 0.  1.
          5    1    6    6  503    0 -0.17586629435E+03  0.21901498812E+03 -0.57893269926E+02  0.28682789127E+03  0.47000000000E+01 0. -1.
         -5    1    6    6    0  503 -0.62378760279E+02  0.42999454058E+02 -0.62590398746E+02  0.98385521285E+02  0.47000000000E+01 0.  1.
<mgrwt>
<rscale>  0 0.66582880E+03</rscale>
<asrwt>0</asrwt>
<pdfrwt beam="1">  1        1 0.14607975E+00 0.66582880E+03</pdfrwt>
<pdfrwt beam="2">  1       -1 0.11020619E+00 0.66582880E+03</pdfrwt>
<totfact> 0.13146036E+01</totfact>
</mgrwt>
</event>
<event>
12    1  0.3166324E-008  0.8635449E+03  0.7818608E-02  0.9472336E-01
         -2   -1    0    0    0  501 -0.00000000000E+00  0.00000000000E+00  0.44096426701E+03  0.44096426701E+03  0.00000000000E+00 0.  1.
          2   -1    0    0  501    0  0.00000000000E+00 -0.00000000000E+00 -0.17920004189E+04  0.17920004189E+04  0.00000000000E+00 0. -1.
         23    2    1    2    0    0  0.77348037264E+03 -0.12940826012E+03 -0.63444623274E+03  0.10126693163E+04  0.89211755639E+02 0.  0.
    5000000    2    1    2    0    0 -0.77348037264E+03  0.12940826012E+03 -0.71658991919E+03  0.12202953696E+04  0.60050086779E+03 0.  0.
         23    2    4    4    0    0  0.72977748953E+02  0.44063982920E+02 -0.13964467952E+03  0.18823795896E+03  0.93088700923E+02 0.  0.
         23    2    4    4    0    0 -0.84645812159E+03  0.85344277196E+02 -0.57694523967E+03  0.10320574107E+04  0.92204620783E+02 0.  0.
          3    1    3    3  502    0  0.20667370129E+03  0.17052959692E+01 -0.18711128331E+03  0.27879662692E+03  0.00000000000E+00 0. -1.
         -3    1    3    3    0  502  0.56680667134E+03 -0.13111355608E+03 -0.44733494943E+03  0.73387268940E+03  0.00000000000E+00 0.  1.
         13    1    5    5    0    0  0.24367081679E+02  0.12847412934E+02  0.88242524979E+01  0.28925388861E+02  0.00000000000E+00 0. -1.
        -13    1    5    5    0    0  0.48610667275E+02  0.31216569985E+02 -0.14846893202E+03  0.15931257009E+03  0.00000000000E+00 0.  1.
          5    1    6    6  503    0 -0.22281184888E+03 -0.63363377746E+01 -0.11745933577E+03  0.25200010861E+03  0.47000000000E+01 0. -1.
         -5    1    6    6    0  503 -0.62364627271E+03  0.91680614970E+02 -0.45948590390E+03  0.78005730207E+03  0.47000000000E+01 0.  1.
<mgrwt>
<rscale>  0 0.86354493E+03</rscale>
<asrwt>0</asrwt>
<pdfrwt beam="1">  1        2 0.27569237E+00 0.86354493E+03</pdfrwt>
<pdfrwt beam="2">  1       -2 0.67840656E-01 0.86354493E+03</pdfrwt>
<totfact> 0.17616565E+01</totfact>
</mgrwt>
</event>
<event>
12    1  0.3166324E-008  0.9663530E+03  0.7818608E-02  0.9346238E-01
          2   -1    0    0  501    0  0.00000000000E+00  0.00000000000E+00  0.17539776278E+04  0.17539776278E+04  0.00000000000E+00 0. -1.
         -2   -1    0    0    0  501 -0.00000000000E+00 -0.00000000000E+00 -0.60820503631E+03  0.60820503631E+03  0.00000000000E+00 0.  1.
         23    2    1    2    0    0  0.11831926505E+03  0.87670271412E+03  0.15135684478E+03  0.90218585194E+03  0.91778644369E+02 0.  0.
    5000000    2    1    2    0    0 -0.11831926505E+03 -0.87670271412E+03  0.99441574669E+03  0.14599968121E+04  0.60010075550E+03 0.  0.
         23    2    4    4    0    0 -0.32171076767E+03 -0.38799611375E+03  0.34221481882E+03  0.61428524271E+03  0.78718326164E+02 0.  0.
         23    2    4    4    0    0  0.20339150262E+03 -0.48870660037E+03  0.65220092787E+03  0.84571156942E+03  0.98284097180E+02 0.  0.
          3    1    3    3  502    0  0.19128825672E+02  0.48222143142E+03  0.78000037062E+02  0.48886340287E+03  0.00000000000E+00 0. -1.
         -3    1    3    3    0  502  0.99190439377E+02  0.39448128270E+03  0.73356807714E+02  0.41332244907E+03  0.00000000000E+00 0.  1.
         13    1    5    5    0    0 -0.16243757669E+03 -0.22465711199E+03  0.22909767610E+03  0.35964222427E+03  0.00000000000E+00 0. -1.
        -13    1    5    5    0    0 -0.15927319098E+03 -0.16333900175E+03  0.11311714273E+03  0.25464301844E+03  0.00000000000E+00 0.  1.
          5    1    6    6  503    0  0.93712705475E+02 -0.34263044623E+03  0.44621088804E+03  0.57035422367E+03  0.47000000000E+01 0. -1.
         -5    1    6    6    0  503  0.10967879715E+03 -0.14607615414E+03  0.20599003983E+03  0.27535734575E+03  0.47000000000E+01 0.  1.
<mgrwt>
<rscale>  0 0.96635303E+03</rscale>
<asrwt>0</asrwt>
<pdfrwt beam="1">  1        2 0.26984271E+00 0.96635303E+03</pdfrwt>
<pdfrwt beam="2">  1       -2 0.93570006E-01 0.96635303E+03</pdfrwt>
<totfact> 0.88535601E+00</totfact>
</mgrwt>
</event>
<event>
12    1  0.3166324E-008  0.7894210E+03  0.7818608E-02  0.9575457E-01
         -2   -1    0    0    0  501 -0.00000000000E+00  0.00000000000E+00  0.61349185734E+03  0.61349185734E+03  0.00000000000E+00 0.  1.
          2   -1    0    0  501    0  0.00000000000E+00 -0.00000000000E+00 -0.10402445912E+04  0.10402445912E+04  0.00000000000E+00 0. -1.
         23    2    1    2    0    0  0.44462980495E+03 -0.51673500996E+03 -0.22130166703E+03  0.72264343956E+03  0.92349222749E+02 0.  0.
    5000000    2    1    2    0    0 -0.44462980495E+03  0.51673500996E+03 -0.20545106678E+03  0.93109300893E+03  0.60001109696E+03 0.  0.
         23    2    4    4    0    0 -0.23258121951E+03 -0.85138091020E+02 -0.70378162721E+02  0.27274803464E+03  0.89977143756E+02 0.  0.
         23    2    4    4    0    0 -0.21204858544E+03  0.60187310098E+03 -0.13507290406E+03  0.65834497430E+03  0.89205288523E+02 0.  0.
          4    1    3    3  502    0  0.27643380185E+03 -0.25287150360E+03 -0.10884029152E+03  0.39013568562E+03  0.00000000000E+00 0. -1.
         -4    1    3    3    0  502  0.16819600310E+03 -0.26386350636E+03 -0.11246137551E+03  0.33250775394E+03  0.00000000000E+00 0.  1.
         11    1    5    5    0    0 -0.31406170782E+02 -0.18056275484E+01  0.19681503756E+02  0.37107538913E+02  0.00000000000E+00 0. -1.
        -11    1    5    5    0    0 -0.20117504873E+03 -0.83332463471E+02 -0.90059666477E+02  0.23564049572E+03  0.00000000000E+00 0.  1.
          5    1    6    6  503    0 -0.17333096610E+03  0.39241874806E+03 -0.64113020605E+02  0.43378412494E+03  0.47000000000E+01 0. -1.
         -5    1    6    6    0  503 -0.38717619339E+02  0.20945435292E+03 -0.70959883452E+02  0.22456084936E+03  0.47000000000E+01 0.  1.
<mgrwt>
<rscale>  0 0.78942103E+03</rscale>
<asrwt>0</asrwt>
<pdfrwt beam="1">  1        2 0.16003763E+00 0.78942103E+03</pdfrwt>
<pdfrwt beam="2">  1       -2 0.94383364E-01 0.78942103E+03</pdfrwt>
<totfact> 0.22756241E+01</totfact>
</mgrwt>
</event>
<event>
12    1  0.3166324E-008  0.1013532E+04  0.7818608E-02  0.9293826E-01
          1   -1    0    0  501    0  0.00000000000E+00  0.00000000000E+00  0.10829007720E+04  0.10829007720E+04  0.00000000000E+00 0. -1.
         -1   -1    0    0    0  501 -0.00000000000E+00 -0.00000000000E+00 -0.10329772068E+04  0.10329772068E+04  0.00000000000E+00 0.  1.
         23    2    1    2    0    0  0.89887674969E+03  0.29161090157E+03 -0.19706628684E+03  0.96956032102E+03  0.90530467980E+02 0.  0.
    5000000    2    1    2    0    0 -0.89887674969E+03 -0.29161090157E+03  0.24698985207E+03  0.11463176577E+04  0.60001987998E+03 0.  0.
         23    2    4    4    0    0 -0.58643052613E+03 -0.43205435170E+03  0.39263970168E+02  0.73500307733E+03  0.90089619484E+02 0.  0.
         23    2    4    4    0    0 -0.31244622356E+03  0.14044345012E+03  0.20772588190E+03  0.41131458041E+03  0.93180667233E+02 0.  0.
          1    1    3    3  502    0  0.71181253775E+03  0.26241307358E+03 -0.17822665423E+03  0.77929612495E+03  0.00000000000E+00 0. -1.
         -1    1    3    3    0  502  0.18706421194E+03  0.29197827996E+02 -0.18839632605E+02  0.19026419607E+03  0.00000000000E+00 0.  1.
         13    1    5    5    0    0 -0.40092635510E+03 -0.31093984932E+03  0.66829190638E+02  0.51175352743E+03  0.00000000000E+00 0. -1.
        -13    1    5    5    0    0 -0.18550417102E+03 -0.12111450238E+03 -0.27565220470E+02  0.22324954991E+03  0.00000000000E+00 0.  1.
          5    1    6    6  503    0 -0.77755506177E+02  0.70966506362E+02  0.32546011246E+02  0.11028824332E+03  0.47000000000E+01 0. -1.
         -5    1    6    6    0  503 -0.23469071738E+03  0.69476943763E+02  0.17517987065E+03  0.30102633709E+03  0.47000000000E+01 0.  1.
<mgrwt>
<rscale>  0 0.10135320E+04</rscale>
<asrwt>0</asrwt>
<pdfrwt beam="1">  1        1 0.16660012E+00 0.10135320E+04</pdfrwt>
<pdfrwt beam="2">  1       -1 0.15891957E+00 0.10135320E+04</pdfrwt>
<totfact> 0.38955037E+00</totfact>
</mgrwt>
</event>
<event>
12    1  0.3166324E-008  0.4457101E+03  0.7818608E-02  0.1029009E+00
         -2   -1    0    0    0  501 -0.00000000000E+00  0.00000000000E+00  0.85042213549E+03  0.85042213549E+03  0.00000000000E+00 0.  1.
          2   -1    0    0  501    0  0.00000000000E+00 -0.00000000000E+00 -0.43077189271E+03  0.43077189271E+03  0.00000000000E+00 0. -1.
         23    2    1    2    0    0 -0.21672821349E+03  0.37710398988E+03  0.34599588287E+02  0.44597688566E+03  0.92302293188E+02 0.  0.
    5000000    2    1    2    0    0  0.21672821349E+03 -0.37710398988E+03  0.38505065450E+03  0.83521714255E+03  0.60012093029E+03 0.  0.
         23    2    4    4    0    0  0.12343602872E+03 -0.13754338417E+03 -0.13639805933E+03  0.24694678842E+03  0.90684342667E+02 0.  0.
         23    2    4    4    0    0  0.93292184761E+02 -0.23956060571E+03  0.52144871383E+03  0.58827035413E+03  0.89780470316E+02 0.  0.
          3    1    3    3  502    0 -0.19401838476E+03  0.29951280259E+03  0.58602743741E+02  0.36164255019E+03  0.00000000000E+00 0. -1.
         -3    1    3    3    0  502 -0.22709828730E+02  0.77591187295E+02 -0.24003155453E+02  0.84334335466E+02  0.00000000000E+00 0.  1.
         13    1    5    5    0    0  0.95214127101E+02 -0.77850885158E+02 -0.38521801198E+02  0.12888141638E+03  0.00000000000E+00 0.  1.
        -13    1    5    5    0    0  0.28221901623E+02 -0.59692499007E+02 -0.97876258131E+02  0.11806537204E+03  0.00000000000E+00 0. -1.
          5    1    6    6  503    0  0.35862767733E+02 -0.28907996940E+02  0.15410649679E+03  0.16091212742E+03  0.47000000000E+01 0. -1.
         -5    1    6    6    0  503  0.57429417029E+02 -0.21065260877E+03  0.36734221703E+03  0.42735822671E+03  0.47000000000E+01 0.  1.
<mgrwt>
<rscale>  0 0.44571013E+03</rscale>
<asrwt>0</asrwt>
<pdfrwt beam="1">  1        2 0.66272599E-01 0.44571013E+03</pdfrwt>
<pdfrwt beam="2">  1       -2 0.13083417E+00 0.44571013E+03</pdfrwt>
<totfact> 0.32529857E+01</totfact>
</mgrwt>
</event>
<event>
12    1  0.3166324E-008  0.1709052E+04  0.7818608E-02  0.8756218E-01
         -2   -1    0    0    0  501 -0.00000000000E+00  0.00000000000E+00  0.10333681346E+04  0.10333681346E+04  0.00000000000E+00 0.  1.
          2   -1    0    0  501    0  0.00000000000E+00 -0.00000000000E+00 -0.31879706015E+04  0.31879706015E+04  0.00000000000E+00 0. -1.
         23    2    1    2    0    0  0.14005992789E+04 -0.88929699270E+03 -0.17461919481E+04  0.24105315357E+04  0.94596424376E+02 0.  0.
    5000000    2    1    2    0    0 -0.14005992789E+04  0.88929699270E+03 -0.40841051882E+03  0.18108072004E+04  0.59974668311E+03 0.  0.
         23    2    4    4    0    0 -0.24331315341E+03 -0.57527626125E+02 -0.60131658582E+02  0.27286586801E+03  0.91264709330E+02 0.  0.
         23    2    4    4    0    0 -0.11572861255E+04  0.94682461883E+03 -0.34827886024E+03  0.15379413324E+04  0.90428658985E+02 0.  0.
          3    1    3    3  502    0  0.71293235699E+03 -0.40058526070E+03 -0.83424592513E+03  0.11682068996E+04  0.00000000000E+00 0. -1.
         -3    1    3    3    0  502  0.68766692194E+03 -0.48871173201E+03 -0.91194602298E+03  0.12423246361E+04  0.00000000000E+00 0.  1.
         13    1    5    5    0    0 -0.16990976403E+03 -0.74286441272E+02 -0.67205864612E+02  0.19724206323E+03  0.00000000000E+00 0. -1.
        -13    1    5    5    0    0 -0.73403389382E+02  0.16758815147E+02  0.70742060297E+01  0.75623804777E+02  0.00000000000E+00 0.  1.
          5    1    6    6  503    0 -0.78815937429E+03  0.61739991165E+03 -0.27048303152E+03  0.10370925757E+04  0.47000000000E+01 0. -1.
         -5    1    6    6    0  503 -0.36912675122E+03  0.32942470717E+03 -0.77795828714E+02  0.50084875674E+03  0.47000000000E+01 0.  1.
<mgrwt>
<rscale>  0 0.17090524E+04</rscale>
<asrwt>0</asrwt>
<pdfrwt beam="1">  1        2 0.49045700E+00 0.17090524E+04</pdfrwt>
<pdfrwt beam="2">  1       -2 0.15897972E+00 0.17090524E+04</pdfrwt>
<totfact> 0.31352214E-01</totfact>
</mgrwt>
</event>
<event>
12    1  0.3166324E-008  0.7917915E+03  0.7818608E-02  0.9571975E-01
         -1   -1    0    0    0  501 -0.00000000000E+00  0.00000000000E+00  0.56604595890E+03  0.56604595890E+03  0.00000000000E+00 0.  1.
          1   -1    0    0  501    0  0.00000000000E+00 -0.00000000000E+00 -0.12130766302E+04  0.12130766302E+04  0.00000000000E+00 0. -1.
         23    2    1    2    0    0 -0.13181917035E+03 -0.68292424726E+03 -0.46745643298E+03  0.84309096803E+03  0.92331156636E+02 0.  0.
    5000000    2    1    2    0    0  0.13181917035E+03  0.68292424726E+03 -0.17957423830E+03  0.93603162104E+03  0.60012204373E+03 0.  0.
         23    2    4    4    0    0 -0.15819047239E+03  0.58370260910E+02 -0.14578039209E+03  0.23958562266E+03  0.87852347460E+02 0.  0.
         23    2    4    4    0    0  0.29000964274E+03  0.62455398635E+03 -0.33793846217E+02  0.69644599838E+03  0.98598833022E+02 0.  0.
          3    1    3    3  502    0 -0.11865812536E+02 -0.29013789882E+03 -0.21022132143E+03  0.35848821713E+03  0.00000000000E+00 0. -1.
         -3    1    3    3    0  502 -0.11995335781E+03 -0.39278634844E+03 -0.25723511155E+03  0.48460275091E+03  0.00000000000E+00 0.  1.
         11    1    5    5    0    0 -0.14211520662E+03  0.77600150871E+02 -0.13955080138E+03  0.21375907357E+03  0.00000000000E+00 0.  1.
        -11    1    5    5    0    0 -0.16075265776E+02 -0.19229889961E+02 -0.62295907084E+01  0.25826549094E+02  0.00000000000E+00 0. -1.
          5    1    6    6  503    0  0.20306569505E+03  0.32220023901E+03 -0.24464702521E+02  0.38166645411E+03  0.47000000000E+01 0. -1.
         -5    1    6    6    0  503  0.86943947696E+02  0.30235374734E+03 -0.93291436964E+01  0.31477954427E+03  0.47000000000E+01 0.  1.
<mgrwt>
<rscale>  0 0.79179150E+03</rscale>
<asrwt>0</asrwt>
<pdfrwt beam="1">  1        1 0.18662717E+00 0.79179150E+03</pdfrwt>
<pdfrwt beam="2">  1       -1 0.87083995E-01 0.79179150E+03</pdfrwt>
<totfact> 0.13948181E+01</totfact>
</mgrwt>
</event>
<event>
12    1  0.3166324E-008  0.4666978E+03  0.7818608E-02  0.1022856E+00
          1   -1    0    0  501    0  0.00000000000E+00  0.00000000000E+00  0.87205697548E+03  0.87205697548E+03  0.00000000000E+00 0. -1.
         -1   -1    0    0    0  501 -0.00000000000E+00 -0.00000000000E+00 -0.43239225441E+03  0.43239225441E+03  0.00000000000E+00 0.  1.
         23    2    1    2    0    0 -0.27790306448E+03  0.24294032141E+03 -0.12474758085E+03  0.40176565532E+03  0.97997805326E+02 0.  0.
    5000000    2    1    2    0    0  0.27790306448E+03 -0.24294032141E+03  0.56441230193E+03  0.90268357457E+03  0.60002189645E+03 0.  0.
         23    2    4    4    0    0 -0.95301972286E+02 -0.25684971946E+02 -0.53664946174E+02  0.14320767552E+03  0.88805000846E+02 0.  0.
         23    2    4    4    0    0  0.37320503677E+03 -0.21725534946E+03  0.61807724810E+03  0.75947589905E+03  0.91116794722E+02 0.  0.
          2    1    3    3  502    0 -0.21187635989E+03  0.13156905378E+03 -0.10579152347E+03  0.27091300122E+03  0.00000000000E+00 0. -1.
         -2    1    3    3    0  502 -0.66026704593E+02  0.11137126763E+03 -0.18956057381E+02  0.13085265409E+03  0.00000000000E+00 0.  1.
         13    1    5    5    0    0 -0.10433291107E+02  0.22513536762E+02 -0.36460037912E+02  0.44102690002E+02  0.00000000000E+00 0.  1.
        -13    1    5    5    0    0 -0.84868681179E+02 -0.48198508708E+02 -0.17204908263E+02  0.99104985521E+02  0.00000000000E+00 0. -1.
          5    1    6    6  503    0  0.23949117726E+03 -0.14587735287E+03  0.47127092159E+03  0.54841097510E+03  0.47000000000E+01 0. -1.
         -5    1    6    6    0  503  0.13371385950E+03 -0.71377996595E+02  0.14680632651E+03  0.21106492395E+03  0.47000000000E+01 0.  1.
<mgrwt>
<rscale>  0 0.46669779E+03</rscale>
<asrwt>0</asrwt>
<pdfrwt beam="1">  1        1 0.13416261E+00 0.46669779E+03</pdfrwt>
<pdfrwt beam="2">  1       -1 0.66521885E-01 0.46669779E+03</pdfrwt>
<totfact> 0.46585738E+01</totfact>
</mgrwt>
</event>
<event>
12    1  0.3166324E-008  0.1178327E+04  0.7818608E-02  0.9132041E-01
          1   -1    0    0  501    0  0.00000000000E+00  0.00000000000E+00  0.12981409349E+04  0.12981409349E+04  0.00000000000E+00 0. -1.
         -1   -1    0    0    0  501 -0.00000000000E+00 -0.00000000000E+00 -0.14992074815E+04  0.14992074815E+04  0.00000000000E+00 0.  1.
         23    2    1    2    0    0 -0.98653460651E+03  0.62487133797E+03  0.54000187501E+03  0.12897508546E+04  0.90224846826E+02 0.  0.
    5000000    2    1    2    0    0  0.98653460651E+03 -0.62487133797E+03 -0.74106842163E+03  0.15075975618E+04  0.59996106880E+03 0.  0.
         23    2    4    4    0    0  0.18693903473E+03 -0.68532843912E+02 -0.42619599957E+03  0.47924839882E+03  0.91613559739E+02 0.  0.
         23    2    4    4    0    0  0.79959557178E+03 -0.55633849406E+03 -0.31487242206E+03  0.10283491630E+04  0.97425666597E+02 0.  0.
          1    1    3    3  502    0 -0.50679501020E+03  0.34901657832E+03  0.32646256792E+03  0.69658564625E+03  0.00000000000E+00 0. -1.
         -1    1    3    3    0  502 -0.47973959630E+03  0.27585475966E+03  0.21353930709E+03  0.59316520832E+03  0.00000000000E+00 0.  1.
         11    1    5    5    0    0  0.14159989516E+03 -0.13257207642E+02 -0.22984071881E+03  0.27028325862E+03  0.00000000000E+00 0.  1.
        -11    1    5    5    0    0  0.45339139567E+02 -0.55275636270E+02 -0.19635528076E+03  0.20896514021E+03  0.00000000000E+00 0. -1.
          5    1    6    6  503    0  0.37730231767E+03 -0.25613612331E+03 -0.96969454127E+02  0.46624877224E+03  0.47000000000E+01 0. -1.
         -5    1    6    6    0  503  0.42229325411E+03 -0.30020237075E+03 -0.21790296793E+03  0.56210039077E+03  0.47000000000E+01 0.  1.
<mgrwt>
<rscale>  0 0.11783267E+04</rscale>
<asrwt>0</asrwt>
<pdfrwt beam="1">  1        1 0.19971399E+00 0.11783267E+04</pdfrwt>
<pdfrwt beam="2">  1       -1 0.23064730E+00 0.11783267E+04</pdfrwt>
<totfact> 0.83368819E-01</totfact>
</mgrwt>
</event>
<event>
12    1  0.3166324E-008  0.9872815E+03  0.7818608E-02  0.9322605E-01
          2   -1    0    0  501    0  0.00000000000E+00  0.00000000000E+00  0.17429612732E+04  0.17429612732E+04  0.00000000000E+00 0.  1.
         -2   -1    0    0    0  501 -0.00000000000E+00 -0.00000000000E+00 -0.90342517683E+03  0.90342517683E+03  0.00000000000E+00 0. -1.
         23    2    1    2    0    0 -0.90538434479E+03  0.11820069414E+03 -0.39381590355E+03  0.99870170603E+03  0.92854272121E+02 0.  0.
    5000000    2    1    2    0    0  0.90538434479E+03 -0.11820069414E+03  0.12333519999E+04  0.16476847440E+04  0.60001303652E+03 0.  0.
         23    2    4    4    0    0  0.81152157583E+03  0.91336563954E+02  0.10771497276E+04  0.13548479417E+04  0.91933528108E+02 0.  0.
         23    2    4    4    0    0  0.93862768963E+02 -0.20953725810E+03  0.15620227231E+03  0.29283680226E+03  0.92941707284E+02 0.  0.
          3    1    3    3  502    0 -0.78568762629E+03  0.98371007683E+02 -0.30584148300E+03  0.84883503343E+03  0.00000000000E+00 0. -1.
         -3    1    3    3    0  502 -0.11969671851E+03  0.19829686462E+02 -0.87974420548E+02  0.14986667260E+03  0.00000000000E+00 0.  1.
         11    1    5    5    0    0  0.38421321173E+03  0.88287981802E+02  0.49993518115E+03  0.63667082951E+03  0.00000000000E+00 0.  1.
        -11    1    5    5    0    0  0.42730836410E+03  0.30485821524E+01  0.57721454644E+03  0.71817711221E+03  0.00000000000E+00 0. -1.
          5    1    6    6  503    0  0.86451786690E+01 -0.10248935049E+03  0.31555631192E+02  0.10768776132E+03  0.47000000000E+01 0. -1.
         -5    1    6    6    0  503  0.85217590294E+02 -0.10704790761E+03  0.12464664112E+03  0.18514904094E+03  0.47000000000E+01 0.  1.
<mgrwt>
<rscale>  0 0.98728147E+03</rscale>
<asrwt>0</asrwt>
<pdfrwt beam="1">  1        2 0.26814789E+00 0.98728147E+03</pdfrwt>
<pdfrwt beam="2">  1       -2 0.13898849E+00 0.98728147E+03</pdfrwt>
<totfact> 0.33856697E+00</totfact>
</mgrwt>
</event>
<event>
12    1  0.3166324E-008  0.8980443E+03  0.7818608E-02  0.9428029E-01
         -2   -1    0    0    0  501 -0.00000000000E+00  0.00000000000E+00  0.61104893937E+03  0.61104893937E+03  0.00000000000E+00 0.  1.
          2   -1    0    0  501    0  0.00000000000E+00 -0.00000000000E+00 -0.15503263037E+04  0.15503263037E+04  0.00000000000E+00 0. -1.
         23    2    1    2    0    0 -0.71517590359E+03  0.49077421975E+03 -0.57741564553E+03  0.10460754535E+04  0.92353228335E+02 0.  0.
    5000000    2    1    2    0    0  0.71517590359E+03 -0.49077421975E+03 -0.36186171877E+03  0.11152997896E+04  0.60051128987E+03 0.  0.
         23    2    4    4    0    0  0.60620549302E+02 -0.18148890699E+03 -0.32089128672E+03  0.38421877000E+03  0.89664769937E+02 0.  0.
         23    2    4    4    0    0  0.65455535429E+03 -0.30928531276E+03 -0.40970432041E+02  0.73108101957E+03  0.93277887836E+02 0.  0.
          3    1    3    3  502    0 -0.69413074588E+03  0.45768349823E+03 -0.56376748883E+03  0.10045523672E+04  0.00000000000E+00 0. -1.
         -3    1    3    3    0  502 -0.21045157713E+02  0.33090721522E+02 -0.13648156703E+02  0.41523086294E+02  0.00000000000E+00 0.  1.
         13    1    5    5    0    0  0.17192599842E+01  0.47102863120E+01 -0.50105969050E+02  0.50356238804E+02  0.00000000000E+00 0. -1.
        -13    1    5    5    0    0  0.58901289318E+02 -0.18619919330E+03 -0.27078531767E+03  0.33386253120E+03  0.00000000000E+00 0.  1.
          5    1    6    6  503    0  0.36435328341E+03 -0.19418020340E+03  0.18189197430E+02  0.41329433027E+03  0.47000000000E+01 0. -1.
         -5    1    6    6    0  503  0.29020207087E+03 -0.11510510936E+03 -0.59159629471E+02  0.31778668931E+03  0.47000000000E+01 0.  1.
<mgrwt>
<rscale>  0 0.89804427E+03</rscale>
<asrwt>0</asrwt>
<pdfrwt beam="1">  1        2 0.23851174E+00 0.89804427E+03</pdfrwt>
<pdfrwt beam="2">  1       -2 0.94007529E-01 0.89804427E+03</pdfrwt>
<totfact> 0.11438199E+01</totfact>
</mgrwt>
</event>
<event>
12    1  0.3166324E-008  0.6418198E+03  0.7818608E-02  0.9822251E-01
         -1   -1    0    0    0  501 -0.00000000000E+00  0.00000000000E+00  0.10678490023E+04  0.10678490023E+04  0.00000000000E+00 0.  1.
          1   -1    0    0  501    0  0.00000000000E+00 -0.00000000000E+00 -0.51837266993E+03  0.51837266993E+03  0.00000000000E+00 0. -1.
         23    2    1    2    0    0 -0.59733524381E+01  0.61735007757E+03  0.27704188279E+03  0.68324563160E+03  0.94422397041E+02 0.  0.
    5000000    2    1    2    0    0  0.59733524381E+01 -0.61735007757E+03  0.27243444954E+03  0.90297604059E+03  0.59999033440E+03 0.  0.
         23    2    4    4    0    0  0.62611476032E+02 -0.50903408665E+03  0.43634444088E+03  0.67959378450E+03  0.91735176138E+02 0.  0.
         23    2    4    4    0    0 -0.56638123594E+02 -0.10831599092E+03 -0.16390999134E+03  0.22338225610E+03  0.89960636644E+02 0.  0.
          2    1    3    3  502    0 -0.13382991572E+01  0.19289211579E+03  0.13570974453E+03  0.23585227186E+03  0.00000000000E+00 0.  1.
         -2    1    3    3    0  502 -0.46350532808E+01  0.42445796177E+03  0.14133213826E+03  0.44739335974E+03  0.00000000000E+00 0. -1.
         13    1    5    5    0    0  0.13686041952E+02 -0.41204090721E+03  0.33968183195E+03  0.53418046007E+03  0.00000000000E+00 0.  1.
        -13    1    5    5    0    0  0.48925434080E+02 -0.96993179437E+02  0.96662608927E+02  0.14541332443E+03  0.00000000000E+00 0. -1.
          5    1    6    6  503    0  0.16546016442E+02 -0.46038338784E+02 -0.88145867304E+02  0.10092117330E+03  0.47000000000E+01 0. -1.
         -5    1    6    6    0  503 -0.73184140036E+02 -0.62277652135E+02 -0.75764124031E+02  0.12246108279E+03  0.47000000000E+01 0.  1.
<mgrwt>
<rscale>  0 0.64181984E+03</rscale>
<asrwt>0</asrwt>
<pdfrwt beam="1">  1        1 0.79749642E-01 0.64181984E+03</pdfrwt>
<pdfrwt beam="2">  1       -1 0.16428446E+00 0.64181984E+03</pdfrwt>
<totfact> 0.11941922E+01</totfact>
</mgrwt>
</event>
<event>
12    1  0.3166324E-008  0.6151782E+03  0.7818608E-02  0.9874407E-01
          1   -1    0    0  501    0  0.00000000000E+00  0.00000000000E+00  0.64222870486E+03  0.64222870486E+03  0.00000000000E+00 0. -1.
         -1   -1    0    0    0  501 -0.00000000000E+00 -0.00000000000E+00 -0.70785627582E+03  0.70785627582E+03  0.00000000000E+00 0.  1.
         23    2    1    2    0    0 -0.18126033146E+03  0.49906652110E+03 -0.10394886979E+03  0.54796146520E+03  0.86796886855E+02 0.  0.
    5000000    2    1    2    0    0  0.18126033146E+03 -0.49906652110E+03  0.38321298840E+02  0.80212351548E+03  0.60000909318E+03 0.  0.
         23    2    4    4    0    0  0.31302543859E+03 -0.25110917750E+03  0.20972325147E+03  0.46110330630E+03  0.87130205136E+02 0.  0.
         23    2    4    4    0    0 -0.13176510713E+03 -0.24795734360E+03 -0.17140195263E+03  0.34102020919E+03  0.89840224872E+02 0.  0.
          3    1    3    3  502    0 -0.42948730711E+02  0.21255313000E+03 -0.13811450121E+02  0.21728824795E+03  0.00000000000E+00 0. -1.
         -3    1    3    3    0  502 -0.13831160075E+03  0.28651339110E+03 -0.90137419669E+02  0.33067321725E+03  0.00000000000E+00 0.  1.
         11    1    5    5    0    0  0.57622911684E+02 -0.56806964751E+02  0.63250945894E+01  0.81163033561E+02  0.00000000000E+00 0. -1.
        -11    1    5    5    0    0  0.25540252690E+03 -0.19430221274E+03  0.20339815688E+03  0.37994027274E+03  0.00000000000E+00 0.  1.
          5    1    6    6  503    0 -0.77654581040E+02 -0.61051982399E+02 -0.42943385600E+02  0.10781374160E+03  0.47000000000E+01 0. -1.
         -5    1    6    6    0  503 -0.54110526091E+02 -0.18690536120E+03 -0.12845856703E+03  0.23320646758E+03  0.47000000000E+01 0.  1.
<mgrwt>
<rscale>  0 0.61517817E+03</rscale>
<asrwt>0</asrwt>
<pdfrwt beam="1">  1        1 0.98804416E-01 0.61517817E+03</pdfrwt>
<pdfrwt beam="2">  1       -1 0.10890097E+00 0.61517817E+03</pdfrwt>
<totfact> 0.25242681E+01</totfact>
</mgrwt>
</event>
<event>
12    1  0.3166324E-008  0.5061404E+03  0.7818608E-02  0.1012189E+00
         -2   -1    0    0    0  501 -0.00000000000E+00  0.00000000000E+00  0.14044286688E+03  0.14044286688E+03  0.00000000000E+00 0.  1.
          2   -1    0    0  501    0  0.00000000000E+00 -0.00000000000E+00 -0.26195860253E+04  0.26195860253E+04  0.00000000000E+00 0. -1.
         23    2    1    2    0    0 -0.25725142184E+03  0.36425103677E+03 -0.76695384894E+03  0.89187428865E+03  0.91457249655E+02 0.  0.
    5000000    2    1    2    0    0  0.25725142184E+03 -0.36425103677E+03 -0.17121893095E+04  0.18681546035E+04  0.59962678342E+03 0.  0.
         23    2    4    4    0    0  0.55531164151E+02 -0.33318902583E+03 -0.38556523664E+03  0.52272663430E+03  0.10239113912E+03 0.  0.
         23    2    4    4    0    0  0.20172025769E+03 -0.31062010941E+02 -0.13266240728E+04  0.13454279692E+04  0.92677283635E+02 0.  0.
          1    1    3    3  502    0 -0.13607696932E+03  0.11600883366E+03 -0.31307123665E+03  0.36053930477E+03  0.00000000000E+00 0. -1.
         -1    1    3    3    0  502 -0.12117445252E+03  0.24824220312E+03 -0.45388261229E+03  0.53133498388E+03  0.00000000000E+00 0.  1.
         11    1    5    5    0    0  0.72813299124E+02 -0.32598860424E+03 -0.36074996552E+03  0.49164101156E+03  0.00000000000E+00 0. -1.
        -11    1    5    5    0    0 -0.17282134973E+02 -0.72004215960E+01 -0.24815271119E+02  0.31085622740E+02  0.00000000000E+00 0.  1.
          5    1    6    6  503    0  0.13236561317E+03 -0.16648367317E+02 -0.56738413110E+03  0.58287620119E+03  0.47000000000E+01 0. -1.
         -5    1    6    6    0  503  0.69354644527E+02 -0.14413643625E+02 -0.75923994171E+03  0.76255176804E+03  0.47000000000E+01 0.  1.
<mgrwt>
<rscale>  0 0.50614036E+03</rscale>
<asrwt>0</asrwt>
<pdfrwt beam="1">  1        2 0.40301324E+00 0.50614036E+03</pdfrwt>
<pdfrwt beam="2">  1       -2 0.21606594E-01 0.50614036E+03</pdfrwt>
<totfact> 0.59884585E+01</totfact>
</mgrwt>
</event>
<event>
12    1  0.3166324E-008  0.9260770E+03  0.7818608E-02  0.9393558E-01
          2   -1    0    0  501    0  0.00000000000E+00  0.00000000000E+00  0.11014883144E+04  0.11014883144E+04  0.00000000000E+00 0.  1.
         -2   -1    0    0    0  501 -0.00000000000E+00 -0.00000000000E+00 -0.10964927645E+04  0.10964927645E+04  0.00000000000E+00 0. -1.
         23    2    1    2    0    0 -0.83767462820E+03 -0.33716703693E+01 -0.57066221958E+03  0.10177548693E+04  0.91975291970E+02 0.  0.
    5000000    2    1    2    0    0  0.83767462820E+03  0.33716703693E+01  0.57565776953E+03  0.11802262095E+04  0.59986822484E+03 0.  0.
         23    2    4    4    0    0  0.20686894632E+03 -0.25574572304E+03  0.16820992463E+03  0.38023747867E+03  0.89918438784E+02 0.  0.
         23    2    4    4    0    0  0.63080568188E+03  0.25911739341E+03  0.40744784490E+03  0.79998873087E+03  0.94395928708E+02 0.  0.
          1    1    3    3  502    0 -0.41447896173E+03  0.18135894809E+02 -0.23222119557E+03  0.47544547960E+03  0.00000000000E+00 0. -1.
         -1    1    3    3    0  502 -0.42319566647E+03 -0.21507565179E+02 -0.33844102400E+03  0.54230938974E+03  0.00000000000E+00 0.  1.
         13    1    5    5    0    0  0.17583847665E+03 -0.19037899832E+03  0.91631557783E+02  0.27488120207E+03  0.00000000000E+00 0. -1.
        -13    1    5    5    0    0  0.31030469672E+02 -0.65366724722E+02  0.76578366847E+02  0.10535627659E+03  0.00000000000E+00 0.  1.
          5    1    6    6  503    0  0.37132281408E+03  0.15178172423E+03  0.29271521339E+03  0.49661112575E+03  0.47000000000E+01 0. -1.
         -5    1    6    6    0  503  0.25948286780E+03  0.10733566918E+03  0.11473263151E+03  0.30337760513E+03  0.47000000000E+01 0.  1.
<mgrwt>
<rscale>  0 0.92607703E+03</rscale>
<asrwt>0</asrwt>
<pdfrwt beam="1">  1        2 0.16945974E+00 0.92607703E+03</pdfrwt>
<pdfrwt beam="2">  1       -2 0.16869119E+00 0.92607703E+03</pdfrwt>
<totfact> 0.47300636E+00</totfact>
</mgrwt>
</event>
<event>
12    1  0.3166324E-008  0.1610783E+04  0.7818608E-02  0.8813951E-01
         -2   -1    0    0    0  501 -0.00000000000E+00  0.00000000000E+00  0.16230158809E+04  0.16230158809E+04  0.00000000000E+00 0.  1.
          2   -1    0    0  501    0  0.00000000000E+00 -0.00000000000E+00 -0.20144021821E+04  0.20144021821E+04  0.00000000000E+00 0. -1.
         23    2    1    2    0    0 -0.89884379979E+03 -0.13103945551E+04  0.56395572854E+03  0.16886008543E+04  0.90954465570E+02 0.  0.
    5000000    2    1    2    0    0  0.89884379979E+03  0.13103945551E+04 -0.95534202972E+03  0.19488172087E+04  0.60013002996E+03 0.  0.
         23    2    4    4    0    0  0.59497133794E+02  0.27765171384E+03  0.15645552418E+02  0.29897772197E+03  0.92263274366E+02 0.  0.
         23    2    4    4    0    0  0.83934666599E+03  0.10327428412E+04 -0.97098758214E+03  0.16498394868E+04  0.89960244139E+02 0.  0.
          1    1    3    3  502    0 -0.36793674448E+03 -0.61614241994E+03  0.25035171933E+03  0.76005586173E+03  0.00000000000E+00 0. -1.
         -1    1    3    3    0  502 -0.53090705531E+03 -0.69425213514E+03  0.31360400921E+03  0.92854499252E+03  0.00000000000E+00 0.  1.
         13    1    5    5    0    0  0.11030796783E+02  0.22224575101E+03 -0.48259035755E+01  0.22257165513E+03  0.00000000000E+00 0. -1.
        -13    1    5    5    0    0  0.48466337011E+02  0.55405962827E+02  0.20471455994E+02  0.76406066844E+02  0.00000000000E+00 0.  1.
          5    1    6    6  503    0  0.31850904272E+03  0.46144124297E+03 -0.41447191496E+03  0.69726973926E+03  0.47000000000E+01 0. -1.
         -5    1    6    6    0  503  0.52083762328E+03  0.57130159828E+03 -0.55651566718E+03  0.95256974749E+03  0.47000000000E+01 0.  1.
<mgrwt>
<rscale>  0 0.16107834E+04</rscale>
<asrwt>0</asrwt>
<pdfrwt beam="1">  1        2 0.30990803E+00 0.16107834E+04</pdfrwt>
<pdfrwt beam="2">  1       -2 0.24969475E+00 0.16107834E+04</pdfrwt>
<totfact> 0.39225709E-01</totfact>
</mgrwt>
</event>
<event>
12    1  0.3166324E-008  0.4609033E+03  0.7818608E-02  0.1024520E+00
          2   -1    0    0  501    0  0.00000000000E+00  0.00000000000E+00  0.51695433493E+03  0.51695433493E+03  0.00000000000E+00 0. -1.
         -2   -1    0    0    0  501 -0.00000000000E+00 -0.00000000000E+00 -0.70907893860E+03  0.70907893860E+03  0.00000000000E+00 0.  1.
         23    2    1    2    0    0  0.15608436668E+03  0.26279602567E+03  0.26209557529E+03  0.41377498447E+03  0.95349706634E+02 0.  0.
    5000000    2    1    2    0    0 -0.15608436668E+03 -0.26279602567E+03 -0.45422017896E+03  0.81225828906E+03  0.60001956346E+03 0.  0.
         23    2    4    4    0    0 -0.32089511951E+03 -0.69802365287E+02 -0.41820960102E+03  0.53951990669E+03  0.91303950642E+02 0.  0.
         23    2    4    4    0    0  0.16481075283E+03 -0.19299366039E+03 -0.36010577939E+02  0.27273838237E+03  0.93168268712E+02 0.  0.
          3    1    3    3  502    0  0.10876078418E+03  0.93882504745E+02  0.10115094861E+03  0.17571097654E+03  0.00000000000E+00 0. -1.
         -3    1    3    3    0  502  0.47323582496E+02  0.16891352093E+03  0.16094462668E+03  0.23806400793E+03  0.00000000000E+00 0.  1.
         11    1    5    5    0    0 -0.16682620202E+03 -0.62877759268E+02 -0.28269318544E+03  0.33421554629E+03  0.00000000000E+00 0.  1.
        -11    1    5    5    0    0 -0.15406891749E+03 -0.69246060197E+01 -0.13551641558E+03  0.20530436040E+03  0.00000000000E+00 0. -1.
          5    1    6    6  503    0  0.17304031271E+03 -0.15944976976E+03 -0.28361158073E+02  0.23705194407E+03  0.47000000000E+01 0. -1.
         -5    1    6    6    0  503 -0.82295598800E+01 -0.33543890626E+02 -0.76494198652E+01  0.35686438298E+02  0.47000000000E+01 0.  1.
<mgrwt>
<rscale>  0 0.46090333E+03</rscale>
<asrwt>0</asrwt>
<pdfrwt beam="1">  1        2 0.79531436E-01 0.46090333E+03</pdfrwt>
<pdfrwt beam="2">  1       -2 0.10908907E+00 0.46090333E+03</pdfrwt>
<totfact> 0.41242967E+01</totfact>
</mgrwt>
</event>
<event>
12    1  0.3166324E-008  0.7672248E+03  0.7818608E-02  0.9608708E-01
         -2   -1    0    0    0  501 -0.00000000000E+00  0.00000000000E+00  0.97816579727E+03  0.97816579727E+03  0.00000000000E+00 0.  1.
          2   -1    0    0  501    0  0.00000000000E+00 -0.00000000000E+00 -0.63455334547E+03  0.63455334547E+03  0.00000000000E+00 0. -1.
         23    2    1    2    0    0 -0.55814945921E+03 -0.34692983446E+03  0.30887705695E+02  0.66951197541E+03  0.12410119258E+03 0.  0.
    5000000    2    1    2    0    0  0.55814945921E+03  0.34692983446E+03  0.31272474611E+03  0.94320716732E+03  0.59995988600E+03 0.  0.
         23    2    4    4    0    0  0.65901330920E+03  0.25184844605E+03  0.18966478250E+03  0.73655518339E+03  0.93886244863E+02 0.  0.
         23    2    4    4    0    0 -0.10086384999E+03  0.95081388417E+02  0.12305996361E+03  0.20665198393E+03  0.91363565831E+02 0.  0.
          4    1    3    3  502    0 -0.31664770103E+03 -0.24705879977E+03  0.61796909779E+02  0.40635289487E+03  0.00000000000E+00 0. -1.
         -4    1    3    3    0  502 -0.24150175818E+03 -0.99871034692E+02 -0.30909204084E+02  0.26315908054E+03  0.00000000000E+00 0.  1.
         13    1    5    5    0    0  0.33326819242E+03  0.17729773227E+03  0.96033418137E+02  0.38951840951E+03  0.00000000000E+00 0. -1.
        -13    1    5    5    0    0  0.32574511679E+03  0.74550713773E+02  0.93631364359E+02  0.34703677388E+03  0.00000000000E+00 0.  1.
          5    1    6    6  503    0 -0.97449651427E+02  0.10807072590E+03  0.12549553981E+03  0.19221586009E+03  0.47000000000E+01 0. -1.
         -5    1    6    6    0  503 -0.34141985670E+01 -0.12989337485E+02 -0.24355761961E+01  0.14436123841E+02  0.47000000000E+01 0.  1.
<mgrwt>
<rscale>  0 0.76722482E+03</rscale>
<asrwt>0</asrwt>
<pdfrwt beam="1">  1        2 0.97623592E-01 0.76722482E+03</pdfrwt>
<pdfrwt beam="2">  1       -2 0.15048705E+00 0.76722482E+03</pdfrwt>
<totfact> 0.13937941E+01</totfact>
</mgrwt>
</event>
<event>
12    1  0.3166324E-008  0.1159808E+04  0.7818608E-02  0.9148783E-01
          1   -1    0    0  501    0  0.00000000000E+00  0.00000000000E+00  0.99458388450E+03  0.99458388450E+03  0.00000000000E+00 0. -1.
         -1   -1    0    0    0  501 -0.00000000000E+00 -0.00000000000E+00 -0.22301923261E+04  0.22301923261E+04  0.00000000000E+00 0.  1.
         23    2    1    2    0    0  0.74635468790E+03  0.84789184214E+03  0.35133923228E+03  0.11865195980E+04  0.91780194767E+02 0.  0.
    5000000    2    1    2    0    0 -0.74635468790E+03 -0.84789184214E+03 -0.15869476739E+04  0.20382566126E+04  0.60010099412E+03 0.  0.
         23    2    4    4    0    0 -0.32839739794E+03 -0.12429150954E+03 -0.83498051396E+03  0.91038761237E+03  0.91213572138E+02 0.  0.
         23    2    4    4    0    0 -0.41795728996E+03 -0.72360033260E+03 -0.75196715991E+03  0.11278690003E+04  0.91368126615E+02 0.  0.
          4    1    3    3  502    0  0.31806474743E+03  0.31670863627E+03  0.17499996216E+03  0.48176190239E+03  0.00000000000E+00 0. -1.
         -4    1    3    3    0  502  0.42828994048E+03  0.53118320587E+03  0.17633927011E+03  0.70475769559E+03  0.00000000000E+00 0.  1.
         13    1    5    5    0    0 -0.68427428835E+02 -0.34810703571E+02 -0.10291792173E+03  0.12839858532E+03  0.00000000000E+00 0. -1.
        -13    1    5    5    0    0 -0.25996996910E+03 -0.89480805968E+02 -0.73206259223E+03  0.78198902704E+03  0.00000000000E+00 0.  1.
          5    1    6    6  503    0 -0.68309409857E+02 -0.90805948484E+02 -0.67341259753E+02  0.13216970538E+03  0.47000000000E+01 0. -1.
         -5    1    6    6    0  503 -0.34964788011E+03 -0.63279438412E+03 -0.68462590016E+03  0.99569929487E+03  0.47000000000E+01 0.  1.
<mgrwt>
<rscale>  0 0.11598079E+04</rscale>
<asrwt>0</asrwt>
<pdfrwt beam="1">  1        1 0.15301291E+00 0.11598079E+04</pdfrwt>
<pdfrwt beam="2">  1       -1 0.34310651E+00 0.11598079E+04</pdfrwt>
<totfact> 0.26223563E-01</totfact>
</mgrwt>
</event>
<event>
12    1  0.3166324E-008  0.8663702E+03  0.7818608E-02  0.9468625E-01
          1   -1    0    0  501    0  0.00000000000E+00  0.00000000000E+00  0.23706597722E+04  0.23706597722E+04  0.00000000000E+00 0. -1.
         -1   -1    0    0    0  501 -0.00000000000E+00 -0.00000000000E+00 -0.36161759575E+03  0.36161759575E+03  0.00000000000E+00 0.  1.
         23    2    1    2    0    0  0.15843060638E+02  0.82181407504E+03  0.10308237526E+04  0.13208239099E+04  0.79679453564E+02 0.  0.
    5000000    2    1    2    0    0 -0.15843060638E+02 -0.82181407504E+03  0.97821842383E+03  0.14114534581E+04  0.59971676919E+03 0.  0.
         23    2    4    4    0    0 -0.13875785017E+03 -0.70071670133E+03  0.45065775804E+03  0.84876037131E+03  0.83929235136E+02 0.  0.
         23    2    4    4    0    0  0.12291478954E+03 -0.12109737371E+03  0.52756066579E+03  0.56269308682E+03  0.92361433836E+02 0.  0.
          3    1    3    3  502    0  0.42204107029E+02  0.26736077451E+03  0.32991988856E+03  0.42674360366E+03  0.00000000000E+00 0. -1.
         -3    1    3    3    0  502 -0.26361046392E+02  0.55445330053E+03  0.70090386409E+03  0.89408030620E+03  0.00000000000E+00 0.  1.
         13    1    5    5    0    0 -0.94571831259E+02 -0.58630497131E+03  0.40019078854E+03  0.71613547453E+03  0.00000000000E+00 0.  1.
        -13    1    5    5    0    0 -0.44186018916E+02 -0.11441173003E+03  0.50466969497E+02  0.13262489678E+03  0.00000000000E+00 0. -1.
          5    1    6    6  503    0  0.57331486339E+02 -0.59108397380E+01  0.22549890722E+03  0.23279537046E+03  0.47000000000E+01 0. -1.
         -5    1    6    6    0  503  0.65583303198E+02 -0.11518653397E+03  0.30206175858E+03  0.32989771636E+03  0.47000000000E+01 0.  1.
<mgrwt>
<rscale>  0 0.86637019E+03</rscale>
<asrwt>0</asrwt>
<pdfrwt beam="1">  1        1 0.36471688E+00 0.86637019E+03</pdfrwt>
<pdfrwt beam="2">  1       -1 0.55633478E-01 0.86637019E+03</pdfrwt>
<totfact> 0.56321751E+00</totfact>
</mgrwt>
</event>
<event>
12    1  0.3166324E-008  0.1505231E+04  0.7818608E-02  0.8880982E-01
          2   -1    0    0  501    0  0.00000000000E+00  0.00000000000E+00  0.42969965911E+04  0.42969965911E+04  0.00000000000E+00 0. -1.
         -2   -1    0    0    0  501 -0.00000000000E+00 -0.00000000000E+00 -0.58271263983E+03  0.58271263983E+03  0.00000000000E+00 0.  1.
         23    2    1    2    0    0 -0.14306417253E+04  0.43818183934E+03  0.13448011635E+04  0.20138403341E+04  0.91234045838E+02 0.  0.
    5000000    2    1    2    0    0  0.14306417253E+04 -0.43818183934E+03  0.23694827877E+04  0.28658688969E+04  0.60001398492E+03 0.  0.
         23    2    4    4    0    0  0.12914201151E+04 -0.32634184852E+03  0.22879751999E+04  0.26490669121E+04  0.91978657758E+02 0.  0.
         23    2    4    4    0    0  0.13922161026E+03 -0.11183999082E+03  0.81507587841E+02  0.21680198482E+03  0.92025938935E+02 0.  0.
          2    1    3    3  502    0 -0.97502619343E+03  0.25385297060E+03  0.90377936712E+03  0.13534897683E+04  0.00000000000E+00 0. -1.
         -2    1    3    3    0  502 -0.45561553189E+03  0.18432886874E+03  0.44102179640E+03  0.66035056572E+03  0.00000000000E+00 0.  1.
         11    1    5    5    0    0  0.71812968310E+03 -0.19893485021E+03  0.13631435222E+04  0.15535268194E+04  0.00000000000E+00 0. -1.
        -11    1    5    5    0    0  0.57329043196E+03 -0.12740699831E+03  0.92483167766E+03  0.10955400926E+04  0.00000000000E+00 0.  1.
          5    1    6    6  503    0  0.54412994742E+02 -0.48367754627E+02 -0.13778764430E+02  0.74243909068E+02  0.47000000000E+01 0. -1.
         -5    1    6    6    0  503  0.84808615514E+02 -0.63472236194E+02  0.95286352271E+02  0.14255807575E+03  0.47000000000E+01 0.  1.
<mgrwt>
<rscale>  0 0.15052305E+04</rscale>
<asrwt>0</asrwt>
<pdfrwt beam="1">  1        2 0.66107638E+00 0.15052305E+04</pdfrwt>
<pdfrwt beam="2">  1       -2 0.89648101E-01 0.15052305E+04</pdfrwt>
<totfact> 0.19894117E-01</totfact>
</mgrwt>
</event>
<event>
12    1  0.3166324E-008  0.7949312E+03  0.7818608E-02  0.9567383E-01
          1   -1    0    0  501    0  0.00000000000E+00  0.00000000000E+00  0.12956312848E+04  0.12956312848E+04  0.00000000000E+00 0. -1.
         -1   -1    0    0    0  501 -0.00000000000E+00 -0.00000000000E+00 -0.53704158144E+03  0.53704158144E+03  0.00000000000E+00 0.  1.
         23    2    1    2    0    0 -0.13707531862E+03  0.70229117512E+03  0.45143502683E+03  0.84966428205E+03  0.78315203679E+02 0.  0.
    5000000    2    1    2    0    0  0.13707531862E+03 -0.70229117512E+03  0.30715467655E+03  0.98300858420E+03  0.59996611877E+03 0.  0.
         23    2    4    4    0    0  0.30764157142E+03 -0.30539146622E+03  0.31173271453E+03  0.54163591126E+03  0.91021376300E+02 0.  0.
         23    2    4    4    0    0 -0.17056625280E+03 -0.39689970890E+03 -0.45780379865E+01  0.44137267295E+03  0.90369532914E+02 0.  0.
          2    1    3    3  502    0 -0.99351037792E+02  0.53727203411E+03  0.30443901277E+03  0.62547180579E+03  0.00000000000E+00 0. -1.
         -2    1    3    3    0  502 -0.37724280826E+02  0.16501914101E+03  0.14699601405E+03  0.22419247626E+03  0.00000000000E+00 0.  1.
         13    1    5    5    0    0  0.51208087265E+02 -0.17154839716E+02  0.61245215468E+02  0.81654963993E+02  0.00000000000E+00 0. -1.
        -13    1    5    5    0    0  0.25643348415E+03 -0.28823662651E+03  0.25048749907E+03  0.45998094726E+03  0.00000000000E+00 0.  1.
          5    1    6    6  503    0 -0.13517041058E+02 -0.12018327370E+02 -0.17293344317E+02  0.25461742859E+02  0.47000000000E+01 0. -1.
         -5    1    6    6    0  503 -0.15704921174E+03 -0.38488138153E+03  0.12715306331E+02  0.41591093009E+03  0.47000000000E+01 0.  1.
<mgrwt>
<rscale>  0 0.79493124E+03</rscale>
<asrwt>0</asrwt>
<pdfrwt beam="1">  1        1 0.19932789E+00 0.79493124E+03</pdfrwt>
<pdfrwt beam="2">  1       -1 0.82621782E-01 0.79493124E+03</pdfrwt>
<totfact> 0.13635189E+01</totfact>
</mgrwt>
</event>
<event>
12    1  0.3166324E-008  0.7321134E+03  0.7818608E-02  0.9663837E-01
          2   -1    0    0  501    0  0.00000000000E+00  0.00000000000E+00  0.10559199355E+04  0.10559199355E+04  0.00000000000E+00 0. -1.
         -2   -1    0    0    0  501 -0.00000000000E+00 -0.00000000000E+00 -0.10613989354E+04  0.10613989354E+04  0.00000000000E+00 0.  1.
         23    2    1    2    0    0 -0.20438273835E+03 -0.59302523380E+03  0.73902272450E+03  0.97375798814E+03  0.92729717296E+02 0.  0.
    5000000    2    1    2    0    0  0.20438273835E+03  0.59302523380E+03 -0.74450172434E+03  0.11435608828E+04  0.59999786953E+03 0.  0.
         23    2    4    4    0    0  0.36396844759E+03  0.55272653807E+03 -0.49794012547E+03  0.83324777197E+03  0.91530455057E+02 0.  0.
         23    2    4    4    0    0 -0.15958570924E+03  0.40298695733E+02 -0.24656159886E+03  0.31031311082E+03  0.91706167959E+02 0.  0.
          1    1    3    3  502    0 -0.15332386666E+03 -0.30634337249E+03  0.41462292275E+03  0.53783514019E+03  0.00000000000E+00 0. -1.
         -1    1    3    3    0  502 -0.51058871689E+02 -0.28668186132E+03  0.32439980175E+03  0.43592284795E+03  0.00000000000E+00 0.  1.
         13    1    5    5    0    0  0.70908492163E+02  0.13227907343E+03 -0.70168918913E+02  0.16567873946E+03  0.00000000000E+00 0.  1.
        -13    1    5    5    0    0  0.29305995543E+03  0.42044746464E+03 -0.42777120656E+03  0.66756903251E+03  0.00000000000E+00 0. -1.
          5    1    6    6  503    0 -0.43737587766E+02 -0.30416595458E+01 -0.14067192532E+03  0.14742085622E+03  0.47000000000E+01 0. -1.
         -5    1    6    6    0  503 -0.11584812148E+03  0.43340355279E+02 -0.10588967355E+03  0.16289225460E+03  0.47000000000E+01 0.  1.
<mgrwt>
<rscale>  0 0.73211343E+03</rscale>
<asrwt>0</asrwt>
<pdfrwt beam="1">  1        2 0.16244922E+00 0.73211343E+03</pdfrwt>
<pdfrwt beam="2">  1       -2 0.16329214E+00 0.73211343E+03</pdfrwt>
<totfact> 0.56552013E+00</totfact>
</mgrwt>
</event>
<event>
12    1  0.3166324E-008  0.9046820E+03  0.7818608E-02  0.9419748E-01
          2   -1    0    0  501    0  0.00000000000E+00  0.00000000000E+00  0.12243970502E+04  0.12243970502E+04  0.00000000000E+00 0. -1.
         -2   -1    0    0    0  501 -0.00000000000E+00 -0.00000000000E+00 -0.69684156119E+03  0.69684156119E+03  0.00000000000E+00 0.  1.
         23    2    1    2    0    0  0.30530990877E+02  0.81840028017E+03  0.32549328523E+03  0.88612957340E+03  0.92566636231E+02 0.  0.
    5000000    2    1    2    0    0 -0.30530990877E+02 -0.81840028017E+03  0.20206220381E+03  0.10351090380E+04  0.59992535067E+03 0.  0.
         23    2    4    4    0    0  0.11699345957E+03 -0.81820405180E+03  0.10667585816E+03  0.83837616120E+03  0.91375647676E+02 0.  0.
         23    2    4    4    0    0 -0.14752445044E+03 -0.19622837007E+00  0.95386345645E+02  0.19673287681E+03  0.88553757110E+02 0.  0.
          2    1    3    3  502    0  0.60141724638E+02  0.67638158838E+03  0.26406038515E+03  0.72858559356E+03  0.00000000000E+00 0.  1.
         -2    1    3    3    0  502 -0.29610733760E+02  0.14201869178E+03  0.61432900079E+02  0.15754397983E+03  0.00000000000E+00 0. -1.
         11    1    5    5    0    0  0.32944498215E+02 -0.22614368276E+03 -0.11478392243E+02  0.22881883381E+03  0.00000000000E+00 0. -1.
        -11    1    5    5    0    0  0.84048961351E+02 -0.59206036903E+03  0.11815425040E+03  0.60955732739E+03  0.00000000000E+00 0.  1.
          5    1    6    6  503    0 -0.95960214006E+02 -0.27828024442E+02  0.21387091228E+02  0.10228518606E+03  0.47000000000E+01 0. -1.
         -5    1    6    6    0  503 -0.51564236438E+02  0.27631796072E+02  0.73999254417E+02  0.94447690749E+02  0.47000000000E+01 0.  1.
<mgrwt>
<rscale>  0 0.90468199E+03</rscale>
<asrwt>0</asrwt>
<pdfrwt beam="1">  1        2 0.18836878E+00 0.90468199E+03</pdfrwt>
<pdfrwt beam="2">  1       -2 0.10720639E+00 0.90468199E+03</pdfrwt>
<totfact> 0.12841086E+01</totfact>
</mgrwt>
</event>
<event>
12    1  0.3166324E-008  0.9328812E+03  0.7818608E-02  0.9385387E-01
          2   -1    0    0  501    0  0.00000000000E+00  0.00000000000E+00  0.32403228833E+04  0.32403228833E+04  0.00000000000E+00 0.  1.
         -2   -1    0    0    0  501 -0.00000000000E+00 -0.00000000000E+00 -0.53811487867E+03  0.53811487867E+03  0.00000000000E+00 0. -1.
         23    2    1    2    0    0  0.68280973639E+03 -0.56530124824E+03  0.25450687761E+04  0.26966062419E+04  0.92279527286E+02 0.  0.
    5000000    2    1    2    0    0 -0.68280973639E+03  0.56530124824E+03  0.15713922854E+03  0.10818315201E+04  0.59989337672E+03 0.  0.
         23    2    4    4    0    0 -0.30897176229E+03  0.36937876629E+02 -0.15358946119E+03  0.35801891511E+03  0.88090092327E+02 0.  0.
         23    2    4    4    0    0 -0.37383797410E+03  0.52836337161E+03  0.31072868972E+03  0.72381260502E+03  0.91813317296E+02 0.  0.
          1    1    3    3  502    0  0.61967795395E+03 -0.54218472948E+03  0.23247438411E+04  0.24662520095E+04  0.00000000000E+00 0. -1.
         -1    1    3    3    0  502  0.63131782436E+02 -0.23116518766E+02  0.22032493503E+03  0.23035423241E+03  0.00000000000E+00 0.  1.
         13    1    5    5    0    0 -0.14388577970E+03  0.60962945720E+02 -0.82092642493E+02  0.17651855512E+03  0.00000000000E+00 0. -1.
        -13    1    5    5    0    0 -0.16508598259E+03 -0.24025069090E+02 -0.71496818693E+02  0.18150035998E+03  0.00000000000E+00 0.  1.
          5    1    6    6  503    0 -0.19381259219E+03  0.34043699043E+03  0.16121286778E+03  0.42364176385E+03  0.47000000000E+01 0. -1.
         -5    1    6    6    0  503 -0.18002538191E+03  0.18792638118E+03  0.14951582195E+03  0.30017084117E+03  0.47000000000E+01 0.  1.
<mgrwt>
<rscale>  0 0.93288116E+03</rscale>
<asrwt>0</asrwt>
<pdfrwt beam="1">  1        2 0.49851120E+00 0.93288116E+03</pdfrwt>
<pdfrwt beam="2">  1       -2 0.82786906E-01 0.93288116E+03</pdfrwt>
<totfact> 0.16219311E+00</totfact>
</mgrwt>
</event>
<event>
12    1  0.3166324E-008  0.4210117E+03  0.7818608E-02  0.1036738E+00
         -2   -1    0    0    0  501 -0.00000000000E+00  0.00000000000E+00  0.11175656993E+03  0.11175656993E+03  0.00000000000E+00 0. -1.
          2   -1    0    0  501    0  0.00000000000E+00 -0.00000000000E+00 -0.26345120545E+04  0.26345120545E+04  0.00000000000E+00 0.  1.
         23    2    1    2    0    0  0.59773979729E+01  0.33027205584E+03 -0.12985651575E+04  0.13433330296E+04  0.95691170202E+02 0.  0.
    5000000    2    1    2    0    0 -0.59773979729E+01 -0.33027205584E+03 -0.12241903270E+04  0.14029355948E+04  0.60039234350E+03 0.  0.
         23    2    4    4    0    0  0.12530514694E+02 -0.41031308353E+03 -0.43769538375E+03  0.60687380292E+03  0.90579928221E+02 0.  0.
         23    2    4    4    0    0 -0.18507912667E+02  0.80041027691E+02 -0.78649494330E+03  0.79606179187E+03  0.91602247227E+02 0.  0.
          4    1    3    3  502    0 -0.28675442319E+02  0.27431039186E+03 -0.11042451661E+04  0.11381677640E+04  0.00000000000E+00 0. -1.
         -4    1    3    3    0  502  0.34652840291E+02  0.55961663982E+02 -0.19431999140E+03  0.20516526566E+03  0.00000000000E+00 0.  1.
         11    1    5    5    0    0  0.40889104057E+02 -0.24626671165E+03 -0.30394522381E+03  0.39332163833E+03  0.00000000000E+00 0.  1.
        -11    1    5    5    0    0 -0.28358589362E+02 -0.16404637188E+03 -0.13375015994E+03  0.21355216459E+03  0.00000000000E+00 0. -1.
          5    1    6    6  503    0 -0.18151851475E+02  0.42624895919E+02 -0.70188403026E+03  0.70342707753E+03  0.47000000000E+01 0. -1.
         -5    1    6    6    0  503 -0.35606119198E+00  0.37416131772E+02 -0.84610913040E+02  0.92634714345E+02  0.47000000000E+01 0.  1.
<mgrwt>
<rscale>  0 0.42101166E+03</rscale>
<asrwt>0</asrwt>
<pdfrwt beam="1">  1        2 0.40530954E+00 0.42101166E+03</pdfrwt>
<pdfrwt beam="2">  1       -2 0.17193319E-01 0.42101166E+03</pdfrwt>
<totfact> 0.88726377E+01</totfact>
</mgrwt>
</event>
<event>
12    1  0.3166324E-008  0.1082393E+04  0.7818608E-02  0.9222525E-01
         -2   -1    0    0    0  501 -0.00000000000E+00  0.00000000000E+00  0.67333607791E+03  0.67333607791E+03  0.00000000000E+00 0. -1.
          2   -1    0    0  501    0  0.00000000000E+00 -0.00000000000E+00 -0.19277818765E+04  0.19277818765E+04  0.00000000000E+00 0.  1.
         23    2    1    2    0    0  0.13262651646E+03 -0.10212324175E+04 -0.30651836974E+03  0.10782997062E+04  0.90946698531E+02 0.  0.
    5000000    2    1    2    0    0 -0.13262651646E+03  0.10212324175E+04 -0.94792742881E+03  0.15228182482E+04  0.59991963082E+03 0.  0.
         23    2    4    4    0    0 -0.29429646822E+02 -0.13498349186E+02  0.27393783132E+02  0.94383429779E+02  0.84317868331E+02 0.  0.
         23    2    4    4    0    0 -0.10319686963E+03  0.10347307667E+04 -0.97532121194E+03  0.14284348184E+04  0.88640908673E+02 0.  0.
          3    1    3    3  502    0 -0.36783468756E+01 -0.25159737860E+03 -0.90244945054E+02  0.26731801522E+03  0.00000000000E+00 0. -1.
         -3    1    3    3    0  502  0.13630486333E+03 -0.76963503887E+03 -0.21627342469E+03  0.81098169094E+03  0.00000000000E+00 0.  1.
         13    1    5    5    0    0 -0.25224428608E+02 -0.47545537951E+02  0.64943779229E+01  0.54212792976E+02  0.00000000000E+00 0.  1.
        -13    1    5    5    0    0 -0.42052182135E+01  0.34047188766E+02  0.20899405209E+02  0.40170636803E+02  0.00000000000E+00 0. -1.
          5    1    6    6  503    0 -0.11195459002E+03  0.73199924272E+03 -0.70525893471E+03  0.10226284646E+04  0.47000000000E+01 0. -1.
         -5    1    6    6    0  503  0.87577203861E+01  0.30273152394E+03 -0.27006227722E+03  0.40580635386E+03  0.47000000000E+01 0.  1.
<mgrwt>
<rscale>  0 0.10823926E+04</rscale>
<asrwt>0</asrwt>
<pdfrwt beam="1">  1        2 0.29658183E+00 0.10823926E+04</pdfrwt>
<pdfrwt beam="2">  1       -2 0.10359017E+00 0.10823926E+04</pdfrwt>
<totfact> 0.55088412E+00</totfact>
</mgrwt>
</event>
<event>
12    1  0.3166324E-008  0.1789630E+04  0.7818608E-02  0.8711833E-01
         -2   -1    0    0    0  501 -0.00000000000E+00  0.00000000000E+00  0.11430808370E+04  0.11430808370E+04  0.00000000000E+00 0.  1.
          2   -1    0    0  501    0  0.00000000000E+00 -0.00000000000E+00 -0.30774724782E+04  0.30774724782E+04  0.00000000000E+00 0. -1.
         23    2    1    2    0    0  0.95732123326E+03  0.14679168943E+04 -0.36405492265E+03  0.17921970893E+04  0.90501204398E+02 0.  0.
    5000000    2    1    2    0    0 -0.95732123326E+03 -0.14679168943E+04 -0.15703367186E+04  0.24283562259E+04  0.59976045060E+03 0.  0.
         23    2    4    4    0    0 -0.95876382558E+03 -0.11217740762E+04 -0.13813805224E+04  0.20233275052E+04  0.89648726486E+02 0.  0.
         23    2    4    4    0    0  0.14425923231E+01 -0.34614281806E+03 -0.18895619616E+03  0.40502872075E+03  0.92341155484E+02 0.  0.
          2    1    3    3  502    0  0.57117642554E+03  0.94342970021E+03 -0.25275067680E+03  0.11314526119E+04  0.00000000000E+00 0. -1.
         -2    1    3    3    0  502  0.38614480772E+03  0.52448719410E+03 -0.11130424585E+03  0.66074447742E+03  0.00000000000E+00 0.  1.
         13    1    5    5    0    0 -0.78627179918E+03 -0.94209903908E+03 -0.11053658212E+04  0.16515470143E+04  0.00000000000E+00 0. -1.
        -13    1    5    5    0    0 -0.17249202641E+03 -0.17967503716E+03 -0.27601470117E+03  0.37178049090E+03  0.00000000000E+00 0.  1.
          5    1    6    6  503    0  0.17889038754E+02 -0.27990948309E+03 -0.11196760544E+03  0.30204001572E+03  0.47000000000E+01 0. -1.
         -5    1    6    6    0  503 -0.16446446431E+02 -0.66233334972E+02 -0.76988590717E+02  0.10298870502E+03  0.47000000000E+01 0.  1.
<mgrwt>
<rscale>  0 0.17896304E+04</rscale>
<asrwt>0</asrwt>
<pdfrwt beam="1">  1        2 0.47345729E+00 0.17896304E+04</pdfrwt>
<pdfrwt beam="2">  1       -2 0.17585859E+00 0.17896304E+04</pdfrwt>
<totfact> 0.27598838E-01</totfact>
</mgrwt>
</event>
<event>
12    1  0.3166324E-008  0.1952682E+04  0.7818608E-02  0.8629068E-01
          2   -1    0    0  501    0  0.00000000000E+00  0.00000000000E+00  0.30999570964E+04  0.30999570964E+04  0.00000000000E+00 0. -1.
         -2   -1    0    0    0  501 -0.00000000000E+00 -0.00000000000E+00 -0.12560938513E+04  0.12560938513E+04  0.00000000000E+00 0.  1.
         23    2    1    2    0    0  0.17959123424E+04  0.68003170896E+03  0.72954208170E+03  0.20562783206E+04  0.91129665884E+02 0.  0.
    5000000    2    1    2    0    0 -0.17959123424E+04 -0.68003170896E+03  0.11143211634E+04  0.22997726270E+04  0.59958169900E+03 0.  0.
         23    2    4    4    0    0 -0.52030641174E+03 -0.43512544225E+03  0.21560716958E+03  0.71769164190E+03  0.92422555076E+02 0.  0.
         23    2    4    4    0    0 -0.12756059307E+04 -0.24490626671E+03  0.89871399385E+03  0.15820809851E+04  0.90243175961E+02 0.  0.
          2    1    3    3  502    0  0.66076976699E+03  0.22025467924E+03  0.30064755724E+03  0.75862886998E+03  0.00000000000E+00 0. -1.
         -2    1    3    3    0  502  0.11351425754E+04  0.45977702973E+03  0.42889452446E+03  0.12976494507E+04  0.00000000000E+00 0.  1.
         13    1    5    5    0    0 -0.81830229689E+02 -0.36465140524E+02  0.48956293862E+02  0.10209119293E+03  0.00000000000E+00 0. -1.
        -13    1    5    5    0    0 -0.43847618205E+03 -0.39866030173E+03  0.16665087572E+03  0.61560044897E+03  0.00000000000E+00 0.  1.
          5    1    6    6  503    0 -0.54016847504E+03 -0.59419959187E+02  0.36525124873E+03  0.65478490947E+03  0.47000000000E+01 0. -1.
         -5    1    6    6    0  503 -0.73543745567E+03 -0.18548630752E+03  0.53346274512E+03  0.92729607564E+03  0.47000000000E+01 0.  1.
<mgrwt>
<rscale>  0 0.19526823E+04</rscale>
<asrwt>0</asrwt>
<pdfrwt beam="1">  1        2 0.47691647E+00 0.19526823E+04</pdfrwt>
<pdfrwt beam="2">  1       -2 0.19324521E+00 0.19526823E+04</pdfrwt>
<totfact> 0.19941476E-01</totfact>
</mgrwt>
</event>
<event>
12    1  0.3166324E-008  0.6615764E+03  0.7818608E-02  0.9785296E-01
         -1   -1    0    0    0  501 -0.00000000000E+00  0.00000000000E+00  0.10021471247E+04  0.10021471247E+04  0.00000000000E+00 0.  1.
          1   -1    0    0  501    0  0.00000000000E+00 -0.00000000000E+00 -0.47281369970E+03  0.47281369970E+03  0.00000000000E+00 0. -1.
         23    2    1    2    0    0 -0.21949553127E+03  0.50770430893E+03  0.22200438176E+03  0.60301577558E+03  0.91652204118E+02 0.  0.
    5000000    2    1    2    0    0  0.21949553127E+03 -0.50770430893E+03  0.30732904323E+03  0.87194504881E+03  0.59991255511E+03 0.  0.
         23    2    4    4    0    0  0.14667071034E+03 -0.60787834825E+03  0.33408106975E+03  0.71462855951E+03  0.89752066025E+02 0.  0.
         23    2    4    4    0    0  0.72824820928E+02  0.10017403932E+03 -0.26752026527E+02  0.15731648930E+03  0.93244378843E+02 0.  0.
          4    1    3    3  502    0 -0.56845082984E+02  0.12893632102E+03  0.14891398670E+02  0.14169577302E+03  0.00000000000E+00 0.  1.
         -4    1    3    3    0  502 -0.16265044828E+03  0.37876798791E+03  0.20711298309E+03  0.46132000256E+03  0.00000000000E+00 0. -1.
         13    1    5    5    0    0  0.15055286602E+03 -0.50624792949E+03  0.25922236277E+03  0.58834459711E+03  0.00000000000E+00 0.  1.
        -13    1    5    5    0    0 -0.38821556789E+01 -0.10163041876E+03  0.74858706980E+02  0.12628396240E+03  0.00000000000E+00 0. -1.
          5    1    6    6  503    0 -0.94658774415E+01  0.17128570552E+00  0.17442163940E+02  0.20394883119E+02  0.47000000000E+01 0. -1.
         -5    1    6    6    0  503  0.82290698370E+02  0.10000275361E+03 -0.44194190467E+02  0.13692160618E+03  0.47000000000E+01 0.  1.
<mgrwt>
<rscale>  0 0.66157641E+03</rscale>
<asrwt>0</asrwt>
<pdfrwt beam="1">  1        1 0.72740570E-01 0.66157641E+03</pdfrwt>
<pdfrwt beam="2">  1       -1 0.15417648E+00 0.66157641E+03</pdfrwt>
<totfact> 0.16093437E+01</totfact>
</mgrwt>
</event>
<event>
12    1  0.3166324E-008  0.5231025E+03  0.7818608E-02  0.1007919E+00
         -2   -1    0    0    0  501 -0.00000000000E+00  0.00000000000E+00  0.28385271135E+03  0.28385271135E+03  0.00000000000E+00 0.  1.
          2   -1    0    0  501    0  0.00000000000E+00 -0.00000000000E+00 -0.13354675574E+04  0.13354675574E+04  0.00000000000E+00 0. -1.
         23    2    1    2    0    0 -0.11531417792E+03  0.44332193392E+03 -0.50078869357E+03  0.68478564507E+03  0.91161216333E+02 0.  0.
    5000000    2    1    2    0    0  0.11531417792E+03 -0.44332193392E+03 -0.55082615249E+03  0.93453462369E+03  0.60009483907E+03 0.  0.
         23    2    4    4    0    0  0.22665585236E+03 -0.23862201822E+03 -0.13046320081E+02  0.34172566404E+03  0.91065251367E+02 0.  0.
         23    2    4    4    0    0 -0.11134167444E+03 -0.20469991570E+03 -0.53777983241E+03  0.59280895965E+03  0.88973538416E+02 0.  0.
          2    1    3    3  502    0  0.13589074169E+02  0.76270483384E+02 -0.96020609605E+02  0.12337668759E+03  0.00000000000E+00 0. -1.
         -2    1    3    3    0  502 -0.12890325209E+03  0.36705145053E+03 -0.40476808397E+03  0.56140895748E+03  0.00000000000E+00 0.  1.
         11    1    5    5    0    0  0.18228667535E+03 -0.17350369485E+03 -0.46852353316E+02  0.25598263056E+03  0.00000000000E+00 0. -1.
        -11    1    5    5    0    0  0.44369177010E+02 -0.65118323372E+02  0.33806033236E+02  0.85743033481E+02  0.00000000000E+00 0.  1.
          5    1    6    6  503    0 -0.83649791020E+02 -0.20467807398E+03 -0.48401177381E+03  0.53214649177E+03  0.47000000000E+01 0. -1.
         -5    1    6    6    0  503 -0.27691883420E+02 -0.21841713368E-01 -0.53768058592E+02  0.60662467879E+02  0.47000000000E+01 0.  1.
<mgrwt>
<rscale>  0 0.52310250E+03</rscale>
<asrwt>0</asrwt>
<pdfrwt beam="1">  1        2 0.20545655E+00 0.52310250E+03</pdfrwt>
<pdfrwt beam="2">  1       -2 0.43669648E-01 0.52310250E+03</pdfrwt>
<totfact> 0.81721762E+01</totfact>
</mgrwt>
</event>
<event>
12    1  0.3166324E-008  0.5113690E+03  0.7818608E-02  0.1010853E+00
         -2   -1    0    0    0  501 -0.00000000000E+00  0.00000000000E+00  0.50019309016E+03  0.50019309016E+03  0.00000000000E+00 0.  1.
          2   -1    0    0  501    0  0.00000000000E+00 -0.00000000000E+00 -0.78053024643E+03  0.78053024643E+03  0.00000000000E+00 0. -1.
         23    2    1    2    0    0  0.63681535994E+02 -0.41899753080E+03  0.11335698060E+03  0.44722756689E+03  0.86881659083E+02 0.  0.
    5000000    2    1    2    0    0 -0.63681535994E+02  0.41899753080E+03 -0.39369413687E+03  0.83349576971E+03  0.60008820674E+03 0.  0.
         23    2    4    4    0    0 -0.15807268986E+03  0.45190804416E+03 -0.47000347702E+03  0.67692195443E+03  0.90067798461E+02 0.  0.
         23    2    4    4    0    0  0.94391153866E+02 -0.32910513360E+02  0.76309340151E+02  0.15657381528E+03  0.93270855138E+02 0.  0.
          1    1    3    3  502    0 -0.10398658020E+02 -0.21128014366E+03  0.66823019245E+02  0.22183946244E+03  0.00000000000E+00 0. -1.
         -1    1    3    3    0  502  0.74080194015E+02 -0.20771738714E+03  0.46533961356E+02  0.22538810445E+03  0.00000000000E+00 0.  1.
         13    1    5    5    0    0 -0.56224194822E+02  0.65127638876E+02 -0.66145906891E+02  0.10852672679E+03  0.00000000000E+00 0. -1.
        -13    1    5    5    0    0 -0.10184849504E+03  0.38678040529E+03 -0.40385757013E+03  0.56839522764E+03  0.00000000000E+00 0.  1.
          5    1    6    6  503    0  0.61091231489E+02 -0.59448673463E+01 -0.78100702197E+01  0.62052938766E+02  0.47000000000E+01 0. -1.
         -5    1    6    6    0  503  0.33299922377E+02 -0.26965646014E+02  0.84119410370E+02  0.94520876511E+02  0.47000000000E+01 0.  1.
<mgrwt>
<rscale>  0 0.51136897E+03</rscale>
<asrwt>0</asrwt>
<pdfrwt beam="1">  1        2 0.12008158E+00 0.51136897E+03</pdfrwt>
<pdfrwt beam="2">  1       -2 0.76952783E-01 0.51136897E+03</pdfrwt>
<totfact> 0.55598189E+01</totfact>
</mgrwt>
</event>
<event>
12    1  0.3166324E-008  0.1212115E+04  0.7818608E-02  0.9102318E-01
          2   -1    0    0  501    0  0.00000000000E+00  0.00000000000E+00  0.86832549979E+03  0.86832549979E+03  0.00000000000E+00 0. -1.
         -2   -1    0    0    0  501 -0.00000000000E+00 -0.00000000000E+00 -0.18021409721E+04  0.18021409721E+04  0.00000000000E+00 0.  1.
         23    2    1    2    0    0  0.50061753648E+03 -0.10350112843E+04 -0.71071032774E+03  0.13545617275E+04  0.88668072922E+02 0.  0.
    5000000    2    1    2    0    0 -0.50061753648E+03  0.10350112843E+04 -0.22310514461E+03  0.13159047445E+04  0.59996926132E+03 0.  0.
         23    2    4    4    0    0 -0.32962099472E+03  0.10466498853E+04 -0.22067855839E+03  0.11222250942E+04  0.81019462645E+02 0.  0.
         23    2    4    4    0    0 -0.17099654176E+03 -0.11638601043E+02 -0.24265862155E+01  0.19367965026E+03  0.90170085246E+02 0.  0.
          1    1    3    3  502    0  0.24255573930E+03 -0.41781529900E+03 -0.32659866248E+03  0.58315486543E+03  0.00000000000E+00 0. -1.
         -1    1    3    3    0  502  0.25806179718E+03 -0.61719598527E+03 -0.38411166526E+03  0.77140686203E+03  0.00000000000E+00 0.  1.
         13    1    5    5    0    0 -0.32256893661E+02  0.20213645983E+03 -0.50998978036E+02  0.21095153790E+03  0.00000000000E+00 0. -1.
        -13    1    5    5    0    0 -0.29736410106E+03  0.84451342549E+03 -0.16967958036E+03  0.91127355630E+03  0.00000000000E+00 0.  1.
          5    1    6    6  503    0 -0.53449705153E+02 -0.92135807153E+01 -0.42830966218E+02  0.69270070866E+02  0.47000000000E+01 0. -1.
         -5    1    6    6    0  503 -0.11754683661E+03 -0.24250203274E+01  0.40404380002E+02  0.12440957939E+03  0.47000000000E+01 0.  1.
<mgrwt>
<rscale>  0 0.12121152E+04</rscale>
<asrwt>0</asrwt>
<pdfrwt beam="1">  1        2 0.13358854E+00 0.12121152E+04</pdfrwt>
<pdfrwt beam="2">  1       -2 0.27725246E+00 0.12121152E+04</pdfrwt>
<totfact> 0.13172493E+00</totfact>
</mgrwt>
</event>
<event>
12    1  0.3166324E-008  0.1155427E+04  0.7818608E-02  0.9152791E-01
         -2   -1    0    0    0  501 -0.00000000000E+00  0.00000000000E+00  0.15975376386E+04  0.15975376386E+04  0.00000000000E+00 0. -1.
          2   -1    0    0  501    0  0.00000000000E+00 -0.00000000000E+00 -0.10944812216E+04  0.10944812216E+04  0.00000000000E+00 0.  1.
         23    2    1    2    0    0  0.50468147838E+03  0.95203467040E+03 -0.41107240115E+03  0.11568989596E+04  0.91440009839E+02 0.  0.
    5000000    2    1    2    0    0 -0.50468147838E+03 -0.95203467040E+03  0.91412881821E+03  0.15351199006E+04  0.59990683003E+03 0.  0.
         23    2    4    4    0    0 -0.56069766664E+03 -0.46450458368E+03  0.56477341134E+03  0.92590895034E+03  0.90509648757E+02 0.  0.
         23    2    4    4    0    0  0.56016188269E+02 -0.48753008672E+03  0.34935540687E+03  0.60921095027E+03  0.90914150828E+02 0.  0.
          1    1    3    3  502    0  0.11884603996E+03  0.30456302292E+03 -0.10458112089E+03  0.34324951128E+03  0.00000000000E+00 0. -1.
         -1    1    3    3    0  502  0.38583543842E+03  0.64747164747E+03 -0.30649128026E+03  0.81364944828E+03  0.00000000000E+00 0.  1.
         13    1    5    5    0    0 -0.84088956526E+01 -0.22028679938E+02  0.62894800719E+01  0.24403479782E+02  0.00000000000E+00 0. -1.
        -13    1    5    5    0    0 -0.55228877099E+03 -0.44247590374E+03  0.55848393127E+03  0.90150547055E+03  0.00000000000E+00 0.  1.
          5    1    6    6  503    0 -0.21061721610E+02 -0.20247310138E+03  0.13557813230E+03  0.24462721202E+03  0.47000000000E+01 0. -1.
         -5    1    6    6    0  503  0.77077909879E+02 -0.28505698534E+03  0.21377727456E+03  0.36458373825E+03  0.47000000000E+01 0.  1.
<mgrwt>
<rscale>  0 0.11554271E+04</rscale>
<asrwt>0</asrwt>
<pdfrwt beam="1">  1        2 0.16838173E+00 0.11554271E+04</pdfrwt>
<pdfrwt beam="2">  1       -2 0.24577502E+00 0.11554271E+04</pdfrwt>
<totfact> 0.14651376E+00</totfact>
</mgrwt>
</event>
<event>
12    1  0.3166324E-008  0.6825096E+03  0.7818608E-02  0.9747620E-01
          1   -1    0    0  501    0  0.00000000000E+00  0.00000000000E+00  0.80217174006E+03  0.80217174006E+03  0.00000000000E+00 0. -1.
         -1   -1    0    0    0  501 -0.00000000000E+00 -0.00000000000E+00 -0.70614558249E+03  0.70614558249E+03  0.00000000000E+00 0.  1.
         23    2    1    2    0    0 -0.56945947361E+03  0.20117954350E+03  0.21714067163E+03  0.64835645090E+03  0.91971274494E+02 0.  0.
    5000000    2    1    2    0    0  0.56945947361E+03 -0.20117954350E+03 -0.12111451407E+03  0.85996087164E+03  0.60008888877E+03 0.  0.
         23    2    4    4    0    0  0.62148947481E+03 -0.11191173855E+03  0.50095824577E+02  0.64011806756E+03  0.92022520354E+02 0.  0.
         23    2    4    4    0    0 -0.52030001195E+02 -0.89267804953E+02 -0.17121033864E+03  0.21984280408E+03  0.91334639781E+02 0.  0.
          4    1    3    3  502    0 -0.73164251807E+02  0.54439860832E+02  0.13457671952E+02  0.92183594659E+02  0.00000000000E+00 0. -1.
         -4    1    3    3    0  502 -0.49629522181E+03  0.14673968267E+03  0.20368299968E+03  0.55617285624E+03  0.00000000000E+00 0.  1.
         13    1    5    5    0    0  0.31622433837E+03 -0.11566756713E+02  0.13748787729E+02  0.31673435431E+03  0.00000000000E+00 0.  1.
        -13    1    5    5    0    0  0.30526513644E+03 -0.10034498184E+03  0.36347036847E+02  0.32338371325E+03  0.00000000000E+00 0. -1.
          5    1    6    6  503    0 -0.81476001178E+01 -0.69546088198E+02 -0.41766329530E+02  0.81667362231E+02  0.47000000000E+01 0. -1.
         -5    1    6    6    0  503 -0.43882401077E+02 -0.19721716754E+02 -0.12944400911E+03  0.13817544185E+03  0.47000000000E+01 0.  1.
<mgrwt>
<rscale>  0 0.68250957E+03</rscale>
<asrwt>0</asrwt>
<pdfrwt beam="1">  1        1 0.12341104E+00 0.68250957E+03</pdfrwt>
<pdfrwt beam="2">  1       -1 0.10863778E+00 0.68250957E+03</pdfrwt>
<totfact> 0.17939107E+01</totfact>
</mgrwt>
</event>
<event>
12    1  0.3166324E-008  0.5291070E+03  0.7818608E-02  0.1006449E+00
          2   -1    0    0  501    0  0.00000000000E+00  0.00000000000E+00  0.93082241587E+03  0.93082241587E+03  0.00000000000E+00 0. -1.
         -2   -1    0    0    0  501 -0.00000000000E+00 -0.00000000000E+00 -0.53467136940E+03  0.53467136940E+03  0.00000000000E+00 0.  1.
         23    2    1    2    0    0  0.43389043021E+03  0.27802691187E+03 -0.98714634741E+02  0.53245616080E+03  0.90582089388E+02 0.  0.
    5000000    2    1    2    0    0 -0.43389043021E+03 -0.27802691187E+03  0.49486568122E+03  0.93303762447E+03  0.60008940756E+03 0.  0.
         23    2    4    4    0    0 -0.28171794360E+03 -0.11979939451E+03 -0.63675282563E+02  0.32591530700E+03  0.91920351689E+02 0.  0.
         23    2    4    4    0    0 -0.15217248661E+03 -0.15822751736E+03  0.55854096378E+03  0.60712231747E+03  0.91853618411E+02 0.  0.
          1    1    3    3  502    0  0.35388021725E+03  0.25184684595E+03 -0.10852915950E+03  0.44770148586E+03  0.00000000000E+00 0. -1.
         -1    1    3    3    0  502  0.80010212961E+02  0.26180065916E+02  0.98145247619E+01  0.84754674949E+02  0.00000000000E+00 0.  1.
         11    1    5    5    0    0 -0.72777224030E+02  0.91466375012E+01 -0.52773180974E+01  0.73539345941E+02  0.00000000000E+00 0.  1.
        -11    1    5    5    0    0 -0.20894071957E+03 -0.12894603201E+03 -0.58397964465E+02  0.25237596106E+03  0.00000000000E+00 0. -1.
          5    1    6    6  503    0 -0.12958591983E+03 -0.14362835916E+03  0.37923546852E+03  0.42575021639E+03  0.47000000000E+01 0. -1.
         -5    1    6    6    0  503 -0.22586566778E+02 -0.14599158207E+02  0.17930549526E+03  0.18137210108E+03  0.47000000000E+01 0.  1.
<mgrwt>
<rscale>  0 0.52910702E+03</rscale>
<asrwt>0</asrwt>
<pdfrwt beam="1">  1        2 0.14320345E+00 0.52910702E+03</pdfrwt>
<pdfrwt beam="2">  1       -2 0.82257134E-01 0.52910702E+03</pdfrwt>
<totfact> 0.37720448E+01</totfact>
</mgrwt>
</event>
<event>
12    1  0.3166324E-008  0.3752352E+03  0.7818608E-02  0.1052709E+00
         -2   -1    0    0    0  501 -0.00000000000E+00  0.00000000000E+00  0.18755573322E+04  0.18755573322E+04  0.00000000000E+00 0.  1.
          2   -1    0    0  501    0  0.00000000000E+00 -0.00000000000E+00 -0.87363795059E+02  0.87363795059E+02  0.00000000000E+00 0. -1.
         23    2    1    2    0    0 -0.14186340874E+03  0.33252387178E+02  0.27462087568E+03  0.32822358242E+03  0.10527652495E+03 0.  0.
    5000000    2    1    2    0    0  0.14186340874E+03 -0.33252387178E+02  0.15135726614E+04  0.16346975448E+04  0.60008575518E+03 0.  0.
         23    2    4    4    0    0 -0.25296199468E+02  0.25230721415E+03  0.77347952560E+03  0.81901137735E+03  0.90610328865E+02 0.  0.
         23    2    4    4    0    0  0.16715960821E+03 -0.28555960133E+03  0.74009313585E+03  0.81568616747E+03  0.90108010381E+02 0.  0.
          1    1    3    3  502    0 -0.14774786173E+03  0.28312573600E+02  0.28067056938E+03  0.31844465922E+03  0.00000000000E+00 0. -1.
         -1    1    3    3    0  502  0.58844529864E+01  0.49398135773E+01 -0.60496937006E+01  0.97789232024E+01  0.00000000000E+00 0.  1.
         13    1    5    5    0    0 -0.58797836169E+00  0.16052390959E+03  0.60107367675E+03  0.62213972397E+03  0.00000000000E+00 0.  1.
        -13    1    5    5    0    0 -0.24708221106E+02  0.91783304566E+02  0.17240584885E+03  0.19687165338E+03  0.00000000000E+00 0. -1.
          5    1    6    6  503    0  0.17652026078E+02 -0.82916254947E+02  0.12589082341E+03  0.15184626692E+03  0.47000000000E+01 0. -1.
         -5    1    6    6    0  503  0.14950758213E+03 -0.20264334638E+03  0.61420231244E+03  0.66383990055E+03  0.47000000000E+01 0.  1.
<mgrwt>
<rscale>  0 0.37523524E+03</rscale>
<asrwt>0</asrwt>
<pdfrwt beam="1">  1        2 0.13440585E-01 0.37523524E+03</pdfrwt>
<pdfrwt beam="2">  1       -2 0.28854725E+00 0.37523524E+03</pdfrwt>
<totfact> 0.18605260E+01</totfact>
</mgrwt>
</event>
<event>
12    1  0.3166324E-008  0.7413441E+03  0.7818608E-02  0.9649029E-01
         -1   -1    0    0    0  501 -0.00000000000E+00  0.00000000000E+00  0.59454394483E+03  0.59454394483E+03  0.00000000000E+00 0.  1.
          1   -1    0    0  501    0  0.00000000000E+00 -0.00000000000E+00 -0.14312014593E+04  0.14312014593E+04  0.00000000000E+00 0. -1.
         23    2    1    2    0    0  0.11721745705E+03  0.69115051360E+03  0.96207334535E+02  0.71366287628E+03  0.92897174773E+02 0.  0.
    5000000    2    1    2    0    0 -0.11721745705E+03 -0.69115051360E+03 -0.93286484900E+03  0.13120825278E+04  0.59991230080E+03 0.  0.
         23    2    4    4    0    0 -0.51567762301E+02 -0.66761045783E+03 -0.97707135322E+03  0.11883666608E+04  0.95832842849E+02 0.  0.
         23    2    4    4    0    0 -0.65649694746E+02 -0.23540055772E+02  0.44206504218E+02  0.12371586701E+03  0.92126999779E+02 0.  0.
          1    1    3    3  502    0  0.65468206853E+02  0.23249366363E+03  0.69445752541E+02  0.25132071599E+03  0.00000000000E+00 0. -1.
         -1    1    3    3    0  502  0.51749250194E+02  0.45865684997E+03  0.26761581994E+02  0.46234216030E+03  0.00000000000E+00 0.  1.
         13    1    5    5    0    0  0.84556811401E+01 -0.44694168333E+03 -0.62022674224E+03  0.76453226134E+03  0.00000000000E+00 0. -1.
        -13    1    5    5    0    0 -0.60023443441E+02 -0.22066877450E+03 -0.35684461098E+03  0.42383439949E+03  0.00000000000E+00 0.  1.
          5    1    6    6  503    0 -0.64842884257E+02 -0.46817979724E+02  0.81441725726E+01  0.80529127718E+02  0.47000000000E+01 0. -1.
         -5    1    6    6    0  503 -0.80681048916E+00  0.23277923952E+02  0.36062331646E+02  0.43186739289E+02  0.47000000000E+01 0.  1.
<mgrwt>
<rscale>  0 0.74134414E+03</rscale>
<asrwt>0</asrwt>
<pdfrwt beam="1">  1        1 0.22018484E+00 0.74134414E+03</pdfrwt>
<pdfrwt beam="2">  1       -1 0.91468299E-01 0.74134414E+03</pdfrwt>
<totfact> 0.88495731E+00</totfact>
</mgrwt>
</event>
<event>
12    1  0.3166324E-008  0.4539163E+03  0.7818608E-02  0.1026561E+00
          1   -1    0    0  501    0  0.00000000000E+00  0.00000000000E+00  0.19900434908E+04  0.19900434908E+04  0.00000000000E+00 0. -1.
         -1   -1    0    0    0  501 -0.00000000000E+00 -0.00000000000E+00 -0.14247411098E+03  0.14247411098E+03  0.00000000000E+00 0.  1.
         23    2    1    2    0    0  0.27254900660E+03 -0.19985451269E+03  0.41268143106E+03  0.54093750682E+03  0.89903478793E+02 0.  0.
    5000000    2    1    2    0    0 -0.27254900660E+03  0.19985451269E+03  0.14348879488E+04  0.15915800950E+04  0.59999915493E+03 0.  0.
         23    2    4    4    0    0  0.29189277722E+02  0.24812794704E+03  0.10958242332E+04  0.11274058271E+04  0.88281689418E+02 0.  0.
         23    2    4    4    0    0 -0.30173828432E+03 -0.48273434347E+02  0.33906371553E+03  0.46417426791E+03  0.84363683593E+02 0.  0.
          3    1    3    3  502    0  0.16092265617E+03 -0.64385137990E+02  0.18602715813E+03  0.25425902310E+03  0.00000000000E+00 0. -1.
         -3    1    3    3    0  502  0.11162635043E+03 -0.13546937470E+03  0.22665427293E+03  0.28667848372E+03  0.00000000000E+00 0.  1.
         13    1    5    5    0    0  0.99901949859E+01  0.20537623238E+03  0.72374779430E+03  0.75238957367E+03  0.00000000000E+00 0. -1.
        -13    1    5    5    0    0  0.19199082736E+02  0.42751714659E+02  0.37207643894E+03  0.37501625338E+03  0.00000000000E+00 0.  1.
          5    1    6    6  503    0 -0.18549345713E+03 -0.19002515567E+02  0.26191196207E+03  0.32154141896E+03  0.47000000000E+01 0. -1.
         -5    1    6    6    0  503 -0.11624482720E+03 -0.29270918780E+02  0.77151753466E+02  0.14263284895E+03  0.47000000000E+01 0.  1.
<mgrwt>
<rscale>  0 0.45391626E+03</rscale>
<asrwt>0</asrwt>
<pdfrwt beam="1">  1        1 0.30616052E+00 0.45391626E+03</pdfrwt>
<pdfrwt beam="2">  1       -1 0.21919095E-01 0.45391626E+03</pdfrwt>
<totfact> 0.57221867E+01</totfact>
</mgrwt>
</event>
<event>
12    1  0.3166324E-008  0.8195611E+03  0.7818608E-02  0.9532127E-01
         -1   -1    0    0    0  501 -0.00000000000E+00  0.00000000000E+00  0.51342641412E+03  0.51342641412E+03  0.00000000000E+00 0.  1.
          1   -1    0    0  501    0  0.00000000000E+00 -0.00000000000E+00 -0.13363691238E+04  0.13363691238E+04  0.00000000000E+00 0. -1.
         23    2    1    2    0    0  0.15007358026E+03 -0.70006012671E+03 -0.33227916348E+03  0.79440420331E+03  0.89790507597E+02 0.  0.
    5000000    2    1    2    0    0 -0.15007358026E+03  0.70006012671E+03 -0.49066354622E+03  0.10553913346E+04  0.60041143654E+03 0.  0.
         23    2    4    4    0    0  0.18054517845E+03  0.79244761893E+02 -0.58564224731E+02  0.22488032308E+03  0.90912581866E+02 0.  0.
         23    2    4    4    0    0 -0.33061875871E+03  0.62081536482E+03 -0.43209932149E+03  0.83051101156E+03  0.91204363295E+02 0.  0.
          1    1    3    3  502    0  0.12832543932E+03 -0.56035872199E+03 -0.30371637768E+03  0.65016378994E+03  0.00000000000E+00 0. -1.
         -1    1    3    3    0  502  0.21748140942E+02 -0.13970140472E+03 -0.28562785803E+02  0.14424041337E+03  0.00000000000E+00 0.  1.
         11    1    5    5    0    0 -0.92842843709E+01  0.36532709027E+01  0.46376625103E+01  0.11002374204E+02  0.00000000000E+00 0. -1.
        -11    1    5    5    0    0  0.18982946282E+03  0.75591490990E+02 -0.63201887242E+02  0.21387794887E+03  0.00000000000E+00 0.  1.
          5    1    6    6  503    0  0.34786005703E+01  0.22824820297E+02 -0.81833979242E+01  0.24942555705E+02  0.47000000000E+01 0. -1.
         -5    1    6    6    0  503 -0.33409735928E+03  0.59799054452E+03 -0.42391592357E+03  0.80556845585E+03  0.47000000000E+01 0.  1.
<mgrwt>
<rscale>  0 0.81956108E+03</rscale>
<asrwt>0</asrwt>
<pdfrwt beam="1">  1        1 0.20559525E+00 0.81956108E+03</pdfrwt>
<pdfrwt beam="2">  1       -1 0.78988678E-01 0.81956108E+03</pdfrwt>
<totfact> 0.14000732E+01</totfact>
</mgrwt>
</event>
<event>
12    1  0.3166324E-008  0.1160562E+04  0.7818608E-02  0.9148094E-01
          2   -1    0    0  501    0  0.00000000000E+00  0.00000000000E+00  0.35330893182E+04  0.35330893182E+04  0.00000000000E+00 0. -1.
         -2   -1    0    0    0  501 -0.00000000000E+00 -0.00000000000E+00 -0.49393176922E+03  0.49393176922E+03  0.00000000000E+00 0.  1.
         23    2    1    2    0    0 -0.40363796710E+01 -0.11164852469E+04  0.23037636931E+04  0.25616346443E+04  0.89940526901E+02 0.  0.
    5000000    2    1    2    0    0  0.40363796710E+01  0.11164852469E+04  0.73539385589E+03  0.14653864431E+04  0.59999808799E+03 0.  0.
         23    2    4    4    0    0  0.69473893898E+02  0.29846764578E+02 -0.41694005010E+02  0.12481537550E+03  0.90127890349E+02 0.  0.
         23    2    4    4    0    0 -0.65437514227E+02  0.10866384823E+04  0.77708786090E+03  0.13405710676E+04  0.90553764936E+02 0.  0.
          1    1    3    3  502    0  0.26712032735E+02 -0.69661157104E+03  0.15092528259E+04  0.16624756558E+04  0.00000000000E+00 0. -1.
         -1    1    3    3    0  502 -0.30748412406E+02 -0.41987367583E+03  0.79451086724E+03  0.89915898854E+03  0.00000000000E+00 0.  1.
         11    1    5    5    0    0  0.32623795301E+02  0.57917428548E+02 -0.41739520935E+02  0.78491580169E+02  0.00000000000E+00 0.  1.
        -11    1    5    5    0    0  0.36850098597E+02 -0.28070663970E+02  0.45515925891E-01  0.46323795333E+02  0.00000000000E+00 0. -1.
          5    1    6    6  503    0  0.97711398342E+01  0.23145125236E+03  0.20055261048E+03  0.30644509617E+03  0.47000000000E+01 0. -1.
         -5    1    6    6    0  503 -0.75208654061E+02  0.85518722993E+03  0.57653525042E+03  0.10341259715E+04  0.47000000000E+01 0.  1.
<mgrwt>
<rscale>  0 0.11605624E+04</rscale>
<asrwt>0</asrwt>
<pdfrwt beam="1">  1        2 0.54355219E+00 0.11605624E+04</pdfrwt>
<pdfrwt beam="2">  1       -2 0.75989505E-01 0.11605624E+04</pdfrwt>
<totfact> 0.12077524E+00</totfact>
</mgrwt>
</event>
<event>
12    1  0.3166324E-008  0.2942155E+04  0.7818608E-02  0.8260444E-01
         -2   -1    0    0    0  501 -0.00000000000E+00  0.00000000000E+00  0.36093717302E+04  0.36093717302E+04  0.00000000000E+00 0.  1.
          2   -1    0    0  501    0  0.00000000000E+00 -0.00000000000E+00 -0.24962466032E+04  0.24962466032E+04  0.00000000000E+00 0. -1.
         23    2    1    2    0    0 -0.14360527642E+04  0.25368838919E+04 -0.31756416722E+02  0.29167189701E+04  0.90629232386E+02 0.  0.
    5000000    2    1    2    0    0  0.14360527642E+04 -0.25368838919E+04  0.11448815437E+04  0.31888993633E+04  0.60024826313E+03 0.  0.
         23    2    4    4    0    0  0.91143118630E+03 -0.20851936837E+04  0.85066023036E+03  0.24311294744E+04  0.89600155725E+02 0.  0.
         23    2    4    4    0    0  0.52462157793E+03 -0.45169020825E+03  0.29422131339E+03  0.75776988893E+03  0.91636123128E+02 0.  0.
          4    1    3    3  502    0 -0.93965719883E+03  0.16539729127E+04 -0.63775515985E+02  0.19033258690E+04  0.00000000000E+00 0. -1.
         -4    1    3    3    0  502 -0.49639556540E+03  0.88291097926E+03  0.32019099264E+02  0.10133931011E+04  0.00000000000E+00 0.  1.
         13    1    5    5    0    0  0.49142760217E+03 -0.11959171029E+04  0.44694514743E+03  0.13680200182E+04  0.00000000000E+00 0. -1.
        -13    1    5    5    0    0  0.42000358413E+03 -0.88927658074E+03  0.40371508293E+03  0.10631094562E+04  0.00000000000E+00 0.  1.
          5    1    6    6  503    0  0.14640487924E+03 -0.11261278507E+03  0.12191455852E+03  0.22136232201E+03  0.47000000000E+01 0. -1.
         -5    1    6    6    0  503  0.37821669869E+03 -0.33907742317E+03  0.17230675487E+03  0.53640756692E+03  0.47000000000E+01 0.  1.
<mgrwt>
<rscale>  0 0.29421550E+04</rscale>
<asrwt>0</asrwt>
<pdfrwt beam="1">  1        2 0.38403794E+00 0.29421550E+04</pdfrwt>
<pdfrwt beam="2">  1       -2 0.55528796E+00 0.29421550E+04</pdfrwt>
<totfact> 0.22258329E-03</totfact>
</mgrwt>
</event>
<event>
12    1  0.3166324E-008  0.1336951E+04  0.7818608E-02  0.9000765E-01
          2   -1    0    0  501    0  0.00000000000E+00  0.00000000000E+00  0.23255438280E+04  0.23255438280E+04  0.00000000000E+00 0. -1.
         -2   -1    0    0    0  501 -0.00000000000E+00 -0.00000000000E+00 -0.83550965205E+03  0.83550965205E+03  0.00000000000E+00 0.  1.
         23    2    1    2    0    0  0.11845155126E+04 -0.58113482839E+03  0.87863232730E+03  0.15879615319E+04  0.93980699531E+02 0.  0.
    5000000    2    1    2    0    0 -0.11845155126E+04  0.58113482839E+03  0.61140184869E+03  0.15730919482E+04  0.60000947380E+03 0.  0.
         23    2    4    4    0    0 -0.62683728516E+03  0.17563533383E+03  0.57794069751E+03  0.87504238606E+03  0.88943661976E+02 0.  0.
         23    2    4    4    0    0 -0.55767822741E+03  0.40549949455E+03  0.33461151177E+02  0.69804956215E+03  0.10353114104E+03 0.  0.
          1    1    3    3  502    0  0.40824460470E+03 -0.17839711083E+03  0.24926184874E+03  0.51051019153E+03  0.00000000000E+00 0. -1.
         -1    1    3    3    0  502  0.77627090788E+03 -0.40273771756E+03  0.62937047856E+03  0.10774513404E+04  0.00000000000E+00 0.  1.
         13    1    5    5    0    0 -0.44751875920E+03  0.16538941030E+03  0.43178974786E+03  0.64348199915E+03  0.00000000000E+00 0. -1.
        -13    1    5    5    0    0 -0.17931852596E+03  0.10245923534E+02  0.14615094965E+03  0.23156038691E+03  0.00000000000E+00 0.  1.
          5    1    6    6  503    0 -0.36864878483E+03  0.32557480793E+03  0.29124032707E+02  0.49271815615E+03  0.47000000000E+01 0. -1.
         -5    1    6    6    0  503 -0.18902944258E+03  0.79924686626E+02  0.43371184696E+01  0.20533140600E+03  0.47000000000E+01 0.  1.
<mgrwt>
<rscale>  0 0.13369510E+04</rscale>
<asrwt>0</asrwt>
<pdfrwt beam="1">  1        2 0.35777597E+00 0.13369510E+04</pdfrwt>
<pdfrwt beam="2">  1       -2 0.12853995E+00 0.13369510E+04</pdfrwt>
<totfact> 0.18872893E+00</totfact>
</mgrwt>
</event>
<event>
12    1  0.3166324E-008  0.4418062E+03  0.7818608E-02  0.1030194E+00
          1   -1    0    0  501    0  0.00000000000E+00  0.00000000000E+00  0.19199240158E+04  0.19199240158E+04  0.00000000000E+00 0. -1.
         -1   -1    0    0    0  501 -0.00000000000E+00 -0.00000000000E+00 -0.11764900460E+03  0.11764900460E+03  0.00000000000E+00 0.  1.
         23    2    1    2    0    0 -0.25035776765E+03  0.55124744440E+02  0.76352026872E+03  0.81070710583E+03  0.92547617021E+02 0.  0.
    5000000    2    1    2    0    0  0.25035776765E+03 -0.55124744440E+02  0.10387547425E+04  0.12268659146E+04  0.60039221183E+03 0.  0.
         23    2    4    4    0    0  0.37850100828E+03  0.98450064447E+02  0.47754996927E+03  0.62429094885E+03  0.93433330282E+02 0.  0.
         23    2    4    4    0    0 -0.12814324063E+03 -0.15357480889E+03  0.56120477320E+03  0.60257496571E+03  0.90221282342E+02 0.  0.
          3    1    3    3  502    0 -0.12179633384E+03 -0.20307151726E+02  0.34184070116E+03  0.36345810256E+03  0.00000000000E+00 0. -1.
         -3    1    3    3    0  502 -0.12856143381E+03  0.75431896166E+02  0.42167956756E+03  0.44724900327E+03  0.00000000000E+00 0.  1.
         13    1    5    5    0    0  0.16609325735E+03  0.55255336477E+02  0.28446793139E+03  0.33400917103E+03  0.00000000000E+00 0. -1.
        -13    1    5    5    0    0  0.21240775093E+03  0.43194727969E+02  0.19308203788E+03  0.29028177782E+03  0.00000000000E+00 0.  1.
          5    1    6    6  503    0 -0.38137015022E+02 -0.11498662568E+03  0.29946047577E+03  0.32307123448E+03  0.47000000000E+01 0. -1.
         -5    1    6    6    0  503 -0.90006225606E+02 -0.38588183208E+02  0.26174429744E+03  0.27950373123E+03  0.47000000000E+01 0.  1.
<mgrwt>
<rscale>  0 0.44180622E+03</rscale>
<asrwt>0</asrwt>
<pdfrwt beam="1">  1        1 0.29537290E+00 0.44180622E+03</pdfrwt>
<pdfrwt beam="2">  1       -1 0.18099848E-01 0.44180622E+03</pdfrwt>
<totfact> 0.87480089E+01</totfact>
</mgrwt>
</event>
<event>
12    1  0.3166324E-008  0.9246940E+03  0.7818608E-02  0.9395228E-01
         -2   -1    0    0    0  501 -0.00000000000E+00  0.00000000000E+00  0.12041772213E+04  0.12041772213E+04  0.00000000000E+00 0.  1.
          2   -1    0    0  501    0  0.00000000000E+00 -0.00000000000E+00 -0.80811423072E+03  0.80811423072E+03  0.00000000000E+00 0. -1.
         23    2    1    2    0    0 -0.71842680784E+03 -0.49228203756E+03  0.37980279338E+03  0.95456911077E+03  0.92050761285E+02 0.  0.
    5000000    2    1    2    0    0  0.71842680784E+03  0.49228203756E+03  0.16260197173E+02  0.10577223412E+04  0.60002789464E+03 0.  0.
         23    2    4    4    0    0  0.72159225597E+03  0.53690647402E+03 -0.92823261972E+02  0.90859451420E+03  0.89240616070E+02 0.  0.
         23    2    4    4    0    0 -0.31654481223E+01 -0.44624436458E+02  0.10908345914E+03  0.14912782701E+03  0.91315646732E+02 0.  0.
          3    1    3    3  502    0 -0.19915949953E+03 -0.10913514836E+03  0.13612072530E+03  0.26477129511E+03  0.00000000000E+00 0. -1.
         -3    1    3    3    0  502 -0.51926730831E+03 -0.38314688920E+03  0.24368206808E+03  0.68979781566E+03  0.00000000000E+00 0.  1.
         13    1    5    5    0    0  0.34443222397E+03  0.23336688299E+03 -0.83661709850E+02  0.42437358622E+03  0.00000000000E+00 0.  1.
        -13    1    5    5    0    0  0.37716003200E+03  0.30353959103E+03 -0.91615521226E+01  0.48422092798E+03  0.00000000000E+00 0. -1.
          5    1    6    6  503    0  0.49625325454E+01 -0.59120624065E+02  0.11611623931E+03  0.13047967638E+03  0.47000000000E+01 0. -1.
         -5    1    6    6    0  503 -0.81279806676E+01  0.14496187607E+02 -0.70327801605E+01  0.18648150623E+02  0.47000000000E+01 0.  1.
<mgrwt>
<rscale>  0 0.92469403E+03</rscale>
<asrwt>0</asrwt>
<pdfrwt beam="1">  1        2 0.12432527E+00 0.92469403E+03</pdfrwt>
<pdfrwt beam="2">  1       -2 0.18525803E+00 0.92469403E+03</pdfrwt>
<totfact> 0.56689111E+00</totfact>
</mgrwt>
</event>
<event>
12    1  0.3166324E-008  0.9419958E+03  0.7818608E-02  0.9374555E-01
         -2   -1    0    0    0  501 -0.00000000000E+00  0.00000000000E+00  0.55316178678E+03  0.55316178678E+03  0.00000000000E+00 0.  1.
          2   -1    0    0  501    0  0.00000000000E+00 -0.00000000000E+00 -0.18182248138E+04  0.18182248138E+04  0.00000000000E+00 0. -1.
         23    2    1    2    0    0  0.22200215014E+03  0.84128634296E+03 -0.89455823847E+03  0.12514480254E+04  0.94021555153E+02 0.  0.
    5000000    2    1    2    0    0 -0.22200215014E+03 -0.84128634296E+03 -0.37050478854E+03  0.11199385751E+04  0.59995078817E+03 0.  0.
         23    2    4    4    0    0 -0.10140740906E+03 -0.85569377170E+03 -0.19311390141E+03  0.88659496724E+03  0.79135096371E+02 0.  0.
         23    2    4    4    0    0 -0.12059474107E+03  0.14407428746E+02 -0.17739088713E+03  0.23334360789E+03  0.90725117405E+02 0.  0.
          4    1    3    3  502    0  0.71954820452E+02  0.13377193584E+03 -0.15386825945E+03  0.21621255346E+03  0.00000000000E+00 0. -1.
         -4    1    3    3    0  502  0.15004732969E+03  0.70751440712E+03 -0.74068997902E+03  0.10352354720E+04  0.00000000000E+00 0.  1.
         11    1    5    5    0    0 -0.42359673682E+02 -0.12043618160E+03 -0.30324581128E+02  0.13122041005E+03  0.00000000000E+00 0.  1.
        -11    1    5    5    0    0 -0.59047735382E+02 -0.73525759010E+03 -0.16278932028E+03  0.75537455719E+03  0.00000000000E+00 0. -1.
          5    1    6    6  503    0 -0.92797206839E+02 -0.23945825996E+02 -0.15102735317E+03  0.17893036518E+03  0.47000000000E+01 0. -1.
         -5    1    6    6    0  503 -0.27797534235E+02  0.38353254742E+02 -0.26363533964E+02  0.54413242708E+02  0.47000000000E+01 0.  1.
<mgrwt>
<rscale>  0 0.94199584E+03</rscale>
<asrwt>0</asrwt>
<pdfrwt beam="1">  1        2 0.27972690E+00 0.94199584E+03</pdfrwt>
<pdfrwt beam="2">  1       -2 0.85101813E-01 0.94199584E+03</pdfrwt>
<totfact> 0.10190465E+01</totfact>
</mgrwt>
</event>
<event>
12    1  0.3166324E-008  0.3686168E+03  0.7818608E-02  0.1055223E+00
          1   -1    0    0  501    0  0.00000000000E+00  0.00000000000E+00  0.34821621073E+03  0.34821621073E+03  0.00000000000E+00 0. -1.
         -1   -1    0    0    0  501 -0.00000000000E+00 -0.00000000000E+00 -0.49299837424E+03  0.49299837424E+03  0.00000000000E+00 0.  1.
         23    2    1    2    0    0  0.12670722527E+03 -0.98242342130E+02 -0.11332326978E+03  0.21939822330E+03  0.97913932549E+02 0.  0.
    5000000    2    1    2    0    0 -0.12670722527E+03  0.98242342130E+02 -0.31458893723E+02  0.62181636168E+03  0.59996637150E+03 0.  0.
         23    2    4    4    0    0  0.28151290064E+02  0.29071064550E+03  0.10652202250E+03  0.32442432880E+03  0.92730951124E+02 0.  0.
         23    2    4    4    0    0 -0.15485851534E+03 -0.19246830337E+03 -0.13798091623E+03  0.29739203288E+03  0.91531854571E+02 0.  0.
          3    1    3    3  502    0  0.54954134488E+02  0.63547576686E+01 -0.60547612089E+02  0.82014347355E+02  0.00000000000E+00 0. -1.
         -3    1    3    3    0  502  0.71753090786E+02 -0.10459709980E+03 -0.52775657695E+02  0.13738387594E+03  0.00000000000E+00 0.  1.
         13    1    5    5    0    0  0.61032782255E+02  0.17890361121E+03  0.77680106205E+02  0.20436658610E+03  0.00000000000E+00 0. -1.
        -13    1    5    5    0    0 -0.32881492191E+02  0.11180703429E+03  0.28841916297E+02  0.12005774270E+03  0.00000000000E+00 0.  1.
          5    1    6    6  503    0 -0.51217846560E+02 -0.90131872665E+02 -0.10571195569E+03  0.14813551179E+03  0.47000000000E+01 0. -1.
         -5    1    6    6    0  503 -0.10364066878E+03 -0.10233643071E+03 -0.32268960537E+02  0.14925652109E+03  0.47000000000E+01 0.  1.
<mgrwt>
<rscale>  0 0.36861675E+03</rscale>
<asrwt>0</asrwt>
<pdfrwt beam="1">  1        1 0.53571725E-01 0.36861675E+03</pdfrwt>
<pdfrwt beam="2">  1       -1 0.75845904E-01 0.36861675E+03</pdfrwt>
<totfact> 0.13168763E+02</totfact>
</mgrwt>
</event>
<event>
12    1  0.3166324E-008  0.1207641E+04  0.7818608E-02  0.9106194E-01
          1   -1    0    0  501    0  0.00000000000E+00  0.00000000000E+00  0.77988397762E+03  0.77988397762E+03  0.00000000000E+00 0. -1.
         -1   -1    0    0    0  501 -0.00000000000E+00 -0.00000000000E+00 -0.18777195145E+04  0.18777195145E+04  0.00000000000E+00 0.  1.
         23    2    1    2    0    0  0.74175999239E+03 -0.85659674869E+03 -0.47125566249E+03  0.12305365157E+04  0.90400999722E+02 0.  0.
    5000000    2    1    2    0    0 -0.74175999239E+03  0.85659674869E+03 -0.62657987443E+03  0.14270669765E+04  0.59995994885E+03 0.  0.
         23    2    4    4    0    0 -0.13092181660E+03 -0.68229937226E+02 -0.90345574354E+02  0.19248417524E+03  0.84213944901E+02 0.  0.
         23    2    4    4    0    0 -0.61083817579E+03  0.92482668592E+03 -0.53623430007E+03  0.12345828013E+04  0.90663072032E+02 0.  0.
          3    1    3    3  502    0  0.96448819001E+02 -0.94853739773E+02 -0.86807262576E+02  0.16073303168E+03  0.00000000000E+00 0. -1.
         -3    1    3    3    0  502  0.64531117338E+03 -0.76174300892E+03 -0.38444839991E+03  0.10698034840E+04  0.00000000000E+00 0.  1.
         13    1    5    5    0    0 -0.78234331186E+02 -0.83887743692E+02 -0.55744172918E+02  0.12753500277E+03  0.00000000000E+00 0. -1.
        -13    1    5    5    0    0 -0.52687485412E+02  0.15657806466E+02 -0.34601401436E+02  0.64949172463E+02  0.00000000000E+00 0.  1.
          5    1    6    6  503    0 -0.56519320603E+03  0.89034199441E+03 -0.50594536363E+03  0.11696815926E+04  0.47000000000E+01 0. -1.
         -5    1    6    6    0  503 -0.45644969755E+02  0.34484691513E+02 -0.30288936449E+02  0.64901208647E+02  0.47000000000E+01 0.  1.
<mgrwt>
<rscale>  0 0.12076415E+04</rscale>
<asrwt>0</asrwt>
<pdfrwt beam="1">  1        1 0.11998215E+00 0.12076415E+04</pdfrwt>
<pdfrwt beam="2">  1       -1 0.28887992E+00 0.12076415E+04</pdfrwt>
<totfact> 0.88475082E-01</totfact>
</mgrwt>
</event>
<event>
12    1  0.3166324E-008  0.3487706E+03  0.7818608E-02  0.1063121E+00
         -1   -1    0    0    0  501 -0.00000000000E+00  0.00000000000E+00  0.69016288109E+03  0.69016288109E+03  0.00000000000E+00 0.  1.
          1   -1    0    0  501    0  0.00000000000E+00 -0.00000000000E+00 -0.35869928282E+03  0.35869928282E+03  0.00000000000E+00 0. -1.
         23    2    1    2    0    0  0.54747918647E+02  0.29154954947E+03  0.19925160364E+02  0.31056274005E+03  0.89742571254E+02 0.  0.
    5000000    2    1    2    0    0 -0.54747918647E+02 -0.29154954947E+03  0.31153843791E+03  0.73829942387E+03  0.60002613826E+03 0.  0.
         23    2    4    4    0    0 -0.90625452351E+01 -0.30061033416E+03  0.46030132271E+03  0.55759543984E+03  0.92664254789E+02 0.  0.
         23    2    4    4    0    0 -0.45685373412E+02  0.90607846822E+01 -0.14876288480E+03  0.18070398403E+03  0.91401765769E+02 0.  0.
          1    1    3    3  502    0  0.14544644110E+02  0.12452642618E+03 -0.35062417060E+02  0.13018352653E+03  0.00000000000E+00 0. -1.
         -1    1    3    3    0  502  0.40203274537E+02  0.16702312329E+03  0.54987577424E+02  0.18037921352E+03  0.00000000000E+00 0.  1.
         11    1    5    5    0    0 -0.52705016981E+01 -0.11168028806E+03  0.25573056319E+03  0.27910282313E+03  0.00000000000E+00 0. -1.
        -11    1    5    5    0    0 -0.37920435370E+01 -0.18893004610E+03  0.20457075952E+03  0.27849261671E+03  0.00000000000E+00 0.  1.
          5    1    6    6  503    0 -0.49366272459E+02  0.42698260907E+02 -0.11699709575E+03  0.13405439476E+03  0.47000000000E+01 0. -1.
         -5    1    6    6    0  503  0.36808990478E+01 -0.33637476224E+02 -0.31765789055E+02  0.46649589268E+02  0.47000000000E+01 0.  1.
<mgrwt>
<rscale>  0 0.34877065E+03</rscale>
<asrwt>0</asrwt>
<pdfrwt beam="1">  1        1 0.55184505E-01 0.34877065E+03</pdfrwt>
<pdfrwt beam="2">  1       -1 0.10617890E+00 0.34877065E+03</pdfrwt>
<totfact> 0.61236997E+01</totfact>
</mgrwt>
</event>
<event>
12    1  0.3166324E-008  0.7164368E+03  0.7818608E-02  0.9689529E-01
         -2   -1    0    0    0  501 -0.00000000000E+00  0.00000000000E+00  0.45717012116E+03  0.45717012116E+03  0.00000000000E+00 0.  1.
          2   -1    0    0  501    0  0.00000000000E+00 -0.00000000000E+00 -0.11535347374E+04  0.11535347374E+04  0.00000000000E+00 0. -1.
         23    2    1    2    0    0  0.59292279451E+03  0.77530774205E+02 -0.30593468642E+03  0.67799617652E+03  0.92273082844E+02 0.  0.
    5000000    2    1    2    0    0 -0.59292279451E+03 -0.77530774205E+02 -0.39042992986E+03  0.93270868208E+03  0.59995124327E+03 0.  0.
         23    2    4    4    0    0 -0.84944853453E+02 -0.26078126313E+03 -0.19875445294E+03  0.35229375522E+03  0.96876530047E+02 0.  0.
         23    2    4    4    0    0 -0.50797794106E+03  0.18325048893E+03 -0.19167547692E+03  0.58041492686E+03  0.92302050770E+02 0.  0.
          4    1    3    3  502    0  0.27302252196E+03  0.78791643063E+02 -0.12468819939E+03  0.31031688253E+03  0.00000000000E+00 0. -1.
         -4    1    3    3    0  502  0.31990027256E+03 -0.12608688582E+01 -0.18124648703E+03  0.36767929400E+03  0.00000000000E+00 0.  1.
         11    1    5    5    0    0  0.98768283841E+01 -0.43015350293E+02 -0.68278730344E+02  0.81301027775E+02  0.00000000000E+00 0.  1.
        -11    1    5    5    0    0 -0.94821681837E+02 -0.21776591284E+03 -0.13047572260E+03  0.27099272744E+03  0.00000000000E+00 0. -1.
          5    1    6    6  503    0 -0.48282257945E+03  0.15083258773E+03 -0.16925544132E+03  0.53342066624E+03  0.47000000000E+01 0. -1.
         -5    1    6    6    0  503 -0.25155361607E+02  0.32417901194E+02 -0.22420035600E+02  0.46994260625E+02  0.47000000000E+01 0.  1.
<mgrwt>
<rscale>  0 0.71643684E+03</rscale>
<asrwt>0</asrwt>
<pdfrwt beam="1">  1        2 0.17746688E+00 0.71643684E+03</pdfrwt>
<pdfrwt beam="2">  1       -2 0.70333864E-01 0.71643684E+03</pdfrwt>
<totfact> 0.37950931E+01</totfact>
</mgrwt>
</event>
<event>
12    1  0.3166324E-008  0.5179573E+03  0.7818608E-02  0.1009195E+00
          1   -1    0    0  501    0  0.00000000000E+00  0.00000000000E+00  0.62286909794E+03  0.62286909794E+03  0.00000000000E+00 0. -1.
         -1   -1    0    0    0  501 -0.00000000000E+00 -0.00000000000E+00 -0.57830913962E+03  0.57830913962E+03  0.00000000000E+00 0.  1.
         23    2    1    2    0    0  0.26626890895E+03  0.25513616477E+03 -0.22932517513E+03  0.44551948542E+03  0.99518749445E+02 0.  0.
    5000000    2    1    2    0    0 -0.26626890895E+03 -0.25513616477E+03  0.27388513345E+03  0.75565875214E+03  0.60001124066E+03 0.  0.
         23    2    4    4    0    0 -0.42543463871E+03 -0.23310019664E+03  0.10023261994E+03  0.50356998426E+03  0.90585967264E+02 0.  0.
         23    2    4    4    0    0  0.15916572976E+03 -0.22035968130E+02  0.17365251350E+03  0.25208876787E+03  0.87030098369E+02 0.  0.
          1    1    3    3  502    0  0.15769468924E+03  0.89161573504E+02 -0.13484079967E+03  0.22583056140E+03  0.00000000000E+00 0. -1.
         -1    1    3    3    0  502  0.10857421970E+03  0.16597459127E+03 -0.94484375463E+02  0.21968892402E+03  0.00000000000E+00 0.  1.
         11    1    5    5    0    0 -0.75022584145E+02 -0.31496939959E+02 -0.16000656293E+02  0.82924461773E+02  0.00000000000E+00 0. -1.
        -11    1    5    5    0    0 -0.35041205456E+03 -0.20160325668E+03  0.11623327624E+03  0.42064552249E+03  0.00000000000E+00 0.  1.
          5    1    6    6  503    0  0.10173319018E+03 -0.41494901249E+02  0.65477559636E+02  0.12798777141E+03  0.47000000000E+01 0. -1.
         -5    1    6    6    0  503  0.57432539579E+02  0.19458933119E+02  0.10817495387E+03  0.12410099647E+03  0.47000000000E+01 0.  1.
<mgrwt>
<rscale>  0 0.51795731E+03</rscale>
<asrwt>0</asrwt>
<pdfrwt beam="1">  1        1 0.95826015E-01 0.51795731E+03</pdfrwt>
<pdfrwt beam="2">  1       -1 0.88970637E-01 0.51795731E+03</pdfrwt>
<totfact> 0.42176851E+01</totfact>
</mgrwt>
</event>
<event>
12    1  0.3166324E-008  0.5657993E+03  0.7818608E-02  0.9979017E-01
         -1   -1    0    0    0  501 -0.00000000000E+00  0.00000000000E+00  0.50505528602E+03  0.50505528602E+03  0.00000000000E+00 0.  1.
          1   -1    0    0  501    0  0.00000000000E+00 -0.00000000000E+00 -0.69722754303E+03  0.69722754303E+03  0.00000000000E+00 0. -1.
         23    2    1    2    0    0  0.41086993560E+03 -0.10752923501E+02 -0.22101238391E+03  0.47501785684E+03  0.88689126337E+02 0.  0.
    5000000    2    1    2    0    0 -0.41086993560E+03  0.10752923501E+02  0.28840126892E+02  0.72726497222E+03  0.59929363217E+03 0.  0.
         23    2    4    4    0    0 -0.22151869302E+03 -0.27699954179E+03  0.53350682643E+02  0.37003683070E+03  0.91003753905E+02 0.  0.
         23    2    4    4    0    0 -0.18935124258E+03  0.28775246529E+03 -0.24510555751E+02  0.35722814152E+03  0.91410083701E+02 0.  0.
          2    1    3    3  502    0  0.10053674155E+03  0.25917915249E+02 -0.85121047514E+02  0.13425709464E+03  0.00000000000E+00 0. -1.
         -2    1    3    3    0  502  0.31033319405E+03 -0.36670838750E+02 -0.13589133639E+03  0.34076076219E+03  0.00000000000E+00 0.  1.
         13    1    5    5    0    0 -0.34742743873E+02 -0.94310152796E+02 -0.10580003959E+02  0.10106136579E+03  0.00000000000E+00 0. -1.
        -13    1    5    5    0    0 -0.18677594915E+03 -0.18268938900E+03  0.63930686603E+02  0.26897546491E+03  0.00000000000E+00 0.  1.
          5    1    6    6  503    0 -0.12283877591E+03  0.24553724003E+03 -0.37860827331E+02  0.27718844376E+03  0.47000000000E+01 0. -1.
         -5    1    6    6    0  503 -0.66512466664E+02  0.42215225265E+02  0.13350271580E+02  0.80039697758E+02  0.47000000000E+01 0.  1.
<mgrwt>
<rscale>  0 0.56579929E+03</rscale>
<asrwt>0</asrwt>
<pdfrwt beam="1">  1        1 0.10726578E+00 0.56579929E+03</pdfrwt>
<pdfrwt beam="2">  1       -1 0.77700813E-01 0.56579929E+03</pdfrwt>
<totfact> 0.47431115E+01</totfact>
</mgrwt>
</event>
<event>
12    1  0.3166324E-008  0.2779491E+03  0.7818608E-02  0.1096814E+00
         -2   -1    0    0    0  501 -0.00000000000E+00  0.00000000000E+00  0.18797564268E+03  0.18797564268E+03  0.00000000000E+00 0.  1.
          2   -1    0    0  501    0  0.00000000000E+00 -0.00000000000E+00 -0.98781838623E+03  0.98781838623E+03  0.00000000000E+00 0. -1.
         23    2    1    2    0    0  0.15525740684E+02 -0.16434488676E+03 -0.39448648558E+02  0.19318315921E+03  0.92267256930E+02 0.  0.
    5000000    2    1    2    0    0 -0.15525740684E+02  0.16434488676E+03 -0.76039409498E+03  0.98261086970E+03  0.60006220605E+03 0.  0.
         23    2    4    4    0    0 -0.16659422184E+03  0.82881685311E+02 -0.76023457854E+03  0.78785631005E+03  0.90210544660E+02 0.  0.
         23    2    4    4    0    0  0.15106848116E+03  0.81463201450E+02 -0.15951643986E+00  0.19475455964E+03  0.92040066640E+02 0.  0.
          3    1    3    3  502    0 -0.13382167855E+02 -0.33317223264E+02 -0.46584036737E+02  0.58814898293E+02  0.00000000000E+00 0. -1.
         -3    1    3    3    0  502  0.28907908540E+02 -0.13102766350E+03  0.71353881783E+01  0.13436826092E+03  0.00000000000E+00 0.  1.
         13    1    5    5    0    0 -0.12400705474E+03  0.27370028721E+02 -0.36460249336E+03  0.38608528366E+03  0.00000000000E+00 0. -1.
        -13    1    5    5    0    0 -0.42587167096E+02  0.55511656590E+02 -0.39563208519E+03  0.40177102639E+03  0.00000000000E+00 0.  1.
          5    1    6    6  503    0  0.10665178265E+03  0.94241295234E+02  0.20576627060E+02  0.14388020034E+03  0.47000000000E+01 0. -1.
         -5    1    6    6    0  503  0.44416698507E+02 -0.12778093784E+02 -0.20736143499E+02  0.50874359301E+02  0.47000000000E+01 0.  1.
<mgrwt>
<rscale>  0 0.27794909E+03</rscale>
<asrwt>0</asrwt>
<pdfrwt beam="1">  1        2 0.15197206E+00 0.27794909E+03</pdfrwt>
<pdfrwt beam="2">  1       -2 0.28919330E-01 0.27794909E+03</pdfrwt>
<totfact> 0.29424874E+02</totfact>
</mgrwt>
</event>
<event>
12    1  0.3166324E-008  0.6704601E+03  0.7818608E-02  0.9769127E-01
          2   -1    0    0  501    0  0.00000000000E+00  0.00000000000E+00  0.66619415446E+03  0.66619415446E+03  0.00000000000E+00 0. -1.
         -2   -1    0    0    0  501 -0.00000000000E+00 -0.00000000000E+00 -0.14970612496E+04  0.14970612496E+04  0.00000000000E+00 0.  1.
         23    2    1    2    0    0  0.20405109866E+03  0.56369059826E+03 -0.11151514719E+04  0.12687216931E+04  0.81902306465E+02 0.  0.
    5000000    2    1    2    0    0 -0.20405109866E+03 -0.56369059826E+03  0.28428437671E+03  0.89453371102E+03  0.59999084316E+03 0.  0.
         23    2    4    4    0    0  0.59915444828E+02 -0.42730132629E+03  0.36570049140E+03  0.57306575581E+03  0.92147854536E+02 0.  0.
         23    2    4    4    0    0 -0.26396654349E+03 -0.13638927197E+03 -0.81416114683E+02  0.32146795521E+03  0.91829695129E+02 0.  0.
          3    1    3    3  502    0  0.11162546197E+03  0.30043499974E+03 -0.50998235037E+03  0.60233166156E+03  0.00000000000E+00 0. -1.
         -3    1    3    3    0  502  0.92425636690E+02  0.26325559852E+03 -0.60516912151E+03  0.66639003152E+03  0.00000000000E+00 0.  1.
         13    1    5    5    0    0  0.40400867306E+01 -0.27015732730E+03  0.18676020593E+03  0.32845194217E+03  0.00000000000E+00 0.  1.
        -13    1    5    5    0    0  0.55875358098E+02 -0.15714399899E+03  0.17894028547E+03  0.24461381364E+03  0.00000000000E+00 0. -1.
          5    1    6    6  503    0 -0.16234150111E+03 -0.47156723226E+02 -0.77653335267E+02  0.18609312186E+03  0.47000000000E+01 0. -1.
         -5    1    6    6    0  503 -0.10162504238E+03 -0.89232548747E+02 -0.37627794157E+01  0.13537483335E+03  0.47000000000E+01 0.  1.
<mgrwt>
<rscale>  0 0.67046010E+03</rscale>
<asrwt>0</asrwt>
<pdfrwt beam="1">  1        2 0.10249141E+00 0.67046010E+03</pdfrwt>
<pdfrwt beam="2">  1       -2 0.23031711E+00 0.67046010E+03</pdfrwt>
<totfact> 0.38532774E+00</totfact>
</mgrwt>
</event>
<event>
12    1  0.3166324E-008  0.1507046E+04  0.7818608E-02  0.8879781E-01
         -2   -1    0    0    0  501 -0.00000000000E+00  0.00000000000E+00  0.82641772497E+03  0.82641772497E+03  0.00000000000E+00 0.  1.
          2   -1    0    0  501    0  0.00000000000E+00 -0.00000000000E+00 -0.34523068419E+04  0.34523068419E+04  0.00000000000E+00 0. -1.
         23    2    1    2    0    0 -0.12529434643E+04  0.80163027300E+03 -0.21304658154E+04  0.25999652741E+04  0.91958778634E+02 0.  0.
    5000000    2    1    2    0    0  0.12529434643E+04 -0.80163027300E+03 -0.49542330158E+03  0.16787592928E+04  0.60025835772E+03 0.  0.
         23    2    4    4    0    0  0.47428281820E+03 -0.13346539561E+03 -0.40560270168E+03  0.64478392289E+03  0.92062761997E+02 0.  0.
         23    2    4    4    0    0  0.77866064607E+03 -0.66816487739E+03 -0.89820599899E+02  0.10339753699E+04  0.90997913154E+02 0.  0.
          3    1    3    3  502    0 -0.12426180755E+04  0.78994228008E+03 -0.20900241054E+04  0.25566206697E+04  0.00000000000E+00 0. -1.
         -3    1    3    3    0  502 -0.10325388798E+02  0.11687992918E+02 -0.40441709915E+02  0.43344604429E+02  0.00000000000E+00 0.  1.
         11    1    5    5    0    0  0.25550071415E+03 -0.10179416065E+03 -0.17864548624E+03  0.32795864957E+03  0.00000000000E+00 0. -1.
        -11    1    5    5    0    0  0.21878210405E+03 -0.31671234959E+02 -0.22695721543E+03  0.31682527332E+03  0.00000000000E+00 0.  1.
          5    1    6    6  503    0  0.57549442605E+03 -0.54322545024E+03 -0.75510390205E+02  0.79499159318E+03  0.47000000000E+01 0. -1.
         -5    1    6    6    0  503  0.20316622002E+03 -0.12493942715E+03 -0.14310209695E+02  0.23898377668E+03  0.47000000000E+01 0.  1.
<mgrwt>
<rscale>  0 0.15070462E+04</rscale>
<asrwt>0</asrwt>
<pdfrwt beam="1">  1        2 0.53112412E+00 0.15070462E+04</pdfrwt>
<pdfrwt beam="2">  1       -2 0.12714119E+00 0.15070462E+04</pdfrwt>
<totfact> 0.38515652E-01</totfact>
</mgrwt>
</event>
<event>
12    1  0.3166324E-008  0.7417885E+03  0.7818608E-02  0.9648322E-01
         -1   -1    0    0    0  501 -0.00000000000E+00  0.00000000000E+00  0.36059268999E+03  0.36059268999E+03  0.00000000000E+00 0.  1.
          1   -1    0    0  501    0  0.00000000000E+00 -0.00000000000E+00 -0.21285520101E+04  0.21285520101E+04  0.00000000000E+00 0. -1.
         23    2    1    2    0    0 -0.40816073523E+03  0.60034834628E+03 -0.41678401421E+03  0.84213304669E+03  0.92009951381E+02 0.  0.
    5000000    2    1    2    0    0  0.40816073523E+03 -0.60034834628E+03 -0.13511753059E+04  0.16470116534E+04  0.59996612946E+03 0.  0.
         23    2    4    4    0    0  0.28798446725E+03 -0.43403593223E+03 -0.38402777235E+03  0.65419575595E+03  0.95773239105E+02 0.  0.
         23    2    4    4    0    0  0.12017626798E+03 -0.16631241406E+03 -0.96714753355E+03  0.99281589745E+03  0.90591942937E+02 0.  0.
          4    1    3    3  502    0 -0.10566394411E+03  0.22434824766E+03 -0.11884674459E+03  0.27499373450E+03  0.00000000000E+00 0. -1.
         -4    1    3    3    0  502 -0.30249679112E+03  0.37600009862E+03 -0.29793726962E+03  0.56713931219E+03  0.00000000000E+00 0.  1.
         11    1    5    5    0    0  0.33503569232E+02 -0.12217841629E+03 -0.81012657962E+02  0.15037654507E+03  0.00000000000E+00 0. -1.
        -11    1    5    5    0    0  0.25448089802E+03 -0.31185751594E+03 -0.30301511439E+03  0.50381921088E+03  0.00000000000E+00 0.  1.
          5    1    6    6  503    0 -0.20780369917E+01  0.88032373826E+01 -0.59653101983E+02  0.60517747830E+02  0.47000000000E+01 0. -1.
         -5    1    6    6    0  503  0.12225430497E+03 -0.17511565144E+03 -0.90749443157E+03  0.93229814962E+03  0.47000000000E+01 0.  1.
<mgrwt>
<rscale>  0 0.74178851E+03</rscale>
<asrwt>0</asrwt>
<pdfrwt beam="1">  1        1 0.32746954E+00 0.74178851E+03</pdfrwt>
<pdfrwt beam="2">  1       -1 0.55475798E-01 0.74178851E+03</pdfrwt>
<totfact> 0.84105272E+00</totfact>
</mgrwt>
</event>
<event>
12    1  0.3166324E-008  0.1369064E+04  0.7818608E-02  0.8976521E-01
         -2   -1    0    0    0  501 -0.00000000000E+00  0.00000000000E+00  0.97405493931E+03  0.97405493931E+03  0.00000000000E+00 0.  1.
          2   -1    0    0  501    0  0.00000000000E+00 -0.00000000000E+00 -0.22752075728E+04  0.22752075728E+04  0.00000000000E+00 0. -1.
         23    2    1    2    0    0 -0.75986100069E+03 -0.11150666969E+04 -0.11304134478E+04  0.17626716590E+04  0.91729688218E+02 0.  0.
    5000000    2    1    2    0    0  0.75986100069E+03  0.11150666969E+04 -0.17073918571E+03  0.14865908531E+04  0.60003167919E+03 0.  0.
         23    2    4    4    0    0  0.53827276530E+03  0.54432289061E+03 -0.34441430225E+03  0.84441106574E+03  0.91563405593E+02 0.  0.
         23    2    4    4    0    0  0.22158823538E+03  0.57074380630E+03  0.17367511654E+03  0.64217978734E+03  0.85918535176E+02 0.  0.
          1    1    3    3  502    0 -0.24559063728E+03 -0.41880093617E+03 -0.36840763330E+03  0.60945317255E+03  0.00000000000E+00 0. -1.
         -1    1    3    3    0  502 -0.51427036340E+03 -0.69626576074E+03 -0.76200581451E+03  0.11532184865E+04  0.00000000000E+00 0.  1.
         13    1    5    5    0    0  0.36814385180E+03  0.42502148931E+03 -0.26937180556E+03  0.62348563065E+03  0.00000000000E+00 0.  1.
        -13    1    5    5    0    0  0.17012891350E+03  0.11930140130E+03 -0.75042496681E+02  0.22092543509E+03  0.00000000000E+00 0. -1.
          5    1    6    6  503    0  0.18209859124E+03  0.52812311062E+03  0.16919655969E+03  0.58371524112E+03  0.47000000000E+01 0. -1.
         -5    1    6    6    0  503  0.39489644137E+02  0.42620695675E+02  0.44785568460E+01  0.58464546225E+02  0.47000000000E+01 0.  1.
<mgrwt>
<rscale>  0 0.13690639E+04</rscale>
<asrwt>0</asrwt>
<pdfrwt beam="1">  1        2 0.35003193E+00 0.13690639E+04</pdfrwt>
<pdfrwt beam="2">  1       -2 0.14985461E+00 0.13690639E+04</pdfrwt>
<totfact> 0.13461381E+00</totfact>
</mgrwt>
</event>
<event>
12    1  0.3166324E-008  0.3810463E+03  0.7818608E-02  0.1050548E+00
         -2   -1    0    0    0  501 -0.00000000000E+00  0.00000000000E+00  0.31203799839E+03  0.31203799839E+03  0.00000000000E+00 0.  1.
          2   -1    0    0  501    0  0.00000000000E+00 -0.00000000000E+00 -0.72635075818E+03  0.72635075818E+03  0.00000000000E+00 0. -1.
         23    2    1    2    0    0  0.62063896400E+02 -0.20707644900E+03  0.61867200401E+02  0.24238495800E+03  0.90500466359E+02 0.  0.
    5000000    2    1    2    0    0 -0.62063896400E+02  0.20707644900E+03 -0.47617996019E+03  0.79600379858E+03  0.60011841323E+03 0.  0.
         23    2    4    4    0    0  0.17421953507E+03 -0.13149940800E+02 -0.40746428693E+03  0.45281406615E+03  0.92130700810E+02 0.  0.
         23    2    4    4    0    0 -0.23628343147E+03  0.22022638980E+03 -0.68715673253E+02  0.34318973243E+03  0.93422834178E+02 0.  0.
          3    1    3    3  502    0  0.78017521057E+02 -0.13547517649E+03  0.64171187549E+02  0.16899171089E+03  0.00000000000E+00 0. -1.
         -3    1    3    3    0  502 -0.15953624657E+02 -0.71601272511E+02 -0.23039871482E+01  0.73393247112E+02  0.00000000000E+00 0.  1.
         11    1    5    5    0    0  0.89542755233E+01 -0.29238973967E+02 -0.48990688615E+02  0.57751053841E+02  0.00000000000E+00 0.  1.
        -11    1    5    5    0    0  0.16526525954E+03  0.16089033167E+02 -0.35847359832E+03  0.39506301230E+03  0.00000000000E+00 0. -1.
          5    1    6    6  503    0 -0.19781894211E+03  0.22148897124E+03 -0.66480968716E+02  0.30435424663E+03  0.47000000000E+01 0. -1.
         -5    1    6    6    0  503 -0.38464489356E+02 -0.12625814395E+01 -0.22347045370E+01  0.38835485805E+02  0.47000000000E+01 0.  1.
<mgrwt>
<rscale>  0 0.38104631E+03</rscale>
<asrwt>0</asrwt>
<pdfrwt beam="1">  1        2 0.11174627E+00 0.38104631E+03</pdfrwt>
<pdfrwt beam="2">  1       -2 0.48005846E-01 0.38104631E+03</pdfrwt>
<totfact> 0.16667854E+02</totfact>
</mgrwt>
</event>
<event>
12    1  0.3166324E-008  0.9256895E+03  0.7818608E-02  0.9394026E-01
         -2   -1    0    0    0  501 -0.00000000000E+00  0.00000000000E+00  0.27252307932E+03  0.27252307932E+03  0.00000000000E+00 0.  1.
          2   -1    0    0  501    0  0.00000000000E+00 -0.00000000000E+00 -0.33341663276E+04  0.33341663276E+04  0.00000000000E+00 0. -1.
         23    2    1    2    0    0  0.77905768134E+03 -0.35267955709E+03 -0.13107345575E+04  0.15678223922E+04  0.93425009873E+02 0.  0.
    5000000    2    1    2    0    0 -0.77905768134E+03  0.35267955709E+03 -0.17509086908E+04  0.20388670147E+04  0.59998643262E+03 0.  0.
         23    2    4    4    0    0 -0.18978360903E+03 -0.11934920269E+03 -0.20937208634E+03  0.31993847707E+03  0.90895039086E+02 0.  0.
         23    2    4    4    0    0 -0.58927407231E+03  0.47202875979E+03 -0.15415366044E+04  0.17189285376E+04  0.91242162887E+02 0.  0.
          3    1    3    3  502    0  0.12140300308E+03 -0.58384283656E+02 -0.27379975447E+03  0.30514540679E+03  0.00000000000E+00 0. -1.
         -3    1    3    3    0  502  0.65765467826E+03 -0.29429527344E+03 -0.10369348031E+04  0.12626769855E+04  0.00000000000E+00 0.  1.
         11    1    5    5    0    0 -0.11441298132E+03 -0.11978383469E+03 -0.15639320249E+03  0.22780985741E+03  0.00000000000E+00 0. -1.
        -11    1    5    5    0    0 -0.75370627715E+02  0.43463199446E+00 -0.52978883855E+02  0.92128619666E+02  0.00000000000E+00 0.  1.
          5    1    6    6  503    0 -0.28575521071E+03  0.23553892022E+03 -0.85809596344E+03  0.93460440608E+03  0.47000000000E+01 0. -1.
         -5    1    6    6    0  503 -0.30351886160E+03  0.23648983957E+03 -0.68344064098E+03  0.78432413153E+03  0.47000000000E+01 0.  1.
<mgrwt>
<rscale>  0 0.92568946E+03</rscale>
<asrwt>0</asrwt>
<pdfrwt beam="1">  1        2 0.51294868E+00 0.92568946E+03</pdfrwt>
<pdfrwt beam="2">  1       -2 0.41926626E-01 0.92568946E+03</pdfrwt>
<totfact> 0.59462013E+00</totfact>
</mgrwt>
</event>
<event>
12    1  0.3166324E-008  0.5720890E+03  0.7818608E-02  0.9965067E-01
          2   -1    0    0  501    0  0.00000000000E+00  0.00000000000E+00  0.20907851230E+04  0.20907851230E+04  0.00000000000E+00 0. -1.
         -2   -1    0    0    0  501 -0.00000000000E+00 -0.00000000000E+00 -0.23139077788E+03  0.23139077788E+03  0.00000000000E+00 0.  1.
         23    2    1    2    0    0  0.34874850218E+03 -0.43158692581E+03  0.61346171935E+03  0.83216705675E+03  0.90961183649E+02 0.  0.
    5000000    2    1    2    0    0 -0.34874850218E+03  0.43158692581E+03  0.12459326258E+04  0.14900088442E+04  0.59990453852E+03 0.  0.
         23    2    4    4    0    0 -0.17200353719E+03  0.28265866886E+03  0.11854697976E+04  0.12350414666E+04  0.10250679566E+03 0.  0.
         23    2    4    4    0    0 -0.17674496499E+03  0.14892825695E+03  0.60462828179E+02  0.25496737760E+03  0.89074135862E+02 0.  0.
          1    1    3    3  502    0  0.30675171592E+03 -0.34325261635E+03  0.54152651293E+03  0.71075307812E+03  0.00000000000E+00 0.  1.
         -1    1    3    3    0  502  0.41996786263E+02 -0.88334309463E+02  0.71935206414E+02  0.12141397863E+03  0.00000000000E+00 0. -1.
         11    1    5    5    0    0 -0.65263814694E+02  0.46641017395E+02  0.18620075242E+03  0.20274484016E+03  0.00000000000E+00 0.  1.
        -11    1    5    5    0    0 -0.10673972250E+03  0.23601765146E+03  0.99926904522E+03  0.10322966264E+04  0.00000000000E+00 0. -1.
          5    1    6    6  503    0 -0.96992742956E+01  0.53000502990E+02  0.42711954865E+01  0.54253685128E+02  0.47000000000E+01 0. -1.
         -5    1    6    6    0  503 -0.16704569070E+03  0.95927753958E+02  0.56191632692E+02  0.20071369247E+03  0.47000000000E+01 0.  1.
<mgrwt>
<rscale>  0 0.57208898E+03</rscale>
<asrwt>0</asrwt>
<pdfrwt beam="1">  1        2 0.32165924E+00 0.57208898E+03</pdfrwt>
<pdfrwt beam="2">  1       -2 0.35598583E-01 0.57208898E+03</pdfrwt>
<totfact> 0.46678288E+01</totfact>
</mgrwt>
</event>
<event>
12    1  0.3166324E-008  0.5331951E+03  0.7818608E-02  0.1005460E+00
         -2   -1    0    0    0  501 -0.00000000000E+00  0.00000000000E+00  0.15659895936E+03  0.15659895936E+03  0.00000000000E+00 0.  1.
          2   -1    0    0  501    0  0.00000000000E+00 -0.00000000000E+00 -0.19608208418E+04  0.19608208418E+04  0.00000000000E+00 0. -1.
         23    2    1    2    0    0 -0.38173197587E+03 -0.38783989501E+02 -0.56095873261E+03  0.68512043700E+03  0.86555267135E+02 0.  0.
    5000000    2    1    2    0    0  0.38173197587E+03  0.38783989501E+02 -0.12432631498E+04  0.14322993641E+04  0.59879438004E+03 0.  0.
         23    2    4    4    0    0  0.55433762456E+01 -0.20589873704E+03 -0.61317611190E+03  0.65337865810E+03  0.92161313587E+02 0.  0.
         23    2    4    4    0    0  0.37618859962E+03  0.24468272654E+03 -0.63008703790E+03  0.77892070602E+03  0.91215633447E+02 0.  0.
          3    1    3    3  502    0 -0.34936096605E+03 -0.19100504115E+02 -0.46482286655E+03  0.58178880285E+03  0.00000000000E+00 0. -1.
         -3    1    3    3    0  502 -0.32371009819E+02 -0.19683485386E+02 -0.96135866059E+02  0.10333163415E+03  0.00000000000E+00 0.  1.
         11    1    5    5    0    0  0.37093573304E+02 -0.18188506163E+03 -0.51892582512E+03  0.55112804392E+03  0.00000000000E+00 0. -1.
        -11    1    5    5    0    0 -0.31550197058E+02 -0.24013675405E+02 -0.94250286786E+02  0.10225061418E+03  0.00000000000E+00 0.  1.
          5    1    6    6  503    0  0.55402429343E+02  0.11618015637E+02 -0.12056317887E+03  0.13327406936E+03  0.47000000000E+01 0. -1.
         -5    1    6    6    0  503  0.32078617028E+03  0.23306471090E+03 -0.50952385903E+03  0.64564663666E+03  0.47000000000E+01 0.  1.
<mgrwt>
<rscale>  0 0.53319513E+03</rscale>
<asrwt>0</asrwt>
<pdfrwt beam="1">  1        2 0.30166474E+00 0.53319513E+03</pdfrwt>
<pdfrwt beam="2">  1       -2 0.24092148E-01 0.53319513E+03</pdfrwt>
<totfact> 0.11326897E+02</totfact>
</mgrwt>
</event>
<event>
12    1  0.3166324E-008  0.7283092E+03  0.7818608E-02  0.9670008E-01
         -2   -1    0    0    0  501 -0.00000000000E+00  0.00000000000E+00  0.25344588416E+03  0.25344588416E+03  0.00000000000E+00 0.  1.
          2   -1    0    0  501    0  0.00000000000E+00 -0.00000000000E+00 -0.21507962606E+04  0.21507962606E+04  0.00000000000E+00 0. -1.
         23    2    1    2    0    0  0.14990497116E+03  0.59275492777E+03 -0.85700316108E+03  0.10565633896E+04  0.89676492786E+02 0.  0.
    5000000    2    1    2    0    0 -0.14990497116E+03 -0.59275492777E+03 -0.10403472154E+04  0.13476787552E+04  0.60007149064E+03 0.  0.
         23    2    4    4    0    0  0.13783993480E+03 -0.50433792082E+03 -0.54487310396E+03  0.76052658931E+03  0.90318368115E+02 0.  0.
         23    2    4    4    0    0 -0.28774490595E+03 -0.88417006944E+02 -0.49547411141E+03  0.58715216588E+03  0.92942846951E+02 0.  0.
          4    1    3    3  502    0  0.11580116051E+03  0.30900147019E+03 -0.50320391462E+03  0.60175243834E+03  0.00000000000E+00 0. -1.
         -4    1    3    3    0  502  0.34103810649E+02  0.28375345758E+03 -0.35379924646E+03  0.45481095126E+03  0.00000000000E+00 0.  1.
         13    1    5    5    0    0  0.13770217223E+03 -0.40058815791E+03 -0.46911438986E+03  0.63206097117E+03  0.00000000000E+00 0.  1.
        -13    1    5    5    0    0  0.13776256722E+00 -0.10374976291E+03 -0.75758714102E+02  0.12846561814E+03  0.00000000000E+00 0. -1.
          5    1    6    6  503    0  0.11121412860E+01 -0.14507888385E+02 -0.13552467313E+02  0.20432206291E+02  0.47000000000E+01 0. -1.
         -5    1    6    6    0  503 -0.28885704724E+03 -0.73909118558E+02 -0.48192164409E+03  0.56671995959E+03  0.47000000000E+01 0.  1.
<mgrwt>
<rscale>  0 0.72830921E+03</rscale>
<asrwt>0</asrwt>
<pdfrwt beam="1">  1        2 0.33089173E+00 0.72830921E+03</pdfrwt>
<pdfrwt beam="2">  1       -2 0.38991675E-01 0.72830921E+03</pdfrwt>
<totfact> 0.35505508E+01</totfact>
</mgrwt>
</event>
<event>
12    1  0.3166324E-008  0.9345078E+03  0.7818608E-02  0.9383444E-01
          2   -1    0    0  501    0  0.00000000000E+00  0.00000000000E+00  0.24856580128E+04  0.24856580128E+04  0.00000000000E+00 0.  1.
         -2   -1    0    0    0  501 -0.00000000000E+00 -0.00000000000E+00 -0.39848265093E+03  0.39848265093E+03  0.00000000000E+00 0. -1.
         23    2    1    2    0    0 -0.86663237768E+02 -0.89677165235E+03  0.87467778846E+03  0.12588141586E+04  0.88554722997E+02 0.  0.
    5000000    2    1    2    0    0  0.86663237768E+02  0.89677165235E+03  0.12124975734E+04  0.16253265052E+04  0.59985495715E+03 0.  0.
         23    2    4    4    0    0  0.20165229184E+03  0.72868975481E+03  0.11739979517E+04  0.13993382006E+04  0.90685189034E+02 0.  0.
         23    2    4    4    0    0 -0.11498905407E+03  0.16808189753E+03  0.38499621694E+02  0.22598830454E+03  0.90080442285E+02 0.  0.
          3    1    3    3  502    0 -0.37476849116E+02 -0.54606529682E+03  0.58658522082E+03  0.80229299130E+03  0.00000000000E+00 0. -1.
         -3    1    3    3    0  502 -0.49186388653E+02 -0.35070635553E+03  0.28809256764E+03  0.45652116727E+03  0.00000000000E+00 0.  1.
         11    1    5    5    0    0  0.20804761649E+03  0.70233723963E+03  0.11478936945E+04  0.13616979631E+04  0.00000000000E+00 0.  1.
        -11    1    5    5    0    0 -0.63953246460E+01  0.26352515183E+02  0.26104257178E+02  0.37640237468E+02  0.00000000000E+00 0. -1.
          5    1    6    6  503    0 -0.25298678375E+02  0.71636474922E+02  0.53949204560E+02  0.93297450873E+02  0.47000000000E+01 0. -1.
         -5    1    6    6    0  503 -0.89690375700E+02  0.96445422611E+02 -0.15449582866E+02  0.13269085367E+03  0.47000000000E+01 0.  1.
<mgrwt>
<rscale>  0 0.93450777E+03</rscale>
<asrwt>0</asrwt>
<pdfrwt beam="1">  1        2 0.38240892E+00 0.93450777E+03</pdfrwt>
<pdfrwt beam="2">  1       -2 0.61305025E-01 0.93450777E+03</pdfrwt>
<totfact> 0.89552283E+00</totfact>
</mgrwt>
</event>
<event>
12    1  0.3166324E-008  0.8396139E+03  0.7818608E-02  0.9504384E-01
         -1   -1    0    0    0  501 -0.00000000000E+00  0.00000000000E+00  0.17575023971E+04  0.17575023971E+04  0.00000000000E+00 0.  1.
          1   -1    0    0  501    0  0.00000000000E+00 -0.00000000000E+00 -0.52080936401E+03  0.52080936401E+03  0.00000000000E+00 0. -1.
         23    2    1    2    0    0  0.35517237154E+03  0.65325274965E+03  0.10733969058E+04  0.13090034223E+04  0.91774037073E+02 0.  0.
    5000000    2    1    2    0    0 -0.35517237154E+03 -0.65325274965E+03  0.16329612731E+03  0.96930833879E+03  0.60000538500E+03 0.  0.
         23    2    4    4    0    0 -0.47502254296E+03 -0.61364069335E+03  0.62270177331E+02  0.78385859509E+03  0.91407905818E+02 0.  0.
         23    2    4    4    0    0  0.11985017142E+03 -0.39612056302E+02  0.10102594997E+03  0.18544974371E+03  0.90841544896E+02 0.  0.
          1    1    3    3  502    0  0.22234806756E+03  0.34217709874E+03  0.64367254837E+03  0.76212740377E+03  0.00000000000E+00 0. -1.
         -1    1    3    3    0  502  0.13282430398E+03  0.31107565091E+03  0.42972435742E+03  0.54687601856E+03  0.00000000000E+00 0.  1.
         11    1    5    5    0    0 -0.23738048493E+03 -0.35288957800E+03 -0.17333716958E+01  0.42530407177E+03  0.00000000000E+00 0. -1.
        -11    1    5    5    0    0 -0.23764205803E+03 -0.26075111535E+03  0.64003549026E+02  0.35855452332E+03  0.00000000000E+00 0.  1.
          5    1    6    6  503    0  0.76848349393E+02 -0.68287975129E+02  0.58680030191E+02  0.11846667166E+03  0.47000000000E+01 0. -1.
         -5    1    6    6    0  503  0.43001822027E+02  0.28675918827E+02  0.42345919783E+02  0.66983072045E+02  0.47000000000E+01 0.  1.
<mgrwt>
<rscale>  0 0.83961388E+03</rscale>
<asrwt>0</asrwt>
<pdfrwt beam="1">  1        1 0.80124518E-01 0.83961388E+03</pdfrwt>
<pdfrwt beam="2">  1       -1 0.27038498E+00 0.83961388E+03</pdfrwt>
<totfact> 0.22217397E+00</totfact>
</mgrwt>
</event>
<event>
12    1  0.3166324E-008  0.5715007E+03  0.7818608E-02  0.9966363E-01
         -2   -1    0    0    0  501 -0.00000000000E+00  0.00000000000E+00  0.20085835244E+03  0.20085835244E+03  0.00000000000E+00 0. -1.
          2   -1    0    0  501    0  0.00000000000E+00 -0.00000000000E+00 -0.21151230053E+04  0.21151230053E+04  0.00000000000E+00 0.  1.
         23    2    1    2    0    0 -0.96937224099E+02  0.46628858850E+03 -0.10835036615E+04  0.11859549019E+04  0.75412011737E+02 0.  0.
    5000000    2    1    2    0    0  0.96937224099E+02 -0.46628858850E+03 -0.83076099130E+03  0.11300264559E+04  0.59997841052E+03 0.  0.
         23    2    4    4    0    0 -0.18219788977E+03 -0.21504987667E+03 -0.62691907564E+03  0.69245886048E+03  0.83840476833E+02 0.  0.
         23    2    4    4    0    0  0.27913511387E+03 -0.25123871183E+03 -0.20384191566E+03  0.43756759538E+03  0.94215560456E+02 0.  0.
          2    1    3    3  502    0 -0.89990196045E+02  0.35750616389E+03 -0.76241262479E+03  0.84686592979E+03  0.00000000000E+00 0. -1.
         -2    1    3    3    0  502 -0.69470280543E+01  0.10878242461E+03 -0.32109103674E+03  0.33908897206E+03  0.00000000000E+00 0.  1.
         13    1    5    5    0    0 -0.16692196129E+03 -0.17464590663E+03 -0.45457365378E+03  0.51478280913E+03  0.00000000000E+00 0.  1.
        -13    1    5    5    0    0 -0.15275928487E+02 -0.40403970038E+02 -0.17234542187E+03  0.17767605135E+03  0.00000000000E+00 0. -1.
          5    1    6    6  503    0  0.46220699466E+02 -0.75875226348E+02 -0.83851702618E+02  0.12225629253E+03  0.47000000000E+01 0. -1.
         -5    1    6    6    0  503  0.23291441441E+03 -0.17536348548E+03 -0.11999021304E+03  0.31531130285E+03  0.47000000000E+01 0.  1.
<mgrwt>
<rscale>  0 0.57150067E+03</rscale>
<asrwt>0</asrwt>
<pdfrwt beam="1">  1        2 0.32540354E+00 0.57150067E+03</pdfrwt>
<pdfrwt beam="2">  1       -2 0.30901285E-01 0.57150067E+03</pdfrwt>
<totfact> 0.59075521E+01</totfact>
</mgrwt>
</event>
<event>
12    1  0.3166324E-008  0.1381169E+04  0.7818608E-02  0.8967563E-01
         -2   -1    0    0    0  501 -0.00000000000E+00  0.00000000000E+00  0.16996488530E+04  0.16996488530E+04  0.00000000000E+00 0.  1.
          2   -1    0    0  501    0  0.00000000000E+00 -0.00000000000E+00 -0.11708074736E+04  0.11708074736E+04  0.00000000000E+00 0. -1.
         23    2    1    2    0    0 -0.12480408791E+04  0.49589764032E+03  0.33207137634E+03  0.13864634135E+04  0.92135186067E+02 0.  0.
    5000000    2    1    2    0    0  0.12480408791E+04 -0.49589764032E+03  0.19677000310E+03  0.14839929131E+04  0.59999668866E+03 0.  0.
         23    2    4    4    0    0  0.57644480079E+03 -0.54605733469E+01 -0.10789605559E+03  0.59353461848E+03  0.91232441079E+02 0.  0.
         23    2    4    4    0    0  0.67159607827E+03 -0.49043706697E+03  0.30466605869E+03  0.89045829457E+03  0.92329616354E+02 0.  0.
          2    1    3    3  502    0 -0.64867021586E+03  0.30571797931E+03  0.16539422419E+03  0.73592919579E+03  0.00000000000E+00 0.  1.
         -2    1    3    3    0  502 -0.59937066319E+03  0.19017966101E+03  0.16667715215E+03  0.65053421771E+03  0.00000000000E+00 0. -1.
         13    1    5    5    0    0  0.10741864758E+03 -0.35395455147E+02 -0.10664058871E+02  0.11360161198E+03  0.00000000000E+00 0.  1.
        -13    1    5    5    0    0  0.46902615320E+03  0.29934881800E+02 -0.97231996722E+02  0.47993300650E+03  0.00000000000E+00 0. -1.
          5    1    6    6  503    0  0.19023940713E+03 -0.16895818574E+03  0.13036788037E+03  0.28592966755E+03  0.47000000000E+01 0. -1.
         -5    1    6    6    0  503  0.48135667114E+03 -0.32147888122E+03  0.17429817832E+03  0.60452862702E+03  0.47000000000E+01 0.  1.
<mgrwt>
<rscale>  0 0.13811695E+04</rscale>
<asrwt>0</asrwt>
<pdfrwt beam="1">  1        2 0.18012423E+00 0.13811695E+04</pdfrwt>
<pdfrwt beam="2">  1       -2 0.26148444E+00 0.13811695E+04</pdfrwt>
<totfact> 0.10292396E+00</totfact>
</mgrwt>
</event>
<event>
12    1  0.3166324E-008  0.5346926E+03  0.7818608E-02  0.1005100E+00
         -1   -1    0    0    0  501 -0.00000000000E+00  0.00000000000E+00  0.62951878089E+03  0.62951878089E+03  0.00000000000E+00 0.  1.
          1   -1    0    0  501    0  0.00000000000E+00 -0.00000000000E+00 -0.60643318108E+03  0.60643318108E+03  0.00000000000E+00 0. -1.
         23    2    1    2    0    0 -0.34862504557E+03 -0.13912398319E+03  0.28682610180E+03  0.48048877788E+03  0.87780111060E+02 0.  0.
    5000000    2    1    2    0    0  0.34862504557E+03  0.13912398319E+03 -0.26374050199E+03  0.75546318408E+03  0.60022551180E+03 0.  0.
         23    2    4    4    0    0 -0.48098143762E+02  0.25813107125E+03 -0.63035954465E+02  0.28537518536E+03  0.92305923338E+02 0.  0.
         23    2    4    4    0    0  0.39672318933E+03 -0.11900708806E+03 -0.20070454753E+03  0.47008799872E+03  0.95647452562E+02 0.  0.
          1    1    3    3  502    0 -0.91766635947E+02 -0.48223628239E+02  0.12942473808E+03  0.16582338985E+03  0.00000000000E+00 0. -1.
         -1    1    3    3    0  502 -0.25685840963E+03 -0.90900354948E+02  0.15740136372E+03  0.31466538803E+03  0.00000000000E+00 0.  1.
         11    1    5    5    0    0 -0.63510701794E+02  0.97751475785E+02 -0.16968515669E+02  0.11780021555E+03  0.00000000000E+00 0. -1.
        -11    1    5    5    0    0  0.15412558033E+02  0.16037959547E+03 -0.46067438796E+02  0.16757496980E+03  0.00000000000E+00 0.  1.
          5    1    6    6  503    0  0.27280633147E+03 -0.97251384937E+02 -0.18381201489E+03  0.34305986822E+03  0.47000000000E+01 0. -1.
         -5    1    6    6    0  503  0.12391685786E+03 -0.21755703128E+02 -0.16892532636E+02  0.12702813051E+03  0.47000000000E+01 0.  1.
<mgrwt>
<rscale>  0 0.53469257E+03</rscale>
<asrwt>0</asrwt>
<pdfrwt beam="1">  1        1 0.93297412E-01 0.53469257E+03</pdfrwt>
<pdfrwt beam="2">  1       -1 0.96849044E-01 0.53469257E+03</pdfrwt>
<totfact> 0.36259727E+01</totfact>
</mgrwt>
</event>
<event>
12    1  0.3166324E-008  0.1603690E+04  0.7818608E-02  0.8818284E-01
         -1   -1    0    0    0  501 -0.00000000000E+00  0.00000000000E+00  0.17191900480E+04  0.17191900480E+04  0.00000000000E+00 0.  1.
          1   -1    0    0  501    0  0.00000000000E+00 -0.00000000000E+00 -0.42361187129E+04  0.42361187129E+04  0.00000000000E+00 0. -1.
         23    2    1    2    0    0 -0.15465710711E+04  0.87019287949E+02 -0.36353456311E+04  0.39526849427E+04  0.92336148423E+02 0.  0.
    5000000    2    1    2    0    0  0.15465710711E+04 -0.87019287949E+02  0.11184169662E+04  0.20026238183E+04  0.60015932306E+03 0.  0.
         23    2    4    4    0    0  0.10281458176E+04 -0.32466448813E+03  0.76787416057E+03  0.13269241761E+04  0.92769556391E+02 0.  0.
         23    2    4    4    0    0  0.51842525347E+03  0.23764520018E+03  0.35054280559E+03  0.67569964217E+03  0.91922593984E+02 0.  0.
          1    1    3    3  502    0 -0.72954755846E+03  0.86727419431E+02 -0.17384112570E+04  0.18872824335E+04  0.00000000000E+00 0. -1.
         -1    1    3    3    0  502 -0.81702351261E+03  0.29186851820E+00 -0.18969343741E+04  0.20654025092E+04  0.00000000000E+00 0.  1.
         13    1    5    5    0    0  0.51137361683E+03 -0.11950938467E+03  0.40170489564E+03  0.66117493313E+03  0.00000000000E+00 0. -1.
        -13    1    5    5    0    0  0.51677220077E+03 -0.20515510345E+03  0.36616926493E+03  0.66574924299E+03  0.00000000000E+00 0.  1.
          5    1    6    6  503    0  0.34229119895E+03  0.12042756555E+03  0.25489487941E+03  0.44346313597E+03  0.47000000000E+01 0. -1.
         -5    1    6    6    0  503  0.17613405452E+03  0.11721763462E+03  0.95647926183E+02  0.23223650620E+03  0.47000000000E+01 0.  1.
<mgrwt>
<rscale>  0 0.16036901E+04</rscale>
<asrwt>0</asrwt>
<pdfrwt beam="1">  1        1 0.65171056E+00 0.16036901E+04</pdfrwt>
<pdfrwt beam="2">  1       -1 0.26449078E+00 0.16036901E+04</pdfrwt>
<totfact> 0.30951363E-03</totfact>
</mgrwt>
</event>
<event>
12    1  0.3166324E-008  0.2815284E+04  0.7818608E-02  0.8298539E-01
          2   -1    0    0  501    0  0.00000000000E+00  0.00000000000E+00  0.35195963392E+04  0.35195963392E+04  0.00000000000E+00 0. -1.
         -2   -1    0    0    0  501 -0.00000000000E+00 -0.00000000000E+00 -0.22602660644E+04  0.22602660644E+04  0.00000000000E+00 0.  1.
         23    2    1    2    0    0  0.17621553102E+04 -0.21597881119E+04  0.67009962238E+03  0.28683088910E+04  0.91029471698E+02 0.  0.
    5000000    2    1    2    0    0 -0.17621553102E+04  0.21597881119E+04  0.58923065236E+03  0.29115535126E+04  0.60006255436E+03 0.  0.
         23    2    4    4    0    0 -0.16467758297E+04  0.17339640994E+04  0.57179597542E+03  0.24607635517E+04  0.99521299095E+02 0.  0.
         23    2    4    4    0    0 -0.11537948057E+03  0.42582401256E+03  0.17434676934E+02  0.45078996084E+03  0.90934628335E+02 0.  0.
          1    1    3    3  502    0  0.84376180452E+03 -0.10055518235E+04  0.35842214227E+03  0.13607111687E+04  0.00000000000E+00 0. -1.
         -1    1    3    3    0  502  0.91839350573E+03 -0.11542362884E+04  0.31167748011E+03  0.15075977223E+04  0.00000000000E+00 0.  1.
         11    1    5    5    0    0 -0.11111486730E+04  0.11089506815E+04  0.35282351400E+03  0.16090082099E+04  0.00000000000E+00 0.  1.
        -11    1    5    5    0    0 -0.53562715665E+03  0.62501341788E+03  0.21897246143E+03  0.85175534182E+03  0.00000000000E+00 0. -1.
          5    1    6    6  503    0 -0.83505453376E+02  0.14619318085E+03  0.17259014387E+02  0.16930909736E+03  0.47000000000E+01 0. -1.
         -5    1    6    6    0  503 -0.31874027191E+02  0.27963083171E+03  0.17566254682E+00  0.28148086349E+03  0.47000000000E+01 0.  1.
<mgrwt>
<rscale>  0 0.28152841E+04</rscale>
<asrwt>0</asrwt>
<pdfrwt beam="1">  1        2 0.54147636E+00 0.28152841E+04</pdfrwt>
<pdfrwt beam="2">  1       -2 0.34773324E+00 0.28152841E+04</pdfrwt>
<totfact> 0.10285674E-02</totfact>
</mgrwt>
</event>
<event>
12    1  0.3166324E-008  0.5923323E+03  0.7818608E-02  0.9921443E-01
          2   -1    0    0  501    0  0.00000000000E+00  0.00000000000E+00  0.85754252051E+03  0.85754252051E+03  0.00000000000E+00 0.  1.
         -2   -1    0    0    0  501 -0.00000000000E+00 -0.00000000000E+00 -0.42632733563E+03  0.42632733563E+03  0.00000000000E+00 0. -1.
         23    2    1    2    0    0 -0.11287834295E+03  0.43629504712E+03  0.15734213836E+03  0.48524064033E+03  0.87218358612E+02 0.  0.
    5000000    2    1    2    0    0  0.11287834295E+03 -0.43629504712E+03  0.27387304652E+03  0.79862921581E+03  0.59975602564E+03 0.  0.
         23    2    4    4    0    0 -0.22305266574E+03 -0.10127553285E+03  0.48416971888E+02  0.26545432165E+03  0.90069797749E+02 0.  0.
         23    2    4    4    0    0  0.33593100869E+03 -0.33501951427E+03  0.22545607463E+03  0.53317489416E+03  0.91418316733E+02 0.  0.
          4    1    3    3  502    0 -0.40970992946E+02  0.19141524060E+03  0.23792514103E+02  0.19719153208E+03  0.00000000000E+00 0. -1.
         -4    1    3    3    0  502 -0.71907350006E+02  0.24487980651E+03  0.13354962426E+03  0.28804910825E+03  0.00000000000E+00 0.  1.
         13    1    5    5    0    0 -0.47354356384E+02  0.22465459835E+01 -0.18408450443E+02  0.50856200065E+02  0.00000000000E+00 0. -1.
        -13    1    5    5    0    0 -0.17569830936E+03 -0.10352207883E+03  0.66825422331E+02  0.21459812158E+03  0.00000000000E+00 0.  1.
          5    1    6    6  503    0  0.13663255822E+03 -0.19739059039E+03  0.96870139637E+02  0.25891584558E+03  0.47000000000E+01 0. -1.
         -5    1    6    6    0  503  0.19929845047E+03 -0.13762892387E+03  0.12858593500E+03  0.27425904858E+03  0.47000000000E+01 0.  1.
<mgrwt>
<rscale>  0 0.59233230E+03</rscale>
<asrwt>0</asrwt>
<pdfrwt beam="1">  1        2 0.13192962E+00 0.59233230E+03</pdfrwt>
<pdfrwt beam="2">  1       -2 0.65588821E-01 0.59233230E+03</pdfrwt>
<totfact> 0.68967366E+01</totfact>
</mgrwt>
</event>
<event>
12    1  0.3166324E-008  0.5403882E+03  0.7818608E-02  0.1003743E+00
         -2   -1    0    0    0  501 -0.00000000000E+00  0.00000000000E+00  0.24677273147E+04  0.24677273147E+04  0.00000000000E+00 0.  1.
          2   -1    0    0  501    0  0.00000000000E+00 -0.00000000000E+00 -0.13370220699E+04  0.13370220699E+04  0.00000000000E+00 0. -1.
         23    2    1    2    0    0 -0.18687497488E+03 -0.42689457554E+03 -0.12333305008E+04  0.13216430965E+04  0.92060390031E+02 0.  0.
    5000000    2    1    2    0    0  0.18687497488E+03  0.42689457554E+03  0.23640357456E+04  0.24831062881E+04  0.59999216358E+03 0.  0.
         23    2    4    4    0    0  0.16338351023E+03  0.50079228135E+03  0.22608246901E+04  0.23230751844E+04  0.88673288692E+02 0.  0.
         23    2    4    4    0    0  0.23491464655E+02 -0.73897705812E+02  0.10321105547E+03  0.16003110369E+03  0.94576489377E+02 0.  0.
          1    1    3    3  502    0 -0.47114539159E+02 -0.15366171248E+03 -0.54029757978E+03  0.56369599644E+03  0.00000000000E+00 0.  1.
         -1    1    3    3    0  502 -0.13976043572E+03 -0.27323286306E+03 -0.69303292102E+03  0.75794710004E+03  0.00000000000E+00 0. -1.
         11    1    5    5    0    0  0.55939598196E+02  0.21761728461E+03  0.11473019554E+04  0.11690972150E+04  0.00000000000E+00 0. -1.
        -11    1    5    5    0    0  0.10744391203E+03  0.28317499675E+03  0.11135227347E+04  0.11539779693E+04  0.00000000000E+00 0.  1.
          5    1    6    6  503    0 -0.66751464533E+00 -0.53246759144E+02  0.11418614753E+03  0.12608024914E+03  0.47000000000E+01 0. -1.
         -5    1    6    6    0  503  0.24158979300E+02 -0.20650946668E+02 -0.10975092064E+02  0.33950854554E+02  0.47000000000E+01 0.  1.
<mgrwt>
<rscale>  0 0.54038818E+03</rscale>
<asrwt>0</asrwt>
<pdfrwt beam="1">  1        2 0.20569570E+00 0.54038818E+03</pdfrwt>
<pdfrwt beam="2">  1       -2 0.37965035E+00 0.54038818E+03</pdfrwt>
<totfact> 0.18033539E-01</totfact>
</mgrwt>
</event>
<event>
12    1  0.3166324E-008  0.1225495E+04  0.7818608E-02  0.9090829E-01
         -1   -1    0    0    0  501 -0.00000000000E+00  0.00000000000E+00  0.10051990805E+04  0.10051990805E+04  0.00000000000E+00 0.  1.
          1   -1    0    0  501    0  0.00000000000E+00 -0.00000000000E+00 -0.24219323184E+04  0.24219323184E+04  0.00000000000E+00 0. -1.
         23    2    1    2    0    0  0.11530308490E+04  0.29881853578E+03 -0.16863797570E+04  0.20666346974E+04  0.91266814427E+02 0.  0.
    5000000    2    1    2    0    0 -0.11530308490E+04 -0.29881853578E+03  0.26964651919E+03  0.13604967015E+04  0.59955764803E+03 0.  0.
         23    2    4    4    0    0 -0.44956949264E+03  0.74089271580E+02  0.30897275018E+03  0.55807069652E+03  0.91524822268E+02 0.  0.
         23    2    4    4    0    0 -0.70346135641E+03 -0.37290780736E+03 -0.39326230985E+02  0.80242600498E+03  0.91775967847E+02 0.  0.
          3    1    3    3  502    0  0.41485238652E+03  0.10794501552E+03 -0.53248396725E+03  0.68358891474E+03  0.00000000000E+00 0. -1.
         -3    1    3    3    0  502  0.73817846253E+03  0.19087352026E+03 -0.11538957898E+04  0.13830457827E+04  0.00000000000E+00 0.  1.
         13    1    5    5    0    0 -0.27429041341E+03  0.18783310787E+02  0.22823301061E+03  0.35732107521E+03  0.00000000000E+00 0.  1.
        -13    1    5    5    0    0 -0.17527907922E+03  0.55305960793E+02  0.80739739566E+02  0.20074962131E+03  0.00000000000E+00 0. -1.
          5    1    6    6  503    0 -0.20615082419E+03 -0.65014158506E+02 -0.20765446157E+02  0.21720565572E+03  0.47000000000E+01 0. -1.
         -5    1    6    6    0  503 -0.49731053222E+03 -0.30789364885E+03 -0.18560784828E+02  0.58522034926E+03  0.47000000000E+01 0.  1.
<mgrwt>
<rscale>  0 0.12254949E+04</rscale>
<asrwt>0</asrwt>
<pdfrwt beam="1">  1        1 0.37260497E+00 0.12254949E+04</pdfrwt>
<pdfrwt beam="2">  1       -1 0.15464601E+00 0.12254949E+04</pdfrwt>
<totfact> 0.48400700E-01</totfact>
</mgrwt>
</event>
<event>
12    1  0.3166324E-008  0.6586527E+03  0.7818608E-02  0.9790677E-01
          1   -1    0    0  501    0  0.00000000000E+00  0.00000000000E+00  0.21025655711E+04  0.21025655711E+04  0.00000000000E+00 0.  1.
         -1   -1    0    0    0  501 -0.00000000000E+00 -0.00000000000E+00 -0.25786469652E+03  0.25786469652E+03  0.00000000000E+00 0. -1.
         23    2    1    2    0    0 -0.19953614725E+03 -0.54674118415E+03  0.47941428840E+03  0.75957789307E+03  0.91541898691E+02 0.  0.
    5000000    2    1    2    0    0  0.19953614725E+03  0.54674118415E+03  0.13652865862E+04  0.16008523746E+04  0.59998355497E+03 0.  0.
         23    2    4    4    0    0  0.10931312271E+03 -0.30174961748E+02  0.68319167187E+03  0.69856859314E+03  0.91582376531E+02 0.  0.
         23    2    4    4    0    0  0.90223024543E+02  0.57691614589E+03  0.68209491435E+03  0.90228378146E+03  0.88826328026E+02 0.  0.
          3    1    3    3  502    0 -0.87881828532E+02 -0.34981805930E+03  0.32540227805E+03  0.48578033406E+03  0.00000000000E+00 0. -1.
         -3    1    3    3    0  502 -0.11165431872E+03 -0.19692312485E+03  0.15401201035E+03  0.27379755901E+03  0.00000000000E+00 0.  1.
         11    1    5    5    0    0  0.82991258626E+02  0.18434077027E+02  0.50147658992E+03  0.50863162941E+03  0.00000000000E+00 0. -1.
        -11    1    5    5    0    0  0.26321864084E+02 -0.48609038775E+02  0.18171508196E+03  0.18993696373E+03  0.00000000000E+00 0.  1.
          5    1    6    6  503    0  0.68995562893E+02  0.18615810579E+03  0.25055104910E+03  0.31970790772E+03  0.47000000000E+01 0. -1.
         -5    1    6    6    0  503  0.21227461650E+02  0.39075804010E+03  0.43154386525E+03  0.58257587374E+03  0.47000000000E+01 0.  1.
<mgrwt>
<rscale>  0 0.65865269E+03</rscale>
<asrwt>0</asrwt>
<pdfrwt beam="1">  1        1 0.32347162E+00 0.65865269E+03</pdfrwt>
<pdfrwt beam="2">  1       -1 0.39671493E-01 0.65865269E+03</pdfrwt>
<totfact> 0.16619441E+01</totfact>
</mgrwt>
</event>
<event>
12    1  0.3345466E-008  0.1380137E+04  0.7818608E-02  0.8968323E-01
          2   -1    0    0  501    0  0.00000000000E+00  0.00000000000E+00  0.24660343755E+04  0.24660343755E+04  0.00000000000E+00 0. -1.
         -2   -1    0    0    0  501 -0.00000000000E+00 -0.00000000000E+00 -0.86201411548E+03  0.86201411548E+03  0.00000000000E+00 0.  1.
         23    2    1    2    0    0 -0.10679613617E+04  0.77528356454E+03  0.25387352306E+03  0.13470179872E+04  0.91649421997E+02 0.  0.
    5000000    2    1    2    0    0  0.10679613617E+04 -0.77528356454E+03  0.13501467370E+04  0.19810305038E+04  0.59998297477E+03 0.  0.
         23    2    4    4    0    0  0.97028054723E+03 -0.41091581092E+03  0.93588823294E+03  0.14123118083E+04  0.91878807180E+02 0.  0.
         23    2    4    4    0    0  0.97680814490E+02 -0.36436775363E+03  0.41425850403E+03  0.56871869553E+03  0.97598386642E+02 0.  0.
          3    1    3    3  502    0 -0.20608417948E+03  0.18995936047E+03  0.35265141692E+02  0.28248695169E+03  0.00000000000E+00 0. -1.
         -3    1    3    3    0  502 -0.86187718224E+03  0.58532420408E+03  0.21860838137E+03  0.10645310355E+04  0.00000000000E+00 0.  1.
         13    1    5    5    0    0  0.49818553863E+03 -0.24095416073E+03  0.44178883099E+03  0.70811376886E+03  0.00000000000E+00 0. -1.
        -13    1    5    5    0    0  0.47209500860E+03 -0.16996165018E+03  0.49409940195E+03  0.70419803940E+03  0.00000000000E+00 0.  1.
          5    1    6    6  503    0  0.15679163404E+02 -0.18497720411E+03  0.14876234130E+03  0.23793849288E+03  0.47000000000E+01 0. -1.
         -5    1    6    6    0  503  0.82001651085E+02 -0.17939054952E+03  0.26549616273E+03  0.33078020265E+03  0.47000000000E+01 0.  1.
<mgrwt>
<rscale>  0 0.13801371E+04</rscale>
<asrwt>0</asrwt>
<pdfrwt beam="1">  1        2 0.37938990E+00 0.13801371E+04</pdfrwt>
<pdfrwt beam="2">  1       -2 0.13261756E+00 0.13801371E+04</pdfrwt>
<totfact> 0.14422061E+00</totfact>
</mgrwt>
</event>
<event>
12    1  0.3166324E-008  0.1371550E+04  0.7818608E-02  0.8974674E-01
          2   -1    0    0  501    0  0.00000000000E+00  0.00000000000E+00  0.16731978334E+04  0.16731978334E+04  0.00000000000E+00 0. -1.
         -2   -1    0    0    0  501 -0.00000000000E+00 -0.00000000000E+00 -0.12723666856E+04  0.12723666856E+04  0.00000000000E+00 0.  1.
         23    2    1    2    0    0 -0.12689576754E+03  0.13263854824E+04 -0.22798167476E+03  0.13546966876E+04  0.88467439275E+02 0.  0.
    5000000    2    1    2    0    0  0.12689576754E+03 -0.13263854824E+04  0.62881282263E+03  0.15908678314E+04  0.60004492111E+03 0.  0.
         23    2    4    4    0    0  0.27571292552E+03 -0.57645732468E+03  0.48380648324E+03  0.80745272759E+03  0.97931249303E+02 0.  0.
         23    2    4    4    0    0 -0.14881715799E+03 -0.74992815768E+03  0.14500633939E+03  0.78341510378E+03  0.90407954150E+02 0.  0.
          1    1    3    3  502    0 -0.76707701898E+02  0.66642199462E+03 -0.71829057801E+02  0.67465677199E+03  0.00000000000E+00 0. -1.
         -1    1    3    3    0  502 -0.50188065639E+02  0.65996348773E+03 -0.15615261696E+03  0.68003991564E+03  0.00000000000E+00 0.  1.
         13    1    5    5    0    0  0.19231833836E+03 -0.30909979865E+03  0.23909057520E+03  0.43553797991E+03  0.00000000000E+00 0.  1.
        -13    1    5    5    0    0  0.83394587160E+02 -0.26735752603E+03  0.24471590804E+03  0.37191474768E+03  0.00000000000E+00 0. -1.
          5    1    6    6  503    0 -0.12880653027E+03 -0.53141202664E+03  0.13732614231E+03  0.56379998551E+03  0.47000000000E+01 0. -1.
         -5    1    6    6    0  503 -0.20010627715E+02 -0.21851613104E+03  0.76801970872E+01  0.21961511827E+03  0.47000000000E+01 0.  1.
<mgrwt>
<rscale>  0 0.13715496E+04</rscale>
<asrwt>0</asrwt>
<pdfrwt beam="1">  1        2 0.25741505E+00 0.13715496E+04</pdfrwt>
<pdfrwt beam="2">  1       -2 0.19574872E+00 0.13715496E+04</pdfrwt>
<totfact> 0.13719964E+00</totfact>
</mgrwt>
</event>
<event>
12    1  0.3166324E-008  0.1225133E+04  0.7818608E-02  0.9091137E-01
         -2   -1    0    0    0  501 -0.00000000000E+00  0.00000000000E+00  0.41361689710E+03  0.41361689710E+03  0.00000000000E+00 0. -1.
          2   -1    0    0  501    0  0.00000000000E+00 -0.00000000000E+00 -0.48158593877E+04  0.48158593877E+04  0.00000000000E+00 0.  1.
         23    2    1    2    0    0  0.15301882699E+02  0.12159796546E+04 -0.10357626933E+04  0.16000725217E+04  0.92666335923E+02 0.  0.
    5000000    2    1    2    0    0 -0.15301882699E+02 -0.12159796546E+04 -0.33664797973E+04  0.36294037631E+04  0.60045381322E+03 0.  0.
         23    2    4    4    0    0  0.26794177290E+02 -0.93824654825E+03 -0.17712927109E+04  0.20066916723E+04  0.91154191015E+02 0.  0.
         23    2    4    4    0    0 -0.42096059989E+02 -0.27773310638E+03 -0.15951870864E+04  0.16227120908E+04  0.98310388593E+02 0.  0.
          2    1    3    3  502    0  0.16695278912E+02  0.20488325034E+03 -0.21834735295E+03  0.29988572015E+03  0.00000000000E+00 0. -1.
         -2    1    3    3    0  502 -0.13933962127E+01  0.10110964043E+04 -0.81741534033E+03  0.13001868016E+04  0.00000000000E+00 0.  1.
         11    1    5    5    0    0  0.39153997957E+02 -0.48921246193E+03 -0.84382697556E+03  0.97616895728E+03  0.00000000000E+00 0. -1.
        -11    1    5    5    0    0 -0.12359820667E+02 -0.44903408632E+03 -0.92746573536E+03  0.10305227150E+04  0.00000000000E+00 0.  1.
          5    1    6    6  503    0  0.15255143594E+02 -0.80607029977E+01 -0.49709466658E+02  0.52828168758E+02  0.47000000000E+01 0. -1.
         -5    1    6    6    0  503 -0.57351203584E+02 -0.26967240338E+03 -0.15454776197E+04  0.15698839221E+04  0.47000000000E+01 0.  1.
<mgrwt>
<rscale>  0 0.12251333E+04</rscale>
<asrwt>0</asrwt>
<pdfrwt beam="1">  1        2 0.74090146E+00 0.12251333E+04</pdfrwt>
<pdfrwt beam="2">  1       -2 0.63633368E-01 0.12251333E+04</pdfrwt>
<totfact> 0.13619061E-01</totfact>
</mgrwt>
</event>
<event>
12    1  0.3166324E-008  0.9295751E+03  0.7818608E-02  0.9389348E-01
          2   -1    0    0  501    0  0.00000000000E+00  0.00000000000E+00  0.29984966607E+04  0.29984966607E+04  0.00000000000E+00 0. -1.
         -2   -1    0    0    0  501 -0.00000000000E+00 -0.00000000000E+00 -0.36253383605E+03  0.36253383605E+03  0.00000000000E+00 0.  1.
         23    2    1    2    0    0 -0.11568853081E+03  0.90981753408E+03  0.16349923251E+04  0.18771095992E+04  0.95858034159E+02 0.  0.
    5000000    2    1    2    0    0  0.11568853081E+03 -0.90981753408E+03  0.10009704995E+04  0.14839208975E+04  0.59910558979E+03 0.  0.
         23    2    4    4    0    0  0.32569108201E+02 -0.57404643463E+03  0.21500036270E+03  0.62029718867E+03  0.89181782869E+02 0.  0.
         23    2    4    4    0    0  0.83119422607E+02 -0.33577109945E+03  0.78597013679E+03  0.86362370883E+03  0.91900951518E+02 0.  0.
          1    1    3    3  502    0 -0.28969741137E+02  0.59180771063E+03  0.10519958999E+04  0.12073818724E+04  0.00000000000E+00 0. -1.
         -1    1    3    3    0  502 -0.86718789671E+02  0.31800982345E+03  0.58299642519E+03  0.66972772682E+03  0.00000000000E+00 0.  1.
         13    1    5    5    0    0 -0.75541365311E+00 -0.50204434863E+03  0.19400961826E+03  0.53822748965E+03  0.00000000000E+00 0. -1.
        -13    1    5    5    0    0  0.33324521854E+02 -0.72002085999E+02  0.20990744435E+02  0.82069699018E+02  0.00000000000E+00 0.  1.
          5    1    6    6  503    0  0.22701979281E+01 -0.17987558283E+03  0.34900260942E+03  0.39266434837E+03  0.47000000000E+01 0. -1.
         -5    1    6    6    0  503  0.80849224679E+02 -0.15589551663E+03  0.43696752736E+03  0.47095936046E+03  0.47000000000E+01 0.  1.
<mgrwt>
<rscale>  0 0.92957510E+03</rscale>
<asrwt>0</asrwt>
<pdfrwt beam="1">  1        2 0.46130716E+00 0.92957510E+03</pdfrwt>
<pdfrwt beam="2">  1       -2 0.55774438E-01 0.92957510E+03</pdfrwt>
<totfact> 0.54458648E+00</totfact>
</mgrwt>
</event>
<event>
12    1  0.3166324E-008  0.1457835E+04  0.7818608E-02  0.8912986E-01
         -2   -1    0    0    0  501 -0.00000000000E+00  0.00000000000E+00  0.20601528211E+04  0.20601528211E+04  0.00000000000E+00 0.  1.
          2   -1    0    0  501    0  0.00000000000E+00 -0.00000000000E+00 -0.14995208782E+04  0.14995208782E+04  0.00000000000E+00 0. -1.
         23    2    1    2    0    0  0.47814134914E+03 -0.13625460722E+04  0.11906569991E+04  0.18738153586E+04  0.91482018166E+02 0.  0.
    5000000    2    1    2    0    0 -0.47814134914E+03  0.13625460722E+04 -0.63002505624E+03  0.16858583407E+04  0.60002985318E+03 0.  0.
         23    2    4    4    0    0 -0.28198348219E+03  0.11163257119E+04 -0.24574470399E+03  0.11808103755E+04  0.90691257053E+02 0.  0.
         23    2    4    4    0    0 -0.19615786695E+03  0.24622036030E+03 -0.38428035225E+03  0.50504796516E+03  0.91102598148E+02 0.  0.
          4    1    3    3  502    0  0.81945216355E+02 -0.30968127075E+03  0.30145812671E+03  0.43988010878E+03  0.00000000000E+00 0. -1.
         -4    1    3    3    0  502  0.39619613278E+03 -0.10528648015E+04  0.88919887243E+03  0.14339352498E+04  0.00000000000E+00 0.  1.
         11    1    5    5    0    0 -0.21932735451E+03  0.88766784662E+03 -0.15747015794E+03  0.92782301384E+03  0.00000000000E+00 0. -1.
        -11    1    5    5    0    0 -0.62656127676E+02  0.22865786531E+03 -0.88274546047E+02  0.25298736171E+03  0.00000000000E+00 0.  1.
          5    1    6    6  503    0 -0.14743173727E+03  0.14672693338E+03 -0.19212381938E+03  0.28319350647E+03  0.47000000000E+01 0. -1.
         -5    1    6    6    0  503 -0.48726129681E+02  0.99493426924E+02 -0.19215653287E+03  0.22185445869E+03  0.47000000000E+01 0.  1.
<mgrwt>
<rscale>  0 0.14578354E+04</rscale>
<asrwt>0</asrwt>
<pdfrwt beam="1">  1        2 0.23069552E+00 0.14578354E+04</pdfrwt>
<pdfrwt beam="2">  1       -2 0.31694659E+00 0.14578354E+04</pdfrwt>
<totfact> 0.30042262E-01</totfact>
</mgrwt>
</event>
<event>
12    1  0.3166324E-008  0.4697895E+03  0.7818608E-02  0.1021980E+00
         -2   -1    0    0    0  501 -0.00000000000E+00  0.00000000000E+00  0.74792158626E+02  0.74792158626E+02  0.00000000000E+00 0.  1.
          2   -1    0    0  501    0  0.00000000000E+00 -0.00000000000E+00 -0.39159170474E+04  0.39159170474E+04  0.00000000000E+00 0. -1.
         23    2    1    2    0    0  0.34247383936E+02  0.35624452825E+03 -0.16219440774E+04  0.16641652807E+04  0.10324942754E+03 0.  0.
    5000000    2    1    2    0    0 -0.34247383936E+02 -0.35624452825E+03 -0.22191808114E+04  0.23265439253E+04  0.59996676189E+03 0.  0.
         23    2    4    4    0    0 -0.54040983791E+02  0.82232599852E+02 -0.12664444243E+04  0.12735570366E+04  0.91561002146E+02 0.  0.
         23    2    4    4    0    0  0.19793599855E+02 -0.43847712810E+03 -0.95273638704E+03  0.10529868887E+04  0.91764841052E+02 0.  0.
          3    1    3    3  502    0 -0.40884474774E+01  0.14577655642E+03 -0.87971640399E+03  0.89172219399E+03  0.00000000000E+00 0. -1.
         -3    1    3    3    0  502  0.38335831413E+02  0.21046797183E+03 -0.74222767339E+03  0.77244308676E+03  0.00000000000E+00 0.  1.
         13    1    5    5    0    0 -0.21152937158E+02 -0.18034225568E+02 -0.20398678352E+03  0.20587201824E+03  0.00000000000E+00 0. -1.
        -13    1    5    5    0    0 -0.32888046633E+02  0.10026682542E+03 -0.10624576408E+04  0.10676850184E+04  0.00000000000E+00 0.  1.
          5    1    6    6  503    0 -0.31939658239E+02 -0.16665353526E+03 -0.31593895031E+03  0.35865450354E+03  0.47000000000E+01 0. -1.
         -5    1    6    6    0  503  0.51733258094E+02 -0.27182359284E+03 -0.63679743672E+03  0.69433238512E+03  0.47000000000E+01 0.  1.
<mgrwt>
<rscale>  0 0.46978947E+03</rscale>
<asrwt>0</asrwt>
<pdfrwt beam="1">  1        2 0.60244894E+00 0.46978947E+03</pdfrwt>
<pdfrwt beam="2">  1       -2 0.11506483E-01 0.46978947E+03</pdfrwt>
<totfact> 0.25463482E+01</totfact>
</mgrwt>
</event>
<event>
12    1  0.3166324E-008  0.8264950E+03  0.7818608E-02  0.9522439E-01
         -1   -1    0    0    0  501 -0.00000000000E+00  0.00000000000E+00  0.49124517880E+03  0.49124517880E+03  0.00000000000E+00 0.  1.
          1   -1    0    0  501    0  0.00000000000E+00 -0.00000000000E+00 -0.18983269868E+04  0.18983269868E+04  0.00000000000E+00 0. -1.
         23    2    1    2    0    0  0.44770298710E+03  0.56422698257E+03 -0.12408035603E+04  0.14375117205E+04  0.89757556668E+02 0.  0.
    5000000    2    1    2    0    0 -0.44770298710E+03 -0.56422698257E+03 -0.16627824767E+03  0.95206044501E+03  0.59998381878E+03 0.  0.
         23    2    4    4    0    0  0.12419586960E+03 -0.92396827145E+02 -0.81797555776E+02  0.20013737915E+03  0.96965677991E+02 0.  0.
         23    2    4    4    0    0 -0.57189885670E+03 -0.47183015542E+03 -0.84480691897E+02  0.75192306587E+03  0.92516548894E+02 0.  0.
          4    1    3    3  502    0  0.18538703630E+03  0.30577231259E+03 -0.61488265593E+03  0.71129862993E+03  0.00000000000E+00 0. -1.
         -4    1    3    3    0  502  0.26231595080E+03  0.25845466998E+03 -0.62592090435E+03  0.72621309061E+03  0.00000000000E+00 0.  1.
         13    1    5    5    0    0 -0.38235073121E+00  0.15997325502E+02 -0.33878737668E+00  0.16005480067E+02  0.00000000000E+00 0.  1.
        -13    1    5    5    0    0  0.12457822033E+03 -0.10839415265E+03 -0.81458768399E+02  0.18413189908E+03  0.00000000000E+00 0. -1.
          5    1    6    6  503    0 -0.20292176535E+03 -0.21965729829E+03 -0.13541426604E+02  0.29938609149E+03  0.47000000000E+01 0. -1.
         -5    1    6    6    0  503 -0.36897709135E+03 -0.25217285713E+03 -0.70939265293E+02  0.45253697437E+03  0.47000000000E+01 0.  1.
<mgrwt>
<rscale>  0 0.82649497E+03</rscale>
<asrwt>0</asrwt>
<pdfrwt beam="1">  1        1 0.29205031E+00 0.82649497E+03</pdfrwt>
<pdfrwt beam="2">  1       -1 0.75576181E-01 0.82649497E+03</pdfrwt>
<totfact> 0.63563680E+00</totfact>
</mgrwt>
</event>
<event>
12    1  0.3166324E-008  0.5108016E+03  0.7818608E-02  0.1010997E+00
         -2   -1    0    0    0  501 -0.00000000000E+00  0.00000000000E+00  0.25690399774E+03  0.25690399774E+03  0.00000000000E+00 0. -1.
          2   -1    0    0  501    0  0.00000000000E+00 -0.00000000000E+00 -0.12840336479E+04  0.12840336479E+04  0.00000000000E+00 0.  1.
         23    2    1    2    0    0 -0.34660647915E+03 -0.62484187184E+01 -0.80177299097E+02  0.36750143478E+03  0.91944609140E+02 0.  0.
    5000000    2    1    2    0    0  0.34660647915E+03  0.62484187184E+01 -0.94695235105E+03  0.11734362108E+04  0.60004890770E+03 0.  0.
         23    2    4    4    0    0  0.27967270665E+03  0.25929744836E+03 -0.69647961761E+03  0.79934818594E+03  0.91769684852E+02 0.  0.
         23    2    4    4    0    0  0.66933772495E+02 -0.25304902964E+03 -0.25047273344E+03  0.37408802490E+03  0.93227243173E+02 0.  0.
          1    1    3    3  502    0 -0.14900154940E+03  0.41266244666E+02 -0.22503520304E+02  0.15623947356E+03  0.00000000000E+00 0. -1.
         -1    1    3    3    0  502 -0.19760492975E+03 -0.47514663385E+02 -0.57673778793E+02  0.21126196122E+03  0.00000000000E+00 0.  1.
         13    1    5    5    0    0  0.14698846899E+03  0.19184469271E+03 -0.46682777740E+03  0.52567877062E+03  0.00000000000E+00 0. -1.
        -13    1    5    5    0    0  0.13268423766E+03  0.67452755653E+02 -0.22965184021E+03  0.27366941532E+03  0.00000000000E+00 0.  1.
          5    1    6    6  503    0  0.16916888398E+02 -0.19770913887E+03 -0.14963779717E+03  0.24857321868E+03  0.47000000000E+01 0. -1.
         -5    1    6    6    0  503  0.50016884097E+02 -0.55339890776E+02 -0.10083493627E+03  0.12551480621E+03  0.47000000000E+01 0.  1.
<mgrwt>
<rscale>  0 0.51080165E+03</rscale>
<asrwt>0</asrwt>
<pdfrwt beam="1">  1        2 0.19754363E+00 0.51080165E+03</pdfrwt>
<pdfrwt beam="2">  1       -2 0.39523693E-01 0.51080165E+03</pdfrwt>
<totfact> 0.10636729E+02</totfact>
</mgrwt>
</event>
<event>
12    1  0.3166324E-008  0.1263172E+04  0.7818608E-02  0.9059291E-01
         -2   -1    0    0    0  501 -0.00000000000E+00  0.00000000000E+00  0.70456189291E+03  0.70456189291E+03  0.00000000000E+00 0.  1.
          2   -1    0    0  501    0  0.00000000000E+00 -0.00000000000E+00 -0.48498163378E+04  0.48498163378E+04  0.00000000000E+00 0. -1.
         23    2    1    2    0    0 -0.90392561484E+03  0.78706745613E+03 -0.40342218165E+04  0.42094856030E+04  0.90921281257E+02 0.  0.
    5000000    2    1    2    0    0  0.90392561484E+03 -0.78706745613E+03 -0.11103262843E+03  0.13448926278E+04  0.59987601884E+03 0.  0.
         23    2    4    4    0    0 -0.53943167475E+02 -0.56920162871E+02  0.42794397645E+02  0.12736215131E+03  0.90774373353E+02 0.  0.
         23    2    4    4    0    0  0.95786878232E+03 -0.73014729326E+03 -0.15382702607E+03  0.12175304765E+04  0.89944611612E+02 0.  0.
          1    1    3    3  502    0 -0.21375214835E+03  0.22004817825E+03 -0.92847361501E+03  0.97784172311E+03  0.00000000000E+00 0. -1.
         -1    1    3    3    0  502 -0.69017346649E+03  0.56701927788E+03 -0.31057482014E+04  0.32316438798E+04  0.00000000000E+00 0.  1.
         11    1    5    5    0    0 -0.13344143119E+01 -0.66429055267E+02  0.25604966310E+02  0.71205437608E+02  0.00000000000E+00 0.  1.
        -11    1    5    5    0    0 -0.52608753163E+02  0.95088923964E+01  0.17189431335E+02  0.56156713701E+02  0.00000000000E+00 0. -1.
          5    1    6    6  503    0  0.28979038440E+03 -0.18180522302E+03 -0.17905594964E+02  0.34259933791E+03  0.47000000000E+01 0. -1.
         -5    1    6    6    0  503  0.66807839792E+03 -0.54834207023E+03 -0.13592143111E+03  0.87493113854E+03  0.47000000000E+01 0.  1.
<mgrwt>
<rscale>  0 0.12631719E+04</rscale>
<asrwt>0</asrwt>
<pdfrwt beam="1">  1        2 0.74612561E+00 0.12631719E+04</pdfrwt>
<pdfrwt beam="2">  1       -2 0.10839413E+00 0.12631719E+04</pdfrwt>
<totfact> 0.36600850E-02</totfact>
</mgrwt>
</event>
<event>
12    1  0.3166324E-008  0.1311427E+04  0.7818608E-02  0.9020552E-01
         -2   -1    0    0    0  501 -0.00000000000E+00  0.00000000000E+00  0.80929295274E+03  0.80929295274E+03  0.00000000000E+00 0.  1.
          2   -1    0    0  501    0  0.00000000000E+00 -0.00000000000E+00 -0.24116286892E+04  0.24116286892E+04  0.00000000000E+00 0. -1.
         23    2    1    2    0    0 -0.48073084383E+03  0.11882795505E+04 -0.35216278828E+03  0.13325103011E+04  0.91949108912E+02 0.  0.
    5000000    2    1    2    0    0  0.48073084383E+03 -0.11882795505E+04 -0.12501729482E+04  0.18884113408E+04  0.60004546277E+03 0.  0.
         23    2    4    4    0    0  0.35730940903E+03 -0.39522319449E+03 -0.79407169136E+03  0.96076663327E+03  0.93012285992E+02 0.  0.
         23    2    4    4    0    0  0.12342143480E+03 -0.79305635606E+03 -0.45610125681E+03  0.92764470756E+03  0.91242054746E+02 0.  0.
          1    1    3    3  502    0 -0.65241607800E+02  0.25336358422E+03 -0.58057495780E+02  0.26799299620E+03  0.00000000000E+00 0. -1.
         -1    1    3    3    0  502 -0.41548923603E+03  0.93491596632E+03 -0.29410529250E+03  0.10645173049E+04  0.00000000000E+00 0.  1.
         13    1    5    5    0    0  0.22120327659E+03 -0.21096929210E+03 -0.52387306100E+03  0.60653269972E+03  0.00000000000E+00 0. -1.
        -13    1    5    5    0    0  0.13610613243E+03 -0.18425390239E+03 -0.27019863036E+03  0.35423393355E+03  0.00000000000E+00 0.  1.
          5    1    6    6  503    0  0.26837362549E+01 -0.78943696656E+02 -0.17874113039E+02  0.81122645414E+02  0.47000000000E+01 0. -1.
         -5    1    6    6    0  503  0.12073769854E+03 -0.71411265940E+03 -0.43822714377E+03  0.84652206215E+03  0.47000000000E+01 0.  1.
<mgrwt>
<rscale>  0 0.13114272E+04</rscale>
<asrwt>0</asrwt>
<pdfrwt beam="1">  1        2 0.37101980E+00 0.13114272E+04</pdfrwt>
<pdfrwt beam="2">  1       -2 0.12450661E+00 0.13114272E+04</pdfrwt>
<totfact> 0.18331047E+00</totfact>
</mgrwt>
</event>
<event>
12    1  0.3166324E-008  0.1325954E+04  0.7818608E-02  0.9009233E-01
         -2   -1    0    0    0  501 -0.00000000000E+00  0.00000000000E+00  0.13285615416E+04  0.13285615416E+04  0.00000000000E+00 0.  1.
          2   -1    0    0  501    0  0.00000000000E+00 -0.00000000000E+00 -0.15018162915E+04  0.15018162915E+04  0.00000000000E+00 0. -1.
         23    2    1    2    0    0  0.56020101379E+03  0.11593768260E+04  0.31404071609E+03  0.13284881095E+04  0.90990577006E+02 0.  0.
    5000000    2    1    2    0    0 -0.56020101379E+03 -0.11593768260E+04 -0.48729546605E+03  0.15018897236E+04  0.60019669269E+03 0.  0.
         23    2    4    4    0    0 -0.46901686015E+03 -0.46720017236E+03 -0.43180919784E+03  0.79559906531E+03  0.90916847895E+02 0.  0.
         23    2    4    4    0    0 -0.91184153644E+02 -0.69217665368E+03 -0.55486268209E+02  0.70629065826E+03  0.91349319666E+02 0.  0.
          3    1    3    3  502    0  0.15869291303E+03  0.33939961390E+03  0.13396817210E+03  0.39789824038E+03  0.00000000000E+00 0. -1.
         -3    1    3    3    0  502  0.40150810076E+03  0.81997721214E+03  0.18007254399E+03  0.93058986912E+03  0.00000000000E+00 0.  1.
         11    1    5    5    0    0 -0.25564529091E+03 -0.30231785941E+03 -0.29128415147E+03  0.49152523820E+03  0.00000000000E+00 0. -1.
        -11    1    5    5    0    0 -0.21337156923E+03 -0.16488231295E+03 -0.14052504637E+03  0.30407382712E+03  0.00000000000E+00 0.  1.
          5    1    6    6  503    0 -0.67462177803E+01 -0.11926775408E+03 -0.42969361082E+02  0.12703843753E+03  0.47000000000E+01 0. -1.
         -5    1    6    6    0  503 -0.84437935863E+02 -0.57290889960E+03 -0.12516907127E+02  0.57925222073E+03  0.47000000000E+01 0.  1.
<mgrwt>
<rscale>  0 0.13259542E+04</rscale>
<asrwt>0</asrwt>
<pdfrwt beam="1">  1        2 0.23104866E+00 0.13259542E+04</pdfrwt>
<pdfrwt beam="2">  1       -2 0.20439408E+00 0.13259542E+04</pdfrwt>
<totfact> 0.15092901E+00</totfact>
</mgrwt>
</event>
<event>
12    1  0.3166324E-008  0.8494343E+03  0.7818608E-02  0.9491097E-01
          1   -1    0    0  501    0  0.00000000000E+00  0.00000000000E+00  0.23590555106E+04  0.23590555106E+04  0.00000000000E+00 0. -1.
         -1   -1    0    0    0  501 -0.00000000000E+00 -0.00000000000E+00 -0.34714635113E+03  0.34714635113E+03  0.00000000000E+00 0.  1.
         23    2    1    2    0    0 -0.45577354002E+01  0.77147240860E+03  0.56381155294E+03  0.95918157159E+03  0.83398860140E+02 0.  0.
    5000000    2    1    2    0    0  0.45577354002E+01 -0.77147240860E+03  0.14480976065E+04  0.17470202901E+04  0.59991896611E+03 0.  0.
         23    2    4    4    0    0 -0.15971476757E+03 -0.30182287334E+02  0.47065342958E+03  0.50580742933E+03  0.88919780337E+02 0.  0.
         23    2    4    4    0    0  0.16427250297E+03 -0.74129012127E+03  0.97744417695E+03  0.12412128608E+04  0.93358168655E+02 0.  0.
          4    1    3    3  502    0  0.12769712146E+02  0.66975889055E+03  0.45860758008E+03  0.81182568913E+03  0.00000000000E+00 0.  1.
         -4    1    3    3    0  502 -0.17327447547E+02  0.10171351805E+03  0.10520397285E+03  0.14735588246E+03  0.00000000000E+00 0. -1.
         11    1    5    5    0    0 -0.83128899760E+02 -0.30534267339E+02  0.13448123908E+03  0.16102161072E+03  0.00000000000E+00 0. -1.
        -11    1    5    5    0    0 -0.76585867811E+02  0.35198000495E+00  0.33617219051E+03  0.34478581860E+03  0.00000000000E+00 0.  1.
          5    1    6    6  503    0  0.86271522513E+02 -0.48812561472E+03  0.69816835448E+03  0.85625377812E+03  0.47000000000E+01 0. -1.
         -5    1    6    6    0  503  0.78000980458E+02 -0.25316450654E+03  0.27927582246E+03  0.38495908268E+03  0.47000000000E+01 0.  1.
<mgrwt>
<rscale>  0 0.84943431E+03</rscale>
<asrwt>0</asrwt>
<pdfrwt beam="1">  1        1 0.36293161E+00 0.84943431E+03</pdfrwt>
<pdfrwt beam="2">  1       -1 0.53407132E-01 0.84943431E+03</pdfrwt>
<totfact> 0.62224731E+00</totfact>
</mgrwt>
</event>
<event>
12    1  0.3166324E-008  0.2557818E+03  0.7818608E-02  0.1109704E+00
          1   -1    0    0  501    0  0.00000000000E+00  0.00000000000E+00  0.12217353954E+04  0.12217353954E+04  0.00000000000E+00 0. -1.
         -1   -1    0    0    0  501 -0.00000000000E+00 -0.00000000000E+00 -0.33929107528E+03  0.33929107528E+03  0.00000000000E+00 0.  1.
         23    2    1    2    0    0 -0.21278675125E+03  0.74861556687E+02 -0.19120872723E+03  0.31057611830E+03  0.94943634396E+02 0.  0.
    5000000    2    1    2    0    0  0.21278675125E+03 -0.74861556687E+02  0.10736530473E+04  0.12504503524E+04  0.60001063615E+03 0.  0.
         23    2    4    4    0    0  0.11258718942E+03 -0.25512044706E+02  0.10977874447E+04  0.11073583327E+04  0.88195598170E+02 0.  0.
         23    2    4    4    0    0  0.10019956183E+03 -0.49349511981E+02 -0.24134397372E+02  0.14309201969E+03  0.86125086010E+02 0.  0.
          3    1    3    3  502    0 -0.15941368464E+03  0.93531456869E+02 -0.16688911137E+03  0.24902375744E+03  0.00000000000E+00 0. -1.
         -3    1    3    3    0  502 -0.53373066603E+02 -0.18669900182E+02 -0.24319615855E+02  0.61552360855E+02  0.00000000000E+00 0.  1.
         13    1    5    5    0    0  0.94479991078E+02 -0.45758624038E+02  0.10106008655E+04  0.10160385966E+04  0.00000000000E+00 0. -1.
        -13    1    5    5    0    0  0.18107198344E+02  0.20246579332E+02  0.87186579208E+02  0.91319736095E+02  0.00000000000E+00 0.  1.
          5    1    6    6  503    0  0.10308968811E+03 -0.16216240092E+02 -0.30670463214E+02  0.10887248298E+03  0.47000000000E+01 0.  1.
         -5    1    6    6    0  503 -0.28901262822E+01 -0.33133271889E+02  0.65360658414E+01  0.34219536710E+02  0.47000000000E+01 0. -1.
<mgrwt>
<rscale>  0 0.25578175E+03</rscale>
<asrwt>0</asrwt>
<pdfrwt beam="1">  1        1 0.18795929E+00 0.25578175E+03</pdfrwt>
<pdfrwt beam="2">  1       -1 0.52198628E-01 0.25578175E+03</pdfrwt>
<totfact> 0.42790074E+01</totfact>
</mgrwt>
</event>
<event>
12    1  0.3166324E-008  0.5147244E+03  0.7818608E-02  0.1010006E+00
          2   -1    0    0  501    0  0.00000000000E+00  0.00000000000E+00  0.10969394122E+04  0.10969394122E+04  0.00000000000E+00 0. -1.
         -2   -1    0    0    0  501 -0.00000000000E+00 -0.00000000000E+00 -0.29847288094E+03  0.29847288094E+03  0.00000000000E+00 0.  1.
         23    2    1    2    0    0 -0.33593036737E+03  0.10262217296E+03  0.36953824377E+02  0.36429359214E+03  0.89239643818E+02 0.  0.
    5000000    2    1    2    0    0  0.33593036737E+03 -0.10262217296E+03  0.76151270688E+03  0.10311187010E+04  0.59993637221E+03 0.  0.
         23    2    4    4    0    0 -0.14728585489E+03 -0.10489760809E+03  0.21700277303E+03  0.29730281366E+03  0.92747659132E+02 0.  0.
         23    2    4    4    0    0  0.48321622226E+03  0.22754351295E+01  0.54450993386E+03  0.73381588734E+03  0.92149842061E+02 0.  0.
          1    1    3    3  502    0 -0.90722946745E+02  0.89307497241E+01 -0.25115393089E+02  0.94557888760E+02  0.00000000000E+00 0. -1.
         -1    1    3    3    0  502 -0.24520742063E+03  0.93691423235E+02  0.62069217465E+02  0.26973570338E+03  0.00000000000E+00 0.  1.
         13    1    5    5    0    0 -0.12372466091E+03 -0.51579857835E+02  0.19131635761E+03  0.23360270149E+03  0.00000000000E+00 0.  1.
        -13    1    5    5    0    0 -0.23561193978E+02 -0.53317750254E+02  0.25686415415E+02  0.63700112171E+02  0.00000000000E+00 0. -1.
          5    1    6    6  503    0  0.15348090337E+03 -0.44109603027E+01  0.11308852068E+03  0.19075363110E+03  0.47000000000E+01 0. -1.
         -5    1    6    6    0  503  0.32973531889E+03  0.66863954322E+01  0.43142141317E+03  0.54306225624E+03  0.47000000000E+01 0.  1.
<mgrwt>
<rscale>  0 0.51472441E+03</rscale>
<asrwt>0</asrwt>
<pdfrwt beam="1">  1        2 0.16875991E+00 0.51472441E+03</pdfrwt>
<pdfrwt beam="2">  1       -2 0.45918905E-01 0.51472441E+03</pdfrwt>
<totfact> 0.10198709E+02</totfact>
</mgrwt>
</event>
<event>
12    1  0.3166324E-008  0.4034467E+03  0.7818608E-02  0.1042593E+00
         -1   -1    0    0    0  501 -0.00000000000E+00  0.00000000000E+00  0.31593122321E+03  0.31593122321E+03  0.00000000000E+00 0.  1.
          1   -1    0    0  501    0  0.00000000000E+00 -0.00000000000E+00 -0.72685736695E+03  0.72685736695E+03  0.00000000000E+00 0. -1.
         23    2    1    2    0    0 -0.83331077395E+02  0.17434177982E+03  0.95992887925E+02  0.23390393440E+03  0.90317724422E+02 0.  0.
    5000000    2    1    2    0    0  0.83331077395E+02 -0.17434177982E+03 -0.50691903166E+03  0.80888465577E+03  0.59999029744E+03 0.  0.
         23    2    4    4    0    0 -0.17498416390E+03  0.10805197359E+03 -0.11081431552E+03  0.25079932038E+03  0.91245821635E+02 0.  0.
         23    2    4    4    0    0  0.25831524130E+03 -0.28239375341E+03 -0.39610471615E+03  0.55808533539E+03  0.89929414363E+02 0.  0.
          3    1    3    3  502    0 -0.84334370120E+02  0.14534962887E+03  0.42949125622E+02  0.17344574941E+03  0.00000000000E+00 0. -1.
         -3    1    3    3    0  502  0.10032927249E+01  0.28992150945E+02  0.53043762303E+02  0.60458184987E+02  0.00000000000E+00 0.  1.
         11    1    5    5    0    0 -0.55397945546E+02  0.74017158439E+02 -0.14629654554E+02  0.93602878729E+02  0.00000000000E+00 0. -1.
        -11    1    5    5    0    0 -0.11958621835E+03  0.34034815154E+02 -0.96184660962E+02  0.15719644165E+03  0.00000000000E+00 0.  1.
          5    1    6    6  503    0  0.42217880445E+02 -0.71409790297E+01 -0.39761911266E+02  0.58621178753E+02  0.47000000000E+01 0. -1.
         -5    1    6    6    0  503  0.21609736085E+03 -0.27525277438E+03 -0.35634280488E+03  0.49946415663E+03  0.47000000000E+01 0.  1.
<mgrwt>
<rscale>  0 0.40344674E+03</rscale>
<asrwt>0</asrwt>
<pdfrwt beam="1">  1        1 0.11182421E+00 0.40344674E+03</pdfrwt>
<pdfrwt beam="2">  1       -1 0.48604804E-01 0.40344674E+03</pdfrwt>
<totfact> 0.11452598E+02</totfact>
</mgrwt>
</event>
<event>
12    1  0.3166324E-008  0.9676181E+03  0.7818608E-02  0.9344792E-01
         -2   -1    0    0    0  501 -0.00000000000E+00  0.00000000000E+00  0.47541329668E+03  0.47541329668E+03  0.00000000000E+00 0.  1.
          2   -1    0    0  501    0  0.00000000000E+00 -0.00000000000E+00 -0.23233005089E+04  0.23233005089E+04  0.00000000000E+00 0. -1.
         23    2    1    2    0    0 -0.25841422618E+03 -0.91586974688E+03 -0.10469507639E+04  0.14177152059E+04  0.90637727100E+02 0.  0.
    5000000    2    1    2    0    0  0.25841422618E+03  0.91586974688E+03 -0.80093644832E+03  0.13809985996E+04  0.60005219138E+03 0.  0.
         23    2    4    4    0    0 -0.35715700750E+02  0.17840819004E+03  0.54163506968E+02  0.21057347476E+03  0.91117557216E+02 0.  0.
         23    2    4    4    0    0  0.29412992693E+03  0.73746155684E+03 -0.85509995529E+03  0.11704251249E+04  0.91307599070E+02 0.  0.
          2    1    3    3  502    0 -0.20535452167E+03 -0.74686759019E+03 -0.79730021858E+03  0.11116066370E+04  0.00000000000E+00 0. -1.
         -2    1    3    3    0  502 -0.53059704512E+02 -0.16900215669E+03 -0.24965054528E+03  0.30610856892E+03  0.00000000000E+00 0.  1.
         13    1    5    5    0    0 -0.13724658102E+02  0.14529856493E+03  0.76709539383E+02  0.16487690148E+03  0.00000000000E+00 0. -1.
        -13    1    5    5    0    0 -0.21991042648E+02  0.33109625112E+02 -0.22546032416E+02  0.45696573279E+02  0.00000000000E+00 0.  1.
          5    1    6    6  503    0  0.16018528824E+03  0.29772438515E+03 -0.39638405095E+03  0.52100052008E+03  0.47000000000E+01 0. -1.
         -5    1    6    6    0  503  0.13394463869E+03  0.43973717169E+03 -0.45871590434E+03  0.64942460478E+03  0.47000000000E+01 0.  1.
<mgrwt>
<rscale>  0 0.96761806E+03</rscale>
<asrwt>0</asrwt>
<pdfrwt beam="1">  1        2 0.35743084E+00 0.96761806E+03</pdfrwt>
<pdfrwt beam="2">  1       -2 0.73140510E-01 0.96761806E+03</pdfrwt>
<totfact> 0.75102120E+00</totfact>
</mgrwt>
</event>
<event>
12    1  0.3166324E-008  0.1059801E+04  0.7818608E-02  0.9245283E-01
          1   -1    0    0  501    0  0.00000000000E+00  0.00000000000E+00  0.34759323739E+04  0.34759323739E+04  0.00000000000E+00 0. -1.
         -1   -1    0    0    0  501 -0.00000000000E+00 -0.00000000000E+00 -0.39987601504E+03  0.39987601504E+03  0.00000000000E+00 0.  1.
         23    2    1    2    0    0  0.80738018042E+03  0.56506513687E+03  0.22462693575E+04  0.24546337371E+04  0.91320271933E+02 0.  0.
    5000000    2    1    2    0    0 -0.80738018042E+03 -0.56506513687E+03  0.82978700130E+03  0.14211746518E+04  0.60002463183E+03 0.  0.
         23    2    4    4    0    0 -0.80074908816E+03 -0.30985816738E+03  0.73594209733E+03  0.11344619121E+04  0.90453708044E+02 0.  0.
         23    2    4    4    0    0 -0.66310922588E+01 -0.25520696949E+03  0.93844903971E+02  0.28671273972E+03  0.90679437885E+02 0.  0.
          3    1    3    3  502    0  0.18481730720E+03  0.17521282259E+03  0.54562386776E+03  0.60213152658E+03  0.00000000000E+00 0. -1.
         -3    1    3    3    0  502  0.62256287322E+03  0.38985231428E+03  0.17006454898E+04  0.18525022105E+04  0.00000000000E+00 0.  1.
         13    1    5    5    0    0 -0.45036422875E+03 -0.19988586725E+03  0.37152998620E+03  0.61710358054E+03  0.00000000000E+00 0.  1.
        -13    1    5    5    0    0 -0.35038485941E+03 -0.10997230013E+03  0.36441211113E+03  0.51735833156E+03  0.00000000000E+00 0. -1.
          5    1    6    6  503    0 -0.41170730004E+02 -0.20589420319E+03  0.65476833176E+02  0.21999263078E+03  0.47000000000E+01 0. -1.
         -5    1    6    6    0  503  0.34539637745E+02 -0.49312766300E+02  0.28368070796E+02  0.66720108936E+02  0.47000000000E+01 0.  1.
<mgrwt>
<rscale>  0 0.10598014E+04</rscale>
<asrwt>0</asrwt>
<pdfrwt beam="1">  1        1 0.53475881E+00 0.10598014E+04</pdfrwt>
<pdfrwt beam="2">  1       -1 0.61519389E-01 0.10598014E+04</pdfrwt>
<totfact> 0.71973660E-01</totfact>
</mgrwt>
</event>
<event>
12    1  0.3166324E-008  0.7067020E+03  0.7818608E-02  0.9705839E-01
         -1   -1    0    0    0  501 -0.00000000000E+00  0.00000000000E+00  0.53026892441E+03  0.53026892441E+03  0.00000000000E+00 0.  1.
          1   -1    0    0  501    0  0.00000000000E+00 -0.00000000000E+00 -0.13056717639E+04  0.13056717639E+04  0.00000000000E+00 0. -1.
         23    2    1    2    0    0 -0.45060648317E+03  0.38362364179E+03 -0.79182801628E+03  0.99298194431E+03  0.93852187761E+02 0.  0.
    5000000    2    1    2    0    0  0.45060648317E+03 -0.38362364179E+03  0.16425176770E+02  0.84295874401E+03  0.60008029168E+03 0.  0.
         23    2    4    4    0    0  0.32818583407E+03 -0.52946892341E+03 -0.10908101783E+02  0.62976100067E+03  0.91851231540E+02 0.  0.
         23    2    4    4    0    0  0.12242064910E+03  0.14584528162E+03  0.27333278552E+02  0.21319774335E+03  0.91915766621E+02 0.  0.
          2    1    3    3  502    0 -0.15837579793E+03  0.12353887744E+03 -0.19929094660E+03  0.28295163721E+03  0.00000000000E+00 0.  1.
         -2    1    3    3    0  502 -0.29223068524E+03  0.26008476435E+03 -0.59253706968E+03  0.71003030710E+03  0.00000000000E+00 0. -1.
         13    1    5    5    0    0  0.60444481169E+02 -0.78806969634E+02  0.30596959325E+02  0.10392424013E+03  0.00000000000E+00 0.  1.
        -13    1    5    5    0    0  0.26774135290E+03 -0.45066195378E+03 -0.41505061108E+02  0.52583676053E+03  0.00000000000E+00 0. -1.
          5    1    6    6  503    0  0.65162367493E+02  0.11587789132E+03 -0.17828355698E+02  0.13421534972E+03  0.47000000000E+01 0. -1.
         -5    1    6    6    0  503  0.57258281610E+02  0.29967390299E+02  0.45161634250E+02  0.78982393623E+02  0.47000000000E+01 0.  1.
<mgrwt>
<rscale>  0 0.70670205E+03</rscale>
<asrwt>0</asrwt>
<pdfrwt beam="1">  1        1 0.20087258E+00 0.70670205E+03</pdfrwt>
<pdfrwt beam="2">  1       -1 0.81579835E-01 0.70670205E+03</pdfrwt>
<totfact> 0.13950430E+01</totfact>
</mgrwt>
</event>
<event>
12    1  0.3166324E-008  0.1004138E+04  0.7818608E-02  0.9304018E-01
          1   -1    0    0  501    0  0.00000000000E+00  0.00000000000E+00  0.55365468343E+03  0.55365468343E+03  0.00000000000E+00 0. -1.
         -1   -1    0    0    0  501 -0.00000000000E+00 -0.00000000000E+00 -0.27548780674E+04  0.27548780674E+04  0.00000000000E+00 0.  1.
         23    2    1    2    0    0  0.26153369300E+03 -0.94378453014E+03 -0.18704867671E+04  0.21133579180E+04  0.91825005307E+02 0.  0.
    5000000    2    1    2    0    0 -0.26153369300E+03  0.94378453014E+03 -0.33073661687E+03  0.11951748329E+04  0.59993921318E+03 0.  0.
         23    2    4    4    0    0 -0.64493335559E+02  0.67825276674E+03 -0.46174626806E+03  0.82780352773E+03  0.88672760992E+02 0.  0.
         23    2    4    4    0    0 -0.19704035744E+03  0.26553176340E+03  0.13100965119E+03  0.36737130515E+03  0.92011560723E+02 0.  0.
          4    1    3    3  502    0  0.73266301995E+02 -0.15190315929E+03 -0.28561204757E+03  0.33168774853E+03  0.00000000000E+00 0. -1.
         -4    1    3    3    0  502  0.18826739100E+03 -0.79188137085E+03 -0.15848747195E+04  0.17816701694E+04  0.00000000000E+00 0.  1.
         11    1    5    5    0    0 -0.56222970983E+02  0.32985549362E+03 -0.27054551531E+03  0.43030285264E+03  0.00000000000E+00 0. -1.
        -11    1    5    5    0    0 -0.82703645760E+01  0.34839727312E+03 -0.19120075275E+03  0.39750067509E+03  0.00000000000E+00 0.  1.
          5    1    6    6  503    0 -0.19866823192E+03  0.21882104081E+03  0.10506269791E+03  0.31370682933E+03  0.47000000000E+01 0. -1.
         -5    1    6    6    0  503  0.16278744822E+01  0.46710722593E+02  0.25946953281E+02  0.53664475820E+02  0.47000000000E+01 0.  1.
<mgrwt>
<rscale>  0 0.10041382E+04</rscale>
<asrwt>0</asrwt>
<pdfrwt beam="1">  1        1 0.85177642E-01 0.10041382E+04</pdfrwt>
<pdfrwt beam="2">  1       -1 0.42382740E+00 0.10041382E+04</pdfrwt>
<totfact> 0.19351508E-01</totfact>
</mgrwt>
</event>
<event>
12    1  0.3166324E-008  0.7236900E+03  0.7818608E-02  0.9677555E-01
         -2   -1    0    0    0  501 -0.00000000000E+00  0.00000000000E+00  0.52174102631E+03  0.52174102631E+03  0.00000000000E+00 0.  1.
          2   -1    0    0  501    0  0.00000000000E+00 -0.00000000000E+00 -0.10656587457E+04  0.10656587457E+04  0.00000000000E+00 0. -1.
         23    2    1    2    0    0 -0.25604459669E+03 -0.56463736850E+03 -0.21284296231E+03  0.66330833855E+03  0.10149695556E+03 0.  0.
    5000000    2    1    2    0    0  0.25604459669E+03  0.56463736850E+03 -0.33107475705E+03  0.92409143343E+03  0.59996690674E+03 0.  0.
         23    2    4    4    0    0  0.17364550513E+03 -0.54368674040E+02  0.13266937511E+02  0.20524595017E+03  0.94027518637E+02 0.  0.
         23    2    4    4    0    0  0.82399091556E+02  0.61900604254E+03 -0.34434169456E+03  0.71884548326E+03  0.90606485439E+02 0.  0.
          4    1    3    3  502    0 -0.24387629005E+03 -0.48897892810E+03 -0.21356634727E+03  0.58667420402E+03  0.00000000000E+00 0. -1.
         -4    1    3    3    0  502 -0.12168306641E+02 -0.75658440393E+02  0.72338495993E+00  0.76634134529E+02  0.00000000000E+00 0.  1.
         13    1    5    5    0    0  0.56259488921E+02  0.13326722545E+02 -0.27102365378E+02  0.63853502931E+02  0.00000000000E+00 0. -1.
        -13    1    5    5    0    0  0.11738601621E+03 -0.67695396585E+02  0.40369302890E+02  0.14139244724E+03  0.00000000000E+00 0.  1.
          5    1    6    6  503    0  0.75137344066E+02  0.23214476147E+03 -0.13280698784E+03  0.27784275547E+03  0.47000000000E+01 0. -1.
         -5    1    6    6    0  503  0.72617474896E+01  0.38686128107E+03 -0.21153470672E+03  0.44100272779E+03  0.47000000000E+01 0.  1.
<mgrwt>
<rscale>  0 0.72369004E+03</rscale>
<asrwt>0</asrwt>
<pdfrwt beam="1">  1        2 0.16394750E+00 0.72369004E+03</pdfrwt>
<pdfrwt beam="2">  1       -2 0.80267851E-01 0.72369004E+03</pdfrwt>
<totfact> 0.32008169E+01</totfact>
</mgrwt>
</event>
<event>
12    1  0.3166324E-008  0.1262296E+04  0.7818608E-02  0.9060011E-01
          2   -1    0    0  501    0  0.00000000000E+00  0.00000000000E+00  0.32779261735E+04  0.32779261735E+04  0.00000000000E+00 0. -1.
         -2   -1    0    0    0  501 -0.00000000000E+00 -0.00000000000E+00 -0.68968532835E+03  0.68968532835E+03  0.00000000000E+00 0.  1.
         23    2    1    2    0    0 -0.12095378259E+04 -0.27488802504E+03  0.22145024510E+04  0.25398887225E+04  0.92024118641E+02 0.  0.
    5000000    2    1    2    0    0  0.12095378259E+04  0.27488802504E+03  0.37373839408E+03  0.14277227793E+04  0.60013895800E+03 0.  0.
         23    2    4    4    0    0  0.13983818987E+03  0.10786688999E+03 -0.12234366885E+03  0.23306434817E+03  0.90338429151E+02 0.  0.
         23    2    4    4    0    0  0.10696996360E+04  0.16702113505E+03  0.49608206293E+03  0.11946584312E+04  0.94646622613E+02 0.  0.
          4    1    3    3  502    0 -0.45046884273E+03 -0.12116512520E+03  0.75070154978E+03  0.88383029065E+03  0.00000000000E+00 0. -1.
         -4    1    3    3    0  502 -0.75906898314E+03 -0.15372289983E+03  0.14638009013E+04  0.16560584318E+04  0.00000000000E+00 0.  1.
         13    1    5    5    0    0  0.93237082233E+02  0.11740934746E+03 -0.83227356690E+02  0.17147857381E+03  0.00000000000E+00 0.  1.
        -13    1    5    5    0    0  0.46601107633E+02 -0.95424574710E+01 -0.39116312157E+02  0.61585774364E+02  0.00000000000E+00 0. -1.
          5    1    6    6  503    0  0.92530575569E+03  0.11430145452E+03  0.44003872791E+03  0.10309761084E+04  0.47000000000E+01 0. -1.
         -5    1    6    6    0  503  0.14439388031E+03  0.52719680533E+02  0.56043335018E+02  0.16368232277E+03  0.47000000000E+01 0.  1.
<mgrwt>
<rscale>  0 0.12622962E+04</rscale>
<asrwt>0</asrwt>
<pdfrwt beam="1">  1        2 0.50429632E+00 0.12622962E+04</pdfrwt>
<pdfrwt beam="2">  1       -2 0.10610544E+00 0.12622962E+04</pdfrwt>
<totfact> 0.81455186E-01</totfact>
</mgrwt>
</event>
<event>
12    1  0.3166324E-008  0.7664226E+03  0.7818608E-02  0.9609932E-01
          2   -1    0    0  501    0  0.00000000000E+00  0.00000000000E+00  0.10767613509E+04  0.10767613509E+04  0.00000000000E+00 0. -1.
         -2   -1    0    0    0  501 -0.00000000000E+00 -0.00000000000E+00 -0.55460108523E+03  0.55460108523E+03  0.00000000000E+00 0.  1.
         23    2    1    2    0    0 -0.39477950262E+03 -0.51887715769E+03  0.19205483914E+03  0.68578102494E+03  0.91247972403E+02 0.  0.
    5000000    2    1    2    0    0  0.39477950262E+03  0.51887715769E+03  0.33010542654E+03  0.94558141121E+03  0.60005854060E+03 0.  0.
         23    2    4    4    0    0  0.37874864941E+02  0.50678740358E+03  0.21539035782E+03  0.55952278219E+03  0.91677476639E+02 0.  0.
         23    2    4    4    0    0  0.35690463768E+03  0.12089754104E+02  0.11471506872E+03  0.38605862903E+03  0.91403695227E+02 0.  0.
          1    1    3    3  502    0 -0.13274958509E+03 -0.16126204271E+03  0.10576379660E+03  0.23412364133E+03  0.00000000000E+00 0. -1.
         -1    1    3    3    0  502 -0.26202991754E+03 -0.35761511497E+03  0.86291042547E+02  0.45165738360E+03  0.00000000000E+00 0.  1.
         11    1    5    5    0    0  0.30110793084E+02  0.42875072526E+02  0.23811805181E+02  0.57549402866E+02  0.00000000000E+00 0.  1.
        -11    1    5    5    0    0  0.77640718571E+01  0.46391233106E+03  0.19157855264E+03  0.50197337932E+03  0.00000000000E+00 0. -1.
          5    1    6    6  503    0  0.15632275229E+03  0.40690096029E+02  0.21639606440E+02  0.16304247718E+03  0.47000000000E+01 0. -1.
         -5    1    6    6    0  503  0.20058188540E+03 -0.28600341924E+02  0.93075462280E+02  0.22301615185E+03  0.47000000000E+01 0.  1.
<mgrwt>
<rscale>  0 0.76642257E+03</rscale>
<asrwt>0</asrwt>
<pdfrwt beam="1">  1        2 0.16565559E+00 0.76642257E+03</pdfrwt>
<pdfrwt beam="2">  1       -2 0.85323244E-01 0.76642257E+03</pdfrwt>
<totfact> 0.27319261E+01</totfact>
</mgrwt>
</event>
<event>
12    1  0.3166324E-008  0.7273818E+03  0.7818608E-02  0.9671518E-01
         -1   -1    0    0    0  501 -0.00000000000E+00  0.00000000000E+00  0.73138378861E+03  0.73138378861E+03  0.00000000000E+00 0.  1.
          1   -1    0    0  501    0  0.00000000000E+00 -0.00000000000E+00 -0.94381217302E+03  0.94381217302E+03  0.00000000000E+00 0. -1.
         23    2    1    2    0    0  0.16828612477E+02 -0.61640182344E+03 -0.46605603212E+03  0.77824426324E+03  0.90672476822E+02 0.  0.
    5000000    2    1    2    0    0 -0.16828612477E+02  0.61640182344E+03  0.25362764771E+03  0.89695169839E+03  0.59996746197E+03 0.  0.
         23    2    4    4    0    0  0.57476505370E+02  0.70129795464E+03  0.16813850301E+03  0.72878237673E+03  0.87925119264E+02 0.  0.
         23    2    4    4    0    0 -0.74305117847E+02 -0.84896131200E+02  0.85489144693E+02  0.16816932165E+03  0.90796053077E+02 0.  0.
          3    1    3    3  502    0 -0.13458956408E+02 -0.21009599164E+03 -0.11197807233E+03  0.23845451955E+03  0.00000000000E+00 0. -1.
         -3    1    3    3    0  502  0.30287568886E+02 -0.40630583179E+03 -0.35407795980E+03  0.53978974369E+03  0.00000000000E+00 0.  1.
         13    1    5    5    0    0 -0.15920081479E+02  0.15854271844E+03  0.61531830120E+02  0.17080810485E+03  0.00000000000E+00 0. -1.
        -13    1    5    5    0    0  0.73396586849E+02  0.54275523620E+03  0.10660667289E+03  0.55797427189E+03  0.00000000000E+00 0.  1.
          5    1    6    6  503    0 -0.16565392403E+01  0.94002122204E+01  0.38775866694E+02  0.40209028214E+02  0.47000000000E+01 0. -1.
         -5    1    6    6    0  503 -0.72648578607E+02 -0.94296343420E+02  0.46713277999E+02  0.12796029344E+03  0.47000000000E+01 0.  1.
<mgrwt>
<rscale>  0 0.72738183E+03</rscale>
<asrwt>0</asrwt>
<pdfrwt beam="1">  1        1 0.14520187E+00 0.72738183E+03</pdfrwt>
<pdfrwt beam="2">  1       -1 0.11252058E+00 0.72738183E+03</pdfrwt>
<totfact> 0.12537286E+01</totfact>
</mgrwt>
</event>
