<event>
12    7  0.1740517E-007  0.1625096E+04  0.7818608E-02  0.8805277E-01
          2   -1    0    0  501    0  0.00000000000E+00  0.00000000000E+00  0.21368052523E+04  0.21368052523E+04  0.00000000000E+00 0. -1.
         -1   -1    0    0    0  501 -0.00000000000E+00 -0.00000000000E+00 -0.30898206127E+03  0.30898206127E+03  0.00000000000E+00 0.  1.
         24    2    1    2    0    0 -0.54712707359E+03  0.11289116105E+03  0.70951725023E+03  0.90668472329E+03  0.81055599216E+02 0.  0.
        254    2    1    2    0    0  0.54712707359E+03 -0.11289116105E+03  0.11183059407E+04  0.15391025902E+04  0.89785085468E+03 0.  0.
         23    2    4    4    0    0  0.31528080594E+03  0.37877493297E+03  0.45882456488E+03  0.67960701326E+03  0.92050392160E+02 0.  0.
         23    2    4    4    0    0  0.23184626766E+03 -0.49166609402E+03  0.65948137586E+03  0.85949557697E+03  0.91261831500E+02 0.  0.
          4    1    3    3  502    0 -0.53812361544E+03  0.97837237499E+02  0.68862744952E+03  0.87940713823E+03  0.00000000000E+00 0. -1.
         -3    1    3    3    0  502 -0.90034581561E+01  0.15053923546E+02  0.20889800712E+02  0.27277585060E+02  0.00000000000E+00 0.  1.
         13    1    5    5    0    0  0.28871884132E+03  0.29712676216E+03  0.36170172208E+03  0.54997365199E+03  0.00000000000E+00 0. -1.
        -13    1    5    5    0    0  0.26561964613E+02  0.81648170815E+02  0.97122842803E+02  0.12963336128E+03  0.00000000000E+00 0.  1.
          3    1    6    6  503    0  0.21346021375E+03 -0.45986197695E+03  0.64403053510E+03  0.81964237985E+03  0.00000000000E+00 0. -1.
         -3    1    6    6    0  503  0.18386053906E+02 -0.31804117068E+02  0.15450840761E+02  0.39853197123E+02  0.00000000000E+00 0.  1.
<mgrwt>
<rscale>  0 0.16250963E+04</rscale>
<asrwt>0</asrwt>
<pdfrwt beam="1">  1        2 0.32873926E+00 0.16250963E+04</pdfrwt>
<pdfrwt beam="2">  1       -1 0.47535703E-01 0.16250963E+04</pdfrwt>
<totfact> 0.26999897E+01</totfact>
</mgrwt>
</event>
<event>
12    7  0.1740517E-007  0.1399824E+04  0.7818608E-02  0.8953946E-01
         -1   -1    0    0    0  501 -0.00000000000E+00  0.00000000000E+00  0.23112791876E+03  0.23112791876E+03  0.00000000000E+00 0.  1.
          2   -1    0    0  501    0  0.00000000000E+00 -0.00000000000E+00 -0.21195065873E+04  0.21195065873E+04  0.00000000000E+00 0. -1.
         24    2    1    2    0    0 -0.38675949943E+03 -0.52262507332E+02 -0.36611658417E+03  0.54114237947E+03  0.80494978583E+02 0.  0.
        254    2    1    2    0    0  0.38675949943E+03  0.52262507332E+02 -0.15222620843E+04  0.18094921265E+04  0.89703156164E+03 0.  0.
         23    2    4    4    0    0  0.66647229207E+03  0.92699790854E+02 -0.10255143929E+04  0.12304932212E+04  0.98261029761E+02 0.  0.
         23    2    4    4    0    0 -0.27971279264E+03 -0.40437283522E+02 -0.49674769144E+03  0.57899890539E+03  0.92774151745E+02 0.  0.
          2    1    3    3  502    0 -0.18726489178E+03 -0.35781890647E+02 -0.23155782054E+03  0.29994584118E+03  0.00000000000E+00 0. -1.
         -1    1    3    3    0  502 -0.19949460766E+03 -0.16480616685E+02 -0.13455876363E+03  0.24119653828E+03  0.00000000000E+00 0.  1.
         13    1    5    5    0    0  0.56098796557E+03  0.68157640862E+02 -0.79046664024E+03  0.97169463869E+03  0.00000000000E+00 0.  1.
        -13    1    5    5    0    0  0.10548432650E+03  0.24542149992E+02 -0.23504775264E+03  0.25879858247E+03  0.00000000000E+00 0. -1.
          4    1    6    6  503    0 -0.27536918858E+03 -0.44949767507E+02 -0.43407063729E+03  0.51600967993E+03  0.00000000000E+00 0.  1.
         -4    1    6    6    0  503 -0.43436040508E+01  0.45124839845E+01 -0.62677054150E+02  0.62989225465E+02  0.00000000000E+00 0. -1.
<mgrwt>
<rscale>  0 0.13998245E+04</rscale>
<asrwt>0</asrwt>
<pdfrwt beam="1">  1        2 0.32607794E+00 0.13998245E+04</pdfrwt>
<pdfrwt beam="2">  1       -1 0.35558142E-01 0.13998245E+04</pdfrwt>
<totfact> 0.47967290E+01</totfact>
</mgrwt>
</event>
<event>
12    7  0.1740517E-007  0.2335025E+04  0.7818608E-02  0.8464238E-01
          2   -1    0    0  501    0  0.00000000000E+00  0.00000000000E+00  0.23700341929E+04  0.23700341929E+04  0.00000000000E+00 0. -1.
         -1   -1    0    0    0  501 -0.00000000000E+00 -0.00000000000E+00 -0.57513346309E+03  0.57513346309E+03  0.00000000000E+00 0.  1.
         24    2    1    2    0    0 -0.52183757112E+03 -0.85402540799E+03  0.76547859980E+03  0.12625706595E+04  0.80332654291E+02 0.  0.
        254    2    1    2    0    0  0.52183757112E+03  0.85402540799E+03  0.10294221300E+04  0.16825969964E+04  0.87735333968E+03 0.  0.
         23    2    4    4    0    0  0.71741734355E+02  0.73828465034E+03  0.28664124918E+03  0.80037975903E+03  0.90738368702E+02 0.  0.
         23    2    4    4    0    0  0.45009583677E+03  0.11574075765E+03  0.74278088079E+03  0.88221723742E+03  0.10296422622E+03 0.  0.
          2    1    3    3  502    0 -0.16078474455E+03 -0.27509808786E+03  0.29097131041E+03  0.43150318134E+03  0.00000000000E+00 0. -1.
         -1    1    3    3    0  502 -0.36105282657E+03 -0.57892732013E+03  0.47450728939E+03  0.83106747815E+03  0.00000000000E+00 0.  1.
         13    1    5    5    0    0  0.64599785361E+02  0.24044327087E+03  0.10838885864E+03  0.27154050057E+03  0.00000000000E+00 0.  1.
        -13    1    5    5    0    0  0.71419489948E+01  0.49784137947E+03  0.17825239054E+03  0.52883925845E+03  0.00000000000E+00 0. -1.
          3    1    6    6  503    0  0.30028604980E+03  0.10407418094E+03  0.42486088596E+03  0.53057508352E+03  0.00000000000E+00 0. -1.
         -3    1    6    6    0  503  0.14980978697E+03  0.11666576714E+02  0.31791999483E+03  0.35164215390E+03  0.00000000000E+00 0.  1.
<mgrwt>
<rscale>  0 0.23350255E+04</rscale>
<asrwt>0</asrwt>
<pdfrwt beam="1">  1        2 0.36462064E+00 0.23350255E+04</pdfrwt>
<pdfrwt beam="2">  1       -1 0.88482073E-01 0.23350255E+04</pdfrwt>
<totfact> 0.53340582E+00</totfact>
</mgrwt>
</event>
<event>
12    7  0.1740517E-007  0.1793200E+04  0.7818608E-02  0.8709924E-01
         -1   -1    0    0    0  501 -0.00000000000E+00  0.00000000000E+00  0.26283898526E+03  0.26283898526E+03  0.00000000000E+00 0.  1.
          2   -1    0    0  501    0  0.00000000000E+00 -0.00000000000E+00 -0.30584933234E+04  0.30584933234E+04  0.00000000000E+00 0. -1.
         24    2    1    2    0    0  0.58031302346E+02  0.65278852508E+03 -0.12837353201E+04  0.14435542683E+04  0.79825202023E+02 0.  0.
        254    2    1    2    0    0 -0.58031302346E+02 -0.65278852508E+03 -0.15119190180E+04  0.18777780403E+04  0.90036146145E+03 0.  0.
         23    2    4    4    0    0  0.11120664339E+02 -0.81014379024E+03 -0.14684237293E+04  0.16795946884E+04  0.91178057713E+02 0.  0.
         23    2    4    4    0    0 -0.69151966685E+02  0.15735526516E+03 -0.43495288637E+02  0.19818335197E+03  0.88555784082E+02 0.  0.
          2    1    3    3  502    0  0.28235964383E+02  0.36021496991E+03 -0.79318141924E+03  0.87160131830E+03  0.00000000000E+00 0. -1.
         -1    1    3    3    0  502  0.29795337963E+02  0.29257355517E+03 -0.49055390090E+03  0.57195295002E+03  0.00000000000E+00 0.  1.
         13    1    5    5    0    0  0.44833807440E+02 -0.65678285558E+03 -0.11861281034E+04  0.13565668680E+04  0.00000000000E+00 0. -1.
        -13    1    5    5    0    0 -0.33713143100E+02 -0.15336093466E+03 -0.28229562593E+03  0.32302782035E+03  0.00000000000E+00 0.  1.
          4    1    6    6  503    0 -0.88688461097E+02  0.14280432482E+03 -0.31495744464E+02  0.17102836092E+03  0.00000000000E+00 0. -1.
         -4    1    6    6    0  503  0.19536494412E+02  0.14550940343E+02 -0.11999544172E+02  0.27154991054E+02  0.00000000000E+00 0.  1.
<mgrwt>
<rscale>  0 0.17931997E+04</rscale>
<asrwt>0</asrwt>
<pdfrwt beam="1">  1        2 0.47053744E+00 0.17931997E+04</pdfrwt>
<pdfrwt beam="2">  1       -1 0.40436766E-01 0.17931997E+04</pdfrwt>
<totfact> 0.10313825E+01</totfact>
</mgrwt>
</event>
<event>
12    7  0.1740517E-007  0.1662670E+04  0.7818608E-02  0.8782946E-01
          2   -1    0    0  501    0  0.00000000000E+00  0.00000000000E+00  0.14270059091E+04  0.14270059091E+04  0.00000000000E+00 0. -1.
         -1   -1    0    0    0  501 -0.00000000000E+00 -0.00000000000E+00 -0.48431302420E+03  0.48431302420E+03  0.00000000000E+00 0.  1.
         24    2    1    2    0    0 -0.43681913856E+03  0.22900977164E+03 -0.24388758314E+02  0.50100298669E+03  0.84573907446E+02 0.  0.
        254    2    1    2    0    0  0.43681913856E+03 -0.22900977164E+03  0.96708164323E+03  0.14103159466E+04  0.90027091996E+03 0.  0.
         23    2    4    4    0    0  0.56163871372E+03 -0.22565712059E+03  0.22394898089E+03  0.65143759166E+03  0.88648795648E+02 0.  0.
         23    2    4    4    0    0 -0.12481957516E+03 -0.33526510553E+01  0.74313266234E+03  0.75887835496E+03  0.89772140343E+02 0.  0.
          2    1    3    3  502    0 -0.34688287112E+03  0.15846101732E+03 -0.47732958779E+02  0.38433846495E+03  0.00000000000E+00 0. -1.
         -1    1    3    3    0  502 -0.89936267438E+02  0.70548754321E+02  0.23344200466E+02  0.11666452174E+03  0.00000000000E+00 0.  1.
         13    1    5    5    0    0  0.34211463426E+03 -0.91117707650E+02  0.12100030493E+03  0.37414694094E+03  0.00000000000E+00 0.  1.
        -13    1    5    5    0    0  0.21952407946E+03 -0.13453941294E+03  0.10294867596E+03  0.27729065072E+03  0.00000000000E+00 0. -1.
          1    1    6    6  503    0 -0.10578997418E+03  0.18021320944E+02  0.38717099477E+03  0.40176817425E+03  0.00000000000E+00 0. -1.
         -1    1    6    6    0  503 -0.19029600982E+02 -0.21373971999E+02  0.35596166757E+03  0.35711018071E+03  0.00000000000E+00 0.  1.
<mgrwt>
<rscale>  0 0.16626696E+04</rscale>
<asrwt>0</asrwt>
<pdfrwt beam="1">  1        2 0.21953937E+00 0.16626696E+04</pdfrwt>
<pdfrwt beam="2">  1       -1 0.74509696E-01 0.16626696E+04</pdfrwt>
<totfact> 0.27531324E+01</totfact>
</mgrwt>
</event>
<event>
12    7  0.1740517E-007  0.1374718E+04  0.7818608E-02  0.8972325E-01
          2   -1    0    0  501    0  0.00000000000E+00  0.00000000000E+00  0.95490159676E+03  0.95490159676E+03  0.00000000000E+00 0. -1.
         -1   -1    0    0    0  501 -0.00000000000E+00 -0.00000000000E+00 -0.49477582340E+03  0.49477582340E+03  0.00000000000E+00 0.  1.
         24    2    1    2    0    0  0.24868309253E+03 -0.21972861841E+02 -0.18366039733E+03  0.32037018385E+03  0.81116126570E+02 0.  0.
        254    2    1    2    0    0 -0.24868309253E+03  0.21972861841E+02  0.64378617069E+03  0.11293072363E+04  0.89361519305E+03 0.  0.
         23    2    4    4    0    0  0.15354118932E+02  0.42418602806E+03  0.24423346266E+03  0.49744041251E+03  0.87335241174E+02 0.  0.
         23    2    4    4    0    0 -0.26403721146E+03 -0.40221316621E+03  0.39955270803E+03  0.63186682380E+03  0.90123450953E+02 0.  0.
          2    1    3    3  502    0  0.12145039936E+03  0.22829944425E+02 -0.11587287900E+03  0.16940463381E+03  0.00000000000E+00 0. -1.
         -1    1    3    3    0  502  0.12723269317E+03 -0.44802806266E+02 -0.67787518321E+02  0.15096555004E+03  0.00000000000E+00 0.  1.
         13    1    5    5    0    0 -0.89705673382E+01  0.39604888934E+03  0.22226913119E+03  0.45424526470E+03  0.00000000000E+00 0. -1.
        -13    1    5    5    0    0  0.24324686270E+02  0.28137138717E+02  0.21964331464E+02  0.43195147806E+02  0.00000000000E+00 0.  1.
          3    1    6    6  503    0 -0.13818957681E+03 -0.28826376783E+03  0.25635762341E+03  0.40977016737E+03  0.00000000000E+00 0. -1.
         -3    1    6    6    0  503 -0.12584763465E+03 -0.11394939838E+03  0.14319508462E+03  0.22209665643E+03  0.00000000000E+00 0.  1.
<mgrwt>
<rscale>  0 0.13747178E+04</rscale>
<asrwt>0</asrwt>
<pdfrwt beam="1">  1        2 0.14690794E+00 0.13747178E+04</pdfrwt>
<pdfrwt beam="2">  1       -1 0.76119358E-01 0.13747178E+04</pdfrwt>
<totfact> 0.51979290E+01</totfact>
</mgrwt>
</event>
<event>
12    7  0.1740517E-007  0.1677776E+04  0.7818608E-02  0.8774142E-01
          2   -1    0    0  501    0  0.00000000000E+00  0.00000000000E+00  0.15969490655E+04  0.15969490655E+04  0.00000000000E+00 0. -1.
         -1   -1    0    0    0  501 -0.00000000000E+00 -0.00000000000E+00 -0.44067338744E+03  0.44067338744E+03  0.00000000000E+00 0.  1.
         24    2    1    2    0    0  0.20396697540E+03 -0.31138171567E+03  0.98461320697E+03  0.10556574257E+04  0.79927048653E+02 0.  0.
        254    2    1    2    0    0 -0.20396697540E+03  0.31138171567E+03  0.17166247114E+03  0.98196502733E+03  0.89231508504E+03 0.  0.
         23    2    4    4    0    0 -0.46282213677E+03  0.43310580755E+03  0.21525414267E+03  0.67565408776E+03  0.91592191559E+02 0.  0.
         23    2    4    4    0    0  0.25885516136E+03 -0.12172409188E+03 -0.43591671527E+02  0.30631093956E+03  0.10051571400E+03 0.  0.
          2    1    3    3  502    0  0.15099767580E+03 -0.24002772707E+03  0.64450014663E+03  0.70412644239E+03  0.00000000000E+00 0. -1.
         -1    1    3    3    0  502  0.52969299598E+02 -0.71353988599E+02  0.34011306034E+03  0.35153098327E+03  0.00000000000E+00 0.  1.
         13    1    5    5    0    0 -0.40003665076E+03  0.33835257039E+03  0.20068073646E+03  0.56105662978E+03  0.00000000000E+00 0.  1.
        -13    1    5    5    0    0 -0.62785486005E+02  0.94753237165E+02  0.14573406217E+02  0.11459745798E+03  0.00000000000E+00 0. -1.
          3    1    6    6  503    0  0.13961191073E+03 -0.69727939080E+02  0.26892717856E+02  0.15835621042E+03  0.00000000000E+00 0. -1.
         -3    1    6    6    0  503  0.11924325064E+03 -0.51996152803E+02 -0.70484389384E+02  0.14795472914E+03  0.00000000000E+00 0.  1.
<mgrwt>
<rscale>  0 0.16777759E+04</rscale>
<asrwt>0</asrwt>
<pdfrwt beam="1">  1        2 0.24568447E+00 0.16777759E+04</pdfrwt>
<pdfrwt beam="2">  1       -1 0.67795906E-01 0.16777759E+04</pdfrwt>
<totfact> 0.26785176E+01</totfact>
</mgrwt>
</event>
<event>
12    7  0.1740517E-007  0.1348039E+04  0.7818608E-02  0.8992314E-01
         -1   -1    0    0    0  501 -0.00000000000E+00  0.00000000000E+00  0.31972334018E+03  0.31972334018E+03  0.00000000000E+00 0.  1.
          2   -1    0    0  501    0  0.00000000000E+00 -0.00000000000E+00 -0.14209230773E+04  0.14209230773E+04  0.00000000000E+00 0. -1.
         24    2    1    2    0    0  0.21089123530E+02  0.20940188970E+03  0.69189655006E+02  0.23605914696E+03  0.81503435276E+02 0.  0.
        254    2    1    2    0    0 -0.21089123530E+02 -0.20940188970E+03 -0.11703893921E+04  0.15045872705E+04  0.92177959561E+03 0.  0.
         23    2    4    4    0    0  0.23362178109E+03 -0.27187693422E+03 -0.11702495798E+04  0.12272763254E+04  0.90702238271E+02 0.  0.
         23    2    4    4    0    0 -0.25471090462E+03  0.62475044526E+02 -0.13981232696E+00  0.27731094508E+03  0.90114175313E+02 0.  0.
          4    1    3    3  502    0  0.80621554763E+01  0.25604004826E+01  0.21905973555E+02  0.23482454704E+02  0.00000000000E+00 0. -1.
         -3    1    3    3    0  502  0.13026968054E+02  0.20684148921E+03  0.47283681451E+02  0.21257669225E+03  0.00000000000E+00 0.  1.
         13    1    5    5    0    0  0.13880838111E+00  0.63814733138E+01 -0.25051411207E+02  0.25851802121E+02  0.00000000000E+00 0.  1.
        -13    1    5    5    0    0  0.23348297271E+03 -0.27825840754E+03 -0.11451981686E+04  0.12014245233E+04  0.00000000000E+00 0. -1.
          1    1    6    6  503    0 -0.18663105522E+03  0.63749058107E+02  0.35605973399E+02  0.20040678263E+03  0.00000000000E+00 0. -1.
         -1    1    6    6    0  503 -0.68079849399E+02 -0.12740135807E+01 -0.35745785726E+02  0.76904162449E+02  0.00000000000E+00 0.  1.
<mgrwt>
<rscale>  0 0.13480390E+04</rscale>
<asrwt>0</asrwt>
<pdfrwt beam="1">  1        2 0.21860355E+00 0.13480390E+04</pdfrwt>
<pdfrwt beam="2">  1       -1 0.49188207E-01 0.13480390E+04</pdfrwt>
<totfact> 0.64884906E+01</totfact>
</mgrwt>
</event>
<event>
12    7  0.1740517E-007  0.2434024E+04  0.7818608E-02  0.8426874E-01
         -1   -1    0    0    0  501 -0.00000000000E+00  0.00000000000E+00  0.67412340801E+03  0.67412340801E+03  0.00000000000E+00 0.  1.
          2   -1    0    0  501    0  0.00000000000E+00 -0.00000000000E+00 -0.21971028250E+04  0.21971028250E+04  0.00000000000E+00 0. -1.
         24    2    1    2    0    0 -0.37566520070E+02  0.97727034109E+02 -0.18909607094E+04  0.18955318339E+04  0.79666256512E+02 0.  0.
        254    2    1    2    0    0  0.37566520070E+02 -0.97727034109E+02  0.36798129231E+03  0.97569439914E+03  0.89755641182E+03 0.  0.
         23    2    4    4    0    0 -0.41746521976E+03 -0.40821544735E+02  0.11499771315E+03  0.44436502717E+03  0.91061490837E+02 0.  0.
         23    2    4    4    0    0  0.45503173983E+03 -0.56905489374E+02  0.25298357916E+03  0.53132937197E+03  0.89543794968E+02 0.  0.
          2    1    3    3  502    0 -0.33218086363E+02  0.11087711057E+03 -0.15635844786E+04  0.15678627481E+04  0.00000000000E+00 0. -1.
         -1    1    3    3    0  502 -0.43484337071E+01 -0.13150076460E+02 -0.32737623071E+03  0.32766908584E+03  0.00000000000E+00 0.  1.
         13    1    5    5    0    0 -0.33639087300E+03 -0.46783072279E+01  0.65530515384E+02  0.34274619537E+03  0.00000000000E+00 0. -1.
        -13    1    5    5    0    0 -0.81074346768E+02 -0.36143237507E+02  0.49467197768E+02  0.10161883180E+03  0.00000000000E+00 0.  1.
          4    1    6    6  503    0  0.30911853103E+03 -0.80148021287E+02  0.16679321181E+03  0.36027482155E+03  0.00000000000E+00 0. -1.
         -4    1    6    6    0  503  0.14591320881E+03  0.23242531913E+02  0.86190367354E+02  0.17105455042E+03  0.00000000000E+00 0.  1.
<mgrwt>
<rscale>  0 0.24340242E+04</rscale>
<asrwt>0</asrwt>
<pdfrwt beam="1">  1        2 0.33801582E+00 0.24340242E+04</pdfrwt>
<pdfrwt beam="2">  1       -1 0.10371129E+00 0.24340242E+04</pdfrwt>
<totfact> 0.46326815E+00</totfact>
</mgrwt>
</event>
<event>
12    7  0.1740517E-007  0.2140986E+04  0.7818608E-02  0.8543400E-01
          2   -1    0    0  501    0  0.00000000000E+00  0.00000000000E+00  0.23933910535E+04  0.23933910535E+04  0.00000000000E+00 0. -1.
         -1   -1    0    0    0  501 -0.00000000000E+00 -0.00000000000E+00 -0.47879999913E+03  0.47879999913E+03  0.00000000000E+00 0.  1.
         24    2    1    2    0    0  0.67310777952E+03  0.56116619915E+03  0.82866884245E+03  0.12089863718E+04  0.83512938073E+02 0.  0.
        254    2    1    2    0    0 -0.67310777952E+03 -0.56116619915E+03  0.10859222120E+04  0.16632046809E+04  0.90500893595E+03 0.  0.
         23    2    4    4    0    0 -0.20761574723E+03 -0.71473497310E+03  0.75446904707E+03  0.10636940064E+04  0.90945125863E+02 0.  0.
         23    2    4    4    0    0 -0.46549203229E+03  0.15356877395E+03  0.33145316489E+03  0.59951067452E+03  0.96362066628E+02 0.  0.
          2    1    3    3  502    0  0.40281238999E+03  0.34815365487E+03  0.44808341125E+03  0.69587896387E+03  0.00000000000E+00 0. -1.
         -1    1    3    3    0  502  0.27029538953E+03  0.21301254428E+03  0.38058543120E+03  0.51310740792E+03  0.00000000000E+00 0.  1.
         13    1    5    5    0    0 -0.66737925570E+02 -0.26876504512E+03  0.22148229011E+03  0.35460260154E+03  0.00000000000E+00 0.  1.
        -13    1    5    5    0    0 -0.14087782166E+03 -0.44596992798E+03  0.53298675696E+03  0.70909140483E+03  0.00000000000E+00 0. -1.
          2    1    6    6  503    0 -0.76416613022E+02  0.62267995918E+02  0.48646530131E+02  0.10992400536E+03  0.00000000000E+00 0. -1.
         -2    1    6    6    0  503 -0.38907541927E+03  0.91300778032E+02  0.28280663476E+03  0.48958666915E+03  0.00000000000E+00 0.  1.
<mgrwt>
<rscale>  0 0.21409863E+04</rscale>
<asrwt>0</asrwt>
<pdfrwt beam="1">  1        2 0.36821400E+00 0.21409863E+04</pdfrwt>
<pdfrwt beam="2">  1       -1 0.73661540E-01 0.21409863E+04</pdfrwt>
<totfact> 0.77831169E+00</totfact>
</mgrwt>
</event>
<event>
12    7  0.1740517E-007  0.3058704E+04  0.7818608E-02  0.8227163E-01
         -1   -1    0    0    0  501 -0.00000000000E+00  0.00000000000E+00  0.16210354345E+04  0.16210354345E+04  0.00000000000E+00 0.  1.
          2   -1    0    0  501    0  0.00000000000E+00 -0.00000000000E+00 -0.14428544078E+04  0.14428544078E+04  0.00000000000E+00 0. -1.
         24    2    1    2    0    0 -0.40182130083E+02 -0.13473894665E+04  0.47111741127E+02  0.13511831321E+04  0.80021012056E+02 0.  0.
        254    2    1    2    0    0  0.40182130083E+02  0.13473894665E+04  0.13106928560E+03  0.17127067102E+04  0.10483854919E+04 0.  0.
         23    2    4    4    0    0 -0.29739757753E+03  0.98209374017E+02  0.24763096387E+03  0.40966415378E+03  0.91723630293E+02 0.  0.
         23    2    4    4    0    0  0.33757970762E+03  0.12491800924E+04 -0.11656167827E+03  0.13030425564E+04  0.99610826054E+02 0.  0.
          2    1    3    3  502    0  0.80646864743E+01 -0.15506166536E+02  0.27098575627E+01  0.17686822682E+02  0.00000000000E+00 0. -1.
         -1    1    3    3    0  502 -0.48246816558E+02 -0.13318832999E+04  0.44401883564E+02  0.13334963094E+04  0.00000000000E+00 0.  1.
         13    1    5    5    0    0 -0.23915854918E+03  0.10407714761E+03  0.23201194336E+03  0.34908223410E+03  0.00000000000E+00 0. -1.
        -13    1    5    5    0    0 -0.58239028351E+02 -0.58677735915E+01  0.15619020511E+02  0.60581919679E+02  0.00000000000E+00 0.  1.
          1    1    6    6  503    0  0.29837272771E+03  0.96274840136E+03 -0.10949055007E+03  0.10138535148E+04  0.00000000000E+00 0. -1.
         -1    1    6    6    0  503  0.39206979905E+02  0.28643169108E+03 -0.70711282004E+01  0.28918904160E+03  0.00000000000E+00 0.  1.
<mgrwt>
<rscale>  0 0.30587044E+04</rscale>
<asrwt>0</asrwt>
<pdfrwt beam="1">  1        2 0.22197760E+00 0.30587044E+04</pdfrwt>
<pdfrwt beam="2">  1       -1 0.24939007E+00 0.30587044E+04</pdfrwt>
<totfact> 0.93358373E-01</totfact>
</mgrwt>
</event>
<event>
12    7  0.1740517E-007  0.1077951E+04  0.7818608E-02  0.9226953E-01
          2   -1    0    0  501    0  0.00000000000E+00  0.00000000000E+00  0.59326696639E+03  0.59326696639E+03  0.00000000000E+00 0. -1.
         -1   -1    0    0    0  501 -0.00000000000E+00 -0.00000000000E+00 -0.48965232070E+03  0.48965232070E+03  0.00000000000E+00 0.  1.
         24    2    1    2    0    0  0.39458681123E+02 -0.25245065036E+02 -0.12209372616E+03  0.15339324778E+03  0.80176740227E+02 0.  0.
        254    2    1    2    0    0 -0.39458681123E+02  0.25245065036E+02  0.22570837185E+03  0.92952603931E+03  0.90048880493E+03 0.  0.
         23    2    4    4    0    0 -0.41765816553E+03  0.14893311030E+03  0.25641974724E+03  0.52018777328E+03  0.90690782992E+02 0.  0.
         23    2    4    4    0    0  0.37819948441E+03 -0.12368804526E+03 -0.30711375392E+02  0.40933826603E+03  0.91000246737E+02 0.  0.
          2    1    3    3  502    0  0.40902127743E+02 -0.40194556033E+02 -0.39954976169E+02  0.69892678510E+02  0.00000000000E+00 0. -1.
         -1    1    3    3    0  502 -0.14434466202E+01  0.14949490997E+02 -0.82138749987E+02  0.83500569271E+02  0.00000000000E+00 0.  1.
         13    1    5    5    0    0 -0.35102577550E+03  0.12194115754E+03  0.17251287691E+03  0.40969431735E+03  0.00000000000E+00 0. -1.
        -13    1    5    5    0    0 -0.66632390028E+02  0.26991952759E+02  0.83906870338E+02  0.11049345593E+03  0.00000000000E+00 0.  1.
          3    1    6    6  503    0  0.33944864058E+03 -0.12783749468E+03 -0.52029125609E+01  0.36276007902E+03  0.00000000000E+00 0. -1.
         -3    1    6    6    0  503  0.38750843833E+02  0.41494494189E+01 -0.25508462831E+02  0.46578187001E+02  0.00000000000E+00 0.  1.
<mgrwt>
<rscale>  0 0.10779509E+04</rscale>
<asrwt>0</asrwt>
<pdfrwt beam="1">  1        2 0.91271841E-01 0.10779509E+04</pdfrwt>
<pdfrwt beam="2">  1       -1 0.75331126E-01 0.10779509E+04</pdfrwt>
<totfact> 0.10124224E+02</totfact>
</mgrwt>
</event>
<event>
12    7  0.1740517E-007  0.1592672E+04  0.7818608E-02  0.8825063E-01
         -3   -1    0    0    0  501 -0.00000000000E+00  0.00000000000E+00  0.76546872321E+03  0.76546872321E+03  0.00000000000E+00 0.  1.
          2   -1    0    0  501    0  0.00000000000E+00 -0.00000000000E+00 -0.82844754497E+03  0.82844754497E+03  0.00000000000E+00 0. -1.
         24    2    1    2    0    0 -0.25302000081E+03  0.34188606165E+03 -0.35670151008E+03  0.56080779959E+03  0.79776066782E+02 0.  0.
        254    2    1    2    0    0  0.25302000081E+03 -0.34188606165E+03  0.29372268832E+03  0.10331084686E+04  0.89450259378E+03 0.  0.
         23    2    4    4    0    0  0.33460250032E+03  0.15756720927E+03  0.34776932613E+03  0.51631627343E+03  0.94088954490E+02 0.  0.
         23    2    4    4    0    0 -0.81582499504E+02 -0.49945327092E+03 -0.54046637817E+02  0.51679219515E+03  0.89687568009E+02 0.  0.
          4    1    3    3  502    0 -0.19971076636E+03  0.31413696834E+03 -0.31525020665E+03  0.48780028482E+03  0.00000000000E+00 0. -1.
         -1    1    3    3    0  502 -0.53309234454E+02  0.27749093312E+02 -0.41451303423E+02  0.73007514772E+02  0.00000000000E+00 0.  1.
         13    1    5    5    0    0  0.19151435379E+03  0.49199720074E+02  0.22114710383E+03  0.29665535845E+03  0.00000000000E+00 0. -1.
        -13    1    5    5    0    0  0.14308814653E+03  0.10836748920E+03  0.12662222230E+03  0.21966091498E+03  0.00000000000E+00 0.  1.
          4    1    6    6  503    0 -0.47892912205E+02 -0.37897308193E+03 -0.76817851840E+02  0.38963484216E+03  0.00000000000E+00 0. -1.
         -4    1    6    6    0  503 -0.33689587299E+02 -0.12048018899E+03  0.22771214023E+02  0.12715735299E+03  0.00000000000E+00 0.  1.
<mgrwt>
<rscale>  0 0.15926716E+04</rscale>
<asrwt>0</asrwt>
<pdfrwt beam="1">  1        2 0.12745347E+00 0.15926716E+04</pdfrwt>
<pdfrwt beam="2">  1       -3 0.11776442E+00 0.15926716E+04</pdfrwt>
<totfact> 0.11794729E+01</totfact>
</mgrwt>
</event>
<event>
12    7  0.1740517E-007  0.1427475E+04  0.7818608E-02  0.8934168E-01
          2   -1    0    0  501    0  0.00000000000E+00  0.00000000000E+00  0.32144859419E+04  0.32144859419E+04  0.00000000000E+00 0. -1.
         -1   -1    0    0    0  501 -0.00000000000E+00 -0.00000000000E+00 -0.15847668879E+03  0.15847668879E+03  0.00000000000E+00 0.  1.
         24    2    1    2    0    0  0.39441506588E+02 -0.18733449212E+03  0.18802621754E+04  0.18915455571E+04  0.76869383946E+02 0.  0.
        254    2    1    2    0    0 -0.39441506588E+02  0.18733449212E+03  0.11757470777E+04  0.14814170735E+04  0.88066197296E+03 0.  0.
         23    2    4    4    0    0 -0.34430543322E+03  0.37541283636E+03  0.55422379648E+03  0.75828837681E+03  0.91412344755E+02 0.  0.
         23    2    4    4    0    0  0.30486392663E+03 -0.18807834424E+03  0.62152328120E+03  0.72312869670E+03  0.91150675138E+02 0.  0.
          4    1    3    3  502    0 -0.99307720596E+00 -0.56739715798E+02  0.90115876142E+03  0.90294379384E+03  0.00000000000E+00 0. -1.
         -3    1    3    3    0  502  0.40434583794E+02 -0.13059477632E+03  0.97910341396E+03  0.98860176330E+03  0.00000000000E+00 0.  1.
         13    1    5    5    0    0 -0.27124652540E+03  0.29559214232E+03  0.37631577783E+03  0.55005723047E+03  0.00000000000E+00 0. -1.
        -13    1    5    5    0    0 -0.73058907825E+02  0.79820694031E+02  0.17790801864E+03  0.20823114634E+03  0.00000000000E+00 0.  1.
          1    1    6    6  503    0  0.30874549529E+03 -0.17430261565E+03  0.58713445019E+03  0.68588048906E+03  0.00000000000E+00 0. -1.
         -1    1    6    6    0  503 -0.38815686530E+01 -0.13775728590E+02  0.34388831017E+02  0.37248207636E+02  0.00000000000E+00 0.  1.
<mgrwt>
<rscale>  0 0.14274748E+04</rscale>
<asrwt>0</asrwt>
<pdfrwt beam="1">  1        2 0.49453625E+00 0.14274748E+04</pdfrwt>
<pdfrwt beam="2">  1       -1 0.24381031E-01 0.14274748E+04</pdfrwt>
<totfact> 0.20763005E+01</totfact>
</mgrwt>
</event>
<event>
12    7  0.1740517E-007  0.2298934E+04  0.7818608E-02  0.8478341E-01
          2   -1    0    0  501    0  0.00000000000E+00  0.00000000000E+00  0.23064158323E+04  0.23064158323E+04  0.00000000000E+00 0. -1.
         -1   -1    0    0    0  501 -0.00000000000E+00 -0.00000000000E+00 -0.57286926206E+03  0.57286926206E+03  0.00000000000E+00 0.  1.
         24    2    1    2    0    0 -0.31220031599E+03  0.35331633195E+03 -0.33050824604E+03  0.58134247141E+03  0.80136762059E+02 0.  0.
        254    2    1    2    0    0  0.31220031599E+03 -0.35331633195E+03  0.20640548163E+04  0.22979426230E+04  0.89326174556E+03 0.  0.
         23    2    4    4    0    0 -0.86444103205E+02 -0.41709564355E+03  0.16713336570E+04  0.17272167792E+04  0.92088275158E+02 0.  0.
         23    2    4    4    0    0  0.39864441920E+03  0.63779311607E+02  0.39272115929E+03  0.57072584379E+03  0.92265412060E+02 0.  0.
          4    1    3    3  502    0 -0.53458559263E+02  0.46835130770E+02 -0.19226032706E+02  0.73627354742E+02  0.00000000000E+00 0. -1.
         -3    1    3    3    0  502 -0.25874175673E+03  0.30648120118E+03 -0.31128221334E+03  0.50771511666E+03  0.00000000000E+00 0.  1.
         13    1    5    5    0    0 -0.20338593852E+02 -0.14901919290E+02  0.15598156677E+03  0.15800624915E+03  0.00000000000E+00 0.  1.
        -13    1    5    5    0    0 -0.66105509354E+02 -0.40219372426E+03  0.15153520902E+04  0.15692105301E+04  0.00000000000E+00 0. -1.
          3    1    6    6  503    0  0.45720431146E+02  0.38152793543E+02  0.45207742490E+02  0.74764520064E+02  0.00000000000E+00 0.  1.
         -3    1    6    6    0  503  0.35292398805E+03  0.25626518063E+02  0.34751341680E+03  0.49596132372E+03  0.00000000000E+00 0. -1.
<mgrwt>
<rscale>  0 0.22989343E+04</rscale>
<asrwt>0</asrwt>
<pdfrwt beam="1">  1        2 0.35483320E+00 0.22989343E+04</pdfrwt>
<pdfrwt beam="2">  1       -1 0.88133734E-01 0.22989343E+04</pdfrwt>
<totfact> 0.58666620E+00</totfact>
</mgrwt>
</event>
<event>
12    7  0.1740517E-007  0.2100948E+04  0.7818608E-02  0.8560826E-01
          2   -1    0    0  501    0  0.00000000000E+00  0.00000000000E+00  0.23748051521E+04  0.23748051521E+04  0.00000000000E+00 0. -1.
         -1   -1    0    0    0  501 -0.00000000000E+00 -0.00000000000E+00 -0.46466794715E+03  0.46466794715E+03  0.00000000000E+00 0.  1.
         24    2    1    2    0    0 -0.76754187944E+03 -0.41655672323E+02  0.13061864396E+04  0.15177615490E+04  0.81371818509E+02 0.  0.
        254    2    1    2    0    0  0.76754187944E+03  0.41655672323E+02  0.60395076537E+03  0.13217115503E+04  0.88955559884E+03 0.  0.
         23    2    4    4    0    0  0.30734569942E+03 -0.16420815630E+03  0.71235500202E+03  0.79828248014E+03  0.91540000263E+02 0.  0.
         23    2    4    4    0    0  0.46019618003E+03  0.20586382862E+03 -0.10840423665E+03  0.52342907014E+03  0.89811318333E+02 0.  0.
          4    1    3    3  502    0 -0.12141113318E+03 -0.12321599341E+02  0.15452489421E+03  0.19690207719E+03  0.00000000000E+00 0. -1.
         -1    1    3    3    0  502 -0.64613074626E+03 -0.29334072982E+02  0.11516615454E+04  0.13208594718E+04  0.00000000000E+00 0.  1.
         13    1    5    5    0    0  0.29483837439E+02  0.47014034619E-02  0.24005215601E+02  0.38020350712E+02  0.00000000000E+00 0. -1.
        -13    1    5    5    0    0  0.27786186198E+03 -0.16421285770E+03  0.68834978642E+03  0.76026212943E+03  0.00000000000E+00 0.  1.
          1    1    6    6  503    0  0.58104010899E+02  0.35772615686E+02  0.14738411052E+02  0.69806710823E+02  0.00000000000E+00 0. -1.
         -1    1    6    6    0  503  0.40209216913E+03  0.17009121294E+03 -0.12314264770E+03  0.45362235932E+03  0.00000000000E+00 0.  1.
<mgrwt>
<rscale>  0 0.21009482E+04</rscale>
<asrwt>0</asrwt>
<pdfrwt beam="1">  1        2 0.36535463E+00 0.21009482E+04</pdfrwt>
<pdfrwt beam="2">  1       -1 0.71487378E-01 0.21009482E+04</pdfrwt>
<totfact> 0.85169146E+00</totfact>
</mgrwt>
</event>
<event>
12    7  0.1740517E-007  0.1813481E+04  0.7818608E-02  0.8699163E-01
         -3   -1    0    0    0  501 -0.00000000000E+00  0.00000000000E+00  0.14920333504E+04  0.14920333504E+04  0.00000000000E+00 0.  1.
          4   -1    0    0  501    0  0.00000000000E+00 -0.00000000000E+00 -0.55104538681E+03  0.55104538681E+03  0.00000000000E+00 0. -1.
         24    2    1    2    0    0  0.34167594568E+03 -0.16293268752E+03 -0.26545070436E+03  0.46914437123E+03  0.79642024646E+02 0.  0.
        254    2    1    2    0    0 -0.34167594568E+03  0.16293268752E+03  0.12064386679E+04  0.15739343660E+04  0.93727563520E+03 0.  0.
         23    2    4    4    0    0 -0.60036950890E+03 -0.48484765991E+02  0.50887652059E+03  0.79496555869E+03  0.10109701551E+03 0.  0.
         23    2    4    4    0    0  0.25869356322E+03  0.21141745351E+03  0.69756214733E+03  0.77896880726E+03  0.92626961435E+02 0.  0.
          4    1    3    3  502    0  0.33420580539E+03 -0.16007708100E+03 -0.27127787220E+03  0.45924925276E+03  0.00000000000E+00 0. -1.
         -3    1    3    3    0  502  0.74701402917E+01 -0.28556065278E+01  0.58271678330E+01  0.98951184719E+01  0.00000000000E+00 0.  1.
         13    1    5    5    0    0 -0.58030224517E+03 -0.60275593867E+02  0.50446275047E+03  0.77127589719E+03  0.00000000000E+00 0. -1.
        -13    1    5    5    0    0 -0.20067263730E+02  0.11790827877E+02  0.44137701222E+01  0.23689661507E+02  0.00000000000E+00 0.  1.
          1    1    6    6  503    0  0.12495881600E+03  0.46118284137E+02  0.29602487359E+03  0.32461104050E+03  0.00000000000E+00 0. -1.
         -1    1    6    6    0  503  0.13373474723E+03  0.16529916938E+03  0.40153727374E+03  0.45435776676E+03  0.00000000000E+00 0.  1.
<mgrwt>
<rscale>  0 0.18134807E+04</rscale>
<asrwt>0</asrwt>
<pdfrwt beam="1">  1        4 0.84776214E-01 0.18134807E+04</pdfrwt>
<pdfrwt beam="2">  1       -3 0.22954359E+00 0.18134807E+04</pdfrwt>
<totfact> 0.25322609E-01</totfact>
</mgrwt>
</event>
<event>
12    7  0.1740517E-007  0.1971631E+04  0.7818608E-02  0.8620000E-01
          2   -1    0    0  501    0  0.00000000000E+00  0.00000000000E+00  0.67822648462E+03  0.67822648462E+03  0.00000000000E+00 0. -1.
         -1   -1    0    0    0  501 -0.00000000000E+00 -0.00000000000E+00 -0.14329015952E+04  0.14329015952E+04  0.00000000000E+00 0.  1.
         24    2    1    2    0    0  0.10930400363E+03 -0.63681670376E+02 -0.11235426148E+04  0.11336633544E+04  0.82715618135E+02 0.  0.
        254    2    1    2    0    0 -0.10930400363E+03  0.63681670376E+02  0.36886750428E+03  0.97746472537E+03  0.89630984224E+03 0.  0.
         23    2    4    4    0    0  0.62801624273E+01  0.77816861915E+02  0.64955197378E+03  0.66079184025E+03  0.92914934568E+02 0.  0.
         23    2    4    4    0    0 -0.11558416605E+03 -0.14135191539E+02 -0.28068446950E+03  0.31667288512E+03  0.89097933015E+02 0.  0.
          4    1    3    3  502    0  0.14923911664E+02 -0.41897652944E+02 -0.56809930641E+03  0.56983765969E+03  0.00000000000E+00 0. -1.
         -3    1    3    3    0  502  0.94380091963E+02 -0.21784017431E+02 -0.55544330844E+03  0.56382569475E+03  0.00000000000E+00 0.  1.
         13    1    5    5    0    0  0.23083384353E+02  0.90069464634E+02  0.59829388105E+03  0.60547577920E+03  0.00000000000E+00 0.  1.
        -13    1    5    5    0    0 -0.16803221925E+02 -0.12252602720E+02  0.51258092732E+02  0.55316061058E+02  0.00000000000E+00 0. -1.
          1    1    6    6  503    0 -0.29936585345E+02 -0.43944135384E+02 -0.75536658290E+02  0.92374633544E+02  0.00000000000E+00 0. -1.
         -1    1    6    6    0  503 -0.85647580709E+02  0.29808943844E+02 -0.20514781121E+03  0.22429825158E+03  0.00000000000E+00 0.  1.
<mgrwt>
<rscale>  0 0.19716306E+04</rscale>
<asrwt>0</asrwt>
<pdfrwt beam="1">  1        2 0.10434254E+00 0.19716306E+04</pdfrwt>
<pdfrwt beam="2">  1       -1 0.22044640E+00 0.19716306E+04</pdfrwt>
<totfact> 0.49539193E+00</totfact>
</mgrwt>
</event>
<event>
12    7  0.1740517E-007  0.1858338E+04  0.7818608E-02  0.8675877E-01
          2   -1    0    0  501    0  0.00000000000E+00  0.00000000000E+00  0.31767805790E+04  0.31767805790E+04  0.00000000000E+00 0. -1.
         -1   -1    0    0    0  501 -0.00000000000E+00 -0.00000000000E+00 -0.27177034018E+03  0.27177034018E+03  0.00000000000E+00 0.  1.
         24    2    1    2    0    0  0.25953620932E+03 -0.50730207979E+03  0.18909818140E+04  0.19766599804E+04  0.81596649685E+02 0.  0.
        254    2    1    2    0    0 -0.25953620932E+03  0.50730207979E+03  0.10140284248E+04  0.14718909387E+04  0.90193949080E+03 0.  0.
         23    2    4    4    0    0 -0.54317215547E+03  0.51946780093E+03  0.83127013262E+03  0.11243298725E+04  0.90690915169E+02 0.  0.
         23    2    4    4    0    0  0.28363594614E+03 -0.12165721137E+02  0.18275829213E+03  0.34756106620E+03  0.82466639792E+02 0.  0.
          2    1    3    3  502    0  0.22611862043E+03 -0.48461563774E+03  0.17360144567E+04  0.18165153841E+04  0.00000000000E+00 0. -1.
         -1    1    3    3    0  502  0.33417588895E+02 -0.22686442049E+02  0.15496735733E+03  0.16014459634E+03  0.00000000000E+00 0.  1.
         13    1    5    5    0    0 -0.17417492061E+03  0.11124612222E+03  0.23482863549E+03  0.31282118011E+03  0.00000000000E+00 0. -1.
        -13    1    5    5    0    0 -0.36899723485E+03  0.40822167871E+03  0.59644149713E+03  0.81150869237E+03  0.00000000000E+00 0.  1.
          1    1    6    6  503    0  0.22322949550E+03  0.13784304480E+02  0.16916728915E+03  0.28042643675E+03  0.00000000000E+00 0.  1.
         -1    1    6    6    0  503  0.60406450648E+02 -0.25950025617E+02  0.13591002983E+02  0.67134629451E+02  0.00000000000E+00 0. -1.
<mgrwt>
<rscale>  0 0.18583377E+04</rscale>
<asrwt>0</asrwt>
<pdfrwt beam="1">  1        2 0.48873545E+00 0.18583377E+04</pdfrwt>
<pdfrwt beam="2">  1       -1 0.41810824E-01 0.18583377E+04</pdfrwt>
<totfact> 0.81012631E+00</totfact>
</mgrwt>
</event>
<event>
12    7  0.1740517E-007  0.1393817E+04  0.7818608E-02  0.8958306E-01
          2   -1    0    0  501    0  0.00000000000E+00  0.00000000000E+00  0.20260031498E+04  0.20260031498E+04  0.00000000000E+00 0. -1.
         -3   -1    0    0    0  501 -0.00000000000E+00 -0.00000000000E+00 -0.23972399817E+03  0.23972399817E+03  0.00000000000E+00 0.  1.
         24    2    1    2    0    0 -0.81183199104E+02  0.15786332221E+03  0.11085342972E+04  0.11257116272E+04  0.82866394149E+02 0.  0.
        254    2    1    2    0    0  0.81183199104E+02 -0.15786332221E+03  0.67774485449E+03  0.11400155208E+04  0.89932516899E+03 0.  0.
         23    2    4    4    0    0  0.31158663524E+03 -0.39281598799E+03  0.60346547182E+03  0.78981230677E+03  0.90786962503E+02 0.  0.
         23    2    4    4    0    0 -0.23040343613E+03  0.23495266578E+03  0.74279382673E+02  0.35020321404E+03  0.94001946230E+02 0.  0.
          2    1    3    3  502    0 -0.43358350423E+02  0.14376025739E+03  0.96484725723E+03  0.97646156501E+03  0.00000000000E+00 0. -1.
         -1    1    3    3    0  502 -0.37824848680E+02  0.14103064813E+02  0.14368703994E+03  0.14925006219E+03  0.00000000000E+00 0.  1.
         13    1    5    5    0    0  0.12464036352E+03 -0.16884308860E+03  0.32252836538E+03  0.38479573186E+03  0.00000000000E+00 0.  1.
        -13    1    5    5    0    0  0.18694627171E+03 -0.22397289940E+03  0.28093710644E+03  0.40501657491E+03  0.00000000000E+00 0. -1.
          3    1    6    6  503    0 -0.86508896267E+02  0.13514425485E+03  0.69906495496E+02  0.17502764600E+03  0.00000000000E+00 0. -1.
         -3    1    6    6    0  503 -0.14389453987E+03  0.99808410933E+02  0.43728871768E+01  0.17517556804E+03  0.00000000000E+00 0.  1.
<mgrwt>
<rscale>  0 0.13938172E+04</rscale>
<asrwt>0</asrwt>
<pdfrwt beam="1">  1        2 0.31169278E+00 0.13938172E+04</pdfrwt>
<pdfrwt beam="2">  1       -3 0.36880616E-01 0.13938172E+04</pdfrwt>
<totfact> 0.29610901E+01</totfact>
</mgrwt>
</event>
<event>
12    7  0.1740517E-007  0.2322002E+04  0.7818608E-02  0.8469296E-01
          2   -1    0    0  501    0  0.00000000000E+00  0.00000000000E+00  0.18155976198E+04  0.18155976198E+04  0.00000000000E+00 0. -1.
         -1   -1    0    0    0  501 -0.00000000000E+00 -0.00000000000E+00 -0.74241293797E+03  0.74241293797E+03  0.00000000000E+00 0.  1.
         24    2    1    2    0    0 -0.31660051563E+03 -0.78063006900E+03  0.10058515365E+04  0.13144400426E+04  0.79975752728E+02 0.  0.
        254    2    1    2    0    0  0.31660051563E+03  0.78063006900E+03  0.67333145412E+02  0.12435705152E+04  0.91231282067E+03 0.  0.
         23    2    4    4    0    0  0.54578514624E+03  0.63762395780E+03  0.27807479115E+03  0.88899313607E+03  0.92398425758E+02 0.  0.
         23    2    4    4    0    0 -0.22918463062E+03  0.14300611120E+03 -0.21074164574E+03  0.35457737917E+03  0.91305716208E+02 0.  0.
          4    1    3    3  502    0 -0.25661344876E+03 -0.60712796905E+03  0.83356168320E+03  0.10626758267E+04  0.00000000000E+00 0. -1.
         -3    1    3    3    0  502 -0.59987066863E+02 -0.17350209996E+03  0.17228985327E+03  0.25176421592E+03  0.00000000000E+00 0.  1.
         13    1    5    5    0    0  0.49365877582E+03  0.57448502017E+03  0.22047496085E+03  0.78888607143E+03  0.00000000000E+00 0.  1.
        -13    1    5    5    0    0  0.52126370424E+02  0.63138937632E+02  0.57599830303E+02  0.10010706464E+03  0.00000000000E+00 0. -1.
          1    1    6    6  503    0 -0.51865660186E+02  0.82216304901E+02 -0.81996015982E+02  0.12717277277E+03  0.00000000000E+00 0. -1.
         -1    1    6    6    0  503 -0.17731897043E+03  0.60789806302E+02 -0.12874562976E+03  0.22740460639E+03  0.00000000000E+00 0.  1.
<mgrwt>
<rscale>  0 0.23220019E+04</rscale>
<asrwt>0</asrwt>
<pdfrwt beam="1">  1        2 0.27932271E+00 0.23220019E+04</pdfrwt>
<pdfrwt beam="2">  1       -1 0.11421738E+00 0.23220019E+04</pdfrwt>
<totfact> 0.60801789E+00</totfact>
</mgrwt>
</event>
<event>
12    7  0.1740517E-007  0.1495940E+04  0.7818608E-02  0.8887157E-01
          2   -1    0    0  501    0  0.00000000000E+00  0.00000000000E+00  0.98057489272E+03  0.98057489272E+03  0.00000000000E+00 0. -1.
         -1   -1    0    0    0  501 -0.00000000000E+00 -0.00000000000E+00 -0.57054205217E+03  0.57054205217E+03  0.00000000000E+00 0.  1.
         24    2    1    2    0    0 -0.31948488416E+03 -0.21853291309E+03  0.42604688449E+03  0.58172294708E+03  0.84014368235E+02 0.  0.
        254    2    1    2    0    0  0.31948488416E+03  0.21853291309E+03 -0.16014043943E+02  0.96939399781E+03  0.88861749256E+03 0.  0.
         23    2    4    4    0    0 -0.29106127017E+03  0.17114169533E+03 -0.12690948055E+02  0.35016475875E+03  0.91913846785E+02 0.  0.
         23    2    4    4    0    0  0.61054615433E+03  0.47391217759E+02 -0.33230958888E+01  0.61922923907E+03  0.91767496779E+02 0.  0.
          4    1    3    3  502    0 -0.39337744805E+02 -0.54018370447E+02  0.10850825119E+03  0.12743423044E+03  0.00000000000E+00 0. -1.
         -3    1    3    3    0  502 -0.28014713935E+03 -0.16451454264E+03  0.31753863330E+03  0.45428871664E+03  0.00000000000E+00 0.  1.
         13    1    5    5    0    0 -0.26167819955E+03  0.17801011735E+03 -0.25226671988E+02  0.31748931790E+03  0.00000000000E+00 0.  1.
        -13    1    5    5    0    0 -0.29383070617E+02 -0.68684220200E+01  0.12535723933E+02  0.32675440846E+02  0.00000000000E+00 0. -1.
          1    1    6    6  503    0  0.96046042136E+02 -0.25644886546E+02 -0.55615347659E+01  0.99566224619E+02  0.00000000000E+00 0. -1.
         -1    1    6    6    0  503  0.51450011219E+03  0.73036104305E+02  0.22384388770E+01  0.51966301445E+03  0.00000000000E+00 0.  1.
<mgrwt>
<rscale>  0 0.14959401E+04</rscale>
<asrwt>0</asrwt>
<pdfrwt beam="1">  1        2 0.15085768E+00 0.14959401E+04</pdfrwt>
<pdfrwt beam="2">  1       -1 0.87775700E-01 0.14959401E+04</pdfrwt>
<totfact> 0.36502834E+01</totfact>
</mgrwt>
</event>
<event>
12    7  0.1740517E-007  0.1716547E+04  0.7818608E-02  0.8751983E-01
         -1   -1    0    0    0  501 -0.00000000000E+00  0.00000000000E+00  0.61077562383E+03  0.61077562383E+03  0.00000000000E+00 0.  1.
          2   -1    0    0  501    0  0.00000000000E+00 -0.00000000000E+00 -0.12060615843E+04  0.12060615843E+04  0.00000000000E+00 0. -1.
         24    2    1    2    0    0 -0.25832726373E+02  0.13300035080E+03  0.41355228586E+03  0.44293230805E+03  0.82505231984E+02 0.  0.
        254    2    1    2    0    0  0.25832726373E+02 -0.13300035080E+03 -0.10088382463E+04  0.13739049001E+04  0.92276955093E+03 0.  0.
         23    2    4    4    0    0  0.19218195121E+03  0.26045903674E+03 -0.77912598466E+02  0.34553142724E+03  0.92459623733E+02 0.  0.
         23    2    4    4    0    0 -0.16634922483E+03 -0.39345938754E+03 -0.93092564784E+03  0.10283734728E+04  0.91908016749E+02 0.  0.
          2    1    3    3  502    0 -0.16949356381E+02  0.17329528834E+02  0.18541004738E+03  0.18698791116E+03  0.00000000000E+00 0. -1.
         -1    1    3    3    0  502 -0.88833699926E+01  0.11567082197E+03  0.22814223848E+03  0.25594439689E+03  0.00000000000E+00 0.  1.
         13    1    5    5    0    0  0.12257483730E+03  0.20794717825E+03 -0.22978371820E+02  0.24247603026E+03  0.00000000000E+00 0.  1.
        -13    1    5    5    0    0  0.69607113906E+02  0.52511858492E+02 -0.54934226646E+02  0.10305539698E+03  0.00000000000E+00 0. -1.
          4    1    6    6  503    0 -0.63948922947E+02 -0.64339443199E+02 -0.16058089085E+03  0.18443224014E+03  0.00000000000E+00 0. -1.
         -4    1    6    6    0  503 -0.10240030189E+03 -0.32911994434E+03 -0.77034475699E+03  0.84394123268E+03  0.00000000000E+00 0.  1.
<mgrwt>
<rscale>  0 0.17165466E+04</rscale>
<asrwt>0</asrwt>
<pdfrwt beam="1">  1        2 0.18554793E+00 0.17165466E+04</pdfrwt>
<pdfrwt beam="2">  1       -1 0.93965482E-01 0.17165466E+04</pdfrwt>
<totfact> 0.22339035E+01</totfact>
</mgrwt>
</event>
<event>
12    7  0.1740517E-007  0.4011390E+04  0.7818608E-02  0.8002253E-01
         -1   -1    0    0    0  501 -0.00000000000E+00  0.00000000000E+00  0.12812551126E+04  0.12812551126E+04  0.00000000000E+00 0.  1.
          2   -1    0    0  501    0  0.00000000000E+00 -0.00000000000E+00 -0.31397441819E+04  0.31397441819E+04  0.00000000000E+00 0. -1.
         24    2    1    2    0    0 -0.17924387877E+04  0.59051862729E+02 -0.15881889795E+04  0.23970765060E+04  0.85484567042E+02 0.  0.
        254    2    1    2    0    0  0.17924387877E+04 -0.59051862729E+02 -0.27030008984E+03  0.20239227884E+04  0.89826353868E+03 0.  0.
         23    2    4    4    0    0  0.16952242059E+04  0.11038040145E+03 -0.29023539337E+02  0.17017157492E+04  0.95000966939E+02 0.  0.
         23    2    4    4    0    0  0.97214581736E+02 -0.16943226418E+03 -0.24127655050E+03  0.32220703926E+03  0.86284617885E+02 0.  0.
          2    1    3    3  502    0 -0.10638025086E+04  0.23089349085E+01 -0.90613691940E+03  0.13974137631E+04  0.00000000000E+00 0. -1.
         -1    1    3    3    0  502 -0.72863627905E+03  0.56742927820E+02 -0.68205206006E+03  0.99966274295E+03  0.00000000000E+00 0.  1.
         13    1    5    5    0    0  0.15922995656E+04  0.11087801047E+03 -0.48827459187E+02  0.15969019885E+04  0.00000000000E+00 0.  1.
        -13    1    5    5    0    0  0.10292464029E+03 -0.49760901898E+00  0.19803919850E+02  0.10481376072E+03  0.00000000000E+00 0. -1.
          1    1    6    6  503    0 -0.49531443404E+01  0.60718404202E+01 -0.14804906721E+01  0.79745054753E+01  0.00000000000E+00 0. -1.
         -1    1    6    6    0  503  0.10216772608E+03 -0.17550410460E+03 -0.23979605983E+03  0.31423253379E+03  0.00000000000E+00 0.  1.
<mgrwt>
<rscale>  0 0.40113904E+04</rscale>
<asrwt>0</asrwt>
<pdfrwt beam="1">  1        2 0.48303757E+00 0.40113904E+04</pdfrwt>
<pdfrwt beam="2">  1       -1 0.19711617E+00 0.40113904E+04</pdfrwt>
<totfact> 0.19992598E-01</totfact>
</mgrwt>
</event>
<event>
12    7  0.1740517E-007  0.2256696E+04  0.7818608E-02  0.8495193E-01
          2   -1    0    0  501    0  0.00000000000E+00  0.00000000000E+00  0.14145865924E+04  0.14145865924E+04  0.00000000000E+00 0. -1.
         -1   -1    0    0    0  501 -0.00000000000E+00 -0.00000000000E+00 -0.90002951703E+03  0.90002951703E+03  0.00000000000E+00 0.  1.
         24    2    1    2    0    0  0.50848346802E+03 -0.31491703575E+03  0.91794118741E+03  0.10984799428E+04  0.79460585234E+02 0.  0.
        254    2    1    2    0    0 -0.50848346802E+03  0.31491703575E+03 -0.40338411201E+03  0.12161361666E+04  0.97905069190E+03 0.  0.
         23    2    4    4    0    0  0.12620717801E+03 -0.64479538375E+02 -0.43830639837E+03  0.46967588580E+03  0.91635561885E+02 0.  0.
         23    2    4    4    0    0 -0.63469064603E+03  0.37939657413E+03  0.34922286357E+02  0.74646028083E+03  0.95965661331E+02 0.  0.
          4    1    3    3  502    0  0.45529041797E+03 -0.29411479214E+03  0.78668971524E+03  0.95533951227E+03  0.00000000000E+00 0. -1.
         -3    1    3    3    0  502  0.53193050048E+02 -0.20802243610E+02  0.13125147218E+03  0.14314043056E+03  0.00000000000E+00 0.  1.
         13    1    5    5    0    0  0.90342859988E+02 -0.42607802908E+02 -0.16290925630E+03  0.19109338819E+03  0.00000000000E+00 0. -1.
        -13    1    5    5    0    0  0.35864318024E+02 -0.21871735467E+02 -0.27539714206E+03  0.27858249761E+03  0.00000000000E+00 0.  1.
          2    1    6    6  503    0 -0.33546700351E+03  0.19615048475E+03  0.66163352173E+02  0.39419628649E+03  0.00000000000E+00 0.  1.
         -2    1    6    6    0  503 -0.29922364251E+03  0.18324608938E+03 -0.31241065816E+02  0.35226399433E+03  0.00000000000E+00 0. -1.
<mgrwt>
<rscale>  0 0.22566964E+04</rscale>
<asrwt>0</asrwt>
<pdfrwt beam="1">  1        2 0.21762871E+00 0.22566964E+04</pdfrwt>
<pdfrwt beam="2">  1       -1 0.13846608E+00 0.22566964E+04</pdfrwt>
<totfact> 0.63485107E+00</totfact>
</mgrwt>
</event>
<event>
12    7  0.2574714E-007  0.1864721E+04  0.7818608E-02  0.8672619E-01
          2   -1    0    0  501    0  0.00000000000E+00  0.00000000000E+00  0.24651389964E+04  0.24651389964E+04  0.00000000000E+00 0. -1.
         -1   -1    0    0    0  501 -0.00000000000E+00 -0.00000000000E+00 -0.35263564295E+03  0.35263564295E+03  0.00000000000E+00 0.  1.
         24    2    1    2    0    0  0.56888850255E+03  0.44985517789E+02  0.17139090962E+03  0.60144821885E+03  0.81898051948E+02 0.  0.
        254    2    1    2    0    0 -0.56888850255E+03 -0.44985517789E+02  0.19411124439E+04  0.22163264205E+04  0.90472507287E+03 0.  0.
         23    2    4    4    0    0 -0.45455604941E+03  0.52018892223E+02  0.19792661045E+04  0.20334126948E+04  0.89138698049E+02 0.  0.
         23    2    4    4    0    0 -0.11433245314E+03 -0.97004410011E+02 -0.38153660686E+02  0.18291372575E+03  0.97570302045E+02 0.  0.
          4    1    3    3  502    0  0.98013490522E+01  0.63362932463E+01  0.16144264317E+02  0.19921152720E+02  0.00000000000E+00 0. -1.
         -3    1    3    3    0  502  0.55908715350E+03  0.38649224542E+02  0.15524664531E+03  0.58152706613E+03  0.00000000000E+00 0.  1.
         13    1    5    5    0    0 -0.38119048456E+03  0.76153639671E+02  0.16710860525E+04  0.17157022344E+04  0.00000000000E+00 0.  1.
        -13    1    5    5    0    0 -0.73365564854E+02 -0.24134747448E+02  0.30818005205E+03  0.31771046036E+03  0.00000000000E+00 0. -1.
          1    1    6    6  503    0 -0.10746495620E+03 -0.49665999661E+02 -0.57133172052E+02  0.13145199764E+03  0.00000000000E+00 0.  1.
         -1    1    6    6    0  503 -0.68674969387E+01 -0.47338410350E+02  0.18979511367E+02  0.51461728114E+02  0.00000000000E+00 0. -1.
<mgrwt>
<rscale>  0 0.18647208E+04</rscale>
<asrwt>0</asrwt>
<pdfrwt beam="1">  1        2 0.37925214E+00 0.18647208E+04</pdfrwt>
<pdfrwt beam="2">  1       -1 0.54251639E-01 0.18647208E+04</pdfrwt>
<totfact> 0.13390499E+01</totfact>
</mgrwt>
</event>
<event>
12    7  0.1740517E-007  0.2116983E+04  0.7818608E-02  0.8553799E-01
          2   -1    0    0  501    0  0.00000000000E+00  0.00000000000E+00  0.53524267314E+03  0.53524267314E+03  0.00000000000E+00 0. -1.
         -1   -1    0    0    0  501 -0.00000000000E+00 -0.00000000000E+00 -0.20932649742E+04  0.20932649742E+04  0.00000000000E+00 0.  1.
         24    2    1    2    0    0 -0.43607249680E+03 -0.53610854966E+03 -0.12901337225E+04  0.14657549007E+04  0.80129941293E+02 0.  0.
        254    2    1    2    0    0  0.43607249680E+03  0.53610854966E+03 -0.26788857856E+03  0.11627527466E+04  0.89591185938E+03 0.  0.
         23    2    4    4    0    0  0.42803967943E+03  0.86441538714E+02 -0.48132921519E+03  0.65654521990E+03  0.93186402451E+02 0.  0.
         23    2    4    4    0    0  0.80328173723E+01  0.44966701095E+03  0.21344063663E+03  0.50620752673E+03  0.91783483585E+02 0.  0.
          4    1    3    3  502    0 -0.15186392967E+03 -0.24766640571E+03 -0.52001270514E+03  0.59566308863E+03  0.00000000000E+00 0. -1.
         -3    1    3    3    0  502 -0.28420856713E+03 -0.28844214396E+03 -0.77012101735E+03  0.87009181205E+03  0.00000000000E+00 0.  1.
         13    1    5    5    0    0  0.27676568716E+03  0.38954112330E+02 -0.24336772858E+03  0.37060021556E+03  0.00000000000E+00 0. -1.
        -13    1    5    5    0    0  0.15127399227E+03  0.47487426383E+02 -0.23796148661E+03  0.28594500434E+03  0.00000000000E+00 0.  1.
          2    1    6    6  503    0  0.49864347494E+02  0.25798197443E+03  0.11829453788E+03  0.28815750896E+03  0.00000000000E+00 0.  1.
         -2    1    6    6    0  503 -0.41831530122E+02  0.19168503652E+03  0.95146098755E+02  0.21805001777E+03  0.00000000000E+00 0. -1.
<mgrwt>
<rscale>  0 0.21169835E+04</rscale>
<asrwt>0</asrwt>
<pdfrwt beam="1">  1        2 0.82345027E-01 0.21169835E+04</pdfrwt>
<pdfrwt beam="2">  1       -1 0.32204077E+00 0.21169835E+04</pdfrwt>
<totfact> 0.14193069E+00</totfact>
</mgrwt>
</event>
<event>
12    7  0.1740517E-007  0.3599443E+04  0.7818608E-02  0.8090619E-01
          2   -1    0    0  501    0  0.00000000000E+00  0.00000000000E+00  0.15821357691E+04  0.15821357691E+04  0.00000000000E+00 0. -1.
         -1   -1    0    0    0  501 -0.00000000000E+00 -0.00000000000E+00 -0.20472315406E+04  0.20472315406E+04  0.00000000000E+00 0.  1.
         24    2    1    2    0    0 -0.14934888793E+04 -0.14060428622E+02  0.56053235551E+03  0.15973929065E+04  0.82224374662E+02 0.  0.
        254    2    1    2    0    0  0.14934888793E+04  0.14060428622E+02 -0.10256281270E+04  0.20319744033E+04  0.91994575511E+03 0.  0.
         23    2    4    4    0    0  0.10023139391E+04 -0.75850754272E+02 -0.15002142114E+03  0.10203580585E+04  0.90761067548E+02 0.  0.
         23    2    4    4    0    0  0.49117494029E+03  0.89911182894E+02 -0.87560670586E+03  0.10116163448E+04  0.85695291223E+02 0.  0.
          4    1    3    3  502    0 -0.14335049461E+04 -0.16728515696E+02  0.55428416344E+03  0.15370254414E+04  0.00000000000E+00 0. -1.
         -3    1    3    3    0  502 -0.59983933264E+02  0.26680870741E+01  0.62481920698E+01  0.60367465100E+02  0.00000000000E+00 0.  1.
         13    1    5    5    0    0  0.95823851031E+03 -0.55591544960E+02 -0.15199377877E+03  0.97180943157E+03  0.00000000000E+00 0. -1.
        -13    1    5    5    0    0  0.44075428746E+02 -0.20259209313E+02  0.19723576301E+01  0.48548626919E+02  0.00000000000E+00 0.  1.
          1    1    6    6  503    0  0.43928731939E+03  0.54088785401E+02 -0.74432951680E+03  0.86598231810E+03  0.00000000000E+00 0. -1.
         -1    1    6    6    0  503  0.51887620902E+02  0.35822397493E+02 -0.13127718906E+03  0.14563402670E+03  0.00000000000E+00 0.  1.
<mgrwt>
<rscale>  0 0.35994434E+04</rscale>
<asrwt>0</asrwt>
<pdfrwt beam="1">  1        2 0.24340550E+00 0.35994434E+04</pdfrwt>
<pdfrwt beam="2">  1       -1 0.31495870E+00 0.35994434E+04</pdfrwt>
<totfact> 0.27949304E-01</totfact>
</mgrwt>
</event>
<event>
12    7  0.1740517E-007  0.2184401E+04  0.7818608E-02  0.8524949E-01
          2   -1    0    0  501    0  0.00000000000E+00  0.00000000000E+00  0.24800190170E+04  0.24800190170E+04  0.00000000000E+00 0. -1.
         -1   -1    0    0    0  501 -0.00000000000E+00 -0.00000000000E+00 -0.48100515106E+03  0.48100515106E+03  0.00000000000E+00 0.  1.
         24    2    1    2    0    0  0.43732749145E+03 -0.73549850733E+03  0.42713063606E+03  0.95942287234E+03  0.76408629381E+02 0.  0.
        254    2    1    2    0    0 -0.43732749145E+03  0.73549850733E+03  0.15718832299E+04  0.20016012957E+04  0.89631326535E+03 0.  0.
         23    2    4    4    0    0 -0.12809199488E+03  0.79669421320E+03  0.70706027592E+03  0.10766968758E+04  0.90623949083E+02 0.  0.
         23    2    4    4    0    0 -0.30923549657E+03 -0.61195705871E+02  0.86482295397E+03  0.92490441990E+03  0.90321301427E+02 0.  0.
          2    1    3    3  502    0  0.26242149159E+02 -0.70995013413E+02  0.19760014237E+02  0.78226597041E+02  0.00000000000E+00 0. -1.
         -1    1    3    3    0  502  0.41108534229E+03 -0.66450349392E+03  0.40737062182E+03  0.88119627530E+03  0.00000000000E+00 0.  1.
         13    1    5    5    0    0 -0.33973806244E+02  0.39474043952E+03  0.39233612240E+03  0.55758574860E+03  0.00000000000E+00 0. -1.
        -13    1    5    5    0    0 -0.94118188633E+02  0.40195377368E+03  0.31472415351E+03  0.51911112723E+03  0.00000000000E+00 0.  1.
          1    1    6    6  503    0 -0.25771573640E+03 -0.26218278780E+02  0.61282307371E+03  0.66532467157E+03  0.00000000000E+00 0. -1.
         -1    1    6    6    0  503 -0.51519760167E+02 -0.34977427091E+02  0.25199988026E+03  0.25957974833E+03  0.00000000000E+00 0.  1.
<mgrwt>
<rscale>  0 0.21844010E+04</rscale>
<asrwt>0</asrwt>
<pdfrwt beam="1">  1        2 0.38154138E+00 0.21844010E+04</pdfrwt>
<pdfrwt beam="2">  1       -1 0.74000794E-01 0.21844010E+04</pdfrwt>
<totfact> 0.68475238E+00</totfact>
</mgrwt>
</event>
<event>
12    7  0.1740517E-007  0.1388249E+04  0.7818608E-02  0.8962369E-01
         -1   -1    0    0    0  501 -0.00000000000E+00  0.00000000000E+00  0.35772683515E+03  0.35772683515E+03  0.00000000000E+00 0.  1.
          2   -1    0    0  501    0  0.00000000000E+00 -0.00000000000E+00 -0.13468622313E+04  0.13468622313E+04  0.00000000000E+00 0. -1.
         24    2    1    2    0    0 -0.34399686621E+03  0.88074393296E+02 -0.59716050232E+02  0.36870850718E+03  0.79303303178E+02 0.  0.
        254    2    1    2    0    0  0.34399686621E+03 -0.88074393296E+02 -0.92941934589E+03  0.13358805592E+04  0.89144018606E+03 0.  0.
         23    2    4    4    0    0  0.12184170748E+03  0.39328701140E+03 -0.42230680332E+03  0.59658797023E+03  0.89744610268E+02 0.  0.
         23    2    4    4    0    0  0.22215515873E+03 -0.48136140470E+03 -0.50711254258E+03  0.73929258901E+03  0.91261628554E+02 0.  0.
          2    1    3    3  502    0 -0.80157838671E+01  0.16727955571E+02 -0.11610293808E+02  0.21883240411E+02  0.00000000000E+00 0. -1.
         -1    1    3    3    0  502 -0.33598108234E+03  0.71346437725E+02 -0.48105756424E+02  0.34682526677E+03  0.00000000000E+00 0.  1.
         13    1    5    5    0    0  0.61615104231E+02  0.19355666138E+03 -0.27195046211E+03  0.33943726383E+03  0.00000000000E+00 0.  1.
        -13    1    5    5    0    0  0.60226603246E+02  0.19973035003E+03 -0.15035634120E+03  0.25715070640E+03  0.00000000000E+00 0. -1.
          2    1    6    6  503    0  0.39165402563E+02 -0.30648481873E+02 -0.30878230906E+02  0.58538221214E+02  0.00000000000E+00 0. -1.
         -2    1    6    6    0  503  0.18298975617E+03 -0.45071292283E+03 -0.47623431167E+03  0.68075436780E+03  0.00000000000E+00 0.  1.
<mgrwt>
<rscale>  0 0.13882489E+04</rscale>
<asrwt>0</asrwt>
<pdfrwt beam="1">  1        2 0.20720957E+00 0.13882489E+04</pdfrwt>
<pdfrwt beam="2">  1       -1 0.55034898E-01 0.13882489E+04</pdfrwt>
<totfact> 0.57520845E+01</totfact>
</mgrwt>
</event>
<event>
12    7  0.1740517E-007  0.1987729E+04  0.7818608E-02  0.8612379E-01
          2   -1    0    0  501    0  0.00000000000E+00  0.00000000000E+00  0.27682322970E+04  0.27682322970E+04  0.00000000000E+00 0. -1.
         -1   -1    0    0    0  501 -0.00000000000E+00 -0.00000000000E+00 -0.35682213284E+03  0.35682213284E+03  0.00000000000E+00 0.  1.
         24    2    1    2    0    0 -0.63033478390E+02  0.69474900966E+03  0.38430492949E+03  0.80041355715E+03  0.79512123726E+02 0.  0.
        254    2    1    2    0    0  0.63033478390E+02 -0.69474900966E+03  0.20271052347E+04  0.23246408727E+04  0.89897171744E+03 0.  0.
         23    2    4    4    0    0  0.30251366983E+03 -0.20387327252E+02  0.11297857261E+04  0.11732847692E+04  0.90836112070E+02 0.  0.
         23    2    4    4    0    0 -0.23948019144E+03 -0.67436168241E+03  0.89731950861E+03  0.11513561035E+04  0.91236701724E+02 0.  0.
          4    1    3    3  502    0  0.11039047384E+02  0.17053148754E+03  0.11894663201E+03  0.20820938999E+03  0.00000000000E+00 0. -1.
         -3    1    3    3    0  502 -0.74072525774E+02  0.52421752212E+03  0.26535829748E+03  0.59220416717E+03  0.00000000000E+00 0.  1.
         13    1    5    5    0    0  0.22161110677E+03 -0.42418578009E+02  0.70238110930E+03  0.73773304190E+03  0.00000000000E+00 0. -1.
        -13    1    5    5    0    0  0.80902563064E+02  0.22031250757E+02  0.42740461681E+03  0.43555172734E+03  0.00000000000E+00 0.  1.
          4    1    6    6  503    0 -0.29093944234E+02 -0.25286956087E+02  0.58707618880E+02  0.70231561664E+02  0.00000000000E+00 0. -1.
         -4    1    6    6    0  503 -0.21038624721E+03 -0.64907472632E+03  0.83861188973E+03  0.10811245418E+04  0.00000000000E+00 0.  1.
<mgrwt>
<rscale>  0 0.19877289E+04</rscale>
<asrwt>0</asrwt>
<pdfrwt beam="1">  1        2 0.42588188E+00 0.19877289E+04</pdfrwt>
<pdfrwt beam="2">  1       -1 0.54895715E-01 0.19877289E+04</pdfrwt>
<totfact> 0.85919114E+00</totfact>
</mgrwt>
</event>
<event>
12    7  0.1740517E-007  0.3415426E+04  0.7818608E-02  0.8134131E-01
         -1   -1    0    0    0  501 -0.00000000000E+00  0.00000000000E+00  0.13759738189E+04  0.13759738189E+04  0.00000000000E+00 0.  1.
          2   -1    0    0  501    0  0.00000000000E+00 -0.00000000000E+00 -0.21194329238E+04  0.21194329238E+04  0.00000000000E+00 0. -1.
         24    2    1    2    0    0  0.15157859259E+04 -0.59097029411E+01 -0.83475150249E+03  0.17323292566E+04  0.80701205495E+02 0.  0.
        254    2    1    2    0    0 -0.15157859259E+04  0.59097029411E+01  0.91292397536E+02  0.17630774861E+04  0.89580467885E+03 0.  0.
         23    2    4    4    0    0 -0.13708193744E+04  0.96895885832E+02  0.36784189187E+03  0.14255028911E+04  0.90643615518E+02 0.  0.
         23    2    4    4    0    0 -0.14496655145E+03 -0.90986182891E+02 -0.27654949433E+03  0.33757459508E+03  0.90461029822E+02 0.  0.
          4    1    3    3  502    0  0.95542903312E+03  0.30339517209E+02 -0.50419684077E+03  0.10807310386E+04  0.00000000000E+00 0. -1.
         -3    1    3    3    0  502  0.56035689275E+03 -0.36249220150E+02 -0.33055466171E+03  0.65159821792E+03  0.00000000000E+00 0.  1.
         13    1    5    5    0    0 -0.13100539520E+03  0.64459554241E+01  0.82206816269E+01  0.13142124455E+03  0.00000000000E+00 0. -1.
        -13    1    5    5    0    0 -0.12398139792E+04  0.90449930407E+02  0.35962121024E+03  0.12940816465E+04  0.00000000000E+00 0.  1.
          4    1    6    6  503    0 -0.12095692331E+02  0.94548906580E+01 -0.72830665241E+02  0.74431220128E+02  0.00000000000E+00 0. -1.
         -4    1    6    6    0  503 -0.13287085911E+03 -0.10044107355E+03 -0.20371882909E+03  0.26314337495E+03  0.00000000000E+00 0.  1.
<mgrwt>
<rscale>  0 0.34154263E+04</rscale>
<asrwt>0</asrwt>
<pdfrwt beam="1">  1        2 0.32606660E+00 0.34154263E+04</pdfrwt>
<pdfrwt beam="2">  1       -1 0.21168828E+00 0.34154263E+04</pdfrwt>
<totfact> 0.67513932E-01</totfact>
</mgrwt>
</event>
<event>
12    7  0.1740517E-007  0.2344998E+04  0.7818608E-02  0.8460387E-01
          2   -1    0    0  501    0  0.00000000000E+00  0.00000000000E+00  0.23804520058E+04  0.23804520058E+04  0.00000000000E+00 0. -1.
         -1   -1    0    0    0  501 -0.00000000000E+00 -0.00000000000E+00 -0.57751819804E+03  0.57751819804E+03  0.00000000000E+00 0.  1.
         24    2    1    2    0    0  0.75872436747E+03 -0.55181320276E+02 -0.40001222399E+02  0.76566283812E+03  0.77018439214E+02 0.  0.
        254    2    1    2    0    0 -0.75872436747E+03  0.55181320276E+02  0.18429350302E+04  0.21923073658E+04  0.91164379913E+03 0.  0.
         23    2    4    4    0    0 -0.92371099958E+02 -0.52372394044E+01  0.13498879456E+04  0.13562430564E+04  0.92940376046E+02 0.  0.
         23    2    4    4    0    0 -0.66635326752E+03  0.60418559681E+02  0.49304708455E+03  0.83606430933E+03  0.90724981504E+02 0.  0.
          4    1    3    3  502    0  0.27425961299E+03 -0.27757053532E+02  0.21709538759E+02  0.27651418302E+03  0.00000000000E+00 0. -1.
         -1    1    3    3    0  502  0.48446475449E+03 -0.27424266744E+02 -0.61710761158E+02  0.48914865510E+03  0.00000000000E+00 0.  1.
         13    1    5    5    0    0 -0.82542758432E+02  0.54690996454E+01  0.13237824621E+04  0.13263646652E+04  0.00000000000E+00 0. -1.
        -13    1    5    5    0    0 -0.98283415262E+01 -0.10706339050E+02  0.26105483539E+02  0.29878391252E+02  0.00000000000E+00 0.  1.
          4    1    6    6  503    0 -0.56563931459E+03  0.53383435586E+02  0.45602716242E+03  0.72853167280E+03  0.00000000000E+00 0. -1.
         -4    1    6    6    0  503 -0.10071395292E+03  0.70351240952E+01  0.37019922127E+02  0.10753263653E+03  0.00000000000E+00 0.  1.
<mgrwt>
<rscale>  0 0.23449984E+04</rscale>
<asrwt>0</asrwt>
<pdfrwt beam="1">  1        2 0.36622338E+00 0.23449984E+04</pdfrwt>
<pdfrwt beam="2">  1       -1 0.88848955E-01 0.23449984E+04</pdfrwt>
<totfact> 0.52093271E+00</totfact>
</mgrwt>
</event>
<event>
12    7  0.1740517E-007  0.2115409E+04  0.7818608E-02  0.8554486E-01
          2   -1    0    0  501    0  0.00000000000E+00  0.00000000000E+00  0.21885786462E+04  0.21885786462E+04  0.00000000000E+00 0. -1.
         -1   -1    0    0    0  501 -0.00000000000E+00 -0.00000000000E+00 -0.51117154048E+03  0.51117154048E+03  0.00000000000E+00 0.  1.
         24    2    1    2    0    0 -0.41886499715E+03 -0.15025501951E+03  0.16477889684E+04  0.17085973925E+04  0.77923735668E+02 0.  0.
        254    2    1    2    0    0  0.41886499715E+03  0.15025501951E+03  0.29618137318E+02  0.99115279418E+03  0.88514528222E+03 0.  0.
         23    2    4    4    0    0  0.51998473631E+02 -0.34897881863E+03  0.19982667990E+02  0.36506042265E+03  0.91540963773E+02 0.  0.
         23    2    4    4    0    0  0.36686652351E+03  0.49923383814E+03  0.96354693285E+01  0.62609237153E+03  0.89851790176E+02 0.  0.
          2    1    3    3  502    0 -0.28483729837E+03 -0.63318556296E+02  0.10904171064E+04  0.11287829694E+04  0.00000000000E+00 0. -1.
         -1    1    3    3    0  502 -0.13402769877E+03 -0.86936463215E+02  0.55737186201E+03  0.57981442310E+03  0.00000000000E+00 0.  1.
         13    1    5    5    0    0  0.69881720865E+02 -0.31363523967E+03  0.14511364599E+01  0.32132946375E+03  0.00000000000E+00 0.  1.
        -13    1    5    5    0    0 -0.17883247234E+02 -0.35343578963E+02  0.18531531530E+02  0.43730958901E+02  0.00000000000E+00 0. -1.
          3    1    6    6  503    0  0.28499233406E+02  0.19067107336E+02 -0.16597661072E+02  0.38095186572E+02  0.00000000000E+00 0. -1.
         -3    1    6    6    0  503  0.33836729011E+03  0.48016673081E+03  0.26233130401E+02  0.58799718496E+03  0.00000000000E+00 0.  1.
<mgrwt>
<rscale>  0 0.21154093E+04</rscale>
<asrwt>0</asrwt>
<pdfrwt beam="1">  1        2 0.33670440E+00 0.21154093E+04</pdfrwt>
<pdfrwt beam="2">  1       -1 0.78641777E-01 0.21154093E+04</pdfrwt>
<totfact> 0.88819133E+00</totfact>
</mgrwt>
</event>
<event>
12    7  0.1740517E-007  0.3424315E+04  0.7818608E-02  0.8131964E-01
          2   -1    0    0  501    0  0.00000000000E+00  0.00000000000E+00  0.22012739881E+04  0.22012739881E+04  0.00000000000E+00 0. -1.
         -1   -1    0    0    0  501 -0.00000000000E+00 -0.00000000000E+00 -0.13317208445E+04  0.13317208445E+04  0.00000000000E+00 0.  1.
         24    2    1    2    0    0  0.12656551091E+04  0.60501492828E+03  0.11802714284E+04  0.18349314138E+04  0.77503098825E+02 0.  0.
        254    2    1    2    0    0 -0.12656551091E+04 -0.60501492828E+03 -0.31071828475E+03  0.16980634188E+04  0.90495723833E+03 0.  0.
         23    2    4    4    0    0 -0.43619964718E+03  0.62724879742E+02 -0.43052469493E+03  0.62264750513E+03  0.90187914719E+02 0.  0.
         23    2    4    4    0    0 -0.82945546188E+03 -0.66773980802E+03  0.11980641019E+03  0.10754159136E+04  0.91065893446E+02 0.  0.
          2    1    3    3  502    0  0.10087804404E+04  0.49858236000E+03  0.91011238912E+03  0.14472480463E+04  0.00000000000E+00 0. -1.
         -1    1    3    3    0  502  0.25687466867E+03  0.10643256828E+03  0.27015903927E+03  0.38768336758E+03  0.00000000000E+00 0.  1.
         13    1    5    5    0    0 -0.42470984476E+03  0.45979229628E+02 -0.42243829191E+03  0.60078835896E+03  0.00000000000E+00 0.  1.
        -13    1    5    5    0    0 -0.11489802418E+02  0.16745650114E+02 -0.80864030235E+01  0.21859146168E+02  0.00000000000E+00 0. -1.
          2    1    6    6  503    0 -0.32262974661E+03 -0.22902040407E+03  0.73847515047E+01  0.39572065076E+03  0.00000000000E+00 0. -1.
         -2    1    6    6    0  503 -0.50682571527E+03 -0.43871940395E+03  0.11242165868E+03  0.67969526289E+03  0.00000000000E+00 0.  1.
<mgrwt>
<rscale>  0 0.34243145E+04</rscale>
<asrwt>0</asrwt>
<pdfrwt beam="1">  1        2 0.33865754E+00 0.34243145E+04</pdfrwt>
<pdfrwt beam="2">  1       -1 0.20488013E+00 0.34243145E+04</pdfrwt>
<totfact> 0.67517440E-01</totfact>
</mgrwt>
</event>
<event>
12    7  0.1740517E-007  0.3180194E+04  0.7818608E-02  0.8194068E-01
         -1   -1    0    0    0  501 -0.00000000000E+00  0.00000000000E+00  0.69167525848E+03  0.69167525848E+03  0.00000000000E+00 0.  1.
          2   -1    0    0  501    0  0.00000000000E+00 -0.00000000000E+00 -0.36554847302E+04  0.36554847302E+04  0.00000000000E+00 0. -1.
         24    2    1    2    0    0 -0.63379206921E+03 -0.13082548024E+04 -0.15969455646E+04  0.21609747937E+04  0.79711401914E+02 0.  0.
        254    2    1    2    0    0  0.63379206921E+03  0.13082548024E+04 -0.13668639071E+04  0.21861851949E+04  0.89323331276E+03 0.  0.
         23    2    4    4    0    0  0.25793629171E+03  0.88874413741E+03 -0.13190398123E+04  0.16138092004E+04  0.90093488629E+02 0.  0.
         23    2    4    4    0    0  0.37585577750E+03  0.41951066502E+03 -0.47824094770E+02  0.57237599448E+03  0.89835246232E+02 0.  0.
          2    1    3    3  502    0 -0.26580785512E+03 -0.56512050194E+03 -0.74394060501E+03  0.97132004064E+03  0.00000000000E+00 0. -1.
         -1    1    3    3    0  502 -0.36798421409E+03 -0.74313430049E+03 -0.85300495962E+03  0.11896547531E+04  0.00000000000E+00 0.  1.
         13    1    5    5    0    0  0.66090618666E+02  0.24572810885E+03 -0.29605749974E+03  0.39038483130E+03  0.00000000000E+00 0. -1.
        -13    1    5    5    0    0  0.19184567305E+03  0.64301602856E+03 -0.10229823125E+04  0.12234243691E+04  0.00000000000E+00 0.  1.
          4    1    6    6  503    0  0.31445615463E+03  0.37604230174E+03 -0.66972459241E+02  0.49474821493E+03  0.00000000000E+00 0.  1.
         -4    1    6    6    0  503  0.61399622875E+02  0.43468363286E+02  0.19148364471E+02  0.77627779550E+02  0.00000000000E+00 0. -1.
<mgrwt>
<rscale>  0 0.31801939E+04</rscale>
<asrwt>0</asrwt>
<pdfrwt beam="1">  1        2 0.56238227E+00 0.31801939E+04</pdfrwt>
<pdfrwt beam="2">  1       -1 0.10641158E+00 0.31801939E+04</pdfrwt>
<totfact> 0.49674989E-01</totfact>
</mgrwt>
</event>
<event>
12    7  0.1740517E-007  0.2721032E+04  0.7818608E-02  0.8328213E-01
         -1   -1    0    0    0  501 -0.00000000000E+00  0.00000000000E+00  0.85484847452E+03  0.85484847452E+03  0.00000000000E+00 0.  1.
          2   -1    0    0  501    0  0.00000000000E+00 -0.00000000000E+00 -0.21652999393E+04  0.21652999393E+04  0.00000000000E+00 0. -1.
         24    2    1    2    0    0  0.66957966370E+03  0.47341955369E+03  0.40533921462E+03  0.91832950439E+03  0.81032091641E+02 0.  0.
        254    2    1    2    0    0 -0.66957966370E+03 -0.47341955369E+03 -0.17157906794E+04  0.21018189094E+04  0.89512126142E+03 0.  0.
         23    2    4    4    0    0  0.91052116397E+02 -0.31337418559E+03 -0.19363612328E+03  0.39022722722E+03  0.91041048602E+02 0.  0.
         23    2    4    4    0    0 -0.76063178010E+03 -0.16004536811E+03 -0.15221545561E+04  0.17115916822E+04  0.91740771437E+02 0.  0.
          2    1    3    3  502    0  0.42327386232E+02  0.25683946604E+02  0.46441130269E+01  0.49727663571E+02  0.00000000000E+00 0. -1.
         -3    1    3    3    0  502  0.62725227747E+03  0.44773560709E+03  0.40069510159E+03  0.86860184082E+03  0.00000000000E+00 0.  1.
         13    1    5    5    0    0  0.10725080002E+03 -0.29310034769E+03 -0.18530747078E+03  0.36297301091E+03  0.00000000000E+00 0.  1.
        -13    1    5    5    0    0 -0.16198683622E+02 -0.20273837898E+02 -0.83286524940E+01  0.27254216308E+02  0.00000000000E+00 0. -1.
          1    1    6    6  503    0 -0.14648180168E+02 -0.13341960368E+02 -0.66016466690E+02  0.68925691603E+02  0.00000000000E+00 0. -1.
         -1    1    6    6    0  503 -0.74598359993E+03 -0.14670340774E+03 -0.14561380894E+04  0.16426659906E+04  0.00000000000E+00 0.  1.
<mgrwt>
<rscale>  0 0.27210317E+04</rscale>
<asrwt>0</asrwt>
<pdfrwt beam="1">  1        2 0.33312306E+00 0.27210317E+04</pdfrwt>
<pdfrwt beam="2">  1       -1 0.13151515E+00 0.27210317E+04</pdfrwt>
<totfact> 0.26492196E+00</totfact>
</mgrwt>
</event>
<event>
12    7  0.1740517E-007  0.1552573E+04  0.7818608E-02  0.8850226E-01
          2   -1    0    0  501    0  0.00000000000E+00  0.00000000000E+00  0.12474706455E+04  0.12474706455E+04  0.00000000000E+00 0. -1.
         -1   -1    0    0    0  501 -0.00000000000E+00 -0.00000000000E+00 -0.48307397179E+03  0.48307397179E+03  0.00000000000E+00 0.  1.
         24    2    1    2    0    0 -0.83595553129E+02  0.56059986971E+02  0.80901345505E+03  0.81898526542E+03  0.78122697573E+02 0.  0.
        254    2    1    2    0    0  0.83595553129E+02 -0.56059986971E+02 -0.44616781346E+02  0.91155935187E+03  0.90488610121E+03 0.  0.
         23    2    4    4    0    0  0.14566788092E+03  0.26230126375E+03  0.29641445897E+03  0.43167678323E+03  0.91990375581E+02 0.  0.
         23    2    4    4    0    0 -0.62072327791E+02 -0.31836125072E+03 -0.34103124031E+03  0.47988256864E+03  0.93691584346E+02 0.  0.
          2    1    3    3  502    0 -0.84210424050E+02  0.66746924729E+02  0.78904820855E+03  0.79633135245E+03  0.00000000000E+00 0. -1.
         -1    1    3    3    0  502  0.61487092101E+00 -0.10686937758E+02  0.19965246501E+02  0.22653912967E+02  0.00000000000E+00 0.  1.
         13    1    5    5    0    0  0.12277793491E+03  0.22714432654E+03  0.20023503752E+03  0.32674613483E+03  0.00000000000E+00 0.  1.
        -13    1    5    5    0    0  0.22889946009E+02  0.35156937210E+02  0.96179421451E+02  0.10493064840E+03  0.00000000000E+00 0. -1.
          4    1    6    6  503    0  0.16845972690E+02 -0.32337856517E+02 -0.65520255804E+02  0.74982849243E+02  0.00000000000E+00 0. -1.
         -4    1    6    6    0  503 -0.78918300481E+02 -0.28602339420E+03 -0.27551098451E+03  0.40489971940E+03  0.00000000000E+00 0.  1.
<mgrwt>
<rscale>  0 0.15525728E+04</rscale>
<asrwt>0</asrwt>
<pdfrwt beam="1">  1        2 0.19191856E+00 0.15525728E+04</pdfrwt>
<pdfrwt beam="2">  1       -1 0.74319073E-01 0.15525728E+04</pdfrwt>
<totfact> 0.35492180E+01</totfact>
</mgrwt>
</event>
<event>
12    7  0.1740517E-007  0.1192274E+04  0.7818608E-02  0.9119646E-01
         -1   -1    0    0    0  501 -0.00000000000E+00  0.00000000000E+00  0.44273307713E+03  0.44273307713E+03  0.00000000000E+00 0.  1.
          2   -1    0    0  501    0  0.00000000000E+00 -0.00000000000E+00 -0.80269372501E+03  0.80269372501E+03  0.00000000000E+00 0. -1.
         24    2    1    2    0    0  0.28406011973E+03  0.13014979468E+02 -0.18638431839E+03  0.34956344533E+03  0.81215434847E+02 0.  0.
        254    2    1    2    0    0 -0.28406011973E+03 -0.13014979468E+02 -0.17357632949E+03  0.89586335681E+03  0.83161461664E+03 0.  0.
         23    2    4    4    0    0  0.45978923412E+02  0.44466878699E+01  0.29491375171E+03  0.31497270139E+03  0.10049799619E+03 0.  0.
         23    2    4    4    0    0 -0.33003904314E+03 -0.17461667337E+02 -0.46849008120E+03  0.58089065542E+03  0.93382640503E+02 0.  0.
          2    1    3    3  502    0  0.22077807856E+03  0.33310779796E+02 -0.11192306919E+03  0.24975856629E+03  0.00000000000E+00 0. -1.
         -1    1    3    3    0  502  0.63282041170E+02 -0.20295800328E+02 -0.74461249202E+02  0.99804879030E+02  0.00000000000E+00 0.  1.
         13    1    5    5    0    0  0.53615517758E+01 -0.30381110585E+02  0.24721176506E+02  0.39533462860E+02  0.00000000000E+00 0. -1.
        -13    1    5    5    0    0  0.40617371636E+02  0.34827798455E+02  0.27019257521E+03  0.27543923853E+03  0.00000000000E+00 0.  1.
          3    1    6    6  503    0 -0.12062565675E+03 -0.79533777426E+01 -0.99751059642E+02  0.15672931820E+03  0.00000000000E+00 0. -1.
         -3    1    6    6    0  503 -0.20941338638E+03 -0.95082895948E+01 -0.36873902156E+03  0.42416133722E+03  0.00000000000E+00 0.  1.
<mgrwt>
<rscale>  0 0.11922736E+04</rscale>
<asrwt>0</asrwt>
<pdfrwt beam="1">  1        2 0.12349134E+00 0.11922736E+04</pdfrwt>
<pdfrwt beam="2">  1       -1 0.68112782E-01 0.11922736E+04</pdfrwt>
<totfact> 0.84359124E+01</totfact>
</mgrwt>
</event>
<event>
12    7  0.1740517E-007  0.1587831E+04  0.7818608E-02  0.8828059E-01
          2   -1    0    0  501    0  0.00000000000E+00  0.00000000000E+00  0.13576753306E+04  0.13576753306E+04  0.00000000000E+00 0. -1.
         -1   -1    0    0    0  501 -0.00000000000E+00 -0.00000000000E+00 -0.46425095808E+03  0.46425095808E+03  0.00000000000E+00 0.  1.
         24    2    1    2    0    0 -0.34796145554E+03  0.42412927475E+03  0.29470740095E+03  0.62804549557E+03  0.81399484571E+02 0.  0.
        254    2    1    2    0    0  0.34796145554E+03 -0.42412927475E+03  0.59871697161E+03  0.11938807931E+04  0.87517228014E+03 0.  0.
         23    2    4    4    0    0  0.61129298498E+03 -0.32451175499E+03  0.26098128552E+03  0.74499065041E+03  0.88954174690E+02 0.  0.
         23    2    4    4    0    0 -0.26333152944E+03 -0.99617519762E+02  0.33773568609E+03  0.44889014274E+03  0.90387067393E+02 0.  0.
          2    1    3    3  502    0 -0.67559953824E+02  0.13840754485E+03  0.73273364319E+02  0.17055785455E+03  0.00000000000E+00 0. -1.
         -1    1    3    3    0  502 -0.28040150172E+03  0.28572172990E+03  0.22143403663E+03  0.45748764101E+03  0.00000000000E+00 0.  1.
         13    1    5    5    0    0  0.57215854573E+03 -0.30794552547E+03  0.22012499187E+03  0.68603998437E+03  0.00000000000E+00 0. -1.
        -13    1    5    5    0    0  0.39134439247E+02 -0.16566229523E+02  0.40856293646E+02  0.58950666038E+02  0.00000000000E+00 0.  1.
          1    1    6    6  503    0 -0.24078006865E+03 -0.11454730739E+03  0.28944051735E+03  0.39353772395E+03  0.00000000000E+00 0. -1.
         -1    1    6    6    0  503 -0.22551460787E+02  0.14929787627E+02  0.48295168738E+02  0.55352418788E+02  0.00000000000E+00 0.  1.
<mgrwt>
<rscale>  0 0.15878313E+04</rscale>
<asrwt>0</asrwt>
<pdfrwt beam="1">  1        2 0.20887313E+00 0.15878313E+04</pdfrwt>
<pdfrwt beam="2">  1       -1 0.71423225E-01 0.15878313E+04</pdfrwt>
<totfact> 0.33142660E+01</totfact>
</mgrwt>
</event>
<event>
12    7  0.1740517E-007  0.2107509E+04  0.7818608E-02  0.8557943E-01
          2   -1    0    0  501    0  0.00000000000E+00  0.00000000000E+00  0.14196132667E+04  0.14196132667E+04  0.00000000000E+00 0. -1.
         -1   -1    0    0    0  501 -0.00000000000E+00 -0.00000000000E+00 -0.78218377249E+03  0.78218377249E+03  0.00000000000E+00 0.  1.
         24    2    1    2    0    0  0.15241869302E+03  0.74866515496E+03 -0.19166585255E+03  0.79165222971E+03  0.79034685733E+02 0.  0.
        254    2    1    2    0    0 -0.15241869302E+03 -0.74866515496E+03  0.82909534673E+03  0.14101448095E+04  0.84698188731E+03 0.  0.
         23    2    4    4    0    0 -0.31119016457E+03 -0.63487442156E+03  0.19267095464E+03  0.73842677555E+03  0.90813855900E+02 0.  0.
         23    2    4    4    0    0  0.15877147155E+03 -0.11379073340E+03  0.63642439209E+03  0.67171803390E+03  0.89512004955E+02 0.  0.
          2    1    3    3  502    0  0.53289703196E+02  0.28031324809E+03 -0.32599129905E+02  0.28718985496E+03  0.00000000000E+00 0. -1.
         -1    1    3    3    0  502  0.99128989825E+02  0.46835190687E+03 -0.15906672264E+03  0.50446237475E+03  0.00000000000E+00 0.  1.
         13    1    5    5    0    0  0.12739300735E+01 -0.46553531938E+02  0.91695083751E+01  0.47465083141E+02  0.00000000000E+00 0. -1.
        -13    1    5    5    0    0 -0.31246409464E+03 -0.58832088962E+03  0.18350144626E+03  0.69096169241E+03  0.00000000000E+00 0.  1.
          1    1    6    6  503    0 -0.27474645435E+01  0.10367719091E+02  0.23723938783E+02  0.26035810568E+02  0.00000000000E+00 0. -1.
         -1    1    6    6    0  503  0.16151893609E+03 -0.12415845249E+03  0.61270045331E+03  0.64568222333E+03  0.00000000000E+00 0.  1.
<mgrwt>
<rscale>  0 0.21075089E+04</rscale>
<asrwt>0</asrwt>
<pdfrwt beam="1">  1        2 0.21840204E+00 0.21075089E+04</pdfrwt>
<pdfrwt beam="2">  1       -1 0.12033597E+00 0.21075089E+04</pdfrwt>
<totfact> 0.90995434E+00</totfact>
</mgrwt>
</event>
<event>
12    7  0.1740517E-007  0.2868273E+04  0.7818608E-02  0.8282380E-01
          2   -1    0    0  501    0  0.00000000000E+00  0.00000000000E+00  0.22138923834E+04  0.22138923834E+04  0.00000000000E+00 0. -1.
         -1   -1    0    0    0  501 -0.00000000000E+00 -0.00000000000E+00 -0.92901857592E+03  0.92901857592E+03  0.00000000000E+00 0.  1.
         24    2    1    2    0    0  0.38252005576E+03 -0.10214081183E+04 -0.19285101623E+03  0.11108051810E+04  0.84264455558E+02 0.  0.
        254    2    1    2    0    0 -0.38252005576E+03  0.10214081183E+04  0.14777248237E+04  0.20321057784E+04  0.86959019242E+03 0.  0.
         23    2    4    4    0    0 -0.36450421501E+03  0.78121155181E+03  0.15409043088E+04  0.17680642811E+04  0.92251839236E+02 0.  0.
         23    2    4    4    0    0 -0.18015840742E+02  0.24019656645E+03 -0.63179485066E+02  0.26404149727E+03  0.87791251817E+02 0.  0.
          2    1    3    3  502    0  0.12933639768E+03 -0.24391674302E+03 -0.57305683548E+02  0.28197025137E+03  0.00000000000E+00 0. -1.
         -1    1    3    3    0  502  0.25318365808E+03 -0.77749137524E+03 -0.13554533268E+03  0.82883492959E+03  0.00000000000E+00 0.  1.
         13    1    5    5    0    0 -0.30074745523E+03  0.63248739852E+03  0.11733895553E+04  0.13665037100E+04  0.00000000000E+00 0. -1.
        -13    1    5    5    0    0 -0.63756759786E+02  0.14872415329E+03  0.36751475350E+03  0.40156057106E+03  0.00000000000E+00 0.  1.
          1    1    6    6  503    0 -0.71795667903E+00  0.64975059204E+02 -0.59231341434E+02  0.87923976187E+02  0.00000000000E+00 0. -1.
         -1    1    6    6    0  503 -0.17297884063E+02  0.17522150725E+03 -0.39481436322E+01  0.17611752108E+03  0.00000000000E+00 0.  1.
<mgrwt>
<rscale>  0 0.28682728E+04</rscale>
<asrwt>0</asrwt>
<pdfrwt beam="1">  1        2 0.34059883E+00 0.28682728E+04</pdfrwt>
<pdfrwt beam="2">  1       -1 0.14292593E+00 0.28682728E+04</pdfrwt>
<totfact> 0.19808298E+00</totfact>
</mgrwt>
</event>
<event>
12    7  0.1740517E-007  0.1673626E+04  0.7818608E-02  0.8776551E-01
         -1   -1    0    0    0  501 -0.00000000000E+00  0.00000000000E+00  0.43371098844E+03  0.43371098844E+03  0.00000000000E+00 0.  1.
          2   -1    0    0  501    0  0.00000000000E+00 -0.00000000000E+00 -0.16145687279E+04  0.16145687279E+04  0.00000000000E+00 0. -1.
         24    2    1    2    0    0 -0.50958184595E+02  0.10375927386E+03  0.28012825629E+03  0.31361372905E+03  0.80740371490E+02 0.  0.
        254    2    1    2    0    0  0.50958184595E+02 -0.10375927386E+03 -0.14609859958E+04  0.17346659873E+04  0.92802116579E+03 0.  0.
         23    2    4    4    0    0 -0.22626932869E+03 -0.31580150473E+03 -0.12596487439E+04  0.13215701088E+04  0.94362041359E+02 0.  0.
         23    2    4    4    0    0  0.27722751329E+03  0.21204223087E+03 -0.20133725183E+03  0.41309587851E+03  0.91074222873E+02 0.  0.
          4    1    3    3  502    0 -0.12805790085E+02 -0.10743324312E+02  0.63179877706E+02  0.65353685619E+02  0.00000000000E+00 0. -1.
         -3    1    3    3    0  502 -0.38152394510E+02  0.11450259817E+03  0.21694837859E+03  0.24826004343E+03  0.00000000000E+00 0.  1.
         13    1    5    5    0    0 -0.11543841961E+03 -0.10818457368E+03 -0.62425826109E+03  0.64399402733E+03  0.00000000000E+00 0.  1.
        -13    1    5    5    0    0 -0.11083090908E+03 -0.20761693105E+03 -0.63539048283E+03  0.67757608144E+03  0.00000000000E+00 0. -1.
          4    1    6    6  503    0  0.27387155366E+03  0.19134118377E+03 -0.16861451546E+03  0.37422978414E+03  0.00000000000E+00 0. -1.
         -4    1    6    6    0  503  0.33559596248E+01  0.20701047096E+02 -0.32722736377E+02  0.38866094374E+02  0.00000000000E+00 0.  1.
<mgrwt>
<rscale>  0 0.16736262E+04</rscale>
<asrwt>0</asrwt>
<pdfrwt beam="1">  1        2 0.24839519E+00 0.16736262E+04</pdfrwt>
<pdfrwt beam="2">  1       -1 0.66724767E-01 0.16736262E+04</pdfrwt>
<totfact> 0.27055087E+01</totfact>
</mgrwt>
</event>
<event>
12    7  0.1740517E-007  0.1164510E+04  0.7818608E-02  0.9144501E-01
          2   -1    0    0  501    0  0.00000000000E+00  0.00000000000E+00  0.22658573670E+04  0.22658573670E+04  0.00000000000E+00 0. -1.
         -1   -1    0    0    0  501 -0.00000000000E+00 -0.00000000000E+00 -0.14962147373E+03  0.14962147373E+03  0.00000000000E+00 0.  1.
         24    2    1    2    0    0  0.14464497144E+03  0.12195102332E+03  0.60484045440E+03  0.64016283137E+03  0.90455820939E+02 0.  0.
        254    2    1    2    0    0 -0.14464497144E+03 -0.12195102332E+03  0.15113954388E+04  0.17753160093E+04  0.91194108393E+03 0.  0.
         23    2    4    4    0    0 -0.22244119362E+03 -0.31522068805E+03  0.14943843905E+04  0.15467659481E+04  0.10225470523E+03 0.  0.
         23    2    4    4    0    0  0.77796222179E+02  0.19326966474E+03  0.17011048292E+02  0.22855006121E+03  0.92413955771E+02 0.  0.
          4    1    3    3  502    0  0.14390147350E+03  0.13406597857E+03  0.55340290092E+03  0.58731260112E+03  0.00000000000E+00 0. -1.
         -3    1    3    3    0  502  0.74349794955E+00 -0.12114955259E+02  0.51437553474E+02  0.52850230250E+02  0.00000000000E+00 0.  1.
         13    1    5    5    0    0 -0.23348665287E+03 -0.29731545183E+03  0.14100493129E+04  0.14598464165E+04  0.00000000000E+00 0.  1.
        -13    1    5    5    0    0  0.11045459244E+02 -0.17905236218E+02  0.84335077686E+02  0.86919531650E+02  0.00000000000E+00 0. -1.
          4    1    6    6  503    0  0.14075484289E+02 -0.20494853440E+01 -0.14941977273E+02  0.20629646942E+02  0.00000000000E+00 0. -1.
         -4    1    6    6    0  503  0.63720737890E+02  0.19531915008E+03  0.31953025565E+02  0.20792041426E+03  0.00000000000E+00 0.  1.
<mgrwt>
<rscale>  0 0.11645101E+04</rscale>
<asrwt>0</asrwt>
<pdfrwt beam="1">  1        2 0.34859342E+00 0.11645101E+04</pdfrwt>
<pdfrwt beam="2">  1       -1 0.23018690E-01 0.11645101E+04</pdfrwt>
<totfact> 0.86497643E+01</totfact>
</mgrwt>
</event>
<event>
12    7  0.1740517E-007  0.1372760E+04  0.7818608E-02  0.8973776E-01
         -1   -1    0    0    0  501 -0.00000000000E+00  0.00000000000E+00  0.24229882051E+03  0.24229882051E+03  0.00000000000E+00 0.  1.
          2   -1    0    0  501    0  0.00000000000E+00 -0.00000000000E+00 -0.19443646680E+04  0.19443646680E+04  0.00000000000E+00 0. -1.
         24    2    1    2    0    0  0.32131713677E+03 -0.40040060842E+02 -0.81541759828E+03  0.88085633717E+03  0.78448188586E+02 0.  0.
        254    2    1    2    0    0 -0.32131713677E+03  0.40040060842E+02 -0.88664824923E+03  0.13058071514E+04  0.90229667507E+03 0.  0.
         23    2    4    4    0    0 -0.30658665763E+03  0.44219690064E+03 -0.51482025502E+03  0.75025729071E+03  0.91173624037E+02 0.  0.
         23    2    4    4    0    0 -0.14730479139E+02 -0.40215683980E+03 -0.37182799421E+03  0.55554986065E+03  0.91828533577E+02 0.  0.
          4    1    3    3  502    0  0.26915268246E+03 -0.19793484645E+02 -0.59327359049E+03  0.65177335146E+03  0.00000000000E+00 0. -1.
         -3    1    3    3    0  502  0.52164454310E+02 -0.20246576197E+02 -0.22214400780E+03  0.22908298571E+03  0.00000000000E+00 0.  1.
         13    1    5    5    0    0 -0.14607666231E+03  0.20705539962E+03 -0.18035120026E+03  0.31102553788E+03  0.00000000000E+00 0.  1.
        -13    1    5    5    0    0 -0.16050999532E+03  0.23514150102E+03 -0.33446905476E+03  0.43923175283E+03  0.00000000000E+00 0. -1.
          1    1    6    6  503    0 -0.38216944765E+02 -0.34596763456E+03 -0.34107366564E+03  0.48732472175E+03  0.00000000000E+00 0. -1.
         -1    1    6    6    0  503  0.23486465626E+02 -0.56189205235E+02 -0.30754328566E+02  0.68225138901E+02  0.00000000000E+00 0.  1.
<mgrwt>
<rscale>  0 0.13727597E+04</rscale>
<asrwt>0</asrwt>
<pdfrwt beam="1">  1        2 0.29913302E+00 0.13727597E+04</pdfrwt>
<pdfrwt beam="2">  1       -1 0.37276742E-01 0.13727597E+04</pdfrwt>
<totfact> 0.55228789E+01</totfact>
</mgrwt>
</event>
<event>
12    7  0.1740517E-007  0.1494036E+04  0.7818608E-02  0.8888429E-01
          2   -1    0    0  501    0  0.00000000000E+00  0.00000000000E+00  0.18280251693E+04  0.18280251693E+04  0.00000000000E+00 0. -1.
         -1   -1    0    0    0  501 -0.00000000000E+00 -0.00000000000E+00 -0.30526714266E+03  0.30526714266E+03  0.00000000000E+00 0.  1.
         24    2    1    2    0    0  0.40289024749E+03  0.72105257496E+02  0.15348327717E+03  0.44434420786E+03  0.79780567847E+02 0.  0.
        254    2    1    2    0    0 -0.40289024749E+03 -0.72105257496E+02  0.13692747495E+04  0.16889481041E+04  0.90006257513E+03 0.  0.
         23    2    4    4    0    0 -0.61956994992E+03  0.16078423303E+03  0.78078668009E+03  0.10137142753E+04  0.90941188010E+02 0.  0.
         23    2    4    4    0    0  0.21667970243E+03 -0.23288949052E+03  0.58848806939E+03  0.67523382883E+03  0.91841752684E+02 0.  0.
          2    1    3    3  502    0  0.15711860991E+03  0.30270013966E+02  0.19151165818E+02  0.16114992546E+03  0.00000000000E+00 0. -1.
         -1    1    3    3    0  502  0.24577163758E+03  0.41835243530E+02  0.13433211135E+03  0.28319428239E+03  0.00000000000E+00 0.  1.
         13    1    5    5    0    0 -0.37730245319E+03  0.58898297362E+02  0.49952265107E+03  0.62876786618E+03  0.00000000000E+00 0.  1.
        -13    1    5    5    0    0 -0.24226749673E+03  0.10188593567E+03  0.28126402902E+03  0.38494640910E+03  0.00000000000E+00 0. -1.
          3    1    6    6  503    0 -0.59757858868E+01  0.27195486799E+01  0.16711433811E+02  0.17954887412E+02  0.00000000000E+00 0. -1.
         -3    1    6    6    0  503  0.22265548832E+03 -0.23560903920E+03  0.57177663558E+03  0.65727894141E+03  0.00000000000E+00 0.  1.
<mgrwt>
<rscale>  0 0.14940362E+04</rscale>
<asrwt>0</asrwt>
<pdfrwt beam="1">  1        2 0.28123464E+00 0.14940362E+04</pdfrwt>
<pdfrwt beam="2">  1       -1 0.46964177E-01 0.14940362E+04</pdfrwt>
<totfact> 0.41437890E+01</totfact>
</mgrwt>
</event>
<event>
12    7  0.1740517E-007  0.1073188E+04  0.7818608E-02  0.9231726E-01
         -1   -1    0    0    0  501 -0.00000000000E+00  0.00000000000E+00  0.31149019031E+03  0.31149019031E+03  0.00000000000E+00 0.  1.
          2   -1    0    0  501    0  0.00000000000E+00 -0.00000000000E+00 -0.92437342480E+03  0.92437342480E+03  0.00000000000E+00 0. -1.
         24    2    1    2    0    0  0.11472870379E+03  0.10705795468E+03 -0.71343235995E+02  0.19508781459E+03  0.91352706293E+02 0.  0.
        254    2    1    2    0    0 -0.11472870379E+03 -0.10705795468E+03 -0.54153999849E+03  0.10407758005E+04  0.87482833507E+03 0.  0.
         23    2    4    4    0    0 -0.31276779542E+03  0.22161100625E+03 -0.31315670112E+02  0.39535954294E+03  0.91615310182E+02 0.  0.
         23    2    4    4    0    0  0.19803909163E+03 -0.32866896092E+03 -0.51022432838E+03  0.64541625757E+03  0.94818313494E+02 0.  0.
          4    1    3    3  502    0  0.71169035767E+02  0.66764319369E+02 -0.90138852785E+02  0.13284396401E+03  0.00000000000E+00 0. -1.
         -3    1    3    3    0  502  0.43559668023E+02  0.40293635308E+02  0.18795616790E+02  0.62243850581E+02  0.00000000000E+00 0.  1.
         13    1    5    5    0    0 -0.28320865833E+03  0.19535705234E+03  0.13830197654E+01  0.34405440674E+03  0.00000000000E+00 0. -1.
        -13    1    5    5    0    0 -0.29559137089E+02  0.26253953901E+02 -0.32698689877E+02  0.51305136201E+02  0.00000000000E+00 0.  1.
          1    1    6    6  503    0  0.15657234106E+03 -0.23172436577E+03 -0.29941250580E+03  0.40970590465E+03  0.00000000000E+00 0. -1.
         -1    1    6    6    0  503  0.41466750573E+02 -0.96944595151E+02 -0.21081182259E+03  0.23571035292E+03  0.00000000000E+00 0.  1.
<mgrwt>
<rscale>  0 0.10731882E+04</rscale>
<asrwt>0</asrwt>
<pdfrwt beam="1">  1        2 0.14221130E+00 0.10731882E+04</pdfrwt>
<pdfrwt beam="2">  1       -1 0.47921568E-01 0.10731882E+04</pdfrwt>
<totfact> 0.13929475E+02</totfact>
</mgrwt>
</event>
<event>
12    7  0.1740517E-007  0.1368625E+04  0.7818608E-02  0.8976848E-01
          4   -1    0    0  501    0  0.00000000000E+00  0.00000000000E+00  0.65223844045E+03  0.65223844045E+03  0.00000000000E+00 0. -1.
         -3   -1    0    0    0  501 -0.00000000000E+00 -0.00000000000E+00 -0.71796398554E+03  0.71796398554E+03  0.00000000000E+00 0.  1.
         24    2    1    2    0    0 -0.51604429457E+02  0.33961552744E+03 -0.18207833572E+03  0.39649790080E+03  0.77822499180E+02 0.  0.
        254    2    1    2    0    0  0.51604429457E+02 -0.33961552744E+03  0.11635279063E+03  0.97370452519E+03  0.90363754176E+03 0.  0.
         23    2    4    4    0    0  0.30515914495E+03  0.17637827031E+03 -0.51311990400E+02  0.36801450511E+03  0.92576226031E+02 0.  0.
         23    2    4    4    0    0 -0.25355471549E+03 -0.51599379776E+03  0.16766478103E+03  0.60569002008E+03  0.90605345080E+02 0.  0.
          4    1    3    3  502    0 -0.22448652871E+02  0.18405123033E+03 -0.54646147228E+02  0.19330028145E+03  0.00000000000E+00 0. -1.
         -3    1    3    3    0  502 -0.29155776586E+02  0.15556429711E+03 -0.12743218850E+03  0.20319761935E+03  0.00000000000E+00 0.  1.
         13    1    5    5    0    0  0.24794971914E+03  0.16315517128E+03 -0.72587570846E+02  0.30556116995E+03  0.00000000000E+00 0. -1.
        -13    1    5    5    0    0  0.57209425810E+02  0.13223099031E+02  0.21275580446E+02  0.62453335162E+02  0.00000000000E+00 0.  1.
          4    1    6    6  503    0 -0.74976145838E+02 -0.24406996763E+03  0.53118269431E+02  0.26079325545E+03  0.00000000000E+00 0. -1.
         -4    1    6    6    0  503 -0.17857856966E+03 -0.27192383013E+03  0.11454651160E+03  0.34489676463E+03  0.00000000000E+00 0.  1.
<mgrwt>
<rscale>  0 0.13686252E+04</rscale>
<asrwt>0</asrwt>
<pdfrwt beam="1">  1        4 0.10034438E+00 0.13686252E+04</pdfrwt>
<pdfrwt beam="2">  1       -3 0.11045600E+00 0.13686252E+04</pdfrwt>
<totfact> 0.12615384E+00</totfact>
</mgrwt>
</event>
<event>
12    7  0.1740517E-007  0.3214235E+04  0.7818608E-02  0.8185068E-01
          2   -1    0    0  501    0  0.00000000000E+00  0.00000000000E+00  0.15524315722E+04  0.15524315722E+04  0.00000000000E+00 0. -1.
         -1   -1    0    0    0  501 -0.00000000000E+00 -0.00000000000E+00 -0.16637300141E+04  0.16637300141E+04  0.00000000000E+00 0.  1.
         24    2    1    2    0    0  0.37517028120E+03  0.64245921716E+03  0.12272197714E+04  0.14372445188E+04  0.78082354655E+02 0.  0.
        254    2    1    2    0    0 -0.37517028120E+03 -0.64245921716E+03 -0.13385182133E+04  0.17789170675E+04  0.90521176536E+03 0.  0.
         23    2    4    4    0    0 -0.56068465144E+03 -0.33609514494E+03 -0.12244206123E+04  0.13910916363E+04  0.92751712155E+02 0.  0.
         23    2    4    4    0    0  0.18551437024E+03 -0.30636407222E+03 -0.11409760098E+03  0.38782543115E+03  0.95476573990E+02 0.  0.
          2    1    3    3  502    0  0.33585935470E+03  0.53055765891E+03  0.10642124168E+04  0.12356540793E+04  0.00000000000E+00 0. -1.
         -1    1    3    3    0  502  0.39310926500E+02  0.11190155825E+03  0.16300735453E+03  0.20159043953E+03  0.00000000000E+00 0.  1.
         13    1    5    5    0    0 -0.18757335430E+03 -0.80515441285E+02 -0.45319682076E+03  0.49704512660E+03  0.00000000000E+00 0. -1.
        -13    1    5    5    0    0 -0.37311129714E+03 -0.25557970366E+03 -0.77122379151E+03  0.89404650973E+03  0.00000000000E+00 0.  1.
          3    1    6    6  503    0 -0.25153025199E+01 -0.62013916708E+02 -0.24762925192E+02  0.66822564125E+02  0.00000000000E+00 0. -1.
         -3    1    6    6    0  503  0.18802967276E+03 -0.24435015551E+03 -0.89334675788E+02  0.32100286702E+03  0.00000000000E+00 0.  1.
<mgrwt>
<rscale>  0 0.32142352E+04</rscale>
<asrwt>0</asrwt>
<pdfrwt beam="1">  1        2 0.23883563E+00 0.32142352E+04</pdfrwt>
<pdfrwt beam="2">  1       -1 0.25595846E+00 0.32142352E+04</pdfrwt>
<totfact> 0.72383299E-01</totfact>
</mgrwt>
</event>
<event>
12    7  0.1740517E-007  0.1992648E+04  0.7818608E-02  0.8610066E-01
         -1   -1    0    0    0  501 -0.00000000000E+00  0.00000000000E+00  0.50764680504E+03  0.50764680504E+03  0.00000000000E+00 0.  1.
          2   -1    0    0  501    0  0.00000000000E+00 -0.00000000000E+00 -0.19554182148E+04  0.19554182148E+04  0.00000000000E+00 0. -1.
         24    2    1    2    0    0 -0.41855593299E+03 -0.50641679579E+03 -0.11176332428E+04  0.12989279658E+04  0.80391259862E+02 0.  0.
        254    2    1    2    0    0  0.41855593299E+03  0.50641679579E+03 -0.33013816694E+03  0.11641370541E+04  0.90253910238E+03 0.  0.
         23    2    4    4    0    0  0.36367049101E+03  0.14166571040E+03  0.24855759144E+03  0.47177909890E+03  0.92028486684E+02 0.  0.
         23    2    4    4    0    0  0.54885441983E+02  0.36475108539E+03 -0.57869575838E+03  0.69235795519E+03  0.91733261723E+02 0.  0.
          4    1    3    3  502    0 -0.39077730888E+03 -0.48151345252E+03 -0.10118783978E+04  0.11867855754E+04  0.00000000000E+00 0. -1.
         -3    1    3    3    0  502 -0.27778624108E+02 -0.24903343268E+02 -0.10575484506E+03  0.11214239037E+03  0.00000000000E+00 0.  1.
         13    1    5    5    0    0  0.31857736891E+03  0.15239754171E+03  0.23208159600E+03  0.42258539717E+03  0.00000000000E+00 0. -1.
        -13    1    5    5    0    0  0.45093122095E+02 -0.10731831311E+02  0.16475995442E+02  0.49193701725E+02  0.00000000000E+00 0.  1.
          4    1    6    6  503    0  0.72728063519E+01  0.28295333679E+03 -0.46560033998E+03  0.54488453924E+03  0.00000000000E+00 0. -1.
         -4    1    6    6    0  503  0.47612635631E+02  0.81797748603E+02 -0.11309541841E+03  0.14747341595E+03  0.00000000000E+00 0.  1.
<mgrwt>
<rscale>  0 0.19926483E+04</rscale>
<asrwt>0</asrwt>
<pdfrwt beam="1">  1        2 0.30083358E+00 0.19926483E+04</pdfrwt>
<pdfrwt beam="2">  1       -1 0.78099506E-01 0.19926483E+04</pdfrwt>
<totfact> 0.12291335E+01</totfact>
</mgrwt>
</event>
<event>
12    7  0.1740517E-007  0.1833375E+04  0.7818608E-02  0.8688749E-01
         -1   -1    0    0    0  501 -0.00000000000E+00  0.00000000000E+00  0.22674261759E+03  0.22674261759E+03  0.00000000000E+00 0.  1.
          2   -1    0    0  501    0  0.00000000000E+00 -0.00000000000E+00 -0.37060360584E+04  0.37060360584E+04  0.00000000000E+00 0. -1.
         24    2    1    2    0    0 -0.43607719984E+03 -0.53156233378E+03 -0.12709192749E+04  0.14471441872E+04  0.79174845936E+02 0.  0.
        254    2    1    2    0    0  0.43607719984E+03  0.53156233378E+03 -0.22083741659E+04  0.24856344888E+04  0.91035186408E+03 0.  0.
         23    2    4    4    0    0  0.62076470091E+03  0.72112649414E+02 -0.13526145659E+04  0.14929369886E+04  0.93518125604E+02 0.  0.
         23    2    4    4    0    0 -0.18468750107E+03  0.45944968436E+03 -0.85575959995E+03  0.99269750020E+03  0.88996339813E+02 0.  0.
          2    1    3    3  502    0 -0.22697623093E+03 -0.31224185493E+03 -0.77862107674E+03  0.86905924224E+03  0.00000000000E+00 0. -1.
         -1    1    3    3    0  502 -0.20910096891E+03 -0.21932047885E+03 -0.49229819816E+03  0.57808494493E+03  0.00000000000E+00 0.  1.
         13    1    5    5    0    0  0.86329687093E+02  0.28188527016E+02 -0.13779250591E+03  0.16502782376E+03  0.00000000000E+00 0. -1.
        -13    1    5    5    0    0  0.53443501382E+03  0.43924122398E+02 -0.12148220600E+04  0.13279091648E+04  0.00000000000E+00 0.  1.
          2    1    6    6  503    0 -0.17462433050E+03  0.33173285373E+03 -0.64692641689E+03  0.74769922557E+03  0.00000000000E+00 0.  1.
         -2    1    6    6    0  503 -0.10063170567E+02  0.12771683064E+03 -0.20883318306E+03  0.24499827464E+03  0.00000000000E+00 0. -1.
<mgrwt>
<rscale>  0 0.18333754E+04</rscale>
<asrwt>0</asrwt>
<pdfrwt beam="1">  1        2 0.57015933E+00 0.18333754E+04</pdfrwt>
<pdfrwt beam="2">  1       -1 0.34883483E-01 0.18333754E+04</pdfrwt>
<totfact> 0.48826051E+00</totfact>
</mgrwt>
</event>
<event>
12    7  0.1740517E-007  0.1089892E+04  0.7818608E-02  0.9215100E-01
         -1   -1    0    0    0  501 -0.00000000000E+00  0.00000000000E+00  0.25167291714E+03  0.25167291714E+03  0.00000000000E+00 0.  1.
          2   -1    0    0  501    0  0.00000000000E+00 -0.00000000000E+00 -0.11799681297E+04  0.11799681297E+04  0.00000000000E+00 0. -1.
         24    2    1    2    0    0  0.41035125766E+01 -0.27072420820E+02  0.51596754740E+02  0.99131436103E+02  0.80094080553E+02 0.  0.
        254    2    1    2    0    0 -0.41035125766E+01  0.27072420820E+02 -0.97989196727E+03  0.13325096107E+04  0.90257622410E+03 0.  0.
         23    2    4    4    0    0 -0.24706450668E+03  0.33859196862E+03 -0.24863525527E+03  0.49607940128E+03  0.92681662324E+02 0.  0.
         23    2    4    4    0    0  0.24296099411E+03 -0.31151954780E+03 -0.73125671200E+03  0.83643020942E+03  0.93833059549E+02 0.  0.
          4    1    3    3  502    0  0.26155020895E+02  0.19819716352E+02  0.20773328212E+02  0.38838607587E+02  0.00000000000E+00 0. -1.
         -3    1    3    3    0  502 -0.22051508318E+02 -0.46892137172E+02  0.30823426527E+02  0.60292828517E+02  0.00000000000E+00 0.  1.
         13    1    5    5    0    0 -0.23318069192E+03  0.30476561506E+03 -0.25242504735E+03  0.45931875613E+03  0.00000000000E+00 0. -1.
        -13    1    5    5    0    0 -0.13883814762E+02  0.33826353564E+02  0.37897920721E+01  0.36760645148E+02  0.00000000000E+00 0.  1.
          3    1    6    6  503    0  0.21970137424E+03 -0.27084018645E+03 -0.69350525049E+03  0.77625552037E+03  0.00000000000E+00 0. -1.
         -3    1    6    6    0  503  0.23259619869E+02 -0.40679361358E+02 -0.37751461506E+02  0.60174689054E+02  0.00000000000E+00 0.  1.
<mgrwt>
<rscale>  0 0.10898918E+04</rscale>
<asrwt>0</asrwt>
<pdfrwt beam="1">  1        2 0.18153356E+00 0.10898918E+04</pdfrwt>
<pdfrwt beam="2">  1       -1 0.38718910E-01 0.10898918E+04</pdfrwt>
<totfact> 0.14242229E+02</totfact>
</mgrwt>
</event>
<event>
12    7  0.1740517E-007  0.1761162E+04  0.7818608E-02  0.8727230E-01
         -1   -1    0    0    0  501 -0.00000000000E+00  0.00000000000E+00  0.15492325479E+03  0.15492325479E+03  0.00000000000E+00 0.  1.
          2   -1    0    0  501    0  0.00000000000E+00 -0.00000000000E+00 -0.50052072326E+04  0.50052072326E+04  0.00000000000E+00 0. -1.
         24    2    1    2    0    0 -0.62915233756E+01  0.46582182216E+03 -0.48080576355E+03  0.67426717171E+03  0.80202763778E+02 0.  0.
        254    2    1    2    0    0  0.62915233756E+01 -0.46582182216E+03 -0.43694782143E+04  0.44858633157E+04  0.90199793167E+03 0.  0.
         23    2    4    4    0    0  0.37164979951E+03  0.37895214423E+01 -0.22502979346E+04  0.22827050797E+04  0.93614915071E+02 0.  0.
         23    2    4    4    0    0 -0.36535827613E+03 -0.46961134360E+03 -0.21191802796E+04  0.22031582360E+04  0.94655539711E+02 0.  0.
          4    1    3    3  502    0  0.10558713702E+02  0.13403507501E+02 -0.56844262770E+01  0.17984803321E+02  0.00000000000E+00 0. -1.
         -3    1    3    3    0  502 -0.16850237078E+02  0.45241831466E+03 -0.47512133727E+03  0.65628236839E+03  0.00000000000E+00 0.  1.
         13    1    5    5    0    0  0.13993372346E+03 -0.45082147639E+01 -0.11318370471E+04  0.11404634463E+04  0.00000000000E+00 0.  1.
        -13    1    5    5    0    0  0.23171607605E+03  0.82977362063E+01 -0.11184608875E+04  0.11422416335E+04  0.00000000000E+00 0. -1.
          2    1    6    6  503    0 -0.35274169549E+03 -0.40704251975E+03 -0.19015683226E+04  0.19763786080E+04  0.00000000000E+00 0. -1.
         -2    1    6    6    0  503 -0.12616580645E+02 -0.62568823850E+02 -0.21761195702E+03  0.22677962798E+03  0.00000000000E+00 0.  1.
<mgrwt>
<rscale>  0 0.17611621E+04</rscale>
<asrwt>0</asrwt>
<pdfrwt beam="1">  1        2 0.77003192E+00 0.17611621E+04</pdfrwt>
<pdfrwt beam="2">  1       -1 0.23834346E-01 0.17611621E+04</pdfrwt>
<totfact> 0.57444452E-01</totfact>
</mgrwt>
</event>
<event>
12    7  0.1740517E-007  0.1952817E+04  0.7818608E-02  0.8629004E-01
         -1   -1    0    0    0  501 -0.00000000000E+00  0.00000000000E+00  0.22222002852E+03  0.22222002852E+03  0.00000000000E+00 0.  1.
          2   -1    0    0  501    0  0.00000000000E+00 -0.00000000000E+00 -0.42902219216E+04  0.42902219216E+04  0.00000000000E+00 0. -1.
         24    2    1    2    0    0  0.41320422613E+03  0.57713533092E+03 -0.22633814923E+04  0.23734392740E+04  0.80593329055E+02 0.  0.
        254    2    1    2    0    0 -0.41320422613E+03 -0.57713533092E+03 -0.18046204007E+04  0.21390026761E+04  0.90269304587E+03 0.  0.
         23    2    4    4    0    0 -0.14583985801E+03 -0.44401630637E+03 -0.22289904994E+03  0.52658497421E+03  0.95854077078E+02 0.  0.
         23    2    4    4    0    0 -0.26736436812E+03 -0.13311902455E+03 -0.15817213508E+04  0.16124177019E+04  0.94042723671E+02 0.  0.
          4    1    3    3  502    0  0.37570495041E+03  0.55185010489E+03 -0.20773536255E+04  0.21819923999E+04  0.00000000000E+00 0. -1.
         -3    1    3    3    0  502  0.37499275717E+02  0.25285226025E+02 -0.18602786688E+03  0.19144687406E+03  0.00000000000E+00 0.  1.
         13    1    5    5    0    0 -0.14228211980E+03 -0.30516423428E+03 -0.13864975301E+03  0.36413344464E+03  0.00000000000E+00 0.  1.
        -13    1    5    5    0    0 -0.35577382097E+01 -0.13885207209E+03 -0.84249296932E+02  0.16245152957E+03  0.00000000000E+00 0. -1.
          1    1    6    6  503    0 -0.39622661842E+02  0.82966097599E+01 -0.13017258526E+03  0.13632201223E+03  0.00000000000E+00 0. -1.
         -1    1    6    6    0  503 -0.22774170628E+03 -0.14141563431E+03 -0.14515487655E+04  0.14760956897E+04  0.00000000000E+00 0.  1.
<mgrwt>
<rscale>  0 0.19528167E+04</rscale>
<asrwt>0</asrwt>
<pdfrwt beam="1">  1        2 0.66003414E+00 0.19528167E+04</pdfrwt>
<pdfrwt beam="2">  1       -1 0.34187697E-01 0.19528167E+04</pdfrwt>
<totfact> 0.16881193E+00</totfact>
</mgrwt>
</event>
<event>
12    7  0.1740517E-007  0.1356582E+04  0.7818608E-02  0.8985860E-01
          2   -1    0    0  501    0  0.00000000000E+00  0.00000000000E+00  0.12343215577E+04  0.12343215577E+04  0.00000000000E+00 0. -1.
         -1   -1    0    0    0  501 -0.00000000000E+00 -0.00000000000E+00 -0.37273830012E+03  0.37273830012E+03  0.00000000000E+00 0.  1.
         24    2    1    2    0    0  0.10321526639E+03 -0.36426514920E+03  0.24625100210E+03  0.45895109939E+03  0.81572455278E+02 0.  0.
        254    2    1    2    0    0 -0.10321526639E+03  0.36426514920E+03  0.61533225550E+03  0.11481087585E+04  0.89228775988E+03 0.  0.
         23    2    4    4    0    0 -0.21888731248E+02 -0.27978027448E+03  0.29915069797E+03  0.42039556132E+03  0.92114978885E+02 0.  0.
         23    2    4    4    0    0 -0.81326535144E+02  0.64404542368E+03  0.31618155753E+03  0.72771319713E+03  0.90483185621E+02 0.  0.
          4    1    3    3  502    0  0.73382847127E+02 -0.15704467651E+03  0.14689656945E+03  0.22721504085E+03  0.00000000000E+00 0. -1.
         -1    1    3    3    0  502  0.29832419265E+02 -0.20722047269E+03  0.99354432649E+02  0.23173605854E+03  0.00000000000E+00 0.  1.
         13    1    5    5    0    0 -0.39841154757E+02 -0.27340683584E+03  0.28108854931E+03  0.39414386720E+03  0.00000000000E+00 0.  1.
        -13    1    5    5    0    0  0.17952423509E+02 -0.63734386429E+01  0.18062148657E+02  0.26251694119E+02  0.00000000000E+00 0. -1.
          4    1    6    6  503    0 -0.94231105199E+02  0.57127081390E+03  0.29982109006E+03  0.65201421001E+03  0.00000000000E+00 0.  1.
         -4    1    6    6    0  503  0.12904570055E+02  0.72774609776E+02  0.16360467469E+02  0.75698987127E+02  0.00000000000E+00 0. -1.
<mgrwt>
<rscale>  0 0.13565824E+04</rscale>
<asrwt>0</asrwt>
<pdfrwt beam="1">  1        2 0.18989562E+00 0.13565824E+04</pdfrwt>
<pdfrwt beam="2">  1       -1 0.57344354E-01 0.13565824E+04</pdfrwt>
<totfact> 0.61935518E+01</totfact>
</mgrwt>
</event>
<event>
12    7  0.1740517E-007  0.1424492E+04  0.7818608E-02  0.8936279E-01
         -1   -1    0    0    0  501 -0.00000000000E+00  0.00000000000E+00  0.40622794633E+03  0.40622794633E+03  0.00000000000E+00 0.  1.
          2   -1    0    0  501    0  0.00000000000E+00 -0.00000000000E+00 -0.12487918448E+04  0.12487918448E+04  0.00000000000E+00 0. -1.
         24    2    1    2    0    0 -0.28950284293E+03 -0.27000392303E+03 -0.42206849106E+03  0.58532272288E+03  0.88016272689E+02 0.  0.
        254    2    1    2    0    0  0.28950284293E+03  0.27000392303E+03 -0.42049540741E+03  0.10696970682E+04  0.90040069726E+03 0.  0.
         23    2    4    4    0    0  0.25797917655E+03  0.59046144442E+03 -0.25622960551E+03  0.69852998535E+03  0.84217318962E+02 0.  0.
         23    2    4    4    0    0  0.31523666379E+02 -0.32045752138E+03 -0.16426580190E+03  0.37116708289E+03  0.84231735091E+02 0.  0.
          4    1    3    3  502    0 -0.28695343127E+03 -0.23673943908E+03 -0.38251401505E+03  0.53357736594E+03  0.00000000000E+00 0. -1.
         -3    1    3    3    0  502 -0.25494116577E+01 -0.33264483954E+02 -0.39554476006E+02  0.51745356938E+02  0.00000000000E+00 0.  1.
         13    1    5    5    0    0  0.26330670603E+03  0.56104417173E+03 -0.24786207078E+03  0.66748527339E+03  0.00000000000E+00 0. -1.
        -13    1    5    5    0    0 -0.53275294747E+01  0.29417272691E+02 -0.83675347331E+01  0.31044711955E+02  0.00000000000E+00 0.  1.
          3    1    6    6  503    0  0.46222100365E+02 -0.27939752867E+03 -0.16459751396E+03  0.32755427519E+03  0.00000000000E+00 0. -1.
         -3    1    6    6    0  503 -0.14698433986E+02 -0.41059992711E+02  0.33171206537E+00  0.43612807706E+02  0.00000000000E+00 0.  1.
<mgrwt>
<rscale>  0 0.14244917E+04</rscale>
<asrwt>0</asrwt>
<pdfrwt beam="1">  1        2 0.19212182E+00 0.14244917E+04</pdfrwt>
<pdfrwt beam="2">  1       -1 0.62496609E-01 0.14244917E+04</pdfrwt>
<totfact> 0.50961865E+01</totfact>
</mgrwt>
</event>
<event>
12    7  0.1740517E-007  0.1147981E+04  0.7818608E-02  0.9159648E-01
          2   -1    0    0  501    0  0.00000000000E+00  0.00000000000E+00  0.19291980740E+04  0.19291980740E+04  0.00000000000E+00 0. -1.
         -1   -1    0    0    0  501 -0.00000000000E+00 -0.00000000000E+00 -0.17077839602E+03  0.17077839602E+03  0.00000000000E+00 0.  1.
         24    2    1    2    0    0 -0.49168942243E+02 -0.25548556131E+02 -0.22315761424E+02  0.99324964399E+02  0.79354531964E+02 0.  0.
        254    2    1    2    0    0  0.49168942243E+02  0.25548556131E+02  0.17807354394E+04  0.20006515056E+04  0.91022932723E+03 0.  0.
         23    2    4    4    0    0 -0.37561245365E+03 -0.13162266248E+03  0.54681623561E+03  0.68283619327E+03  0.94063971306E+02 0.  0.
         23    2    4    4    0    0  0.42478139589E+03  0.15717121861E+03  0.12339192038E+04  0.13178153123E+04  0.94544009363E+02 0.  0.
          2    1    3    3  502    0 -0.46473008094E+02 -0.52261471529E+02 -0.15894051725E+02  0.71719054427E+02  0.00000000000E+00 0. -1.
         -1    1    3    3    0  502 -0.26959341496E+01  0.26712915397E+02 -0.64217096989E+01  0.27605909973E+02  0.00000000000E+00 0.  1.
         13    1    5    5    0    0 -0.20519651117E+03 -0.23579156361E+02  0.25742970195E+03  0.33004793024E+03  0.00000000000E+00 0. -1.
        -13    1    5    5    0    0 -0.17041594247E+03 -0.10804350612E+03  0.28938653367E+03  0.35278826303E+03  0.00000000000E+00 0.  1.
          1    1    6    6  503    0  0.23741739677E+03  0.13652172495E+03  0.70666739794E+03  0.75788126575E+03  0.00000000000E+00 0. -1.
         -1    1    6    6    0  503  0.18736399912E+03  0.20649493666E+02  0.52725180583E+03  0.55993404657E+03  0.00000000000E+00 0.  1.
<mgrwt>
<rscale>  0 0.11479815E+04</rscale>
<asrwt>0</asrwt>
<pdfrwt beam="1">  1        2 0.29679969E+00 0.11479815E+04</pdfrwt>
<pdfrwt beam="2">  1       -1 0.26273601E-01 0.11479815E+04</pdfrwt>
<totfact> 0.10620194E+02</totfact>
</mgrwt>
</event>
<event>
12    7  0.1740517E-007  0.2118065E+04  0.7818608E-02  0.8553327E-01
          2   -1    0    0  501    0  0.00000000000E+00  0.00000000000E+00  0.18283926856E+04  0.18283926856E+04  0.00000000000E+00 0. -1.
         -1   -1    0    0    0  501 -0.00000000000E+00 -0.00000000000E+00 -0.61340742287E+03  0.61340742287E+03  0.00000000000E+00 0.  1.
         24    2    1    2    0    0  0.49537761750E+02  0.23052524951E+03  0.14509702824E+04  0.14720970633E+04  0.78480081256E+02 0.  0.
        254    2    1    2    0    0 -0.49537761750E+02 -0.23052524951E+03 -0.23598501960E+03  0.96970304514E+03  0.91051588991E+03 0.  0.
         23    2    4    4    0    0 -0.73308194516E+01 -0.46429486904E+03 -0.43760804596E+03  0.64460304816E+03  0.91590509785E+02 0.  0.
         23    2    4    4    0    0 -0.42206942299E+02  0.23376961953E+03  0.20162302636E+03  0.32509999698E+03  0.92782014879E+02 0.  0.
          4    1    3    3  502    0  0.57508333944E+02  0.15281868291E+03  0.80278597256E+03  0.81922284884E+03  0.00000000000E+00 0. -1.
         -3    1    3    3    0  502 -0.79705721944E+01  0.77706566600E+02  0.64818430979E+03  0.65287421451E+03  0.00000000000E+00 0.  1.
         13    1    5    5    0    0 -0.33588975103E+02 -0.42111474922E+03 -0.39783868320E+03  0.58029429526E+03  0.00000000000E+00 0. -1.
        -13    1    5    5    0    0  0.26258155651E+02 -0.43180119814E+02 -0.39769362757E+02  0.64308752899E+02  0.00000000000E+00 0.  1.
          4    1    6    6  503    0 -0.33234676622E+02  0.21326102330E+03  0.21005662600E+03  0.30117867440E+03  0.00000000000E+00 0. -1.
         -4    1    6    6    0  503 -0.89722656766E+01  0.20508596232E+02 -0.84335996449E+01  0.23921322575E+02  0.00000000000E+00 0.  1.
<mgrwt>
<rscale>  0 0.21180648E+04</rscale>
<asrwt>0</asrwt>
<pdfrwt beam="1">  1        2 0.28129118E+00 0.21180648E+04</pdfrwt>
<pdfrwt beam="2">  1       -1 0.94370374E-01 0.21180648E+04</pdfrwt>
<totfact> 0.94754654E+00</totfact>
</mgrwt>
</event>
<event>
12    7  0.1740517E-007  0.1605530E+04  0.7818608E-02  0.8817158E-01
          2   -1    0    0  501    0  0.00000000000E+00  0.00000000000E+00  0.48953808716E+03  0.48953808716E+03  0.00000000000E+00 0. -1.
         -1   -1    0    0    0  501 -0.00000000000E+00 -0.00000000000E+00 -0.13164083007E+04  0.13164083007E+04  0.00000000000E+00 0.  1.
         24    2    1    2    0    0  0.33207243510E+03  0.43285202208E+02  0.18317579741E+03  0.38964192059E+03  0.78241565940E+02 0.  0.
        254    2    1    2    0    0 -0.33207243510E+03 -0.43285202208E+02 -0.10100460110E+04  0.14163044673E+04  0.93465485014E+03 0.  0.
         23    2    4    4    0    0  0.25700153067E+03 -0.24050975502E+03 -0.33028542743E+03  0.49109301292E+03  0.90493948657E+02 0.  0.
         23    2    4    4    0    0 -0.58907396577E+03  0.19722455281E+03 -0.67976058353E+03  0.92521145435E+03  0.89644425199E+02 0.  0.
          4    1    3    3  502    0  0.28221492711E+03  0.64818944361E+02  0.15605726660E+03  0.32893864335E+03  0.00000000000E+00 0. -1.
         -3    1    3    3    0  502  0.49857507990E+02 -0.21533742153E+02  0.27118530816E+02  0.60703277240E+02  0.00000000000E+00 0.  1.
         13    1    5    5    0    0  0.22798421157E+03 -0.24041003962E+03 -0.31908755902E+03  0.45998984576E+03  0.00000000000E+00 0. -1.
        -13    1    5    5    0    0  0.29017319099E+02 -0.99715398410E-01 -0.11197868403E+02  0.31103167164E+02  0.00000000000E+00 0.  1.
          3    1    6    6  503    0 -0.49735705941E+03  0.14078357788E+03 -0.52581276121E+03  0.73733514781E+03  0.00000000000E+00 0. -1.
         -3    1    6    6    0  503 -0.91716906356E+02  0.56440974935E+02 -0.15394782232E+03  0.18787630654E+03  0.00000000000E+00 0.  1.
<mgrwt>
<rscale>  0 0.16055304E+04</rscale>
<asrwt>0</asrwt>
<pdfrwt beam="1">  1        2 0.75313552E-01 0.16055304E+04</pdfrwt>
<pdfrwt beam="2">  1       -1 0.20252435E+00 0.16055304E+04</pdfrwt>
<totfact> 0.99981511E+00</totfact>
</mgrwt>
</event>
<event>
12    7  0.1740517E-007  0.1768992E+04  0.7818608E-02  0.8722965E-01
         -1   -1    0    0    0  501 -0.00000000000E+00  0.00000000000E+00  0.32485147158E+04  0.32485147158E+04  0.00000000000E+00 0.  1.
          2   -1    0    0  501    0  0.00000000000E+00 -0.00000000000E+00 -0.24082795449E+03  0.24082795449E+03  0.00000000000E+00 0. -1.
         24    2    1    2    0    0 -0.33274387437E+02 -0.49249265580E+03  0.19657884509E+04  0.20285528907E+04  0.83942812472E+02 0.  0.
        254    2    1    2    0    0  0.33274387437E+02  0.49249265580E+03  0.10418983104E+04  0.14607897796E+04  0.89704988160E+03 0.  0.
         23    2    4    4    0    0 -0.10390601972E+03  0.34612299643E+03 -0.23331808942E+02  0.37306380872E+03  0.89636167221E+02 0.  0.
         23    2    4    4    0    0  0.13718040715E+03  0.14636965937E+03  0.10652301194E+04  0.10877259709E+04  0.90498835753E+02 0.  0.
          4    1    3    3  502    0 -0.13700639829E+02 -0.86089524055E+02  0.23680427456E+03  0.25233980687E+03  0.00000000000E+00 0. -1.
         -3    1    3    3    0  502 -0.19573747607E+02 -0.40640313175E+03  0.17289841764E+04  0.17762130839E+04  0.00000000000E+00 0.  1.
         13    1    5    5    0    0 -0.78189519757E+02  0.28119780446E+03  0.17107671817E+02  0.29236702733E+03  0.00000000000E+00 0. -1.
        -13    1    5    5    0    0 -0.25716499960E+02  0.64925191971E+02 -0.40439480759E+02  0.80696781390E+02  0.00000000000E+00 0.  1.
          1    1    6    6  503    0  0.94643430105E+02  0.91204011749E+02  0.88128012455E+03  0.89102761379E+03  0.00000000000E+00 0. -1.
         -1    1    6    6    0  503  0.42536977048E+02  0.55165647619E+02  0.18394999480E+03  0.19669835709E+03  0.00000000000E+00 0.  1.
<mgrwt>
<rscale>  0 0.17689920E+04</rscale>
<asrwt>0</asrwt>
<pdfrwt beam="1">  1        2 0.37050457E-01 0.17689920E+04</pdfrwt>
<pdfrwt beam="2">  1       -1 0.49977146E+00 0.17689920E+04</pdfrwt>
<totfact> 0.22668934E-01</totfact>
</mgrwt>
</event>
<event>
12    7  0.1740517E-007  0.1337743E+04  0.7818608E-02  0.9000159E-01
         -1   -1    0    0    0  501 -0.00000000000E+00  0.00000000000E+00  0.41599029192E+03  0.41599029192E+03  0.00000000000E+00 0.  1.
          2   -1    0    0  501    0  0.00000000000E+00 -0.00000000000E+00 -0.10754796423E+04  0.10754796423E+04  0.00000000000E+00 0. -1.
         24    2    1    2    0    0  0.34287178696E+03 -0.52482376450E+02 -0.30768387614E+03  0.47034089510E+03  0.78966624813E+02 0.  0.
        254    2    1    2    0    0 -0.34287178696E+03  0.52482376450E+02 -0.35180547423E+03  0.10211290391E+04  0.89365651159E+03 0.  0.
         23    2    4    4    0    0 -0.29241700369E+03  0.25086161593E+03  0.18620565699E+03  0.43809741929E+03  0.93901798179E+02 0.  0.
         23    2    4    4    0    0 -0.50454783273E+02 -0.19837923948E+03 -0.53801113122E+03  0.58303161983E+03  0.92573671165E+02 0.  0.
          2    1    3    3  502    0  0.26233475882E+03 -0.72892735970E+02 -0.22632225965E+03  0.35405457469E+03  0.00000000000E+00 0. -1.
         -1    1    3    3    0  502  0.80537028137E+02  0.20410359520E+02 -0.81361616489E+02  0.11628632041E+03  0.00000000000E+00 0.  1.
         13    1    5    5    0    0 -0.51112552707E+01  0.26904314123E+02 -0.31053613604E+01  0.27561028973E+02  0.00000000000E+00 0. -1.
        -13    1    5    5    0    0 -0.28730574841E+03  0.22395730181E+03  0.18931101835E+03  0.41053639032E+03  0.00000000000E+00 0.  1.
          2    1    6    6  503    0  0.23343216573E+02 -0.18708915478E+02 -0.59381009502E+02  0.66490853264E+02  0.00000000000E+00 0. -1.
         -2    1    6    6    0  503 -0.73797999846E+02 -0.17967032401E+03 -0.47863012172E+03  0.51654076657E+03  0.00000000000E+00 0.  1.
<mgrwt>
<rscale>  0 0.13377430E+04</rscale>
<asrwt>0</asrwt>
<pdfrwt beam="1">  1        2 0.16545841E+00 0.13377430E+04</pdfrwt>
<pdfrwt beam="2">  1       -1 0.63998507E-01 0.13377430E+04</pdfrwt>
<totfact> 0.62297358E+01</totfact>
</mgrwt>
</event>
<event>
12    7  0.1740517E-007  0.2153981E+04  0.7818608E-02  0.8537830E-01
         -1   -1    0    0    0  501 -0.00000000000E+00  0.00000000000E+00  0.12325383025E+04  0.12325383025E+04  0.00000000000E+00 0.  1.
          2   -1    0    0  501    0  0.00000000000E+00 -0.00000000000E+00 -0.94107343028E+03  0.94107343028E+03  0.00000000000E+00 0. -1.
         24    2    1    2    0    0  0.67361702485E+03  0.54240017480E+03 -0.71881745854E+02  0.87153340918E+03  0.80284818923E+02 0.  0.
        254    2    1    2    0    0 -0.67361702485E+03 -0.54240017480E+03  0.36334661803E+03  0.13020783236E+04  0.90301126795E+03 0.  0.
         23    2    4    4    0    0 -0.40160056118E+02  0.20367908810E+03 -0.56293554180E+02  0.23340719709E+03  0.90619834320E+02 0.  0.
         23    2    4    4    0    0 -0.63345696873E+03 -0.74607926290E+03  0.41964017221E+03  0.10686711265E+04  0.89766946306E+02 0.  0.
          4    1    3    3  502    0  0.64525306069E+03  0.52025137438E+03 -0.52173403382E+02  0.83050290119E+03  0.00000000000E+00 0. -1.
         -3    1    3    3    0  502  0.28363964163E+02  0.22148800416E+02 -0.19708342472E+02  0.41030507990E+02  0.00000000000E+00 0.  1.
         13    1    5    5    0    0 -0.12169485453E+02  0.30741995583E+01  0.14190910067E+02  0.18945421812E+02  0.00000000000E+00 0. -1.
        -13    1    5    5    0    0 -0.27990570665E+02  0.20060488854E+03 -0.70484464247E+02  0.21446177528E+03  0.00000000000E+00 0.  1.
          1    1    6    6  503    0 -0.36892298411E+02 -0.60518690522E+02  0.53947274202E+02  0.89072228996E+02  0.00000000000E+00 0. -1.
         -1    1    6    6    0  503 -0.59656467032E+03 -0.68556057238E+03  0.36569289801E+03  0.97959889747E+03  0.00000000000E+00 0.  1.
<mgrwt>
<rscale>  0 0.21539815E+04</rscale>
<asrwt>0</asrwt>
<pdfrwt beam="1">  1        2 0.14478053E+00 0.21539815E+04</pdfrwt>
<pdfrwt beam="2">  1       -1 0.18962128E+00 0.21539815E+04</pdfrwt>
<totfact> 0.51204924E+00</totfact>
</mgrwt>
</event>
<event>
12    7  0.1740517E-007  0.1261578E+04  0.7818608E-02  0.9060601E-01
         -1   -1    0    0    0  501 -0.00000000000E+00  0.00000000000E+00  0.74770876739E+03  0.74770876739E+03  0.00000000000E+00 0.  1.
          2   -1    0    0  501    0  0.00000000000E+00 -0.00000000000E+00 -0.53215220597E+03  0.53215220597E+03  0.00000000000E+00 0. -1.
         24    2    1    2    0    0 -0.26153539337E+03  0.10557876812E+03 -0.71358830351E+02  0.30126563840E+03  0.78238506827E+02 0.  0.
        254    2    1    2    0    0  0.26153539337E+03 -0.10557876812E+03  0.28691539177E+03  0.97859533495E+03  0.89206544003E+03 0.  0.
         23    2    4    4    0    0 -0.31944327721E+03  0.24800060424E+02  0.10730668894E+03  0.35001402527E+03  0.91301927936E+02 0.  0.
         23    2    4    4    0    0  0.58097867058E+03 -0.13037882854E+03  0.17960870283E+03  0.62858130968E+03  0.91215799852E+02 0.  0.
          4    1    3    3  502    0 -0.16143619983E+03  0.45309258410E+02 -0.76519120175E+02  0.18430884749E+03  0.00000000000E+00 0. -1.
         -3    1    3    3    0  502 -0.10009919354E+03  0.60269509711E+02  0.51602898243E+01  0.11695679091E+03  0.00000000000E+00 0.  1.
         13    1    5    5    0    0  0.50711352324E+01  0.56030100049E+01 -0.36247018150E+00  0.75658124675E+01  0.00000000000E+00 0. -1.
        -13    1    5    5    0    0 -0.32451441244E+03  0.19197050419E+02  0.10766915912E+03  0.34244821281E+03  0.00000000000E+00 0.  1.
          3    1    6    6  503    0  0.36204186646E+03 -0.38976177199E+02  0.12630000886E+03  0.38541555196E+03  0.00000000000E+00 0. -1.
         -3    1    6    6    0  503  0.21893680412E+03 -0.91402651344E+02  0.53308693971E+02  0.24316575771E+03  0.00000000000E+00 0.  1.
<mgrwt>
<rscale>  0 0.12615782E+04</rscale>
<asrwt>0</asrwt>
<pdfrwt beam="1">  1        2 0.81869570E-01 0.12615782E+04</pdfrwt>
<pdfrwt beam="2">  1       -1 0.11503212E+00 0.12615782E+04</pdfrwt>
<totfact> 0.44136836E+01</totfact>
</mgrwt>
</event>
<event>
12    7  0.1740517E-007  0.2098307E+04  0.7818608E-02  0.8561989E-01
          2   -1    0    0  501    0  0.00000000000E+00  0.00000000000E+00  0.22386601411E+04  0.22386601411E+04  0.00000000000E+00 0. -1.
         -1   -1    0    0    0  501 -0.00000000000E+00 -0.00000000000E+00 -0.49168854155E+03  0.49168854155E+03  0.00000000000E+00 0.  1.
         24    2    1    2    0    0  0.62680250734E+03 -0.53818893604E+02 -0.36282195522E+02  0.63526442801E+03  0.80415416838E+02 0.  0.
        254    2    1    2    0    0 -0.62680250734E+03  0.53818893604E+02  0.17832537951E+04  0.20950842547E+04  0.90200115294E+03 0.  0.
         23    2    4    4    0    0 -0.32023149816E+03 -0.16218635041E+03  0.16421997481E+04  0.16834545208E+04  0.91359105890E+02 0.  0.
         23    2    4    4    0    0 -0.30657100919E+03  0.21600524401E+03  0.14105404701E+03  0.41162973390E+03  0.94333157125E+02 0.  0.
          2    1    3    3  502    0  0.12501322540E+03 -0.12842161553E+02 -0.39701664768E+02  0.13179320856E+03  0.00000000000E+00 0. -1.
         -1    1    3    3    0  502  0.50178928194E+03 -0.40976732051E+02  0.34194692460E+01  0.50347121945E+03  0.00000000000E+00 0.  1.
         13    1    5    5    0    0 -0.25464325344E+03 -0.14913786403E+03  0.11748974484E+04  0.12113914739E+04  0.00000000000E+00 0.  1.
        -13    1    5    5    0    0 -0.65588244712E+02 -0.13048486382E+02  0.46730229972E+03  0.47206304681E+03  0.00000000000E+00 0. -1.
          3    1    6    6  503    0 -0.78418022637E+01 -0.86750948753E-01  0.23306436911E+02  0.24590473561E+02  0.00000000000E+00 0. -1.
         -3    1    6    6    0  503 -0.29872920692E+03  0.21609199496E+03  0.11774761010E+03  0.38703926034E+03  0.00000000000E+00 0.  1.
<mgrwt>
<rscale>  0 0.20983075E+04</rscale>
<asrwt>0</asrwt>
<pdfrwt beam="1">  1        2 0.34440925E+00 0.20983075E+04</pdfrwt>
<pdfrwt beam="2">  1       -1 0.75644392E-01 0.20983075E+04</pdfrwt>
<totfact> 0.90476879E+00</totfact>
</mgrwt>
</event>
<event>
12    7  0.1740517E-007  0.2713378E+04  0.7818608E-02  0.8330677E-01
         -1   -1    0    0    0  501 -0.00000000000E+00  0.00000000000E+00  0.12238012988E+04  0.12238012988E+04  0.00000000000E+00 0.  1.
          2   -1    0    0  501    0  0.00000000000E+00 -0.00000000000E+00 -0.15040067536E+04  0.15040067536E+04  0.00000000000E+00 0. -1.
         24    2    1    2    0    0  0.56932574234E+03  0.15348984941E+03  0.92829618098E+03  0.11026974170E+04  0.80727065731E+02 0.  0.
        254    2    1    2    0    0 -0.56932574234E+03 -0.15348984941E+03 -0.12085016358E+04  0.16251106353E+04  0.91258831822E+03 0.  0.
         23    2    4    4    0    0 -0.64617654640E+03 -0.24027727021E+03 -0.12839779969E+04  0.14602176415E+04  0.91426299612E+02 0.  0.
         23    2    4    4    0    0  0.76850804061E+02  0.86787420799E+02  0.75476361177E+02  0.16489299379E+03  0.89749182778E+02 0.  0.
          4    1    3    3  502    0  0.16790251999E+03  0.76534536891E+02  0.24909955001E+03  0.30999899576E+03  0.00000000000E+00 0. -1.
         -3    1    3    3    0  502  0.40142322235E+03  0.76955312519E+02  0.67919663097E+03  0.79269842128E+03  0.00000000000E+00 0.  1.
         13    1    5    5    0    0 -0.20091691190E+00 -0.10888404134E+01 -0.25738110987E+02  0.25761915655E+02  0.00000000000E+00 0. -1.
        -13    1    5    5    0    0 -0.64597562949E+03 -0.23918842980E+03 -0.12582398859E+04  0.14344557259E+04  0.00000000000E+00 0.  1.
          4    1    6    6  503    0  0.23504329384E+02 -0.12193619883E+02  0.38108727988E+02  0.46404881365E+02  0.00000000000E+00 0. -1.
         -4    1    6    6    0  503  0.53346474677E+02  0.98981040682E+02  0.37367633189E+02  0.11848811242E+03  0.00000000000E+00 0.  1.
<mgrwt>
<rscale>  0 0.27133783E+04</rscale>
<asrwt>0</asrwt>
<pdfrwt beam="1">  1        2 0.23138566E+00 0.27133783E+04</pdfrwt>
<pdfrwt beam="2">  1       -1 0.18827712E+00 0.27133783E+04</pdfrwt>
<totfact> 0.22899981E+00</totfact>
</mgrwt>
</event>
<event>
12    7  0.1740517E-007  0.2240478E+04  0.7818608E-02  0.8501767E-01
         -1   -1    0    0    0  501 -0.00000000000E+00  0.00000000000E+00  0.10821192622E+04  0.10821192622E+04  0.00000000000E+00 0.  1.
          2   -1    0    0  501    0  0.00000000000E+00 -0.00000000000E+00 -0.11597017529E+04  0.11597017529E+04  0.00000000000E+00 0. -1.
         24    2    1    2    0    0  0.26021094759E+03 -0.13128458289E+03  0.85908448705E+03  0.91094793358E+03  0.82792528976E+02 0.  0.
        254    2    1    2    0    0 -0.26021094759E+03  0.13128458289E+03 -0.93666697778E+03  0.13308730815E+04  0.89940688952E+03 0.  0.
         23    2    4    4    0    0 -0.83405300369E+02  0.48727346236E+03 -0.33530589571E+03  0.60430182984E+03  0.91426399940E+02 0.  0.
         23    2    4    4    0    0 -0.17680564723E+03 -0.35598887947E+03 -0.60136108207E+03  0.72657125168E+03  0.91007216982E+02 0.  0.
          4    1    3    3  502    0  0.64152412454E+02 -0.71114501360E+02  0.22542133413E+03  0.24492362525E+03  0.00000000000E+00 0. -1.
         -3    1    3    3    0  502  0.19605853514E+03 -0.60170081531E+02  0.63366315292E+03  0.66602430833E+03  0.00000000000E+00 0.  1.
         13    1    5    5    0    0  0.80415075754E+01  0.20529837057E+03 -0.12004823403E+03  0.23795727620E+03  0.00000000000E+00 0. -1.
        -13    1    5    5    0    0 -0.91446807945E+02  0.28197509179E+03 -0.21525766168E+03  0.36634455364E+03  0.00000000000E+00 0.  1.
          3    1    6    6  503    0 -0.10770944577E+03 -0.14433797978E+03 -0.32622453967E+03  0.37263551548E+03  0.00000000000E+00 0. -1.
         -3    1    6    6    0  503 -0.69096201455E+02 -0.21165089969E+03 -0.27513654240E+03  0.35393573620E+03  0.00000000000E+00 0.  1.
<mgrwt>
<rscale>  0 0.22404782E+04</rscale>
<asrwt>0</asrwt>
<pdfrwt beam="1">  1        2 0.17841565E+00 0.22404782E+04</pdfrwt>
<pdfrwt beam="2">  1       -1 0.16647989E+00 0.22404782E+04</pdfrwt>
<totfact> 0.54351767E+00</totfact>
</mgrwt>
</event>
<event>
12    7  0.1740517E-007  0.1327098E+04  0.7818608E-02  0.9008348E-01
          2   -1    0    0  501    0  0.00000000000E+00  0.00000000000E+00  0.35316882422E+03  0.35316882422E+03  0.00000000000E+00 0. -1.
         -1   -1    0    0    0  501 -0.00000000000E+00 -0.00000000000E+00 -0.12467050592E+04  0.12467050592E+04  0.00000000000E+00 0.  1.
         24    2    1    2    0    0 -0.15570568268E+03  0.14721267087E+03  0.94259428524E+02  0.24619771317E+03  0.76240697958E+02 0.  0.
        254    2    1    2    0    0  0.15570568268E+03 -0.14721267087E+03 -0.98779566350E+03  0.13536761702E+04  0.90043493433E+03 0.  0.
         23    2    4    4    0    0 -0.36490279451E+03 -0.63548693276E+02 -0.50450712164E+03  0.63234821133E+03  0.90245990127E+02 0.  0.
         23    2    4    4    0    0  0.52060847718E+03 -0.83663977589E+02 -0.48328854186E+03  0.72132795890E+03  0.93345390582E+02 0.  0.
          2    1    3    3  502    0 -0.16325645480E+03  0.14706049259E+03  0.89398263979E+02  0.23721616327E+03  0.00000000000E+00 0. -1.
         -1    1    3    3    0  502  0.75507721263E+01  0.15217828020E+00  0.48611645446E+01  0.89815499031E+01  0.00000000000E+00 0.  1.
         13    1    5    5    0    0 -0.18844602176E+03 -0.50474964701E+01 -0.19443457212E+03  0.27081761977E+03  0.00000000000E+00 0.  1.
        -13    1    5    5    0    0 -0.17645677275E+03 -0.58501196806E+02 -0.31007254952E+03  0.36153059157E+03  0.00000000000E+00 0. -1.
          3    1    6    6  503    0  0.14655821032E+03 -0.19203229502E+02 -0.82268173393E+02  0.16916301424E+03  0.00000000000E+00 0. -1.
         -3    1    6    6    0  503  0.37405026687E+03 -0.64460748087E+02 -0.40102036846E+03  0.55216494466E+03  0.00000000000E+00 0.  1.
<mgrwt>
<rscale>  0 0.13270981E+04</rscale>
<asrwt>0</asrwt>
<pdfrwt beam="1">  1        2 0.54333665E-01 0.13270981E+04</pdfrwt>
<pdfrwt beam="2">  1       -1 0.19180078E+00 0.13270981E+04</pdfrwt>
<totfact> 0.17585445E+01</totfact>
</mgrwt>
</event>
<event>
12    7  0.1740517E-007  0.1863722E+04  0.7818608E-02  0.8673128E-01
          2   -1    0    0  501    0  0.00000000000E+00  0.00000000000E+00  0.66901002461E+03  0.66901002461E+03  0.00000000000E+00 0. -1.
         -1   -1    0    0    0  501 -0.00000000000E+00 -0.00000000000E+00 -0.12979853365E+04  0.12979853365E+04  0.00000000000E+00 0.  1.
         24    2    1    2    0    0  0.71128160634E+03 -0.22439941636E+02 -0.24788444090E+03  0.75761566650E+03  0.78164746444E+02 0.  0.
        254    2    1    2    0    0 -0.71128160634E+03  0.22439941636E+02 -0.38109087102E+03  0.12093796947E+04  0.90052424697E+03 0.  0.
         23    2    4    4    0    0 -0.61923464537E+03  0.39312110827E+03 -0.34356914680E+03  0.81477545234E+03  0.88450705534E+02 0.  0.
         23    2    4    4    0    0 -0.92046960970E+02 -0.37068116663E+03 -0.37521724229E+02  0.39460424232E+03  0.91801187076E+02 0.  0.
          2    1    3    3  502    0  0.70953346438E+03 -0.22546757198E+02 -0.23973319095E+03  0.74927838363E+03  0.00000000000E+00 0. -1.
         -1    1    3    3    0  502  0.17481419610E+01  0.10681556194E+00 -0.81512499497E+01  0.83372828681E+01  0.00000000000E+00 0.  1.
         13    1    5    5    0    0 -0.24136508778E+03  0.19337401502E+03 -0.11405239396E+03  0.32963398468E+03  0.00000000000E+00 0.  1.
        -13    1    5    5    0    0 -0.37786955759E+03  0.19974709325E+03 -0.22951675283E+03  0.48514146766E+03  0.00000000000E+00 0. -1.
          1    1    6    6  503    0  0.10598520950E+02 -0.58804374643E+01 -0.79296698896E+01  0.14484055222E+02  0.00000000000E+00 0. -1.
         -1    1    6    6    0  503 -0.10264548192E+03 -0.36480072917E+03 -0.29592054339E+02  0.38012018710E+03  0.00000000000E+00 0.  1.
<mgrwt>
<rscale>  0 0.18637223E+04</rscale>
<asrwt>0</asrwt>
<pdfrwt beam="1">  1        2 0.10292462E+00 0.18637223E+04</pdfrwt>
<pdfrwt beam="2">  1       -1 0.19969005E+00 0.18637223E+04</pdfrwt>
<totfact> 0.70356108E+00</totfact>
</mgrwt>
</event>
<event>
12    7  0.1740517E-007  0.2323333E+04  0.7818608E-02  0.8468778E-01
          2   -1    0    0  501    0  0.00000000000E+00  0.00000000000E+00  0.30088503874E+04  0.30088503874E+04  0.00000000000E+00 0. -1.
         -1   -1    0    0    0  501 -0.00000000000E+00 -0.00000000000E+00 -0.44849985817E+03  0.44849985817E+03  0.00000000000E+00 0.  1.
         24    2    1    2    0    0  0.62999959410E+03 -0.44010463257E+03  0.17023507297E+03  0.79193724663E+03  0.87138087927E+02 0.  0.
        254    2    1    2    0    0 -0.62999959410E+03  0.44010463257E+03  0.23901154562E+04  0.26654129989E+04  0.89508825512E+03 0.  0.
         23    2    4    4    0    0 -0.28970082575E+03  0.54340526734E+03  0.21220639677E+04  0.22114956007E+04  0.91331572761E+02 0.  0.
         23    2    4    4    0    0 -0.34029876835E+03 -0.10330063478E+03  0.26805148857E+03  0.45391739818E+03  0.87835818196E+02 0.  0.
          4    1    3    3  502    0  0.41429368936E+02 -0.45729068900E+02 -0.56071874056E+01  0.61959510194E+02  0.00000000000E+00 0. -1.
         -3    1    3    3    0  502  0.58857022516E+03 -0.39437556367E+03  0.17584226038E+03  0.72997773644E+03  0.00000000000E+00 0.  1.
         13    1    5    5    0    0 -0.22867872679E+03  0.47866520183E+03  0.18873736694E+04  0.19605085319E+04  0.00000000000E+00 0.  1.
        -13    1    5    5    0    0 -0.61022098963E+02  0.64740065518E+02  0.23469029825E+03  0.25098706886E+03  0.00000000000E+00 0. -1.
          3    1    6    6  503    0 -0.20183068554E+03 -0.23680089898E+02  0.11926447978E+03  0.23562764782E+03  0.00000000000E+00 0. -1.
         -3    1    6    6    0  503 -0.13846808281E+03 -0.79620544880E+02  0.14878700879E+03  0.21828975035E+03  0.00000000000E+00 0.  1.
<mgrwt>
<rscale>  0 0.23233329E+04</rscale>
<asrwt>0</asrwt>
<pdfrwt beam="1">  1        2 0.46290005E+00 0.23233329E+04</pdfrwt>
<pdfrwt beam="2">  1       -1 0.68999980E-01 0.23233329E+04</pdfrwt>
<totfact> 0.37633878E+00</totfact>
</mgrwt>
</event>
<event>
12    7  0.1740517E-007  0.1602654E+04  0.7818608E-02  0.8818919E-01
         -1   -1    0    0    0  501 -0.00000000000E+00  0.00000000000E+00  0.75600687370E+03  0.75600687370E+03  0.00000000000E+00 0.  1.
          2   -1    0    0  501    0  0.00000000000E+00 -0.00000000000E+00 -0.84936343635E+03  0.84936343635E+03  0.00000000000E+00 0. -1.
         24    2    1    2    0    0  0.23536382204E+03  0.10017833996E+03  0.45001189928E+03  0.52357460032E+03  0.78662723589E+02 0.  0.
        254    2    1    2    0    0 -0.23536382204E+03 -0.10017833996E+03 -0.54336846193E+03  0.10817957097E+04  0.89977821915E+03 0.  0.
         23    2    4    4    0    0 -0.48961865594E+03 -0.15696767101E+03 -0.61448540795E+02  0.52635243375E+03  0.94369928297E+02 0.  0.
         23    2    4    4    0    0  0.25425483390E+03  0.56789331052E+02 -0.48191992114E+03  0.55544327598E+03  0.91650825197E+02 0.  0.
          4    1    3    3  502    0  0.51397125843E+02 -0.10064858993E+02  0.73270252801E+02  0.90063843339E+02  0.00000000000E+00 0. -1.
         -3    1    3    3    0  502  0.18396669620E+03  0.11024319895E+03  0.37674164648E+03  0.43351075698E+03  0.00000000000E+00 0.  1.
         13    1    5    5    0    0 -0.36710323926E+03 -0.14489435941E+03 -0.15562439044E+02  0.39497006617E+03  0.00000000000E+00 0.  1.
        -13    1    5    5    0    0 -0.12251541668E+03 -0.12073311598E+02 -0.45886101750E+02  0.13138236758E+03  0.00000000000E+00 0. -1.
          1    1    6    6  503    0  0.11769316746E+03 -0.45204205465E+01 -0.14530449207E+03  0.18704414261E+03  0.00000000000E+00 0. -1.
         -1    1    6    6    0  503  0.13656166644E+03  0.61309751598E+02 -0.33661542907E+03  0.36839913337E+03  0.00000000000E+00 0.  1.
<mgrwt>
<rscale>  0 0.16026535E+04</rscale>
<asrwt>0</asrwt>
<pdfrwt beam="1">  1        2 0.13067130E+00 0.16026535E+04</pdfrwt>
<pdfrwt beam="2">  1       -1 0.11630875E+00 0.16026535E+04</pdfrwt>
<totfact> 0.23230392E+01</totfact>
</mgrwt>
</event>
<event>
12    7  0.1740517E-007  0.1883354E+04  0.7818608E-02  0.8663187E-01
          2   -1    0    0  501    0  0.00000000000E+00  0.00000000000E+00  0.20746752118E+04  0.20746752118E+04  0.00000000000E+00 0. -1.
         -3   -1    0    0    0  501 -0.00000000000E+00 -0.00000000000E+00 -0.42741893721E+03  0.42741893721E+03  0.00000000000E+00 0.  1.
         24    2    1    2    0    0  0.37759410501E+02  0.45760649116E+02 -0.31990579113E+03  0.33450388238E+03  0.77674461967E+02 0.  0.
        254    2    1    2    0    0 -0.37759410501E+02 -0.45760649116E+02  0.19671620657E+04  0.21675902666E+04  0.90840583500E+03 0.  0.
         23    2    4    4    0    0  0.23476137352E+03  0.22618525260E+03  0.15741752562E+04  0.16101481055E+04  0.90975345589E+02 0.  0.
         23    2    4    4    0    0 -0.27252078402E+03 -0.27194590171E+03  0.39298680953E+03  0.55744216110E+03  0.89894267508E+02 0.  0.
          2    1    3    3  502    0  0.78575513238E+01  0.33326615807E+02 -0.39670950041E+02  0.52404090595E+02  0.00000000000E+00 0. -1.
         -1    1    3    3    0  502  0.29901859177E+02  0.12434033309E+02 -0.28023484109E+03  0.28209979179E+03  0.00000000000E+00 0.  1.
         13    1    5    5    0    0  0.59664159742E+02  0.10590335749E+03  0.45296050701E+03  0.46898673115E+03  0.00000000000E+00 0. -1.
        -13    1    5    5    0    0  0.17509721378E+03  0.12028189511E+03  0.11212147491E+04  0.11411613743E+04  0.00000000000E+00 0.  1.
          3    1    6    6  503    0 -0.92961781632E+01 -0.11311622893E+02  0.51799596172E+02  0.53829080472E+02  0.00000000000E+00 0. -1.
         -3    1    6    6    0  503 -0.26322460586E+03 -0.26063427882E+03  0.34118721335E+03  0.50361308063E+03  0.00000000000E+00 0.  1.
<mgrwt>
<rscale>  0 0.18833539E+04</rscale>
<asrwt>0</asrwt>
<pdfrwt beam="1">  1        2 0.31918080E+00 0.18833539E+04</pdfrwt>
<pdfrwt beam="2">  1       -3 0.65756761E-01 0.18833539E+04</pdfrwt>
<totfact> 0.81498743E+00</totfact>
</mgrwt>
</event>
<event>
12    7  0.1740517E-007  0.2988568E+04  0.7818608E-02  0.8247003E-01
         -1   -1    0    0    0  501 -0.00000000000E+00  0.00000000000E+00  0.90079834873E+03  0.90079834873E+03  0.00000000000E+00 0.  1.
          2   -1    0    0  501    0  0.00000000000E+00 -0.00000000000E+00 -0.24787839034E+04  0.24787839034E+04  0.00000000000E+00 0. -1.
         24    2    1    2    0    0 -0.29712700116E+03 -0.13127124581E+04 -0.93040955109E+03  0.16381468859E+04  0.79779913965E+02 0.  0.
        254    2    1    2    0    0  0.29712700116E+03  0.13127124581E+04 -0.64757600358E+03  0.17414353662E+04  0.89540158697E+03 0.  0.
         23    2    4    4    0    0 -0.16943282903E+03  0.40204267258E+03  0.11745330835E+03  0.46062811871E+03  0.89650376314E+02 0.  0.
         23    2    4    4    0    0  0.46655983020E+03  0.91066978548E+03 -0.76502931193E+03  0.12808072475E+04  0.90552878662E+02 0.  0.
          2    1    3    3  502    0 -0.28720133484E+03 -0.12713245424E+04 -0.88230376105E+03  0.15739156984E+04  0.00000000000E+00 0. -1.
         -1    1    3    3    0  502 -0.99256663201E+01 -0.41387915622E+02 -0.48105790041E+02  0.64231187494E+02  0.00000000000E+00 0.  1.
         13    1    5    5    0    0 -0.15198126901E+03  0.26663405122E+03  0.10106527640E+03  0.32311950343E+03  0.00000000000E+00 0. -1.
        -13    1    5    5    0    0 -0.17451560021E+02  0.13540862136E+03  0.16388031949E+02  0.13750861528E+03  0.00000000000E+00 0.  1.
          3    1    6    6  503    0  0.32170037727E+03  0.63489285135E+03 -0.58281653613E+03  0.91992129023E+03  0.00000000000E+00 0. -1.
         -3    1    6    6    0  503  0.14485945293E+03  0.27577693413E+03 -0.18221277580E+03  0.36088595728E+03  0.00000000000E+00 0.  1.
<mgrwt>
<rscale>  0 0.29885678E+04</rscale>
<asrwt>0</asrwt>
<pdfrwt beam="1">  1        2 0.38135136E+00 0.29885678E+04</pdfrwt>
<pdfrwt beam="2">  1       -1 0.13858436E+00 0.29885678E+04</pdfrwt>
<totfact> 0.15009121E+00</totfact>
</mgrwt>
</event>
<event>
12    7  0.1740517E-007  0.1724710E+04  0.7818608E-02  0.8747396E-01
         -1   -1    0    0    0  501 -0.00000000000E+00  0.00000000000E+00  0.91466699136E+03  0.91466699136E+03  0.00000000000E+00 0.  1.
          2   -1    0    0  501    0  0.00000000000E+00 -0.00000000000E+00 -0.81303453529E+03  0.81303453529E+03  0.00000000000E+00 0. -1.
         24    2    1    2    0    0 -0.14183211535E+03 -0.50733696165E+03 -0.30090828404E+03  0.61190303408E+03  0.79827226625E+02 0.  0.
        254    2    1    2    0    0  0.14183211535E+03  0.50733696165E+03  0.40254074010E+03  0.11157984926E+04  0.89747428207E+03 0.  0.
         23    2    4    4    0    0 -0.25175481612E+03  0.16015981003E+03  0.48547722907E+03  0.57693918800E+03  0.90216597776E+02 0.  0.
         23    2    4    4    0    0  0.39358693147E+03  0.34717715163E+03 -0.82936488966E+02  0.53885930458E+03  0.89711993000E+02 0.  0.
          4    1    3    3  502    0 -0.12016852530E+03 -0.48920279920E+03 -0.29211147457E+03  0.58231346094E+03  0.00000000000E+00 0. -1.
         -3    1    3    3    0  502 -0.21663590052E+02 -0.18134162456E+02 -0.87968094668E+01  0.29589573142E+02  0.00000000000E+00 0.  1.
         13    1    5    5    0    0 -0.65549500905E+02 -0.85486282055E+00  0.10186351708E+03  0.12113481734E+03  0.00000000000E+00 0. -1.
        -13    1    5    5    0    0 -0.18620531521E+03  0.16101467285E+03  0.38361371199E+03  0.45580437066E+03  0.00000000000E+00 0.  1.
          2    1    6    6  503    0  0.21959908260E+03  0.15088021582E+03 -0.73478340043E+02  0.27638318158E+03  0.00000000000E+00 0.  1.
         -2    1    6    6    0  503  0.17398784888E+03  0.19629693581E+03 -0.94581489226E+01  0.26247612300E+03  0.00000000000E+00 0. -1.
<mgrwt>
<rscale>  0 0.17247097E+04</rscale>
<asrwt>0</asrwt>
<pdfrwt beam="1">  1        2 0.12508224E+00 0.17247097E+04</pdfrwt>
<pdfrwt beam="2">  1       -1 0.14071800E+00 0.17247097E+04</pdfrwt>
<totfact> 0.15115847E+01</totfact>
</mgrwt>
</event>
<event>
12    7  0.1740517E-007  0.1607581E+04  0.7818608E-02  0.8815904E-01
          2   -1    0    0  501    0  0.00000000000E+00  0.00000000000E+00  0.28845339171E+03  0.28845339171E+03  0.00000000000E+00 0. -1.
         -1   -1    0    0    0  501 -0.00000000000E+00 -0.00000000000E+00 -0.22398050941E+04  0.22398050941E+04  0.00000000000E+00 0.  1.
         24    2    1    2    0    0 -0.50320856475E+03  0.10368975687E+03 -0.94333094597E+03  0.10770864587E+04  0.79193058724E+02 0.  0.
        254    2    1    2    0    0  0.50320856475E+03 -0.10368975687E+03 -0.10080207565E+04  0.14511720272E+04  0.90874858001E+03 0.  0.
         23    2    4    4    0    0  0.71691442974E+03 -0.24413094089E-01 -0.48728306871E+03  0.87156669746E+03  0.90649980240E+02 0.  0.
         23    2    4    4    0    0 -0.21370586499E+03 -0.10366534377E+03 -0.52073768776E+03  0.57960532971E+03  0.91421543129E+02 0.  0.
          2    1    3    3  502    0 -0.48767001621E+03  0.86805894606E+02 -0.91641949595E+03  0.10417206922E+04  0.00000000000E+00 0. -1.
         -1    1    3    3    0  502 -0.15538548542E+02  0.16883862260E+02 -0.26911450018E+02  0.35365766466E+02  0.00000000000E+00 0.  1.
         13    1    5    5    0    0  0.13311133445E+03  0.23682648961E+02 -0.61107733013E+02  0.14836997761E+03  0.00000000000E+00 0.  1.
        -13    1    5    5    0    0  0.58380309528E+03 -0.23707062055E+02 -0.42617533569E+03  0.72319671985E+03  0.00000000000E+00 0. -1.
          4    1    6    6  503    0 -0.31335573263E+02 -0.15305829097E+02 -0.21908435990E+02  0.41184537433E+02  0.00000000000E+00 0. -1.
         -4    1    6    6    0  503 -0.18237029173E+03 -0.88359514675E+02 -0.49882925177E+03  0.53842079228E+03  0.00000000000E+00 0.  1.
<mgrwt>
<rscale>  0 0.16075813E+04</rscale>
<asrwt>0</asrwt>
<pdfrwt beam="1">  1        2 0.44377444E-01 0.16075813E+04</pdfrwt>
<pdfrwt beam="2">  1       -1 0.34458541E+00 0.16075813E+04</pdfrwt>
<totfact> 0.21318455E+00</totfact>
</mgrwt>
</event>
<event>
12    7  0.1740517E-007  0.1525459E+04  0.7818608E-02  0.8867697E-01
         -3   -1    0    0    0  501 -0.00000000000E+00  0.00000000000E+00  0.45710065347E+03  0.45710065347E+03  0.00000000000E+00 0.  1.
          2   -1    0    0  501    0  0.00000000000E+00 -0.00000000000E+00 -0.12727098681E+04  0.12727098681E+04  0.00000000000E+00 0. -1.
         24    2    1    2    0    0  0.18564857218E+02 -0.35793467231E+03 -0.67606137486E+03  0.76968343874E+03  0.83016442467E+02 0.  0.
        254    2    1    2    0    0 -0.18564857218E+02  0.35793467231E+03 -0.13954783977E+03  0.96012708285E+03  0.87972071253E+03 0.  0.
         23    2    4    4    0    0  0.28476316315E+03 -0.45334815959E+02 -0.29577894632E+03  0.42405501378E+03  0.95875779022E+02 0.  0.
         23    2    4    4    0    0 -0.30332802036E+03  0.40326948827E+03  0.15623110654E+03  0.53607206907E+03  0.91273963831E+02 0.  0.
          4    1    3    3  502    0  0.38250566135E+02 -0.25811737007E+03 -0.42393891043E+03  0.49780707339E+03  0.00000000000E+00 0. -1.
         -3    1    3    3    0  502 -0.19685708917E+02 -0.99817302240E+02 -0.25212246444E+03  0.27187636535E+03  0.00000000000E+00 0.  1.
         13    1    5    5    0    0  0.26843896388E+03 -0.65014754623E+02 -0.25494792934E+03  0.37587876013E+03  0.00000000000E+00 0.  1.
        -13    1    5    5    0    0  0.16324199269E+02  0.19679938664E+02 -0.40831016983E+02  0.48176253647E+02  0.00000000000E+00 0. -1.
          4    1    6    6  503    0 -0.11039002557E+03  0.92143424500E+02  0.18727536691E+02  0.14500720345E+03  0.00000000000E+00 0. -1.
         -4    1    6    6    0  503 -0.19293799480E+03  0.31112606377E+03  0.13750356985E+03  0.39106486561E+03  0.00000000000E+00 0.  1.
<mgrwt>
<rscale>  0 0.15254593E+04</rscale>
<asrwt>0</asrwt>
<pdfrwt beam="1">  1        2 0.19580152E+00 0.15254593E+04</pdfrwt>
<pdfrwt beam="2">  1       -3 0.70323177E-01 0.15254593E+04</pdfrwt>
<totfact> 0.20362730E+01</totfact>
</mgrwt>
</event>
<event>
12    7  0.1740517E-007  0.2020846E+04  0.7818608E-02  0.8596936E-01
         -1   -1    0    0    0  501 -0.00000000000E+00  0.00000000000E+00  0.43464870809E+03  0.43464870809E+03  0.00000000000E+00 0.  1.
          2   -1    0    0  501    0  0.00000000000E+00 -0.00000000000E+00 -0.23489188690E+04  0.23489188690E+04  0.00000000000E+00 0. -1.
         24    2    1    2    0    0  0.22625181064E+03 -0.72391449756E+03 -0.11496997978E+04  0.13797284982E+04  0.81234365452E+02 0.  0.
        254    2    1    2    0    0 -0.22625181064E+03  0.72391449756E+03 -0.76457036316E+03  0.14038390789E+04  0.90052997599E+03 0.  0.
         23    2    4    4    0    0  0.75771887635E+02  0.16529332786E+03 -0.73408101689E+03  0.76159089664E+03  0.89902676798E+02 0.  0.
         23    2    4    4    0    0 -0.30202369828E+03  0.55862116970E+03 -0.30489346269E+02  0.64224818227E+03  0.90979128582E+02 0.  0.
          2    1    3    3  502    0  0.99010544233E+02 -0.43190196082E+03 -0.63124434012E+03  0.77124043499E+03  0.00000000000E+00 0. -1.
         -1    1    3    3    0  502  0.12724126641E+03 -0.29201253674E+03 -0.51845545766E+03  0.60848806321E+03  0.00000000000E+00 0.  1.
         13    1    5    5    0    0 -0.16452156577E+02  0.52245803992E+01 -0.45656575836E+02  0.48810783782E+02  0.00000000000E+00 0.  1.
        -13    1    5    5    0    0  0.92224044212E+02  0.16006874746E+03 -0.68842444106E+03  0.71278011286E+03  0.00000000000E+00 0. -1.
          2    1    6    6  503    0 -0.19849048194E+03  0.37785482951E+03 -0.62896626695E+02  0.43142638915E+03  0.00000000000E+00 0. -1.
         -2    1    6    6    0  503 -0.10353321634E+03  0.18076634019E+03  0.32407280426E+02  0.21082179312E+03  0.00000000000E+00 0.  1.
<mgrwt>
<rscale>  0 0.20208459E+04</rscale>
<asrwt>0</asrwt>
<pdfrwt beam="1">  1        2 0.36137214E+00 0.20208459E+04</pdfrwt>
<pdfrwt beam="2">  1       -1 0.66869031E-01 0.20208459E+04</pdfrwt>
<totfact> 0.10173718E+01</totfact>
</mgrwt>
</event>
<event>
12    7  0.1740517E-007  0.2898809E+04  0.7818608E-02  0.8273232E-01
          2   -1    0    0  501    0  0.00000000000E+00  0.00000000000E+00  0.22906305304E+04  0.22906305304E+04  0.00000000000E+00 0. -1.
         -1   -1    0    0    0  501 -0.00000000000E+00 -0.00000000000E+00 -0.91711560631E+03  0.91711560631E+03  0.00000000000E+00 0.  1.
         24    2    1    2    0    0 -0.10377352088E+04  0.50270039706E+03  0.13065019006E+04  0.17443471560E+04  0.78725671909E+02 0.  0.
        254    2    1    2    0    0  0.10377352088E+04 -0.50270039706E+03  0.67013023516E+02  0.14633989808E+04  0.89857875497E+03 0.  0.
         23    2    4    4    0    0  0.10782022099E+04 -0.62014783923E+03 -0.80799627857E+02  0.12498908900E+04  0.92710889899E+02 0.  0.
         23    2    4    4    0    0 -0.40467001092E+02  0.11744744216E+03  0.14781265137E+03  0.21350809081E+03  0.91135311963E+02 0.  0.
          2    1    3    3  502    0 -0.19950196080E+03  0.89087904703E+02  0.29480186157E+03  0.36694117337E+03  0.00000000000E+00 0. -1.
         -1    1    3    3    0  502 -0.83823324799E+03  0.41361249236E+03  0.10117000391E+04  0.13774059826E+04  0.00000000000E+00 0.  1.
         13    1    5    5    0    0  0.63912258779E+03 -0.38031547809E+03 -0.40627475925E+01  0.74372982394E+03  0.00000000000E+00 0. -1.
        -13    1    5    5    0    0  0.43907962209E+03 -0.23983236113E+03 -0.76736880265E+02  0.50616106604E+03  0.00000000000E+00 0.  1.
          2    1    6    6  503    0 -0.24117163823E+02  0.11431977509E+03  0.15604478185E+03  0.19493748359E+03  0.00000000000E+00 0. -1.
         -2    1    6    6    0  503 -0.16349837269E+02  0.31276670749E+01 -0.82321304788E+01  0.18570607214E+02  0.00000000000E+00 0.  1.
<mgrwt>
<rscale>  0 0.28988087E+04</rscale>
<asrwt>0</asrwt>
<pdfrwt beam="1">  1        2 0.35240470E+00 0.28988087E+04</pdfrwt>
<pdfrwt beam="2">  1       -1 0.14109471E+00 0.28988087E+04</pdfrwt>
<totfact> 0.18495458E+00</totfact>
</mgrwt>
</event>
<event>
12    7  0.1740517E-007  0.1386752E+04  0.7818608E-02  0.8963464E-01
         -1   -1    0    0    0  501 -0.00000000000E+00  0.00000000000E+00  0.19803572191E+03  0.19803572191E+03  0.00000000000E+00 0.  1.
          2   -1    0    0  501    0  0.00000000000E+00 -0.00000000000E+00 -0.24276943689E+04  0.24276943689E+04  0.00000000000E+00 0. -1.
         24    2    1    2    0    0 -0.32178719173E+03 -0.94447966485E+02 -0.10222668023E+04  0.10789376945E+04  0.81300173695E+02 0.  0.
        254    2    1    2    0    0  0.32178719173E+03  0.94447966485E+02 -0.12073918446E+04  0.15467923963E+04  0.90680992259E+03 0.  0.
         23    2    4    4    0    0  0.36733547735E+03 -0.22215164173E+03 -0.19343452808E+03  0.47966928864E+03  0.91536904957E+02 0.  0.
         23    2    4    4    0    0 -0.45548285612E+02  0.31659960822E+03 -0.10139573165E+04  0.10671231077E+04  0.91281591440E+02 0.  0.
          2    1    3    3  502    0 -0.31434585273E+03 -0.75698886722E+02 -0.98270252599E+03  0.10345278591E+04  0.00000000000E+00 0. -1.
         -1    1    3    3    0  502 -0.74413390045E+01 -0.18749079763E+02 -0.39564276340E+02  0.44409835402E+02  0.00000000000E+00 0.  1.
         13    1    5    5    0    0  0.28143800040E+03 -0.19713030045E+03 -0.18381351071E+03  0.38968591218E+03  0.00000000000E+00 0.  1.
        -13    1    5    5    0    0  0.85897476942E+02 -0.25021341277E+02 -0.96210173670E+01  0.89983376462E+02  0.00000000000E+00 0. -1.
          1    1    6    6  503    0  0.24232292521E+01 -0.53761402793E+01 -0.90230480229E+01  0.10779161374E+02  0.00000000000E+00 0. -1.
         -1    1    6    6    0  503 -0.47971514864E+02  0.32197574850E+03 -0.10049342685E+04  0.10563439463E+04  0.00000000000E+00 0.  1.
<mgrwt>
<rscale>  0 0.13867519E+04</rscale>
<asrwt>0</asrwt>
<pdfrwt beam="1">  1        2 0.37349145E+00 0.13867519E+04</pdfrwt>
<pdfrwt beam="2">  1       -1 0.30467034E-01 0.13867519E+04</pdfrwt>
<totfact> 0.42363778E+01</totfact>
</mgrwt>
</event>
<event>
12    7  0.1740517E-007  0.1416746E+04  0.7818608E-02  0.8941785E-01
          2   -1    0    0  501    0  0.00000000000E+00  0.00000000000E+00  0.34838279459E+04  0.34838279459E+04  0.00000000000E+00 0. -1.
         -1   -1    0    0    0  501 -0.00000000000E+00 -0.00000000000E+00 -0.14403480185E+03  0.14403480185E+03  0.00000000000E+00 0.  1.
         24    2    1    2    0    0  0.28787306913E+03 -0.23070655625E+02  0.24861333202E+03  0.39036168585E+03  0.84678792155E+02 0.  0.
        254    2    1    2    0    0 -0.28787306913E+03  0.23070655625E+02  0.30911798120E+04  0.32375010619E+04  0.91794190251E+03 0.  0.
         23    2    4    4    0    0 -0.39727315923E+03  0.24738657654E+03  0.80329794465E+03  0.93442621123E+03  0.94014227959E+02 0.  0.
         23    2    4    4    0    0  0.10940009010E+03 -0.22431592091E+03  0.22878818674E+04  0.23030748506E+04  0.86396276445E+02 0.  0.
          4    1    3    3  502    0  0.24535090050E+03 -0.36441190371E+02  0.17240198096E+03  0.30207195793E+03  0.00000000000E+00 0. -1.
         -3    1    3    3    0  502  0.42522168622E+02  0.13370534746E+02  0.76211351064E+02  0.88289727912E+02  0.00000000000E+00 0.  1.
         13    1    5    5    0    0 -0.12014631459E+02  0.33586839693E+02  0.78282862915E+02  0.86026936455E+02  0.00000000000E+00 0. -1.
        -13    1    5    5    0    0 -0.38525852777E+03  0.21379973685E+03  0.72501508174E+03  0.84839927478E+03  0.00000000000E+00 0.  1.
          4    1    6    6  503    0  0.27262340952E+02 -0.16081520151E+02  0.13863958455E+03  0.14220683854E+03  0.00000000000E+00 0. -1.
         -4    1    6    6    0  503  0.82137749152E+02 -0.20823440076E+03  0.21492422828E+04  0.21608680121E+04  0.00000000000E+00 0.  1.
<mgrwt>
<rscale>  0 0.14167462E+04</rscale>
<asrwt>0</asrwt>
<pdfrwt beam="1">  1        2 0.53597347E+00 0.14167462E+04</pdfrwt>
<pdfrwt beam="2">  1       -1 0.22159203E-01 0.14167462E+04</pdfrwt>
<totfact> 0.16158993E+01</totfact>
</mgrwt>
</event>
<event>
12    7  0.1740517E-007  0.1778641E+04  0.7818608E-02  0.8717741E-01
          2   -1    0    0  501    0  0.00000000000E+00  0.00000000000E+00  0.10559407479E+04  0.10559407479E+04  0.00000000000E+00 0. -1.
         -1   -1    0    0    0  501 -0.00000000000E+00 -0.00000000000E+00 -0.74899220576E+03  0.74899220576E+03  0.00000000000E+00 0.  1.
         24    2    1    2    0    0 -0.22527633470E+03  0.37946384345E+03 -0.39885493197E+03  0.60449857751E+03  0.10766168300E+03 0.  0.
        254    2    1    2    0    0  0.22527633470E+03 -0.37946384345E+03  0.70580347413E+03  0.12004343762E+04  0.86495197089E+03 0.  0.
         23    2    4    4    0    0  0.46475049978E+03 -0.39782784937E+03  0.23089097579E+03  0.66029132333E+03  0.91727663151E+02 0.  0.
         23    2    4    4    0    0 -0.23947416508E+03  0.18364005917E+02  0.47491249835E+03  0.54014305284E+03  0.92344593760E+02 0.  0.
          4    1    3    3  502    0 -0.17781574357E+02  0.12320701706E+03 -0.11220907299E+03  0.16759185393E+03  0.00000000000E+00 0. -1.
         -3    1    3    3    0  502 -0.20749476034E+03  0.25625682639E+03 -0.28664585898E+03  0.43690672358E+03  0.00000000000E+00 0.  1.
         13    1    5    5    0    0  0.36010600506E+03 -0.25592173306E+03  0.15288716171E+03  0.46748984218E+03  0.00000000000E+00 0.  1.
        -13    1    5    5    0    0  0.10464449472E+03 -0.14190611630E+03  0.78003814079E+02  0.19280148114E+03  0.00000000000E+00 0. -1.
          1    1    6    6  503    0 -0.91252193155E+00  0.13709724503E+02  0.59637063990E+02  0.61199417020E+02  0.00000000000E+00 0. -1.
         -1    1    6    6    0  503 -0.23856164315E+03  0.46542814140E+01  0.41527543436E+03  0.47894363582E+03  0.00000000000E+00 0.  1.
<mgrwt>
<rscale>  0 0.17786415E+04</rscale>
<asrwt>0</asrwt>
<pdfrwt beam="1">  1        2 0.16245242E+00 0.17786415E+04</pdfrwt>
<pdfrwt beam="2">  1       -1 0.11522957E+00 0.17786415E+04</pdfrwt>
<totfact> 0.17104285E+01</totfact>
</mgrwt>
</event>
<event>
12    7  0.1740517E-007  0.1851997E+04  0.7818608E-02  0.8679126E-01
         -1   -1    0    0    0  501 -0.00000000000E+00  0.00000000000E+00  0.49566952635E+03  0.49566952635E+03  0.00000000000E+00 0.  1.
          2   -1    0    0  501    0  0.00000000000E+00 -0.00000000000E+00 -0.17299298137E+04  0.17299298137E+04  0.00000000000E+00 0. -1.
         24    2    1    2    0    0 -0.40191779354E+02  0.64924735154E+03 -0.13828269715E+03  0.66980310200E+03  0.79853544188E+02 0.  0.
        254    2    1    2    0    0  0.40191779354E+02 -0.64924735154E+03 -0.10959775902E+04  0.15557962380E+04  0.89229902695E+03 0.  0.
         23    2    4    4    0    0 -0.28207474233E+03  0.66117831161E+02 -0.40743549717E+03  0.50779566843E+03  0.88966446863E+02 0.  0.
         23    2    4    4    0    0  0.32226652169E+03 -0.71536518270E+03 -0.68854209302E+03  0.10480005696E+04  0.92800454849E+02 0.  0.
          4    1    3    3  502    0 -0.48882021375E+02  0.30463866218E+03 -0.92207717405E+02  0.32201930013E+03  0.00000000000E+00 0. -1.
         -3    1    3    3    0  502  0.86902420207E+01  0.34460868936E+03 -0.46074979744E+02  0.34778380188E+03  0.00000000000E+00 0.  1.
         13    1    5    5    0    0 -0.14899405341E+03  0.62354063064E+02 -0.28144536340E+03  0.32449768830E+03  0.00000000000E+00 0.  1.
        -13    1    5    5    0    0 -0.13308068892E+03  0.37637680962E+01 -0.12599013377E+03  0.18329798014E+03  0.00000000000E+00 0. -1.
          2    1    6    6  503    0  0.85465040729E+02 -0.21276998652E+03 -0.14840002367E+03  0.27312617483E+03  0.00000000000E+00 0. -1.
         -2    1    6    6    0  503  0.23680148096E+03 -0.50259519618E+03 -0.54014206935E+03  0.77487439478E+03  0.00000000000E+00 0.  1.
<mgrwt>
<rscale>  0 0.18519973E+04</rscale>
<asrwt>0</asrwt>
<pdfrwt beam="1">  1        2 0.26614306E+00 0.18519973E+04</pdfrwt>
<pdfrwt beam="2">  1       -1 0.76256848E-01 0.18519973E+04</pdfrwt>
<totfact> 0.17449210E+01</totfact>
</mgrwt>
</event>
<event>
12    7  0.1740517E-007  0.2739077E+04  0.7818608E-02  0.8322436E-01
          2   -1    0    0  501    0  0.00000000000E+00  0.00000000000E+00  0.90375636398E+03  0.90375636398E+03  0.00000000000E+00 0. -1.
         -1   -1    0    0    0  501 -0.00000000000E+00 -0.00000000000E+00 -0.20753770172E+04  0.20753770172E+04  0.00000000000E+00 0.  1.
         24    2    1    2    0    0 -0.40190882901E+03 -0.14077828218E+03  0.71553416645E+03  0.83854247066E+03  0.99071187430E+02 0.  0.
        254    2    1    2    0    0  0.40190882901E+03  0.14077828218E+03 -0.18871548197E+04  0.21405909105E+04  0.91620243460E+03 0.  0.
         23    2    4    4    0    0  0.29356560867E+03 -0.13676656424E+03 -0.17800842076E+04  0.18116321884E+04  0.91790740566E+02 0.  0.
         23    2    4    4    0    0  0.10834322034E+03  0.27754484642E+03 -0.10707061203E+03  0.32895872211E+03  0.89332691237E+02 0.  0.
          4    1    3    3  502    0 -0.11711520685E+03 -0.89271262893E+02  0.22170818092E+03  0.26615756150E+03  0.00000000000E+00 0. -1.
         -3    1    3    3    0  502 -0.28479362216E+03 -0.51507019286E+02  0.49382598553E+03  0.57238490917E+03  0.00000000000E+00 0.  1.
         13    1    5    5    0    0  0.10650232770E+03 -0.49521679642E+01 -0.49797512169E+03  0.50926073046E+03  0.00000000000E+00 0. -1.
        -13    1    5    5    0    0  0.18706328097E+03 -0.13181439628E+03 -0.12821090859E+04  0.13023714579E+04  0.00000000000E+00 0.  1.
          4    1    6    6  503    0 -0.79819503709E-01  0.35503883743E+00 -0.18382559581E+02  0.18386161114E+02  0.00000000000E+00 0. -1.
         -4    1    6    6    0  503  0.10842303985E+03  0.27718980758E+03 -0.88688052449E+02  0.31057256100E+03  0.00000000000E+00 0.  1.
<mgrwt>
<rscale>  0 0.27390766E+04</rscale>
<asrwt>0</asrwt>
<pdfrwt beam="1">  1        2 0.13903944E+00 0.27390766E+04</pdfrwt>
<pdfrwt beam="2">  1       -1 0.31928877E+00 0.27390766E+04</pdfrwt>
<totfact> 0.71892694E-01</totfact>
</mgrwt>
</event>
<event>
12    7  0.1740517E-007  0.1412595E+04  0.7818608E-02  0.8944752E-01
         -1   -1    0    0    0  501 -0.00000000000E+00  0.00000000000E+00  0.37227528155E+03  0.37227528155E+03  0.00000000000E+00 0.  1.
          2   -1    0    0  501    0  0.00000000000E+00 -0.00000000000E+00 -0.13400198619E+04  0.13400198619E+04  0.00000000000E+00 0. -1.
         24    2    1    2    0    0 -0.14947956009E+03 -0.47285819832E+02 -0.76241209975E+03  0.78198488459E+03  0.75153590974E+02 0.  0.
        254    2    1    2    0    0  0.14947956009E+03  0.47285819832E+02 -0.20533248063E+03  0.93031025889E+03  0.89372012540E+03 0.  0.
         23    2    4    4    0    0  0.47652542102E+03  0.69527604703E+02 -0.30268439268E+03  0.57619201243E+03  0.92026240412E+02 0.  0.
         23    2    4    4    0    0 -0.32704586092E+03 -0.22241784871E+02  0.97351912053E+02  0.35411824646E+03  0.92025244095E+02 0.  0.
          4    1    3    3  502    0 -0.11655444435E+03 -0.65605457968E+02 -0.64323919477E+03  0.65699747054E+03  0.00000000000E+00 0. -1.
         -1    1    3    3    0  502 -0.32925115740E+02  0.18319638136E+02 -0.11917290498E+03  0.12498741405E+03  0.00000000000E+00 0.  1.
         13    1    5    5    0    0  0.17249369219E+03  0.70079286912E+02 -0.11958995812E+03  0.22128474503E+03  0.00000000000E+00 0.  1.
        -13    1    5    5    0    0  0.30403172883E+03 -0.55168220916E+00 -0.18309443456E+03  0.35490726740E+03  0.00000000000E+00 0. -1.
          1    1    6    6  503    0 -0.24794753675E+03 -0.39657148414E+01  0.11118779225E+03  0.27176540071E+03  0.00000000000E+00 0. -1.
         -1    1    6    6    0  503 -0.79098324171E+02 -0.18276070030E+02 -0.13835880194E+02  0.82352845750E+02  0.00000000000E+00 0.  1.
<mgrwt>
<rscale>  0 0.14125952E+04</rscale>
<asrwt>0</asrwt>
<pdfrwt beam="1">  1        2 0.20615690E+00 0.14125952E+04</pdfrwt>
<pdfrwt beam="2">  1       -1 0.57273120E-01 0.14125952E+04</pdfrwt>
<totfact> 0.53611099E+01</totfact>
</mgrwt>
</event>
<event>
12    7  0.1740517E-007  0.1335933E+04  0.7818608E-02  0.9001545E-01
         -1   -1    0    0    0  501 -0.00000000000E+00  0.00000000000E+00  0.30700466165E+03  0.30700466165E+03  0.00000000000E+00 0.  1.
          2   -1    0    0  501    0  0.00000000000E+00 -0.00000000000E+00 -0.14533315641E+04  0.14533315641E+04  0.00000000000E+00 0. -1.
         24    2    1    2    0    0  0.60873602785E+01  0.33246299586E+03 -0.11394728813E+03  0.36122059262E+03  0.83232400474E+02 0.  0.
        254    2    1    2    0    0 -0.60873602785E+01 -0.33246299586E+03 -0.10323796143E+04  0.13991156331E+04  0.88382588060E+03 0.  0.
         23    2    4    4    0    0  0.13604782453E+03 -0.47518982019E+03 -0.20522277145E+03  0.54279737426E+03  0.90544065554E+02 0.  0.
         23    2    4    4    0    0 -0.14213518481E+03  0.14272682434E+03 -0.82715684284E+03  0.85631825884E+03  0.92299299152E+02 0.  0.
          2    1    3    3  502    0  0.24742252699E+02  0.47366759658E+02 -0.38061635226E+02  0.65608513664E+02  0.00000000000E+00 0. -1.
         -1    1    3    3    0  502 -0.18654892420E+02  0.28509623620E+03 -0.75885652907E+02  0.29561207895E+03  0.00000000000E+00 0.  1.
         13    1    5    5    0    0  0.13217076170E+02 -0.12571435350E+02  0.65673868106E+01  0.19387177689E+02  0.00000000000E+00 0.  1.
        -13    1    5    5    0    0  0.12283074836E+03 -0.46261838484E+03 -0.21179015826E+03  0.52341019657E+03  0.00000000000E+00 0. -1.
          1    1    6    6  503    0 -0.14468189810E+03  0.10146251200E+03 -0.60213922339E+03  0.62753417224E+03  0.00000000000E+00 0. -1.
         -1    1    6    6    0  503  0.25467132938E+01  0.41264312338E+02 -0.22501761944E+03  0.22878408660E+03  0.00000000000E+00 0.  1.
<mgrwt>
<rscale>  0 0.13359335E+04</rscale>
<asrwt>0</asrwt>
<pdfrwt beam="1">  1        2 0.22358947E+00 0.13359335E+04</pdfrwt>
<pdfrwt beam="2">  1       -1 0.47231487E-01 0.13359335E+04</pdfrwt>
<totfact> 0.67203678E+01</totfact>
</mgrwt>
</event>
<event>
12    7  0.1740517E-007  0.2145425E+04  0.7818608E-02  0.8541493E-01
          2   -1    0    0  501    0  0.00000000000E+00  0.00000000000E+00  0.21325178603E+04  0.21325178603E+04  0.00000000000E+00 0. -1.
         -1   -1    0    0    0  501 -0.00000000000E+00 -0.00000000000E+00 -0.53960234553E+03  0.53960234553E+03  0.00000000000E+00 0.  1.
         24    2    1    2    0    0  0.81540527782E+01  0.21583576462E+03 -0.40850715453E+03  0.46895203184E+03  0.79914623168E+02 0.  0.
        254    2    1    2    0    0 -0.81540527782E+01 -0.21583576462E+03  0.20014226693E+04  0.22031681740E+04  0.89532437465E+03 0.  0.
         23    2    4    4    0    0  0.23377096550E+03  0.24843385225E+03  0.11165675093E+04  0.11710561023E+04  0.91000816961E+02 0.  0.
         23    2    4    4    0    0 -0.24192501828E+03 -0.46426961687E+03  0.88485516001E+03  0.10321120717E+04  0.90623852950E+02 0.  0.
          2    1    3    3  502    0  0.28397284977E+01  0.10367812494E+03 -0.11584969275E+03  0.15549395152E+03  0.00000000000E+00 0. -1.
         -1    1    3    3    0  502  0.53143242805E+01  0.11215763968E+03 -0.29265746178E+03  0.31345808032E+03  0.00000000000E+00 0.  1.
         13    1    5    5    0    0 -0.16455678360E+01  0.35225234802E+02  0.12323344909E+03  0.12817959290E+03  0.00000000000E+00 0.  1.
        -13    1    5    5    0    0  0.23541653334E+03  0.21320861745E+03  0.99333406016E+03  0.10428765094E+04  0.00000000000E+00 0. -1.
          2    1    6    6  503    0 -0.17968149822E+03 -0.24795067814E+03  0.50975135258E+03  0.59465235310E+03  0.00000000000E+00 0. -1.
         -2    1    6    6    0  503 -0.62243520058E+02 -0.21631893872E+03  0.37510380743E+03  0.43745971859E+03  0.00000000000E+00 0.  1.
<mgrwt>
<rscale>  0 0.21454246E+04</rscale>
<asrwt>0</asrwt>
<pdfrwt beam="1">  1        2 0.32807967E+00 0.21454246E+04</pdfrwt>
<pdfrwt beam="2">  1       -1 0.83015746E-01 0.21454246E+04</pdfrwt>
<totfact> 0.84841090E+00</totfact>
</mgrwt>
</event>
<event>
12    7  0.1740517E-007  0.1488045E+04  0.7818608E-02  0.8892442E-01
          2   -1    0    0  501    0  0.00000000000E+00  0.00000000000E+00  0.88254119694E+03  0.88254119694E+03  0.00000000000E+00 0. -1.
         -1   -1    0    0    0  501 -0.00000000000E+00 -0.00000000000E+00 -0.62724514496E+03  0.62724514496E+03  0.00000000000E+00 0.  1.
         24    2    1    2    0    0  0.10616480342E+03  0.45060523156E+03  0.27217187501E+02  0.47052484118E+03  0.79604087056E+02 0.  0.
        254    2    1    2    0    0 -0.10616480342E+03 -0.45060523156E+03  0.22807886448E+03  0.10392615007E+04  0.90206898753E+03 0.  0.
         23    2    4    4    0    0 -0.43602262761E+03 -0.27215713089E+03 -0.10172534808E+03  0.53151900349E+03  0.89326194053E+02 0.  0.
         23    2    4    4    0    0  0.32985782420E+03 -0.17844810067E+03  0.32980421256E+03  0.50774249723E+03  0.91551712462E+02 0.  0.
          2    1    3    3  502    0 -0.31983681038E+01  0.14028285056E+03  0.16905259938E+02  0.14133398577E+03  0.00000000000E+00 0. -1.
         -1    1    3    3    0  502  0.10936317152E+03  0.31032238100E+03  0.10311927563E+02  0.32919085541E+03  0.00000000000E+00 0.  1.
         13    1    5    5    0    0 -0.17188874618E+02 -0.35269384204E+02  0.19879619810E+01  0.39285351794E+02  0.00000000000E+00 0. -1.
        -13    1    5    5    0    0 -0.41883375300E+03 -0.23688774669E+03 -0.10371331006E+03  0.49223365170E+03  0.00000000000E+00 0.  1.
          4    1    6    6  503    0  0.26993485745E+03 -0.10589075425E+03  0.22599555425E+03  0.36762979972E+03  0.00000000000E+00 0.  1.
         -4    1    6    6    0  503  0.59922966745E+02 -0.72557346421E+02  0.10380865830E+03  0.14011269750E+03  0.00000000000E+00 0. -1.
<mgrwt>
<rscale>  0 0.14880453E+04</rscale>
<asrwt>0</asrwt>
<pdfrwt beam="1">  1        2 0.13577557E+00 0.14880453E+04</pdfrwt>
<pdfrwt beam="2">  1       -1 0.96499253E-01 0.14880453E+04</pdfrwt>
<totfact> 0.34391828E+01</totfact>
</mgrwt>
</event>
<event>
12    7  0.1740517E-007  0.1952778E+04  0.7818608E-02  0.8629022E-01
         -1   -1    0    0    0  501 -0.00000000000E+00  0.00000000000E+00  0.53575584641E+03  0.53575584641E+03  0.00000000000E+00 0.  1.
          2   -1    0    0  501    0  0.00000000000E+00 -0.00000000000E+00 -0.17794218028E+04  0.17794218028E+04  0.00000000000E+00 0. -1.
         24    2    1    2    0    0 -0.19074322162E+03  0.82342452475E+02 -0.13583937164E+04  0.13766086306E+04  0.81575591795E+02 0.  0.
        254    2    1    2    0    0  0.19074322162E+03 -0.82342452475E+02  0.11472775993E+03  0.93856901864E+03  0.90806722647E+03 0.  0.
         23    2    4    4    0    0 -0.13094561560E+03 -0.16814769384E+02 -0.33741478666E+03  0.37319407257E+03  0.89418045343E+02 0.  0.
         23    2    4    4    0    0  0.32168883722E+03 -0.65527683091E+02  0.45214254659E+03  0.56537494607E+03  0.86245938827E+02 0.  0.
          4    1    3    3  502    0 -0.15762918486E+03  0.90325890253E+02 -0.12457414998E+04  0.12589192232E+04  0.00000000000E+00 0. -1.
         -3    1    3    3    0  502 -0.33114036754E+02 -0.79834377784E+01 -0.11265221660E+03  0.11768940740E+03  0.00000000000E+00 0.  1.
         13    1    5    5    0    0 -0.17940401136E+02 -0.23171107955E+01 -0.16837603077E+03  0.16934495780E+03  0.00000000000E+00 0. -1.
        -13    1    5    5    0    0 -0.11300521446E+03 -0.14497658589E+02 -0.16903875590E+03  0.20384911478E+03  0.00000000000E+00 0.  1.
          2    1    6    6  503    0  0.20432198327E+03 -0.55295944675E+02  0.35204793836E+03  0.41078323389E+03  0.00000000000E+00 0. -1.
         -2    1    6    6    0  503  0.11736685394E+03 -0.10231738416E+02  0.10009460823E+03  0.15459171217E+03  0.00000000000E+00 0.  1.
<mgrwt>
<rscale>  0 0.19527782E+04</rscale>
<asrwt>0</asrwt>
<pdfrwt beam="1">  1        2 0.27375720E+00 0.19527782E+04</pdfrwt>
<pdfrwt beam="2">  1       -1 0.82423977E-01 0.19527782E+04</pdfrwt>
<totfact> 0.13767356E+01</totfact>
</mgrwt>
</event>
<event>
12    7  0.1740517E-007  0.1601605E+04  0.7818608E-02  0.8819562E-01
          2   -1    0    0  501    0  0.00000000000E+00  0.00000000000E+00  0.24214204354E+04  0.24214204354E+04  0.00000000000E+00 0. -1.
         -1   -1    0    0    0  501 -0.00000000000E+00 -0.00000000000E+00 -0.26483836921E+03  0.26483836921E+03  0.00000000000E+00 0.  1.
         24    2    1    2    0    0 -0.81072118573E+02 -0.21470875104E+03  0.15829058685E+04  0.16014316606E+04  0.79497413038E+02 0.  0.
        254    2    1    2    0    0  0.81072118573E+02  0.21470875104E+03  0.57367619761E+03  0.10848271440E+04  0.89166866964E+03 0.  0.
         23    2    4    4    0    0  0.22158548321E+03 -0.12245345477E+03  0.64729884409E+03  0.70123599413E+03  0.92957791202E+02 0.  0.
         23    2    4    4    0    0 -0.14051336464E+03  0.33716220581E+03 -0.73622646474E+02  0.38359114985E+03  0.91101687719E+02 0.  0.
          4    1    3    3  502    0 -0.15272022172E+02 -0.50693050345E+02  0.63423090681E+03  0.63643684932E+03  0.00000000000E+00 0. -1.
         -3    1    3    3    0  502 -0.65800096401E+02 -0.16401570069E+03  0.94867496173E+03  0.96499481127E+03  0.00000000000E+00 0.  1.
         13    1    5    5    0    0  0.96496031143E+02 -0.62936193312E+01  0.19175508729E+03  0.21475825286E+03  0.00000000000E+00 0.  1.
        -13    1    5    5    0    0  0.12508945207E+03 -0.11615983544E+03  0.45554375680E+03  0.48647774126E+03  0.00000000000E+00 0. -1.
          3    1    6    6  503    0 -0.15328434943E+03  0.30332944189E+03 -0.71931132245E+02  0.34738873022E+03  0.00000000000E+00 0. -1.
         -3    1    6    6    0  503  0.12770984793E+02  0.33832763921E+02 -0.16915142290E+01  0.36202419637E+02  0.00000000000E+00 0.  1.
<mgrwt>
<rscale>  0 0.16016055E+04</rscale>
<asrwt>0</asrwt>
<pdfrwt beam="1">  1        2 0.37252621E+00 0.16016055E+04</pdfrwt>
<pdfrwt beam="2">  1       -1 0.40744366E-01 0.16016055E+04</pdfrwt>
<totfact> 0.24888965E+01</totfact>
</mgrwt>
</event>
<event>
12    7  0.1740517E-007  0.1793869E+04  0.7818608E-02  0.8709567E-01
          2   -1    0    0  501    0  0.00000000000E+00  0.00000000000E+00  0.65107407803E+03  0.65107407803E+03  0.00000000000E+00 0. -1.
         -1   -1    0    0    0  501 -0.00000000000E+00 -0.00000000000E+00 -0.12356374224E+04  0.12356374224E+04  0.00000000000E+00 0.  1.
         24    2    1    2    0    0 -0.44871198410E+03  0.12646374872E+03 -0.72295180100E+03  0.86412926801E+03  0.82003419804E+02 0.  0.
        254    2    1    2    0    0  0.44871198410E+03 -0.12646374872E+03  0.13838845663E+03  0.10225822324E+04  0.89954851604E+03 0.  0.
         23    2    4    4    0    0  0.59722483999E+03 -0.27031165694E+03 -0.12636457061E+03  0.67476825874E+03  0.97970898319E+02 0.  0.
         23    2    4    4    0    0 -0.14851285590E+03  0.14384790822E+03  0.26475302724E+03  0.34781397367E+03  0.90178189033E+02 0.  0.
          4    1    3    3  502    0 -0.35852968326E+02  0.64173566129E+01 -0.10642474149E+03  0.11248485855E+03  0.00000000000E+00 0. -1.
         -3    1    3    3    0  502 -0.41285901577E+03  0.12004639210E+03 -0.61652705951E+03  0.75164440946E+03  0.00000000000E+00 0.  1.
         13    1    5    5    0    0  0.36170547268E+03 -0.11275349351E+03 -0.86436886668E+02  0.38860717266E+03  0.00000000000E+00 0.  1.
        -13    1    5    5    0    0  0.23551936731E+03 -0.15755816343E+03 -0.39927683947E+02  0.28616108608E+03  0.00000000000E+00 0. -1.
          1    1    6    6  503    0 -0.63076914209E+02  0.11190702432E+03  0.11470595052E+03  0.17221885577E+03  0.00000000000E+00 0. -1.
         -1    1    6    6    0  503 -0.85435941688E+02  0.31940883905E+02  0.15004707672E+03  0.17559511789E+03  0.00000000000E+00 0.  1.
<mgrwt>
<rscale>  0 0.17938690E+04</rscale>
<asrwt>0</asrwt>
<pdfrwt beam="1">  1        2 0.10016524E+00 0.17938690E+04</pdfrwt>
<pdfrwt beam="2">  1       -1 0.19009806E+00 0.17938690E+04</pdfrwt>
<totfact> 0.85377790E+00</totfact>
</mgrwt>
</event>
<event>
12    7  0.1740517E-007  0.2139847E+04  0.7818608E-02  0.8543891E-01
          2   -1    0    0  501    0  0.00000000000E+00  0.00000000000E+00  0.16797081562E+04  0.16797081562E+04  0.00000000000E+00 0. -1.
         -1   -1    0    0    0  501 -0.00000000000E+00 -0.00000000000E+00 -0.68150887658E+03  0.68150887658E+03  0.00000000000E+00 0.  1.
         24    2    1    2    0    0  0.80578482840E+03  0.47560409899E+01  0.74246735598E+03  0.10986661470E+04  0.80608425971E+02 0.  0.
        254    2    1    2    0    0 -0.80578482840E+03 -0.47560409899E+01  0.25573192366E+03  0.12625508858E+04  0.93772283365E+03 0.  0.
         23    2    4    4    0    0 -0.72645397201E+03  0.30735956777E+02 -0.22308885553E+03  0.76576455304E+03  0.89143932752E+02 0.  0.
         23    2    4    4    0    0 -0.79330856392E+02 -0.35491997767E+02  0.47882077919E+03  0.49678633272E+03  0.99871192588E+02 0.  0.
          4    1    3    3  502    0  0.11468625264E+03  0.13830660758E+01  0.69913987658E+02  0.13432354629E+03  0.00000000000E+00 0. -1.
         -3    1    3    3    0  502  0.69109857576E+03  0.33729749141E+01  0.67255336832E+03  0.96434260074E+03  0.00000000000E+00 0.  1.
         13    1    5    5    0    0 -0.52270085141E+03  0.33121226880E+02 -0.20023326019E+03  0.56071967526E+03  0.00000000000E+00 0. -1.
        -13    1    5    5    0    0 -0.20375312060E+03 -0.23852701024E+01 -0.22855595344E+02  0.20504487778E+03  0.00000000000E+00 0.  1.
          2    1    6    6  503    0 -0.49746382550E+02 -0.43793006106E+02  0.44934819381E+03  0.45420956533E+03  0.00000000000E+00 0. -1.
         -2    1    6    6    0  503 -0.29584473842E+02  0.83010083387E+01  0.29472585385E+02  0.42576767388E+02  0.00000000000E+00 0.  1.
<mgrwt>
<rscale>  0 0.21398467E+04</rscale>
<asrwt>0</asrwt>
<pdfrwt beam="1">  1        2 0.25841664E+00 0.21398467E+04</pdfrwt>
<pdfrwt beam="2">  1       -1 0.10484752E+00 0.21398467E+04</pdfrwt>
<totfact> 0.89947330E+00</totfact>
</mgrwt>
</event>
<event>
12    7  0.1740517E-007  0.1446745E+04  0.7818608E-02  0.8920660E-01
         -1   -1    0    0    0  501 -0.00000000000E+00  0.00000000000E+00  0.66963875566E+03  0.66963875566E+03  0.00000000000E+00 0.  1.
          2   -1    0    0  501    0  0.00000000000E+00 -0.00000000000E+00 -0.78141759452E+03  0.78141759452E+03  0.00000000000E+00 0. -1.
         24    2    1    2    0    0  0.28528162262E+03 -0.10366409857E+03 -0.12353011919E+03  0.33686115409E+03  0.77999341357E+02 0.  0.
        254    2    1    2    0    0 -0.28528162262E+03  0.10366409857E+03  0.11751280322E+02  0.11141951961E+04  0.10719892690E+04 0.  0.
         23    2    4    4    0    0  0.38140916323E+01  0.48009759779E+03  0.27764088162E+03  0.56206278342E+03  0.91224243838E+02 0.  0.
         23    2    4    4    0    0 -0.28909571425E+03 -0.37643349922E+03 -0.26588960130E+03  0.55213241267E+03  0.94204085386E+02 0.  0.
          4    1    3    3  502    0  0.25315550343E+03 -0.10777147009E+03 -0.12922586001E+03  0.30397651484E+03  0.00000000000E+00 0. -1.
         -3    1    3    3    0  502  0.32126119190E+02  0.41073715209E+01  0.56957408162E+01  0.32884639248E+02  0.00000000000E+00 0.  1.
         13    1    5    5    0    0  0.45854228283E+02  0.26144417047E+03  0.16493242029E+03  0.31250338844E+03  0.00000000000E+00 0.  1.
        -13    1    5    5    0    0 -0.42040136651E+02  0.21865342732E+03  0.11270846133E+03  0.24955939498E+03  0.00000000000E+00 0. -1.
          1    1    6    6  503    0 -0.16725612686E+03 -0.23792474046E+03 -0.21217077793E+03  0.35999893486E+03  0.00000000000E+00 0. -1.
         -1    1    6    6    0  503 -0.12183958739E+03 -0.13850875876E+03 -0.53718823375E+02  0.19213347780E+03  0.00000000000E+00 0.  1.
<mgrwt>
<rscale>  0 0.14467446E+04</rscale>
<asrwt>0</asrwt>
<pdfrwt beam="1">  1        2 0.12021809E+00 0.14467446E+04</pdfrwt>
<pdfrwt beam="2">  1       -1 0.10302135E+00 0.14467446E+04</pdfrwt>
<totfact> 0.35038847E+01</totfact>
</mgrwt>
</event>
<event>
12    7  0.1740517E-007  0.2138838E+04  0.7818608E-02  0.8544325E-01
          2   -1    0    0  501    0  0.00000000000E+00  0.00000000000E+00  0.24740631037E+04  0.24740631037E+04  0.00000000000E+00 0. -1.
         -1   -1    0    0    0  501 -0.00000000000E+00 -0.00000000000E+00 -0.46225879746E+03  0.46225879746E+03  0.00000000000E+00 0.  1.
         24    2    1    2    0    0 -0.67872124888E+03  0.41444757533E+03  0.13312852337E+04  0.15527323239E+04  0.78917487630E+02 0.  0.
        254    2    1    2    0    0  0.67872124888E+03 -0.41444757533E+03  0.68051907249E+03  0.13835895772E+04  0.90486716358E+03 0.  0.
         23    2    4    4    0    0  0.21316968756E+03 -0.63870326326E+03  0.41130930493E+03  0.79396298192E+03  0.88423402674E+02 0.  0.
         23    2    4    4    0    0  0.46555156132E+03  0.22425568792E+03  0.26920976755E+03  0.58962659528E+03  0.90314744664E+02 0.  0.
          2    1    3    3  502    0 -0.66356357753E+03  0.39793772085E+03  0.13120240445E+04  0.15231802732E+04  0.00000000000E+00 0. -1.
         -1    1    3    3    0  502 -0.15157671352E+02  0.16509854481E+02  0.19261189200E+02  0.29552050778E+02  0.00000000000E+00 0.  1.
         13    1    5    5    0    0  0.49056068297E+02 -0.74799873227E+02  0.77947550494E+02  0.11864796458E+03  0.00000000000E+00 0. -1.
        -13    1    5    5    0    0  0.16411361927E+03 -0.56390339003E+03  0.33336175444E+03  0.67531501734E+03  0.00000000000E+00 0.  1.
          1    1    6    6  503    0  0.15112445350E+03  0.78424270046E+02  0.42562592289E+02  0.17550082860E+03  0.00000000000E+00 0. -1.
         -1    1    6    6    0  503  0.31442710782E+03  0.14583141788E+03  0.22664717526E+03  0.41412576668E+03  0.00000000000E+00 0.  1.
<mgrwt>
<rscale>  0 0.21388384E+04</rscale>
<asrwt>0</asrwt>
<pdfrwt beam="1">  1        2 0.38062509E+00 0.21388384E+04</pdfrwt>
<pdfrwt beam="2">  1       -1 0.71116739E-01 0.21388384E+04</pdfrwt>
<totfact> 0.75252044E+00</totfact>
</mgrwt>
</event>
<event>
12    7  0.1740517E-007  0.3189768E+04  0.7818608E-02  0.8191525E-01
          2   -1    0    0  501    0  0.00000000000E+00  0.00000000000E+00  0.22895148414E+04  0.22895148414E+04  0.00000000000E+00 0. -1.
         -1   -1    0    0    0  501 -0.00000000000E+00 -0.00000000000E+00 -0.11110019891E+04  0.11110019891E+04  0.00000000000E+00 0.  1.
         24    2    1    2    0    0  0.78287555498E+03  0.54392430469E+03  0.17307211336E+04  0.19779427889E+04  0.90079132597E+02 0.  0.
        254    2    1    2    0    0 -0.78287555498E+03 -0.54392430469E+03 -0.55220828132E+03  0.14225740416E+04  0.90001951875E+03 0.  0.
         23    2    4    4    0    0  0.44559916787E+02 -0.28970172681E+03  0.11228450999E+03  0.32736817401E+03  0.93002330473E+02 0.  0.
         23    2    4    4    0    0 -0.82743547177E+03 -0.25422257788E+03 -0.66449279132E+03  0.10952058676E+04  0.92987330848E+02 0.  0.
          2    1    3    3  502    0  0.54910225265E+03  0.37878931065E+03  0.11228050687E+04  0.13060190841E+04  0.00000000000E+00 0. -1.
         -1    1    3    3    0  502  0.23377330233E+03  0.16513499403E+03  0.60791606487E+03  0.67192370480E+03  0.00000000000E+00 0.  1.
         13    1    5    5    0    0  0.61126986923E+02 -0.28183057246E+03  0.99729340723E+02  0.30514082241E+03  0.00000000000E+00 0.  1.
        -13    1    5    5    0    0 -0.16567070136E+02 -0.78711543477E+01  0.12555169271E+02  0.22227351599E+02  0.00000000000E+00 0. -1.
          3    1    6    6  503    0 -0.35478273350E+03 -0.15704334772E+03 -0.28960920928E+03  0.48415585833E+03  0.00000000000E+00 0. -1.
         -3    1    6    6    0  503 -0.47265273826E+03 -0.97179230157E+02 -0.37488358204E+03  0.61105000928E+03  0.00000000000E+00 0.  1.
<mgrwt>
<rscale>  0 0.31897684E+04</rscale>
<asrwt>0</asrwt>
<pdfrwt beam="1">  1        2 0.35223305E+00 0.31897684E+04</pdfrwt>
<pdfrwt beam="2">  1       -1 0.17092338E+00 0.31897684E+04</pdfrwt>
<totfact> 0.10666715E+00</totfact>
</mgrwt>
</event>
<event>
12    7  0.1740517E-007  0.2812425E+04  0.7818608E-02  0.8299421E-01
         -1   -1    0    0    0  501 -0.00000000000E+00  0.00000000000E+00  0.10594469619E+04  0.10594469619E+04  0.00000000000E+00 0.  1.
          2   -1    0    0  501    0  0.00000000000E+00 -0.00000000000E+00 -0.18664769386E+04  0.18664769386E+04  0.00000000000E+00 0. -1.
         24    2    1    2    0    0  0.90690134997E+03 -0.15426006982E+03 -0.12625238105E+04  0.15641839602E+04  0.80242516950E+02 0.  0.
        254    2    1    2    0    0 -0.90690134997E+03  0.15426006982E+03  0.45549383393E+03  0.13617399403E+04  0.89475963501E+03 0.  0.
         23    2    4    4    0    0 -0.80197779810E+03  0.10082290370E+03  0.70159736302E+03  0.10739707432E+04  0.88547450341E+02 0.  0.
         23    2    4    4    0    0 -0.10492355187E+03  0.53437166119E+02 -0.24610352909E+03  0.28776919703E+03  0.91540599007E+02 0.  0.
          4    1    3    3  502    0  0.82767874057E+03 -0.13056229735E+03 -0.11108472330E+04  0.13914309851E+04  0.00000000000E+00 0. -1.
         -3    1    3    3    0  502  0.79222609402E+02 -0.23697772474E+02 -0.15167657750E+03  0.17275297515E+03  0.00000000000E+00 0.  1.
         13    1    5    5    0    0 -0.45166981062E+03  0.77342096262E+02  0.34548666169E+03  0.57388888392E+03  0.00000000000E+00 0. -1.
        -13    1    5    5    0    0 -0.35030798748E+03  0.23480807441E+02  0.35611070133E+03  0.50008185932E+03  0.00000000000E+00 0.  1.
          2    1    6    6  503    0 -0.95792592344E+02  0.61381023917E+02 -0.25031285923E+03  0.27495522970E+03  0.00000000000E+00 0. -1.
         -2    1    6    6    0  503 -0.91309595253E+01 -0.79438577982E+01  0.42093301318E+01  0.12813967330E+02  0.00000000000E+00 0.  1.
<mgrwt>
<rscale>  0 0.28124248E+04</rscale>
<asrwt>0</asrwt>
<pdfrwt beam="1">  1        2 0.28715030E+00 0.28124248E+04</pdfrwt>
<pdfrwt beam="2">  1       -1 0.16299184E+00 0.28124248E+04</pdfrwt>
<totfact> 0.21751054E+00</totfact>
</mgrwt>
</event>
<event>
12    7  0.1740517E-007  0.2072223E+04  0.7818608E-02  0.8573579E-01
          2   -1    0    0  501    0  0.00000000000E+00  0.00000000000E+00  0.88403603354E+03  0.88403603354E+03  0.00000000000E+00 0. -1.
         -1   -1    0    0    0  501 -0.00000000000E+00 -0.00000000000E+00 -0.12143477558E+04  0.12143477558E+04  0.00000000000E+00 0.  1.
         24    2    1    2    0    0  0.19365263205E+03 -0.46853594321E+03 -0.80277080383E+03  0.95261639993E+03  0.77522706035E+02 0.  0.
        254    2    1    2    0    0 -0.19365263205E+03  0.46853594321E+03  0.47245908157E+03  0.11457673894E+04  0.91243523326E+03 0.  0.
         23    2    4    4    0    0  0.27099035574E+03  0.48025033538E+03  0.34129006638E+03  0.65417248765E+03  0.85945195592E+02 0.  0.
         23    2    4    4    0    0 -0.46464298780E+03 -0.11714392175E+02  0.13116901519E+03  0.49159490176E+03  0.91814507528E+02 0.  0.
          2    1    3    3  502    0  0.15306454421E+01 -0.36026706769E+02 -0.32334953668E+02  0.48433621637E+02  0.00000000000E+00 0. -1.
         -1    1    3    3    0  502  0.19212198661E+03 -0.43250923644E+03 -0.77043585016E+03  0.90418277829E+03  0.00000000000E+00 0.  1.
         13    1    5    5    0    0  0.12841203252E+03  0.19841099088E+03  0.19353063287E+03  0.30546796438E+03  0.00000000000E+00 0. -1.
        -13    1    5    5    0    0  0.14257832322E+03  0.28183934450E+03  0.14775943351E+03  0.34870452327E+03  0.00000000000E+00 0.  1.
          3    1    6    6  503    0 -0.36338600799E+03  0.25262087725E+02  0.83404763379E+02  0.37368960172E+03  0.00000000000E+00 0. -1.
         -3    1    6    6    0  503 -0.10125697981E+03 -0.36976479900E+02  0.47764251812E+02  0.11790530004E+03  0.00000000000E+00 0.  1.
<mgrwt>
<rscale>  0 0.20722231E+04</rscale>
<asrwt>0</asrwt>
<pdfrwt beam="1">  1        2 0.13600554E+00 0.20722231E+04</pdfrwt>
<pdfrwt beam="2">  1       -1 0.18682273E+00 0.20722231E+04</pdfrwt>
<totfact> 0.58942533E+00</totfact>
</mgrwt>
</event>
<event>
12    7  0.1740517E-007  0.1328265E+04  0.7818608E-02  0.9007446E-01
          2   -1    0    0  501    0  0.00000000000E+00  0.00000000000E+00  0.12080825999E+04  0.12080825999E+04  0.00000000000E+00 0. -1.
         -1   -1    0    0    0  501 -0.00000000000E+00 -0.00000000000E+00 -0.36510104617E+03  0.36510104617E+03  0.00000000000E+00 0.  1.
         24    2    1    2    0    0  0.93635663620E+02  0.25558220251E+03  0.14077547512E+03  0.31464358740E+03  0.71364928058E+02 0.  0.
        254    2    1    2    0    0 -0.93635663620E+02 -0.25558220251E+03  0.70220607865E+03  0.12585400587E+04  0.10083351639E+04 0.  0.
         23    2    4    4    0    0  0.34258375921E+03  0.19618951887E+03  0.21974967479E+03  0.46098296836E+03  0.91440790459E+02 0.  0.
         23    2    4    4    0    0 -0.43621942283E+03 -0.45177172137E+03  0.48245640386E+03  0.79755709036E+03  0.94594173493E+02 0.  0.
          4    1    3    3  502    0  0.80887801484E+02  0.24869688684E+03  0.14566611490E+03  0.29935195837E+03  0.00000000000E+00 0. -1.
         -3    1    3    3    0  502  0.12747862136E+02  0.68853156686E+01 -0.48906397771E+01  0.15291629028E+02  0.00000000000E+00 0.  1.
         13    1    5    5    0    0  0.22587906550E+03  0.12976963787E+03  0.19263668031E+03  0.32399136061E+03  0.00000000000E+00 0. -1.
        -13    1    5    5    0    0  0.11670469371E+03  0.66419881000E+02  0.27112994472E+02  0.13699160775E+03  0.00000000000E+00 0.  1.
          3    1    6    6  503    0 -0.21242037858E+03 -0.15719160089E+03  0.18047032952E+03  0.32000180697E+03  0.00000000000E+00 0. -1.
         -3    1    6    6    0  503 -0.22379904425E+03 -0.29458012049E+03  0.30198607434E+03  0.47755528338E+03  0.00000000000E+00 0.  1.
<mgrwt>
<rscale>  0 0.13282654E+04</rscale>
<asrwt>0</asrwt>
<pdfrwt beam="1">  1        2 0.18585886E+00 0.13282654E+04</pdfrwt>
<pdfrwt beam="2">  1       -1 0.56169392E-01 0.13282654E+04</pdfrwt>
<totfact> 0.66991452E+01</totfact>
</mgrwt>
</event>
<event>
12    7  0.1740517E-007  0.2228572E+04  0.7818608E-02  0.8506629E-01
         -1   -1    0    0    0  501 -0.00000000000E+00  0.00000000000E+00  0.62702977448E+03  0.62702977448E+03  0.00000000000E+00 0.  1.
          2   -1    0    0  501    0  0.00000000000E+00 -0.00000000000E+00 -0.19801825290E+04  0.19801825290E+04  0.00000000000E+00 0. -1.
         24    2    1    2    0    0 -0.48634467561E+03  0.68752634323E+03 -0.10548105738E+04  0.13518976264E+04  0.76014665417E+02 0.  0.
        254    2    1    2    0    0  0.48634467561E+03 -0.68752634323E+03 -0.29834218070E+03  0.12553146771E+04  0.88180681881E+03 0.  0.
         23    2    4    4    0    0  0.57862662223E+03 -0.83168631740E+03 -0.19695039227E+03  0.10362133494E+04  0.91857226146E+02 0.  0.
         23    2    4    4    0    0 -0.92281946624E+02  0.14415997416E+03 -0.10139178842E+03  0.21910132771E+03  0.91798917308E+02 0.  0.
          2    1    3    3  502    0 -0.28161452288E+03  0.40537310123E+03 -0.67696491631E+03  0.83780402757E+03  0.00000000000E+00 0. -1.
         -1    1    3    3    0  502 -0.20473015272E+03  0.28215324200E+03 -0.37784565751E+03  0.51409359878E+03  0.00000000000E+00 0.  1.
         13    1    5    5    0    0  0.91699461043E+02 -0.10176154707E+03 -0.53854988697E+02  0.14718886991E+03  0.00000000000E+00 0. -1.
        -13    1    5    5    0    0  0.48692716119E+03 -0.72992477033E+03 -0.14309540358E+03  0.88902447952E+03  0.00000000000E+00 0.  1.
          4    1    6    6  503    0 -0.14996131644E+02 -0.43165838379E+01 -0.36284786533E+02  0.39498134058E+02  0.00000000000E+00 0. -1.
         -4    1    6    6    0  503 -0.77285814980E+02  0.14847655800E+03 -0.65107001891E+02  0.17960319365E+03  0.00000000000E+00 0.  1.
<mgrwt>
<rscale>  0 0.22285721E+04</rscale>
<asrwt>0</asrwt>
<pdfrwt beam="1">  1        2 0.30464347E+00 0.22285721E+04</pdfrwt>
<pdfrwt beam="2">  1       -1 0.96466118E-01 0.22285721E+04</pdfrwt>
<totfact> 0.73573968E+00</totfact>
</mgrwt>
</event>
<event>
12    7  0.1740517E-007  0.2050387E+04  0.7818608E-02  0.8583419E-01
         -1   -1    0    0    0  501 -0.00000000000E+00  0.00000000000E+00  0.13220098938E+04  0.13220098938E+04  0.00000000000E+00 0.  1.
          2   -1    0    0  501    0  0.00000000000E+00 -0.00000000000E+00 -0.79501793054E+03  0.79501793054E+03  0.00000000000E+00 0. -1.
         24    2    1    2    0    0  0.19305948589E+03  0.35103923961E+03 -0.52711904723E+03  0.66654095772E+03  0.76953528393E+02 0.  0.
        254    2    1    2    0    0 -0.19305948589E+03 -0.35103923961E+03  0.10541110105E+04  0.14504868666E+04  0.91228373600E+03 0.  0.
         23    2    4    4    0    0 -0.19726858937E+03 -0.21294311657E+03 -0.71580592999E+02  0.31258029398E+03  0.91230431553E+02 0.  0.
         23    2    4    4    0    0  0.42091034861E+01 -0.13809612304E+03  0.11256916035E+04  0.11379065726E+04  0.92528515301E+02 0.  0.
          4    1    3    3  502    0  0.13899925657E+03  0.28592569392E+03 -0.45660971374E+03  0.55638720910E+03  0.00000000000E+00 0. -1.
         -3    1    3    3    0  502  0.54060229314E+02  0.65113545690E+02 -0.70509333490E+02  0.11015374862E+03  0.00000000000E+00 0.  1.
         13    1    5    5    0    0 -0.30561392360E+02 -0.80403238611E+02 -0.47471182993E+02  0.98245573421E+02  0.00000000000E+00 0. -1.
        -13    1    5    5    0    0 -0.16670719701E+03 -0.13253987796E+03 -0.24109410006E+02  0.21433472056E+03  0.00000000000E+00 0.  1.
          4    1    6    6  503    0 -0.17944155343E+02 -0.67395998098E+02  0.26473122445E+03  0.27376419501E+03  0.00000000000E+00 0. -1.
         -4    1    6    6    0  503  0.22153258829E+02 -0.70700124937E+02  0.86096037904E+03  0.86414237763E+03  0.00000000000E+00 0.  1.
<mgrwt>
<rscale>  0 0.20503869E+04</rscale>
<asrwt>0</asrwt>
<pdfrwt beam="1">  1        2 0.12231045E+00 0.20503869E+04</pdfrwt>
<pdfrwt beam="2">  1       -1 0.20338614E+00 0.20503869E+04</pdfrwt>
<totfact> 0.52309772E+00</totfact>
</mgrwt>
</event>
<event>
12    7  0.1740517E-007  0.4012889E+04  0.7818608E-02  0.8001951E-01
         -1   -1    0    0    0  501 -0.00000000000E+00  0.00000000000E+00  0.14997880645E+04  0.14997880645E+04  0.00000000000E+00 0.  1.
          2   -1    0    0  501    0  0.00000000000E+00 -0.00000000000E+00 -0.26842590815E+04  0.26842590815E+04  0.00000000000E+00 0. -1.
         24    2    1    2    0    0  0.28563815344E+03 -0.42453684185E+03  0.13543686870E+04  0.14500185381E+04  0.80115763446E+02 0.  0.
        254    2    1    2    0    0 -0.28563815344E+03  0.42453684185E+03 -0.25388397041E+04  0.27340286079E+04  0.87600496634E+03 0.  0.
         23    2    4    4    0    0  0.69547491449E+02  0.59426341248E+03 -0.16576400991E+04  0.17646260383E+04  0.90269042713E+02 0.  0.
         23    2    4    4    0    0 -0.35518564489E+03 -0.16972657063E+03 -0.88119960505E+03  0.96940256963E+03  0.90910103690E+02 0.  0.
          4    1    3    3  502    0  0.16925663442E+03 -0.19714148011E+03  0.60979354033E+03  0.66284291752E+03  0.00000000000E+00 0. -1.
         -3    1    3    3    0  502  0.11638151903E+03 -0.22739536174E+03  0.74457514671E+03  0.78717562057E+03  0.00000000000E+00 0.  1.
         13    1    5    5    0    0  0.70711282931E+02  0.57696658782E+03 -0.15463810075E+04  0.16520244397E+04  0.00000000000E+00 0. -1.
        -13    1    5    5    0    0 -0.11637914820E+01  0.17296824657E+02 -0.11125909161E+03  0.11260159865E+03  0.00000000000E+00 0.  1.
          1    1    6    6  503    0 -0.29191385145E+03 -0.16032632277E+03 -0.66191626010E+03  0.74098000096E+03  0.00000000000E+00 0. -1.
         -1    1    6    6    0  503 -0.63271793446E+02 -0.94002478562E+01 -0.21928334494E+03  0.22842256866E+03  0.00000000000E+00 0.  1.
<mgrwt>
<rscale>  0 0.40128891E+04</rscale>
<asrwt>0</asrwt>
<pdfrwt beam="1">  1        2 0.41296294E+00 0.40128891E+04</pdfrwt>
<pdfrwt beam="2">  1       -1 0.23073663E+00 0.40128891E+04</pdfrwt>
<totfact> 0.22674740E-01</totfact>
</mgrwt>
</event>
<event>
12    7  0.1740517E-007  0.2167835E+04  0.7818608E-02  0.8531936E-01
          2   -1    0    0  501    0  0.00000000000E+00  0.00000000000E+00  0.12765377575E+04  0.12765377575E+04  0.00000000000E+00 0. -1.
         -1   -1    0    0    0  501 -0.00000000000E+00 -0.00000000000E+00 -0.92036235290E+03  0.92036235290E+03  0.00000000000E+00 0.  1.
         24    2    1    2    0    0  0.35947431747E+03 -0.18618328195E+03 -0.65400997727E+03  0.77318674855E+03  0.78757211581E+02 0.  0.
        254    2    1    2    0    0 -0.35947431747E+03  0.18618328195E+03  0.10101853819E+04  0.14237133619E+04  0.91793204086E+03 0.  0.
         23    2    4    4    0    0 -0.54238149182E+03 -0.21062119638E+02  0.98874863723E+03  0.11315913768E+04  0.90850871059E+02 0.  0.
         23    2    4    4    0    0  0.18290717435E+03  0.20724540159E+03  0.21436744671E+02  0.29212198514E+03  0.92032761951E+02 0.  0.
          4    1    3    3  502    0  0.12617658653E+03 -0.60080869139E+02 -0.29911629656E+03  0.33015269299E+03  0.00000000000E+00 0. -1.
         -3    1    3    3    0  502  0.23329773094E+03 -0.12610241281E+03 -0.35489368071E+03  0.44303405556E+03  0.00000000000E+00 0.  1.
         13    1    5    5    0    0 -0.61433764666E+02  0.90173544494E+01  0.66160423441E+02  0.90733796086E+02  0.00000000000E+00 0. -1.
        -13    1    5    5    0    0 -0.48094772715E+03 -0.30079474088E+02  0.92258821379E+03  0.10408575807E+04  0.00000000000E+00 0.  1.
          2    1    6    6  503    0  0.83129407257E+02  0.97206284077E+02  0.55979330660E+02  0.13961821327E+03  0.00000000000E+00 0.  1.
         -2    1    6    6    0  503  0.99777767091E+02  0.11003911751E+03 -0.34542585989E+02  0.15250377187E+03  0.00000000000E+00 0. -1.
<mgrwt>
<rscale>  0 0.21678351E+04</rscale>
<asrwt>0</asrwt>
<pdfrwt beam="1">  1        2 0.19639042E+00 0.21678351E+04</pdfrwt>
<pdfrwt beam="2">  1       -1 0.14159421E+00 0.21678351E+04</pdfrwt>
<totfact> 0.72525352E+00</totfact>
</mgrwt>
</event>
<event>
12    7  0.1740517E-007  0.2360198E+04  0.7818608E-02  0.8454557E-01
          2   -1    0    0  501    0  0.00000000000E+00  0.00000000000E+00  0.21207485887E+04  0.21207485887E+04  0.00000000000E+00 0. -1.
         -1   -1    0    0    0  501 -0.00000000000E+00 -0.00000000000E+00 -0.65667102684E+03  0.65667102684E+03  0.00000000000E+00 0.  1.
         24    2    1    2    0    0 -0.75627092078E+03 -0.64040504779E+03  0.89135334899E+03  0.13352193070E+04  0.78965018660E+02 0.  0.
        254    2    1    2    0    0  0.75627092078E+03  0.64040504779E+03  0.57272421286E+03  0.14422003085E+04  0.87741915586E+03 0.  0.
         23    2    4    4    0    0  0.26536513973E+03  0.65186139789E+03  0.39009265353E+02  0.71015897960E+03  0.86383528937E+02 0.  0.
         23    2    4    4    0    0  0.49090578105E+03 -0.11456350106E+02  0.53371494751E+03  0.73204132893E+03  0.99564693736E+02 0.  0.
          4    1    3    3  502    0 -0.39607119930E+03 -0.31675006419E+03  0.50536865996E+03  0.71596122838E+03  0.00000000000E+00 0. -1.
         -1    1    3    3    0  502 -0.36019972148E+03 -0.32365498360E+03  0.38598468903E+03  0.61925807861E+03  0.00000000000E+00 0.  1.
         13    1    5    5    0    0  0.69524819826E+02  0.27666936435E+03  0.15444965400E+01  0.28527534631E+03  0.00000000000E+00 0. -1.
        -13    1    5    5    0    0  0.19584031990E+03  0.37519203354E+03  0.37464768813E+02  0.42488363329E+03  0.00000000000E+00 0.  1.
          2    1    6    6  503    0  0.25465197181E+03  0.14510781068E+02  0.20969766299E+03  0.33019887852E+03  0.00000000000E+00 0. -1.
         -2    1    6    6    0  503  0.23625380925E+03 -0.25967131174E+02  0.32401728452E+03  0.40184245041E+03  0.00000000000E+00 0.  1.
<mgrwt>
<rscale>  0 0.23601984E+04</rscale>
<asrwt>0</asrwt>
<pdfrwt beam="1">  1        2 0.32626901E+00 0.23601984E+04</pdfrwt>
<pdfrwt beam="2">  1       -1 0.10102631E+00 0.23601984E+04</pdfrwt>
<totfact> 0.54671061E+00</totfact>
</mgrwt>
</event>
<event>
12    7  0.1740517E-007  0.1675563E+04  0.7818608E-02  0.8775426E-01
          2   -1    0    0  501    0  0.00000000000E+00  0.00000000000E+00  0.13372913960E+04  0.13372913960E+04  0.00000000000E+00 0. -1.
         -1   -1    0    0    0  501 -0.00000000000E+00 -0.00000000000E+00 -0.52485006097E+03  0.52485006097E+03  0.00000000000E+00 0.  1.
         24    2    1    2    0    0 -0.45337814666E+03 -0.38695947525E+03  0.27319901715E+03  0.66068119748E+03  0.81071341233E+02 0.  0.
        254    2    1    2    0    0  0.45337814666E+03  0.38695947525E+03  0.53924231787E+03  0.12014602595E+04  0.89299221631E+03 0.  0.
         23    2    4    4    0    0  0.31713995384E+03  0.66598651693E+03  0.42154309528E+03  0.85460471552E+03  0.92384238629E+02 0.  0.
         23    2    4    4    0    0  0.13623819282E+03 -0.27902704168E+03  0.11769922259E+03  0.34685554397E+03  0.10019344396E+03 0.  0.
          2    1    3    3  502    0 -0.98198583716E+02 -0.63474876479E+02  0.85728107345E+02  0.14498734489E+03  0.00000000000E+00 0. -1.
         -1    1    3    3    0  502 -0.35517956294E+03 -0.32348459877E+03  0.18747090981E+03  0.51569385259E+03  0.00000000000E+00 0.  1.
         13    1    5    5    0    0  0.13899017576E+03  0.19679272104E+03  0.15293831248E+03  0.28536953488E+03  0.00000000000E+00 0. -1.
        -13    1    5    5    0    0  0.17814977809E+03  0.46919379589E+03  0.26860478280E+03  0.56923518064E+03  0.00000000000E+00 0.  1.
          1    1    6    6  503    0  0.21957481503E+02 -0.13905899215E+03  0.22348284342E+02  0.14254466004E+03  0.00000000000E+00 0. -1.
         -1    1    6    6    0  503  0.11428071131E+03 -0.13996804953E+03  0.95350938252E+02  0.20431088393E+03  0.00000000000E+00 0.  1.
<mgrwt>
<rscale>  0 0.16755626E+04</rscale>
<asrwt>0</asrwt>
<pdfrwt beam="1">  1        2 0.20573714E+00 0.16755626E+04</pdfrwt>
<pdfrwt beam="2">  1       -1 0.80746164E-01 0.16755626E+04</pdfrwt>
<totfact> 0.26136549E+01</totfact>
</mgrwt>
</event>
<event>
12    7  0.1740517E-007  0.2405615E+04  0.7818608E-02  0.8437404E-01
          2   -1    0    0  501    0  0.00000000000E+00  0.00000000000E+00  0.80427455085E+03  0.80427455085E+03  0.00000000000E+00 0. -1.
         -3   -1    0    0    0  501 -0.00000000000E+00 -0.00000000000E+00 -0.17988206226E+04  0.17988206226E+04  0.00000000000E+00 0.  1.
         24    2    1    2    0    0  0.32884177121E+03  0.48257944268E+03  0.48473497629E+03  0.76322322506E+03  0.80758064828E+02 0.  0.
        254    2    1    2    0    0 -0.32884177121E+03 -0.48257944268E+03 -0.14792810481E+04  0.18398719484E+04  0.92511433800E+03 0.  0.
         23    2    4    4    0    0 -0.46829572186E+03 -0.29957177443E+03 -0.30674050626E+03  0.64146612009E+03  0.91350500249E+02 0.  0.
         23    2    4    4    0    0  0.13945395066E+03 -0.18300766826E+03 -0.11725405418E+04  0.11984058283E+04  0.91575084866E+02 0.  0.
          2    1    3    3  502    0  0.25511858302E+03  0.37499861508E+03  0.41768431833E+03  0.61657898317E+03  0.00000000000E+00 0. -1.
         -1    1    3    3    0  502  0.73723188188E+02  0.10758082761E+03  0.67050657968E+02  0.14664424189E+03  0.00000000000E+00 0.  1.
         13    1    5    5    0    0 -0.65421269682E+02 -0.90226276770E+01 -0.26582456713E+02  0.71189727784E+02  0.00000000000E+00 0.  1.
        -13    1    5    5    0    0 -0.40287445218E+03 -0.29054914675E+03 -0.28015804955E+03  0.57027639231E+03  0.00000000000E+00 0. -1.
          1    1    6    6  503    0  0.83296623322E+02 -0.41614049371E+02 -0.36724959666E+03  0.37886979664E+03  0.00000000000E+00 0. -1.
         -1    1    6    6    0  503  0.56157327335E+02 -0.14139361888E+03 -0.80529094513E+03  0.81953603166E+03  0.00000000000E+00 0.  1.
<mgrwt>
<rscale>  0 0.24056148E+04</rscale>
<asrwt>0</asrwt>
<pdfrwt beam="1">  1        2 0.12373455E+00 0.24056148E+04</pdfrwt>
<pdfrwt beam="2">  1       -3 0.27674163E+00 0.24056148E+04</pdfrwt>
<totfact> 0.98850141E-01</totfact>
</mgrwt>
</event>
<event>
12    7  0.1740517E-007  0.2263763E+04  0.7818608E-02  0.8492347E-01
          2   -1    0    0  501    0  0.00000000000E+00  0.00000000000E+00  0.11057487671E+04  0.11057487671E+04  0.00000000000E+00 0. -1.
         -1   -1    0    0    0  501 -0.00000000000E+00 -0.00000000000E+00 -0.11586317864E+04  0.11586317864E+04  0.00000000000E+00 0.  1.
         24    2    1    2    0    0 -0.78568952360E+03 -0.39465692573E+03 -0.32281846416E+03  0.93994110061E+03  0.78837778362E+02 0.  0.
        254    2    1    2    0    0  0.78568952360E+03  0.39465692573E+03  0.26993544478E+03  0.13244394529E+04  0.95300189058E+03 0.  0.
         23    2    4    4    0    0  0.35405641927E+03 -0.14927749546E+03 -0.23666812558E+03  0.46006125209E+03  0.89469745339E+02 0.  0.
         23    2    4    4    0    0  0.43163310433E+03  0.54393442119E+03  0.50660357036E+03  0.86437820078E+03  0.91272696773E+02 0.  0.
          2    1    3    3  502    0 -0.72866321139E+03 -0.36882723947E+03 -0.27709539924E+03  0.86241838367E+03  0.00000000000E+00 0. -1.
         -1    1    3    3    0  502 -0.57026312205E+02 -0.25829686260E+02 -0.45723064925E+02  0.77522716942E+02  0.00000000000E+00 0.  1.
         13    1    5    5    0    0  0.28946788407E+03 -0.14590343922E+03 -0.16574248735E+03  0.36407422540E+03  0.00000000000E+00 0. -1.
        -13    1    5    5    0    0  0.64588535195E+02 -0.33740562378E+01 -0.70925638233E+02  0.95987026691E+02  0.00000000000E+00 0.  1.
          1    1    6    6  503    0  0.22377063952E+03  0.31357072915E+03  0.22973268322E+03  0.44852759896E+03  0.00000000000E+00 0. -1.
         -1    1    6    6    0  503  0.20786246481E+03  0.23036369203E+03  0.27687088715E+03  0.41585060182E+03  0.00000000000E+00 0.  1.
<mgrwt>
<rscale>  0 0.22637629E+04</rscale>
<asrwt>0</asrwt>
<pdfrwt beam="1">  1        2 0.17011520E+00 0.22637629E+04</pdfrwt>
<pdfrwt beam="2">  1       -1 0.17825104E+00 0.22637629E+04</pdfrwt>
<totfact> 0.47995518E+00</totfact>
</mgrwt>
</event>
<event>
12    7  0.1740517E-007  0.2052259E+04  0.7818608E-02  0.8582570E-01
          2   -1    0    0  501    0  0.00000000000E+00  0.00000000000E+00  0.33351583289E+04  0.33351583289E+04  0.00000000000E+00 0. -1.
         -1   -1    0    0    0  501 -0.00000000000E+00 -0.00000000000E+00 -0.31570974184E+03  0.31570974184E+03  0.00000000000E+00 0.  1.
         24    2    1    2    0    0 -0.34260972203E+03  0.24990814371E+03  0.24915083302E+04  0.25285864266E+04  0.79372888949E+02 0.  0.
        254    2    1    2    0    0  0.34260972203E+03 -0.24990814371E+03  0.52794025682E+03  0.11222816441E+04  0.89496350314E+03 0.  0.
         23    2    4    4    0    0 -0.29217787136E+03 -0.90975248929E+02  0.10078439194E+03  0.33552950491E+03  0.93691785016E+02 0.  0.
         23    2    4    4    0    0  0.63478759339E+03 -0.15893289478E+03  0.42715586489E+03  0.78675213918E+03  0.91114443576E+02 0.  0.
          2    1    3    3  502    0 -0.14707640245E+03  0.15231667157E+03  0.13189873514E+04  0.13358740471E+04  0.00000000000E+00 0. -1.
         -1    1    3    3    0  502 -0.19553331958E+03  0.97591472145E+02  0.11725209788E+04  0.11927123795E+04  0.00000000000E+00 0.  1.
         13    1    5    5    0    0 -0.27350751342E+03 -0.10849453298E+03  0.95823544876E+02  0.30945044084E+03  0.00000000000E+00 0.  1.
        -13    1    5    5    0    0 -0.18670357933E+02  0.17519284052E+02  0.49608470596E+01  0.26079064066E+02  0.00000000000E+00 0. -1.
          2    1    6    6  503    0  0.92091898096E+02 -0.25469996742E+02  0.10380062547E+03  0.14108227485E+03  0.00000000000E+00 0. -1.
         -2    1    6    6    0  503  0.54269569529E+03 -0.13346289804E+03  0.32335523942E+03  0.64566986433E+03  0.00000000000E+00 0.  1.
<mgrwt>
<rscale>  0 0.20522592E+04</rscale>
<asrwt>0</asrwt>
<pdfrwt beam="1">  1        2 0.51310126E+00 0.20522592E+04</pdfrwt>
<pdfrwt beam="2">  1       -1 0.48570732E-01 0.20522592E+04</pdfrwt>
<totfact> 0.47300006E+00</totfact>
</mgrwt>
</event>
<event>
12    7  0.1740517E-007  0.2190177E+04  0.7818608E-02  0.8522528E-01
          2   -1    0    0  501    0  0.00000000000E+00  0.00000000000E+00  0.49174228915E+04  0.49174228915E+04  0.00000000000E+00 0. -1.
         -1   -1    0    0    0  501 -0.00000000000E+00 -0.00000000000E+00 -0.24387132205E+03  0.24387132205E+03  0.00000000000E+00 0.  1.
         24    2    1    2    0    0 -0.65821784450E+03  0.30051153802E+03  0.32263073033E+04  0.33073785669E+04  0.78334246482E+02 0.  0.
        254    2    1    2    0    0  0.65821784450E+03 -0.30051153802E+03  0.14472442661E+04  0.18539156466E+04  0.90494714964E+03 0.  0.
         23    2    4    4    0    0  0.23828979292E+03 -0.79225857240E+02  0.13286586228E+04  0.13558217065E+04  0.99297542128E+02 0.  0.
         23    2    4    4    0    0  0.41992805158E+03 -0.22128568078E+03  0.11858564331E+03  0.49809394015E+03  0.93424286964E+02 0.  0.
          2    1    3    3  502    0 -0.45362629835E+03  0.20055156825E+03  0.20412018938E+04  0.21005958491E+04  0.00000000000E+00 0. -1.
         -1    1    3    3    0  502 -0.20459154615E+03  0.99959969765E+02  0.11851054095E+04  0.12067827178E+04  0.00000000000E+00 0.  1.
         13    1    5    5    0    0  0.68323711268E+02 -0.26965632451E+02  0.19641889957E+03  0.20970374093E+03  0.00000000000E+00 0. -1.
        -13    1    5    5    0    0  0.16996608165E+03 -0.52260224788E+02  0.11322397233E+04  0.11461179655E+04  0.00000000000E+00 0.  1.
          4    1    6    6  503    0  0.13629782699E+03 -0.84264673029E+02  0.84790590567E+02  0.18129279360E+03  0.00000000000E+00 0. -1.
         -4    1    6    6    0  503  0.28363022460E+03 -0.13702100775E+03  0.33795052745E+02  0.31680114656E+03  0.00000000000E+00 0.  1.
<mgrwt>
<rscale>  0 0.21901766E+04</rscale>
<asrwt>0</asrwt>
<pdfrwt beam="1">  1        2 0.75652652E+00 0.21901766E+04</pdfrwt>
<pdfrwt beam="2">  1       -1 0.37518669E-01 0.21901766E+04</pdfrwt>
<totfact> 0.31471352E-01</totfact>
</mgrwt>
</event>
<event>
12    7  0.1740517E-007  0.2291391E+04  0.7818608E-02  0.8481323E-01
         -1   -1    0    0    0  501 -0.00000000000E+00  0.00000000000E+00  0.12732212705E+04  0.12732212705E+04  0.00000000000E+00 0.  1.
          2   -1    0    0  501    0  0.00000000000E+00 -0.00000000000E+00 -0.10309431340E+04  0.10309431340E+04  0.00000000000E+00 0. -1.
         24    2    1    2    0    0 -0.90037257346E+03  0.17462167854E+03 -0.20055343109E+03  0.94220715231E+03  0.79806876293E+02 0.  0.
        254    2    1    2    0    0  0.90037257346E+03 -0.17462167854E+03  0.44283156761E+03  0.13619572521E+04  0.90424789615E+03 0.  0.
         23    2    4    4    0    0  0.28982442153E+03  0.10149846052E+03  0.58908862645E+03  0.67051026580E+03  0.90876146065E+02 0.  0.
         23    2    4    4    0    0  0.61054815193E+03 -0.27612013905E+03 -0.14625705884E+03  0.69144698632E+03  0.87729303088E+02 0.  0.
          2    1    3    3  502    0 -0.65007859400E+03  0.11815374560E+03 -0.10832185218E+03  0.66954918388E+03  0.00000000000E+00 0. -1.
         -1    1    3    3    0  502 -0.25029397946E+03  0.56467932935E+02 -0.92231578910E+02  0.27265796844E+03  0.00000000000E+00 0.  1.
         13    1    5    5    0    0  0.49613274075E+02 -0.12033711908E+02  0.62576978847E+02  0.80759924891E+02  0.00000000000E+00 0. -1.
        -13    1    5    5    0    0  0.24021114745E+03  0.11353217243E+03  0.52651164761E+03  0.58975034091E+03  0.00000000000E+00 0.  1.
          3    1    6    6  503    0  0.95856309060E+02 -0.19517365518E+02 -0.44223592619E+02  0.10735495185E+03  0.00000000000E+00 0. -1.
         -3    1    6    6    0  503  0.51469184287E+03 -0.25660277354E+03 -0.10203346623E+03  0.58409203447E+03  0.00000000000E+00 0.  1.
<mgrwt>
<rscale>  0 0.22913915E+04</rscale>
<asrwt>0</asrwt>
<pdfrwt beam="1">  1        2 0.15860664E+00 0.22913915E+04</pdfrwt>
<pdfrwt beam="2">  1       -1 0.19588020E+00 0.22913915E+04</pdfrwt>
<totfact> 0.40018182E+00</totfact>
</mgrwt>
</event>
<event>
12    7  0.1740517E-007  0.1185972E+04  0.7818608E-02  0.9125224E-01
         -1   -1    0    0    0  501 -0.00000000000E+00  0.00000000000E+00  0.37046525358E+03  0.37046525358E+03  0.00000000000E+00 0.  1.
          2   -1    0    0  501    0  0.00000000000E+00 -0.00000000000E+00 -0.94916498457E+03  0.94916498457E+03  0.00000000000E+00 0. -1.
         24    2    1    2    0    0 -0.81270707204E+02  0.93411276423E+02 -0.36024975442E+03  0.38924872297E+03  0.80025548201E+02 0.  0.
        254    2    1    2    0    0  0.81270707204E+02 -0.93411276423E+02 -0.21844997657E+03  0.93038151518E+03  0.89585644894E+03 0.  0.
         23    2    4    4    0    0 -0.21297553709E+03  0.31278506769E+03 -0.41908532268E+02  0.39139789361E+03  0.90790462478E+02 0.  0.
         23    2    4    4    0    0  0.29424624430E+03 -0.40619634412E+03 -0.17654144430E+03  0.53898362156E+03  0.88091659643E+02 0.  0.
          2    1    3    3  502    0 -0.47384056388E+02  0.99402076340E+02 -0.30374634809E+03  0.32309111030E+03  0.00000000000E+00 0. -1.
         -1    1    3    3    0  502 -0.33886650816E+02 -0.59907999162E+01 -0.56503406332E+02  0.66157612671E+02  0.00000000000E+00 0.  1.
         13    1    5    5    0    0 -0.21333502561E+03  0.30376989026E+03 -0.24762660484E+02  0.37202307554E+03  0.00000000000E+00 0.  1.
        -13    1    5    5    0    0  0.35948852004E+00  0.90151774379E+01 -0.17145871784E+02  0.19374818076E+02  0.00000000000E+00 0. -1.
          4    1    6    6  503    0  0.90078933472E+02 -0.87584054216E+02 -0.11566664131E+02  0.12617039481E+03  0.00000000000E+00 0. -1.
         -4    1    6    6    0  503  0.20416731082E+03 -0.31861228990E+03 -0.16497478017E+03  0.41281322675E+03  0.00000000000E+00 0.  1.
<mgrwt>
<rscale>  0 0.11859724E+04</rscale>
<asrwt>0</asrwt>
<pdfrwt beam="1">  1        2 0.14602538E+00 0.11859724E+04</pdfrwt>
<pdfrwt beam="2">  1       -1 0.56994655E-01 0.11859724E+04</pdfrwt>
<totfact> 0.95462804E+01</totfact>
</mgrwt>
</event>
<event>
12    7  0.1740517E-007  0.1239698E+04  0.7818608E-02  0.9078801E-01
         -1   -1    0    0    0  501 -0.00000000000E+00  0.00000000000E+00  0.52548048781E+03  0.52548048781E+03  0.00000000000E+00 0.  1.
          2   -1    0    0  501    0  0.00000000000E+00 -0.00000000000E+00 -0.73116459391E+03  0.73116459391E+03  0.00000000000E+00 0. -1.
         24    2    1    2    0    0  0.10468045145E+03  0.24033688808E+03  0.66249901529E+02  0.28605197366E+03  0.93364155306E+02 0.  0.
        254    2    1    2    0    0 -0.10468045145E+03 -0.24033688808E+03 -0.27193400763E+03  0.97059310805E+03  0.89408224465E+03 0.  0.
         23    2    4    4    0    0 -0.16994390925E+03 -0.30582490939E+03  0.24525948043E+03  0.43679088174E+03  0.90687673568E+02 0.  0.
         23    2    4    4    0    0  0.65263457801E+02  0.65488021312E+02 -0.51719348806E+03  0.53380222631E+03  0.94380680543E+02 0.  0.
          2    1    3    3  502    0  0.33059497361E+02  0.27703300335E+02  0.42288377045E+02  0.60404553209E+02  0.00000000000E+00 0. -1.
         -1    1    3    3    0  502  0.71620954090E+02  0.21263358774E+03  0.23961524483E+02  0.22564742045E+03  0.00000000000E+00 0.  1.
         13    1    5    5    0    0 -0.20478440881E+02 -0.79945004691E+02  0.21025419001E+02  0.85162424579E+02  0.00000000000E+00 0.  1.
        -13    1    5    5    0    0 -0.14946546837E+03 -0.22587990470E+03  0.22423406143E+03  0.35162845717E+03  0.00000000000E+00 0. -1.
          3    1    6    6  503    0  0.44903647373E+02  0.84518388565E+02 -0.46381585916E+03  0.47358721136E+03  0.00000000000E+00 0. -1.
         -3    1    6    6    0  503  0.20359810428E+02 -0.19030367252E+02 -0.53377628896E+02  0.60215014947E+02  0.00000000000E+00 0.  1.
<mgrwt>
<rscale>  0 0.12396979E+04</rscale>
<asrwt>0</asrwt>
<pdfrwt beam="1">  1        2 0.11248686E+00 0.12396979E+04</pdfrwt>
<pdfrwt beam="2">  1       -1 0.80843151E-01 0.12396979E+04</pdfrwt>
<totfact> 0.66472736E+01</totfact>
</mgrwt>
</event>
<event>
12    7  0.1740517E-007  0.1291380E+04  0.7818608E-02  0.9036429E-01
         -1   -1    0    0    0  501 -0.00000000000E+00  0.00000000000E+00  0.30573144872E+04  0.30573144872E+04  0.00000000000E+00 0.  1.
          2   -1    0    0  501    0  0.00000000000E+00 -0.00000000000E+00 -0.13636651113E+03  0.13636651113E+03  0.00000000000E+00 0. -1.
         24    2    1    2    0    0  0.57721063900E+01 -0.32633252034E+03  0.83247452117E+03  0.89765001401E+03  0.78965107479E+02 0.  0.
        254    2    1    2    0    0 -0.57721063900E+01  0.32633252034E+03  0.20884734549E+04  0.22960309843E+04  0.89638757137E+03 0.  0.
         23    2    4    4    0    0  0.10080668177E+03 -0.15241426382E+03  0.66754866583E+02  0.21370853681E+03  0.88447903251E+02 0.  0.
         23    2    4    4    0    0 -0.10657878816E+03  0.47874678416E+03  0.20217185883E+04  0.20823224475E+04  0.90350448967E+02 0.  0.
          2    1    3    3  502    0  0.31115727510E+02 -0.23195771920E+03  0.51968775257E+03  0.56995432463E+03  0.00000000000E+00 0. -1.
         -1    1    3    3    0  502 -0.25343621120E+02 -0.94374801142E+02  0.31278676860E+03  0.32769568937E+03  0.00000000000E+00 0.  1.
         13    1    5    5    0    0  0.10043805156E+03 -0.15620211020E+03  0.78310276048E+02  0.20154255324E+03  0.00000000000E+00 0.  1.
        -13    1    5    5    0    0  0.36863021429E+00  0.37878463817E+01 -0.11555409464E+02  0.12165983575E+02  0.00000000000E+00 0. -1.
          1    1    6    6  503    0 -0.13852351748E+02  0.10538837458E+02  0.35208008392E+02  0.39275419780E+02  0.00000000000E+00 0. -1.
         -1    1    6    6    0  503 -0.92726436416E+02  0.46820794670E+03  0.19865105799E+04  0.20430470277E+04  0.00000000000E+00 0.  1.
<mgrwt>
<rscale>  0 0.12913796E+04</rscale>
<asrwt>0</asrwt>
<pdfrwt beam="1">  1        2 0.20979465E-01 0.12913796E+04</pdfrwt>
<pdfrwt beam="2">  1       -1 0.47035603E+00 0.12913796E+04</pdfrwt>
<totfact> 0.71856098E-01</totfact>
</mgrwt>
</event>
<event>
12    7  0.1740517E-007  0.1901024E+04  0.7818608E-02  0.8654347E-01
          2   -1    0    0  501    0  0.00000000000E+00  0.00000000000E+00  0.29329333935E+04  0.29329333935E+04  0.00000000000E+00 0. -1.
         -1   -1    0    0    0  501 -0.00000000000E+00 -0.00000000000E+00 -0.30804422552E+03  0.30804422552E+03  0.00000000000E+00 0.  1.
         24    2    1    2    0    0  0.28302928995E+03 -0.59249782504E+02 -0.13231497008E+03  0.32761175488E+03  0.78778772081E+02 0.  0.
        254    2    1    2    0    0 -0.28302928995E+03  0.59249782504E+02  0.27572041380E+04  0.29133658641E+04  0.89549421197E+03 0.  0.
         23    2    4    4    0    0  0.24506024943E+03  0.24061923103E+03  0.77995940642E+03  0.85710804807E+03  0.91353107267E+02 0.  0.
         23    2    4    4    0    0 -0.52808953938E+03 -0.18136944853E+03  0.19772447316E+04  0.20562578160E+04  0.83222826607E+02 0.  0.
          4    1    3    3  502    0  0.12537546073E+03  0.87484485964E+01 -0.35934295545E+02  0.13071654487E+03  0.00000000000E+00 0. -1.
         -3    1    3    3    0  502  0.15765382922E+03 -0.67998231101E+02 -0.96380674539E+02  0.19689521001E+03  0.00000000000E+00 0.  1.
         13    1    5    5    0    0  0.85121534780E+02  0.13821524647E+03  0.30324411568E+03  0.34395657245E+03  0.00000000000E+00 0.  1.
        -13    1    5    5    0    0  0.15993871465E+03  0.10240398456E+03  0.47671529074E+03  0.51315147561E+03  0.00000000000E+00 0. -1.
          2    1    6    6  503    0  0.14687694800E+01 -0.41267306111E+01  0.36706869780E+02  0.36967302828E+02  0.00000000000E+00 0. -1.
         -2    1    6    6    0  503 -0.52955830886E+03 -0.17724271791E+03  0.19405378618E+04  0.20192905132E+04  0.00000000000E+00 0.  1.
<mgrwt>
<rscale>  0 0.19010241E+04</rscale>
<asrwt>0</asrwt>
<pdfrwt beam="1">  1        2 0.45122050E+00 0.19010241E+04</pdfrwt>
<pdfrwt beam="2">  1       -1 0.47391421E-01 0.19010241E+04</pdfrwt>
<totfact> 0.91056109E+00</totfact>
</mgrwt>
</event>
<event>
12    7  0.1740517E-007  0.2705244E+04  0.7818608E-02  0.8333305E-01
          2   -1    0    0  501    0  0.00000000000E+00  0.00000000000E+00  0.30334904643E+04  0.30334904643E+04  0.00000000000E+00 0. -1.
         -1   -1    0    0    0  501 -0.00000000000E+00 -0.00000000000E+00 -0.60312908299E+03  0.60312908299E+03  0.00000000000E+00 0.  1.
         24    2    1    2    0    0 -0.79928228746E+02  0.98241484236E+03  0.15987893773E+03  0.10023863455E+04  0.87690744931E+02 0.  0.
        254    2    1    2    0    0  0.79928228746E+02 -0.98241484236E+03  0.22704824436E+04  0.26342332017E+04  0.90142475578E+03 0.  0.
         23    2    4    4    0    0  0.15692514781E+03 -0.69292844590E+03  0.59889659813E+03  0.93355323651E+03  0.89828597942E+02 0.  0.
         23    2    4    4    0    0 -0.76996919061E+02 -0.28948639646E+03  0.16715858454E+04  0.17006799652E+04  0.91554389038E+02 0.  0.
          2    1    3    3  502    0 -0.82276853229E+02  0.48222797390E+03  0.69898955736E+02  0.49416511755E+03  0.00000000000E+00 0. -1.
         -1    1    3    3    0  502  0.23486244828E+01  0.50018686846E+03  0.89979981992E+02  0.50822122799E+03  0.00000000000E+00 0.  1.
         13    1    5    5    0    0  0.71404565883E+01 -0.21174017592E+02  0.18442902400E+01  0.22421564347E+02  0.00000000000E+00 0.  1.
        -13    1    5    5    0    0  0.14978469122E+03 -0.67175442830E+03  0.59705230789E+03  0.91113167216E+03  0.00000000000E+00 0. -1.
          4    1    6    6  503    0 -0.78924744498E+02 -0.15919375424E+03  0.80700842878E+03  0.82633792773E+03  0.00000000000E+00 0.  1.
         -4    1    6    6    0  503  0.19278254366E+01 -0.13029264222E+03  0.86457741665E+03  0.87434203748E+03  0.00000000000E+00 0. -1.
<mgrwt>
<rscale>  0 0.27052440E+04</rscale>
<asrwt>0</asrwt>
<pdfrwt beam="1">  1        2 0.46669083E+00 0.27052440E+04</pdfrwt>
<pdfrwt beam="2">  1       -1 0.92789092E-01 0.27052440E+04</pdfrwt>
<totfact> 0.18658275E+00</totfact>
</mgrwt>
</event>
<event>
12    7  0.1740517E-007  0.2459507E+04  0.7818608E-02  0.8417555E-01
         -1   -1    0    0    0  501 -0.00000000000E+00  0.00000000000E+00  0.84940654722E+03  0.84940654722E+03  0.00000000000E+00 0.  1.
          2   -1    0    0  501    0  0.00000000000E+00 -0.00000000000E+00 -0.17804120979E+04  0.17804120979E+04  0.00000000000E+00 0. -1.
         24    2    1    2    0    0  0.68268713409E+03  0.92155743689E+02  0.46546034043E+03  0.83539717303E+03  0.81735573995E+02 0.  0.
        254    2    1    2    0    0 -0.68268713409E+03 -0.92155743689E+02 -0.13964658911E+04  0.17944214721E+04  0.89178306235E+03 0.  0.
         23    2    4    4    0    0 -0.36037419153E+03 -0.48354747475E+03 -0.70228879812E+03  0.93015603020E+03  0.91065725154E+02 0.  0.
         23    2    4    4    0    0 -0.32231294255E+03  0.39139173106E+03 -0.69417709295E+03  0.86426544185E+03  0.89441587216E+02 0.  0.
          4    1    3    3  502    0 -0.13129545759E+01  0.29495489069E+01  0.52933349304E+01  0.62002486368E+01  0.00000000000E+00 0. -1.
         -3    1    3    3    0  502  0.68400008866E+03  0.89206194782E+02  0.46016700550E+03  0.82919692440E+03  0.00000000000E+00 0.  1.
         13    1    5    5    0    0 -0.17093668415E+03 -0.26131330219E+03 -0.42568796078E+03  0.52793392753E+03  0.00000000000E+00 0. -1.
        -13    1    5    5    0    0 -0.18943750739E+03 -0.22223417256E+03 -0.27660083734E+03  0.40222210267E+03  0.00000000000E+00 0.  1.
          2    1    6    6  503    0 -0.98084497208E+02  0.14403314909E+03 -0.30711071983E+03  0.35310495729E+03  0.00000000000E+00 0. -1.
         -2    1    6    6    0  503 -0.22422844535E+03  0.24735858197E+03 -0.38706637312E+03  0.51116048456E+03  0.00000000000E+00 0.  1.
<mgrwt>
<rscale>  0 0.24595070E+04</rscale>
<asrwt>0</asrwt>
<pdfrwt beam="1">  1        2 0.27390955E+00 0.24595070E+04</pdfrwt>
<pdfrwt beam="2">  1       -1 0.13067793E+00 0.24595070E+04</pdfrwt>
<totfact> 0.45109697E+00</totfact>
</mgrwt>
</event>
<event>
12    7  0.1740517E-007  0.1310150E+04  0.7818608E-02  0.9021555E-01
          2   -1    0    0  501    0  0.00000000000E+00  0.00000000000E+00  0.41631452021E+03  0.41631452021E+03  0.00000000000E+00 0. -1.
         -1   -1    0    0    0  501 -0.00000000000E+00 -0.00000000000E+00 -0.10307668357E+04  0.10307668357E+04  0.00000000000E+00 0.  1.
         24    2    1    2    0    0  0.15163733355E+03  0.15850596951E+03 -0.44339432976E+03  0.50129576477E+03  0.81122677573E+02 0.  0.
        254    2    1    2    0    0 -0.15163733355E+03 -0.15850596951E+03 -0.17105798577E+03  0.94578559118E+03  0.90395327683E+03 0.  0.
         23    2    4    4    0    0 -0.24521624698E+02 -0.51455697127E+03 -0.67742612306E+01  0.52328417358E+03  0.91707409430E+02 0.  0.
         23    2    4    4    0    0 -0.12711570885E+03  0.35605100176E+03 -0.16428372454E+03  0.42250141760E+03  0.92669231318E+02 0.  0.
          2    1    3    3  502    0  0.28911066069E+02  0.37891766469E+02 -0.38210919030E+02  0.61087724139E+02  0.00000000000E+00 0. -1.
         -1    1    3    3    0  502  0.12272626748E+03  0.12061420304E+03 -0.40518341073E+03  0.44020804063E+03  0.00000000000E+00 0.  1.
         13    1    5    5    0    0 -0.49376108094E+02 -0.39342407076E+03  0.19018917764E+02  0.39696626902E+03  0.00000000000E+00 0. -1.
        -13    1    5    5    0    0  0.24854483396E+02 -0.12113290051E+03 -0.25793178994E+02  0.12631790457E+03  0.00000000000E+00 0.  1.
          3    1    6    6  503    0 -0.37571453892E+02  0.21706524860E+03 -0.12211455628E+03  0.25187477276E+03  0.00000000000E+00 0. -1.
         -3    1    6    6    0  503 -0.89544254956E+02  0.13898575316E+03 -0.42169168263E+02  0.17062664484E+03  0.00000000000E+00 0.  1.
<mgrwt>
<rscale>  0 0.13101499E+04</rscale>
<asrwt>0</asrwt>
<pdfrwt beam="1">  1        2 0.64048389E-01 0.13101499E+04</pdfrwt>
<pdfrwt beam="2">  1       -1 0.15857951E+00 0.13101499E+04</pdfrwt>
<totfact> 0.25519035E+01</totfact>
</mgrwt>
</event>
<event>
12    7  0.1740517E-007  0.2077016E+04  0.7818608E-02  0.8571436E-01
         -1   -1    0    0    0  501 -0.00000000000E+00  0.00000000000E+00  0.19508537792E+04  0.19508537792E+04  0.00000000000E+00 0.  1.
          2   -1    0    0  501    0  0.00000000000E+00 -0.00000000000E+00 -0.55283429503E+03  0.55283429503E+03  0.00000000000E+00 0. -1.
         24    2    1    2    0    0 -0.75508919133E+03  0.11307567269E+03  0.14760937397E+03  0.78193836624E+03  0.81812509446E+02 0.  0.
        254    2    1    2    0    0  0.75508919133E+03 -0.11307567269E+03  0.12504101102E+04  0.17217497080E+04  0.90440633493E+03 0.  0.
         23    2    4    4    0    0  0.69603955427E+03  0.17027783955E+03  0.41603510362E+03  0.83388801540E+03  0.93906395084E+02 0.  0.
         23    2    4    4    0    0  0.59049637058E+02 -0.28335351224E+03  0.83437500660E+03  0.88786169260E+03  0.91327219459E+02 0.  0.
          4    1    3    3  502    0 -0.48302092808E+03  0.32931594158E+02  0.86672882580E+02  0.49183929838E+03  0.00000000000E+00 0. -1.
         -3    1    3    3    0  502 -0.27206826324E+03  0.80144078532E+02  0.60936491393E+02  0.29009906786E+03  0.00000000000E+00 0.  1.
         13    1    5    5    0    0  0.96231320987E+02  0.14020034493E+02  0.94606885911E+02  0.13567421040E+03  0.00000000000E+00 0. -1.
        -13    1    5    5    0    0  0.59980823328E+03  0.15625780506E+03  0.32142821770E+03  0.69821380500E+03  0.00000000000E+00 0.  1.
          2    1    6    6  503    0  0.41098305610E+02 -0.33798431435E+02  0.15501913402E+03  0.16389733556E+03  0.00000000000E+00 0. -1.
         -2    1    6    6    0  503  0.17951331448E+02 -0.24955508081E+03  0.67935587258E+03  0.72396435704E+03  0.00000000000E+00 0.  1.
<mgrwt>
<rscale>  0 0.20770160E+04</rscale>
<asrwt>0</asrwt>
<pdfrwt beam="1">  1        2 0.85051431E-01 0.20770160E+04</pdfrwt>
<pdfrwt beam="2">  1       -1 0.30013135E+00 0.20770160E+04</pdfrwt>
<totfact> 0.19025986E+00</totfact>
</mgrwt>
</event>
<event>
12    7  0.1740517E-007  0.1787402E+04  0.7818608E-02  0.8713028E-01
         -1   -1    0    0    0  501 -0.00000000000E+00  0.00000000000E+00  0.88497349519E+03  0.88497349519E+03  0.00000000000E+00 0.  1.
          2   -1    0    0  501    0  0.00000000000E+00 -0.00000000000E+00 -0.90251456227E+03  0.90251456227E+03  0.00000000000E+00 0. -1.
         24    2    1    2    0    0  0.35586315172E+03  0.46445149463E+03 -0.32598364464E+03  0.67465130402E+03  0.80841028152E+02 0.  0.
        254    2    1    2    0    0 -0.35586315172E+03 -0.46445149463E+03  0.30844257756E+03  0.11128367534E+04  0.89493856913E+03 0.  0.
         23    2    4    4    0    0 -0.47293571390E+02  0.18081187215E+03 -0.15133355677E+03  0.25786820657E+03  0.93083572928E+02 0.  0.
         23    2    4    4    0    0 -0.30856958033E+03 -0.64526336678E+03  0.45977613432E+03  0.85496854686E+03  0.89426640423E+02 0.  0.
          4    1    3    3  502    0  0.23380997757E+03  0.28222361225E+03 -0.24504227540E+03  0.44086618112E+03  0.00000000000E+00 0. -1.
         -3    1    3    3    0  502  0.12205317416E+03  0.18222788237E+03 -0.80941369237E+02  0.23378512290E+03  0.00000000000E+00 0.  1.
         13    1    5    5    0    0 -0.39416778775E+02  0.18102830973E+03 -0.10931155878E+03  0.21511380303E+03  0.00000000000E+00 0. -1.
        -13    1    5    5    0    0 -0.78767926158E+01 -0.21643757366E+00 -0.42021997985E+02  0.42754403537E+02  0.00000000000E+00 0.  1.
          1    1    6    6  503    0 -0.19147865739E+03 -0.49070272065E+03  0.34432753093E+03  0.62929697667E+03  0.00000000000E+00 0. -1.
         -1    1    6    6    0  503 -0.11709092295E+03 -0.15456064613E+03  0.11544860339E+03  0.22567157019E+03  0.00000000000E+00 0.  1.
<mgrwt>
<rscale>  0 0.17874020E+04</rscale>
<asrwt>0</asrwt>
<pdfrwt beam="1">  1        2 0.13884839E+00 0.17874020E+04</pdfrwt>
<pdfrwt beam="2">  1       -1 0.13614977E+00 0.17874020E+04</pdfrwt>
<totfact> 0.14197589E+01</totfact>
</mgrwt>
</event>
<event>
12    7  0.1740517E-007  0.1669056E+04  0.7818608E-02  0.8779212E-01
          2   -1    0    0  501    0  0.00000000000E+00  0.00000000000E+00  0.13579280643E+04  0.13579280643E+04  0.00000000000E+00 0. -1.
         -1   -1    0    0    0  501 -0.00000000000E+00 -0.00000000000E+00 -0.51286747729E+03  0.51286747729E+03  0.00000000000E+00 0.  1.
         24    2    1    2    0    0 -0.44275507513E+03 -0.16166714580E+03  0.70133877449E+03  0.84875624114E+03  0.79641432009E+02 0.  0.
        254    2    1    2    0    0  0.44275507513E+03  0.16166714580E+03  0.14372181253E+03  0.10220393005E+04  0.89539938001E+03 0.  0.
         23    2    4    4    0    0  0.43329140119E+03  0.30159073718E+03  0.43171766362E+03  0.68799069434E+03  0.90844060461E+02 0.  0.
         23    2    4    4    0    0  0.94636739394E+01 -0.13992359137E+03 -0.28799585109E+03  0.33404860613E+03  0.94755941575E+02 0.  0.
          4    1    3    3  502    0 -0.28074436333E+03 -0.79459613024E+02  0.48769868915E+03  0.56831438399E+03  0.00000000000E+00 0. -1.
         -3    1    3    3    0  502 -0.16201071180E+03 -0.82207532780E+02  0.21364008533E+03  0.28044185715E+03  0.00000000000E+00 0.  1.
         13    1    5    5    0    0  0.22699970135E+03  0.19202157885E+03  0.19583369005E+03  0.35602245057E+03  0.00000000000E+00 0. -1.
        -13    1    5    5    0    0  0.20629169984E+03  0.10956915833E+03  0.23588397357E+03  0.33196824377E+03  0.00000000000E+00 0.  1.
          2    1    6    6  503    0  0.16701990325E+02  0.95230128306E+01 -0.40696209693E+02  0.45009173927E+02  0.00000000000E+00 0.  1.
         -2    1    6    6    0  503 -0.72383163854E+01 -0.14944660420E+03 -0.24729964139E+03  0.28903943220E+03  0.00000000000E+00 0. -1.
<mgrwt>
<rscale>  0 0.16690562E+04</rscale>
<asrwt>0</asrwt>
<pdfrwt beam="1">  1        2 0.20891201E+00 0.16690562E+04</pdfrwt>
<pdfrwt beam="2">  1       -1 0.78902689E-01 0.16690562E+04</pdfrwt>
<totfact> 0.26723176E+01</totfact>
</mgrwt>
</event>
<event>
12    7  0.1740517E-007  0.1134929E+04  0.7818608E-02  0.9171800E-01
         -1   -1    0    0    0  501 -0.00000000000E+00  0.00000000000E+00  0.47298448258E+03  0.47298448258E+03  0.00000000000E+00 0.  1.
          2   -1    0    0  501    0  0.00000000000E+00 -0.00000000000E+00 -0.68081767749E+03  0.68081767749E+03  0.00000000000E+00 0. -1.
         24    2    1    2    0    0  0.12029448446E+03  0.57159264606E+02 -0.18772405130E+03  0.24368219170E+03  0.80017164363E+02 0.  0.
        254    2    1    2    0    0 -0.12029448446E+03 -0.57159264606E+02 -0.20109143618E+02  0.91011996837E+03  0.90009779172E+03 0.  0.
         23    2    4    4    0    0 -0.15376629548E+03 -0.38698872588E+03  0.23061294222E+03  0.48457930600E+03  0.90721701328E+02 0.  0.
         23    2    4    4    0    0  0.33471811022E+02  0.32982946128E+03 -0.25072208584E+03  0.42554066238E+03  0.91189118589E+02 0.  0.
          2    1    3    3  502    0  0.98618726030E+02  0.48458342661E+01 -0.11805381954E+03  0.15390204528E+03  0.00000000000E+00 0. -1.
         -1    1    3    3    0  502  0.21675758432E+02  0.52313430340E+02 -0.69670231763E+02  0.89780146421E+02  0.00000000000E+00 0.  1.
         13    1    5    5    0    0 -0.34931530788E+02 -0.19771102525E+02  0.24515284887E+02  0.47033047226E+02  0.00000000000E+00 0. -1.
        -13    1    5    5    0    0 -0.11883476470E+03 -0.36721762336E+03  0.20609765733E+03  0.43754625877E+03  0.00000000000E+00 0.  1.
          1    1    6    6  503    0  0.32932542817E+02  0.32653869913E+02 -0.39900735643E+02  0.61179214620E+02  0.00000000000E+00 0. -1.
         -1    1    6    6    0  503  0.53926820478E+00  0.29717559136E+03 -0.21082135020E+03  0.36436144776E+03  0.00000000000E+00 0.  1.
<mgrwt>
<rscale>  0 0.11349294E+04</rscale>
<asrwt>0</asrwt>
<pdfrwt beam="1">  1        2 0.10474118E+00 0.11349294E+04</pdfrwt>
<pdfrwt beam="2">  1       -1 0.72766844E-01 0.11349294E+04</pdfrwt>
<totfact> 0.91496522E+01</totfact>
</mgrwt>
</event>
<event>
12    7  0.1740517E-007  0.1224760E+04  0.7818608E-02  0.9091456E-01
          2   -1    0    0  501    0  0.00000000000E+00  0.00000000000E+00  0.62251106293E+03  0.62251106293E+03  0.00000000000E+00 0. -1.
         -1   -1    0    0    0  501 -0.00000000000E+00 -0.00000000000E+00 -0.60241407229E+03  0.60241407229E+03  0.00000000000E+00 0.  1.
         24    2    1    2    0    0  0.64183724326E+02 -0.15907261138E+02 -0.25792090531E+03  0.27793740245E+03  0.79708311103E+02 0.  0.
        254    2    1    2    0    0 -0.64183724326E+02  0.15907261138E+02  0.27801789596E+03  0.94698773277E+03  0.90283953398E+03 0.  0.
         23    2    4    4    0    0  0.15703784785E+02  0.43082490757E+03  0.14207191394E+02  0.44063149343E+03  0.89986437164E+02 0.  0.
         23    2    4    4    0    0 -0.79887509111E+02 -0.41491764643E+03  0.26381070456E+03  0.50635623934E+03  0.90894916511E+02 0.  0.
          4    1    3    3  502    0  0.34250887212E+02  0.33463017879E+01 -0.25562558743E+02  0.42869166308E+02  0.00000000000E+00 0. -1.
         -3    1    3    3    0  502  0.29932837114E+02 -0.19253562926E+02 -0.23235834657E+03  0.23506823614E+03  0.00000000000E+00 0.  1.
         13    1    5    5    0    0  0.17795462845E+02  0.40070541223E+03 -0.11073077832E+02  0.40125318558E+03  0.00000000000E+00 0. -1.
        -13    1    5    5    0    0 -0.20916780600E+01  0.30119495346E+02  0.25280269226E+02  0.39378307850E+02  0.00000000000E+00 0.  1.
          3    1    6    6  503    0 -0.22474919337E+02 -0.31934857037E+03  0.20695648004E+03  0.38120810068E+03  0.00000000000E+00 0. -1.
         -3    1    6    6    0  503 -0.57412589774E+02 -0.95569076063E+02  0.56854224526E+02  0.12514813866E+03  0.00000000000E+00 0.  1.
<mgrwt>
<rscale>  0 0.12247603E+04</rscale>
<asrwt>0</asrwt>
<pdfrwt beam="1">  1        2 0.95770933E-01 0.12247603E+04</pdfrwt>
<pdfrwt beam="2">  1       -1 0.92679088E-01 0.12247603E+04</pdfrwt>
<totfact> 0.60449163E+01</totfact>
</mgrwt>
</event>
<event>
12    7  0.1740517E-007  0.3427100E+04  0.7818608E-02  0.8131287E-01
         -1   -1    0    0    0  501 -0.00000000000E+00  0.00000000000E+00  0.13532237045E+04  0.13532237045E+04  0.00000000000E+00 0.  1.
          2   -1    0    0  501    0  0.00000000000E+00 -0.00000000000E+00 -0.21698209565E+04  0.21698209565E+04  0.00000000000E+00 0. -1.
         24    2    1    2    0    0 -0.43280282478E+03 -0.15347618918E+04 -0.43472717407E+03  0.16547506305E+04  0.79997398198E+02 0.  0.
        254    2    1    2    0    0  0.43280282478E+03  0.15347618918E+04 -0.38187007794E+03  0.18682940306E+04  0.89548058531E+03 0.  0.
         23    2    4    4    0    0  0.56377260379E+03  0.14044782164E+04 -0.99798304020E+02  0.15193521953E+04  0.89848665899E+02 0.  0.
         23    2    4    4    0    0 -0.13096977902E+03  0.13028367539E+03 -0.28207177392E+03  0.34894183528E+03  0.89827610910E+02 0.  0.
          2    1    3    3  502    0 -0.31201385454E+03 -0.10919875510E+04 -0.34670579819E+03  0.11874318370E+04  0.00000000000E+00 0. -1.
         -1    1    3    3    0  502 -0.12078897023E+03 -0.44277434072E+03 -0.88021375874E+02  0.46731879349E+03  0.00000000000E+00 0.  1.
         13    1    5    5    0    0  0.49407040423E+03  0.11426521168E+04 -0.92145678335E+02  0.12482989427E+04  0.00000000000E+00 0. -1.
        -13    1    5    5    0    0  0.69702199555E+02  0.26182609960E+03 -0.76526256847E+01  0.27105325258E+03  0.00000000000E+00 0.  1.
          1    1    6    6  503    0 -0.11592830419E+03  0.11120696338E+03 -0.28211744012E+03  0.32464844129E+03  0.00000000000E+00 0. -1.
         -1    1    6    6    0  503 -0.15041474828E+02  0.19076712008E+02  0.45666202097E-01  0.24293393988E+02  0.00000000000E+00 0.  1.
<mgrwt>
<rscale>  0 0.34270997E+04</rscale>
<asrwt>0</asrwt>
<pdfrwt beam="1">  1        2 0.33381861E+00 0.34270997E+04</pdfrwt>
<pdfrwt beam="2">  1       -1 0.20818826E+00 0.34270997E+04</pdfrwt>
<totfact> 0.66750807E-01</totfact>
</mgrwt>
</event>
<event>
12    7  0.1740517E-007  0.2818798E+04  0.7818608E-02  0.8297456E-01
         -1   -1    0    0    0  501 -0.00000000000E+00  0.00000000000E+00  0.11050168805E+04  0.11050168805E+04  0.00000000000E+00 0.  1.
          2   -1    0    0  501    0  0.00000000000E+00 -0.00000000000E+00 -0.17976242324E+04  0.17976242324E+04  0.00000000000E+00 0. -1.
         24    2    1    2    0    0  0.22710836103E+03 -0.89641941637E+03 -0.12074323174E+04  0.15231365494E+04  0.83103365044E+02 0.  0.
        254    2    1    2    0    0 -0.22710836103E+03  0.89641941637E+03  0.51482496546E+03  0.13795045635E+04  0.88478365609E+03 0.  0.
         23    2    4    4    0    0  0.12575403359E+02 -0.14786134640E+03  0.18758330316E+03  0.25559516071E+03  0.90112552008E+02 0.  0.
         23    2    4    4    0    0 -0.23968376439E+03  0.10442807628E+04  0.32724166230E+03  0.11239094028E+04  0.90081195730E+02 0.  0.
          2    1    3    3  502    0  0.77964172869E+02 -0.22990825252E+03 -0.26715112431E+03  0.36097914074E+03  0.00000000000E+00 0. -1.
         -1    1    3    3    0  502  0.14914418816E+03 -0.66651116385E+03 -0.94028119309E+03  0.11621574086E+04  0.00000000000E+00 0.  1.
         13    1    5    5    0    0  0.37410928775E+02 -0.18417399429E+02  0.49017081334E+02  0.64354117631E+02  0.00000000000E+00 0.  1.
        -13    1    5    5    0    0 -0.24835525417E+02 -0.12944394697E+03  0.13856622182E+03  0.19124104308E+03  0.00000000000E+00 0. -1.
          3    1    6    6  503    0 -0.20365875190E+03  0.96385869284E+03  0.28121493358E+03  0.10244912424E+04  0.00000000000E+00 0. -1.
         -3    1    6    6    0  503 -0.36025012491E+02  0.80422069928E+02  0.46026728723E+02  0.99418160381E+02  0.00000000000E+00 0.  1.
<mgrwt>
<rscale>  0 0.28187977E+04</rscale>
<asrwt>0</asrwt>
<pdfrwt beam="1">  1        2 0.27655758E+00 0.28187977E+04</pdfrwt>
<pdfrwt beam="2">  1       -1 0.17000260E+00 0.28187977E+04</pdfrwt>
<totfact> 0.21057725E+00</totfact>
</mgrwt>
</event>
<event>
12    7  0.1740517E-007  0.2754617E+04  0.7818608E-02  0.8317498E-01
          2   -1    0    0  501    0  0.00000000000E+00  0.00000000000E+00  0.79875393981E+03  0.79875393981E+03  0.00000000000E+00 0. -1.
         -1   -1    0    0    0  501 -0.00000000000E+00 -0.00000000000E+00 -0.23749222780E+04  0.23749222780E+04  0.00000000000E+00 0.  1.
         24    2    1    2    0    0  0.67792533547E+03 -0.53857423196E+03 -0.17128903601E+04  0.19209799525E+04  0.80781362277E+02 0.  0.
        254    2    1    2    0    0 -0.67792533547E+03  0.53857423196E+03  0.13672202185E+03  0.12526962653E+04  0.89493578436E+03 0.  0.
         23    2    4    4    0    0 -0.82514079792E+03  0.62117114923E+03  0.18801625624E+03  0.10542101527E+04  0.96426139523E+02 0.  0.
         23    2    4    4    0    0  0.14721546245E+03 -0.82596917274E+02 -0.51294234389E+02  0.19848611265E+03  0.90945012535E+02 0.  0.
          4    1    3    3  502    0  0.15393992330E+03 -0.16227827120E+03 -0.40576286593E+03  0.46333059543E+03  0.00000000000E+00 0. -1.
         -3    1    3    3    0  502  0.52398541217E+03 -0.37629596076E+03 -0.13071274941E+04  0.14576493571E+04  0.00000000000E+00 0.  1.
         13    1    5    5    0    0 -0.30102756381E+03  0.28570462737E+03  0.76776480325E+02  0.42206558282E+03  0.00000000000E+00 0. -1.
        -13    1    5    5    0    0 -0.52411323411E+03  0.33546652187E+03  0.11123977592E+03  0.63214456986E+03  0.00000000000E+00 0.  1.
          2    1    6    6  503    0  0.15600454902E+03 -0.89464813513E+02 -0.52297344843E+02  0.18728690411E+03  0.00000000000E+00 0.  1.
         -2    1    6    6    0  503 -0.87890865668E+01  0.68678962397E+01  0.10031104538E+01  0.11199208544E+02  0.00000000000E+00 0. -1.
<mgrwt>
<rscale>  0 0.27546169E+04</rscale>
<asrwt>0</asrwt>
<pdfrwt beam="1">  1        2 0.12288522E+00 0.27546169E+04</pdfrwt>
<pdfrwt beam="2">  1       -1 0.36537266E+00 0.27546169E+04</pdfrwt>
<totfact> 0.42181179E-01</totfact>
</mgrwt>
</event>
<event>
12    7  0.1740517E-007  0.1351716E+04  0.7818608E-02  0.8989530E-01
         -1   -1    0    0    0  501 -0.00000000000E+00  0.00000000000E+00  0.21188219782E+04  0.21188219782E+04  0.00000000000E+00 0.  1.
          2   -1    0    0  501    0  0.00000000000E+00 -0.00000000000E+00 -0.21558391902E+03  0.21558391902E+03  0.00000000000E+00 0. -1.
         24    2    1    2    0    0  0.36797051231E+03 -0.26676018378E+02  0.55663549961E+03  0.67239043817E+03  0.78434138140E+02 0.  0.
        254    2    1    2    0    0 -0.36797051231E+03  0.26676018378E+02  0.13466025596E+04  0.16620154591E+04  0.90157807470E+03 0.  0.
         23    2    4    4    0    0 -0.48939246740E+03  0.33942005713E+03  0.66823399494E+03  0.89966313523E+03  0.90255872791E+02 0.  0.
         23    2    4    4    0    0  0.12142195508E+03 -0.31274403875E+03  0.67836856465E+03  0.76235232384E+03  0.91896850877E+02 0.  0.
          2    1    3    3  502    0  0.11255298172E+02 -0.45678736352E+01  0.16170067211E+01  0.12254057174E+02  0.00000000000E+00 0. -1.
         -1    1    3    3    0  502  0.35671521414E+03 -0.22108144743E+02  0.55501849289E+03  0.66013638100E+03  0.00000000000E+00 0.  1.
         13    1    5    5    0    0 -0.86062599863E+02  0.21379700179E+02  0.93962354654E+02  0.12920056798E+03  0.00000000000E+00 0. -1.
        -13    1    5    5    0    0 -0.40332986753E+03  0.31804035695E+03  0.57427164028E+03  0.77046256725E+03  0.00000000000E+00 0.  1.
          4    1    6    6  503    0  0.41977435882E+02 -0.37250548144E+02  0.69329325198E+02  0.89197891190E+02  0.00000000000E+00 0. -1.
         -4    1    6    6    0  503  0.79444519201E+02 -0.27549349061E+03  0.60903923945E+03  0.67315443265E+03  0.00000000000E+00 0.  1.
<mgrwt>
<rscale>  0 0.13517159E+04</rscale>
<asrwt>0</asrwt>
<pdfrwt beam="1">  1        2 0.33166758E-01 0.13517159E+04</pdfrwt>
<pdfrwt beam="2">  1       -1 0.32597260E+00 0.13517159E+04</pdfrwt>
<totfact> 0.40058440E+00</totfact>
</mgrwt>
</event>
<event>
12    7  0.1740517E-007  0.1392105E+04  0.7818608E-02  0.8959553E-01
          2   -1    0    0  501    0  0.00000000000E+00  0.00000000000E+00  0.37355904631E+04  0.37355904631E+04  0.00000000000E+00 0. -1.
         -1   -1    0    0    0  501 -0.00000000000E+00 -0.00000000000E+00 -0.12969548061E+03  0.12969548061E+03  0.00000000000E+00 0.  1.
         24    2    1    2    0    0 -0.58232179448E+02 -0.23967212752E+03  0.19018972072E+04  0.19194343140E+04  0.78621776814E+02 0.  0.
        254    2    1    2    0    0  0.58232179448E+02  0.23967212752E+03  0.17039977754E+04  0.19458516297E+04  0.90658503794E+03 0.  0.
         23    2    4    4    0    0 -0.34882532195E+03  0.26963019413E+03  0.50575647580E+03  0.67676463009E+03  0.88550578248E+02 0.  0.
         23    2    4    4    0    0  0.40705750140E+03 -0.29958066607E+02  0.11982412996E+04  0.12690869996E+04  0.90588660753E+02 0.  0.
          2    1    3    3  502    0 -0.22026661021E+02 -0.97069279530E+02  0.49808875614E+03  0.50793703135E+03  0.00000000000E+00 0. -1.
         -1    1    3    3    0  502 -0.36205518428E+02 -0.14260284799E+03  0.14038084510E+04  0.14114972827E+04  0.00000000000E+00 0.  1.
         13    1    5    5    0    0 -0.47778195204E+02  0.86201365345E+01  0.80552717874E+02  0.94052129416E+02  0.00000000000E+00 0. -1.
        -13    1    5    5    0    0 -0.30104712674E+03  0.26101005760E+03  0.42520375793E+03  0.58271250068E+03  0.00000000000E+00 0.  1.
          1    1    6    6  503    0  0.30835864109E+03  0.16920821097E+02  0.88348861620E+03  0.93590784839E+03  0.00000000000E+00 0. -1.
         -1    1    6    6    0  503  0.98698860302E+02 -0.46878887704E+02  0.31475268336E+03  0.33317915124E+03  0.00000000000E+00 0.  1.
<mgrwt>
<rscale>  0 0.13921052E+04</rscale>
<asrwt>0</asrwt>
<pdfrwt beam="1">  1        2 0.57470614E+00 0.13921052E+04</pdfrwt>
<pdfrwt beam="2">  1       -1 0.19953154E-01 0.13921052E+04</pdfrwt>
<totfact> 0.12790840E+01</totfact>
</mgrwt>
</event>
<event>
12    7  0.1796806E-007  0.2065506E+04  0.7818608E-02  0.8576592E-01
          2   -1    0    0  501    0  0.00000000000E+00  0.00000000000E+00  0.15519565115E+04  0.15519565115E+04  0.00000000000E+00 0. -1.
         -1   -1    0    0    0  501 -0.00000000000E+00 -0.00000000000E+00 -0.68724815352E+03  0.68724815352E+03  0.00000000000E+00 0.  1.
         24    2    1    2    0    0  0.45436086433E+03  0.26066376594E+03 -0.35402314211E+03  0.63713345533E+03  0.78849608984E+02 0.  0.
        254    2    1    2    0    0 -0.45436086433E+03 -0.26066376594E+03  0.12187315001E+04  0.16020712097E+04  0.89829633064E+03 0.  0.
         23    2    4    4    0    0  0.74827839251E+02 -0.43819891619E+03  0.38740040274E+03  0.59658879335E+03  0.90673152722E+02 0.  0.
         23    2    4    4    0    0 -0.52918870358E+03  0.17753515025E+03  0.83133109732E+03  0.10054824163E+04  0.91236410281E+02 0.  0.
          4    1    3    3  502    0  0.93686782847E+02  0.60402315668E+02 -0.11587664729E+03  0.16078883794E+03  0.00000000000E+00 0. -1.
         -3    1    3    3    0  502  0.36067408149E+03  0.20026145027E+03 -0.23814649482E+03  0.47634461739E+03  0.00000000000E+00 0.  1.
         13    1    5    5    0    0  0.15130685540E+02 -0.48196915881E+01  0.95533249404E+01  0.18531947802E+02  0.00000000000E+00 0. -1.
        -13    1    5    5    0    0  0.59697153711E+02 -0.43337922460E+03  0.37784707780E+03  0.57805684554E+03  0.00000000000E+00 0.  1.
          2    1    6    6  503    0 -0.39006235792E+02  0.38824150869E+02  0.10118020165E+03  0.11517914016E+03  0.00000000000E+00 0. -1.
         -2    1    6    6    0  503 -0.49018246779E+03  0.13871099938E+03  0.73015089567E+03  0.89030327615E+03  0.00000000000E+00 0.  1.
<mgrwt>
<rscale>  0 0.20655065E+04</rscale>
<asrwt>0</asrwt>
<pdfrwt beam="1">  1        2 0.23876254E+00 0.20655065E+04</pdfrwt>
<pdfrwt beam="2">  1       -1 0.10573049E+00 0.20655065E+04</pdfrwt>
<totfact> 0.10464772E+01</totfact>
</mgrwt>
</event>
<event>
12    7  0.1740517E-007  0.1717250E+04  0.7818608E-02  0.8751587E-01
          2   -1    0    0  501    0  0.00000000000E+00  0.00000000000E+00  0.16909446065E+04  0.16909446065E+04  0.00000000000E+00 0. -1.
         -1   -1    0    0    0  501 -0.00000000000E+00 -0.00000000000E+00 -0.43599114318E+03  0.43599114318E+03  0.00000000000E+00 0.  1.
         24    2    1    2    0    0 -0.60980647271E+03  0.55401077898E+02  0.56173893901E+03  0.83514091634E+03  0.83525450925E+02 0.  0.
        254    2    1    2    0    0  0.60980647271E+03 -0.55401077898E+02  0.69321452434E+03  0.12917948334E+04  0.90180613281E+03 0.  0.
         23    2    4    4    0    0  0.48315507982E+02  0.36711098511E+03  0.23789612858E+03  0.44943026701E+03  0.91039185026E+02 0.  0.
         23    2    4    4    0    0  0.56149096473E+03 -0.42251206301E+03  0.45531839576E+03  0.84236456636E+03  0.92057994110E+02 0.  0.
          4    1    3    3  502    0 -0.44103439667E+03  0.34328861176E+02  0.35344252268E+03  0.56622559691E+03  0.00000000000E+00 0. -1.
         -3    1    3    3    0  502 -0.16877207604E+03  0.21072216722E+02  0.20829641633E+03  0.26891531942E+03  0.00000000000E+00 0.  1.
         13    1    5    5    0    0  0.20818103933E+02  0.34336388690E+03  0.20517734332E+03  0.40053700764E+03  0.00000000000E+00 0. -1.
        -13    1    5    5    0    0  0.27497404049E+02  0.23747098216E+02  0.32718785264E+02  0.48893259375E+02  0.00000000000E+00 0.  1.
          2    1    6    6  503    0  0.95136554694E+02 -0.10104164203E+03  0.57604458711E+02  0.15026194171E+03  0.00000000000E+00 0.  1.
         -2    1    6    6    0  503  0.46635441003E+03 -0.32147042098E+03  0.39771393704E+03  0.69210262465E+03  0.00000000000E+00 0. -1.
<mgrwt>
<rscale>  0 0.17172500E+04</rscale>
<asrwt>0</asrwt>
<pdfrwt beam="1">  1        2 0.26014532E+00 0.17172500E+04</pdfrwt>
<pdfrwt beam="2">  1       -1 0.67075561E-01 0.17172500E+04</pdfrwt>
<totfact> 0.24180466E+01</totfact>
</mgrwt>
</event>
<event>
12    7  0.1740517E-007  0.1564808E+04  0.7818608E-02  0.8842464E-01
         -3   -1    0    0    0  501 -0.00000000000E+00  0.00000000000E+00  0.82778956236E+03  0.82778956236E+03  0.00000000000E+00 0.  1.
          4   -1    0    0  501    0  0.00000000000E+00 -0.00000000000E+00 -0.73950652037E+03  0.73950652037E+03  0.00000000000E+00 0. -1.
         24    2    1    2    0    0 -0.23339582020E+03  0.87140069440E+02  0.47144377111E+03  0.53897122168E+03  0.78509540151E+02 0.  0.
        254    2    1    2    0    0  0.23339582020E+03 -0.87140069440E+02 -0.38316072911E+03  0.10283248611E+04  0.92118015336E+03 0.  0.
         23    2    4    4    0    0 -0.19800039771E+03 -0.35323310116E+03 -0.28705980364E+03  0.50443404466E+03  0.89847611541E+02 0.  0.
         23    2    4    4    0    0  0.43139621791E+03  0.26609303172E+03 -0.96100925478E+02  0.52389081640E+03  0.91203077121E+02 0.  0.
          4    1    3    3  502    0 -0.96182027575E+02  0.48499498580E+01  0.12889748311E+03  0.16090079426E+03  0.00000000000E+00 0. -1.
         -3    1    3    3    0  502 -0.13721379262E+03  0.82290119582E+02  0.34254628800E+03  0.37807042742E+03  0.00000000000E+00 0.  1.
         13    1    5    5    0    0  0.67222336803E+01 -0.18104929915E+02 -0.27845269113E+02  0.33887105584E+02  0.00000000000E+00 0. -1.
        -13    1    5    5    0    0 -0.20472263139E+03 -0.33512817125E+03 -0.25921453452E+03  0.47054693907E+03  0.00000000000E+00 0.  1.
          2    1    6    6  503    0  0.52670549270E+02  0.62696595302E+02 -0.37374627614E+02  0.90010624996E+02  0.00000000000E+00 0. -1.
         -2    1    6    6    0  503  0.37872566864E+03  0.20339643642E+03 -0.58726297863E+02  0.43388019140E+03  0.00000000000E+00 0.  1.
<mgrwt>
<rscale>  0 0.15648077E+04</rscale>
<asrwt>0</asrwt>
<pdfrwt beam="1">  1        4 0.11377023E+00 0.15648077E+04</pdfrwt>
<pdfrwt beam="2">  1       -3 0.12735224E+00 0.15648077E+04</pdfrwt>
<totfact> 0.64883782E-01</totfact>
</mgrwt>
</event>
<event>
12    7  0.1740517E-007  0.2136878E+04  0.7818608E-02  0.8545170E-01
         -1   -1    0    0    0  501 -0.00000000000E+00  0.00000000000E+00  0.22420586751E+03  0.22420586751E+03  0.00000000000E+00 0.  1.
          2   -1    0    0  501    0  0.00000000000E+00 -0.00000000000E+00 -0.50915777943E+04  0.50915777943E+04  0.00000000000E+00 0. -1.
         24    2    1    2    0    0 -0.21369850575E+03  0.53342360412E+02 -0.41153826699E+04  0.41220279267E+04  0.78912926743E+02 0.  0.
        254    2    1    2    0    0  0.21369850575E+03 -0.53342360412E+02 -0.75198925690E+03  0.11937557351E+04  0.90058450678E+03 0.  0.
         23    2    4    4    0    0  0.12926649023E+03 -0.40755941652E+03 -0.68378872005E+03  0.81163150523E+03  0.91455908078E+02 0.  0.
         23    2    4    4    0    0  0.84432015523E+02  0.35421705611E+03 -0.68200536855E+02  0.38212422989E+03  0.93643610361E+02 0.  0.
          2    1    3    3  502    0 -0.16116454272E+03  0.39888173550E+02 -0.35939507511E+04  0.35977836341E+04  0.00000000000E+00 0. -1.
         -1    1    3    3    0  502 -0.52533963034E+02  0.13454186861E+02 -0.52143191877E+03  0.52424429260E+03  0.00000000000E+00 0.  1.
         13    1    5    5    0    0  0.25101019686E+02 -0.13873615730E+02 -0.30979610528E+02  0.42216995052E+02  0.00000000000E+00 0.  1.
        -13    1    5    5    0    0  0.10416547054E+03 -0.39368580079E+03 -0.65280910952E+03  0.76941451018E+03  0.00000000000E+00 0. -1.
          3    1    6    6  503    0  0.10190189264E+03  0.29649445529E+03 -0.41803144024E+02  0.31629173336E+03  0.00000000000E+00 0. -1.
         -3    1    6    6    0  503 -0.17469877116E+02  0.57722600815E+02 -0.26397392831E+02  0.65832496531E+02  0.00000000000E+00 0.  1.
<mgrwt>
<rscale>  0 0.21368777E+04</rscale>
<asrwt>0</asrwt>
<pdfrwt beam="1">  1        2 0.78331968E+00 0.21368777E+04</pdfrwt>
<pdfrwt beam="2">  1       -1 0.34493209E-01 0.21368777E+04</pdfrwt>
<totfact> 0.22211911E-01</totfact>
</mgrwt>
</event>
<event>
12    7  0.1740517E-007  0.2426250E+04  0.7818608E-02  0.8429741E-01
         -1   -1    0    0    0  501 -0.00000000000E+00  0.00000000000E+00  0.45102661824E+03  0.45102661824E+03  0.00000000000E+00 0.  1.
          2   -1    0    0  501    0  0.00000000000E+00 -0.00000000000E+00 -0.32629385066E+04  0.32629385066E+04  0.00000000000E+00 0. -1.
         24    2    1    2    0    0  0.70246429851E+03  0.11554577619E+02 -0.24029516169E+04  0.25048281684E+04  0.79988006704E+02 0.  0.
        254    2    1    2    0    0 -0.70246429851E+03 -0.11554577619E+02 -0.40896027143E+03  0.12091369564E+04  0.89508327922E+03 0.  0.
         23    2    4    4    0    0 -0.76730970626E+03  0.28071376529E+03 -0.33910407231E+03  0.88937115369E+03  0.91788200880E+02 0.  0.
         23    2    4    4    0    0  0.64845407742E+02 -0.29226834291E+03 -0.69856199121E+02  0.31976580270E+03  0.88003232029E+02 0.  0.
          4    1    3    3  502    0  0.62507373736E+03  0.35181862705E+02 -0.21421918339E+04  0.22318021404E+04  0.00000000000E+00 0. -1.
         -3    1    3    3    0  502  0.77390561153E+02 -0.23627285086E+02 -0.26075978299E+03  0.27302602803E+03  0.00000000000E+00 0.  1.
         13    1    5    5    0    0 -0.68072466169E+03  0.21948164293E+03 -0.30904115330E+03  0.77914356254E+03  0.00000000000E+00 0. -1.
        -13    1    5    5    0    0 -0.86585044566E+02  0.61232122359E+02 -0.30062919010E+02  0.11022759115E+03  0.00000000000E+00 0.  1.
          1    1    6    6  503    0  0.42895560984E+02 -0.13463132982E+03  0.10085755330E+02  0.14165926225E+03  0.00000000000E+00 0. -1.
         -1    1    6    6    0  503  0.21949846758E+02 -0.15763701309E+03 -0.79941954450E+02  0.17810654045E+03  0.00000000000E+00 0.  1.
<mgrwt>
<rscale>  0 0.24262499E+04</rscale>
<asrwt>0</asrwt>
<pdfrwt beam="1">  1        2 0.50199053E+00 0.24262499E+04</pdfrwt>
<pdfrwt beam="2">  1       -1 0.69388711E-01 0.24262499E+04</pdfrwt>
<totfact> 0.25300305E+00</totfact>
</mgrwt>
</event>
<event>
12    7  0.1740517E-007  0.1899367E+04  0.7818608E-02  0.8655172E-01
         -1   -1    0    0    0  501 -0.00000000000E+00  0.00000000000E+00  0.31886006667E+03  0.31886006667E+03  0.00000000000E+00 0.  1.
          2   -1    0    0  501    0  0.00000000000E+00 -0.00000000000E+00 -0.28285087626E+04  0.28285087626E+04  0.00000000000E+00 0. -1.
         24    2    1    2    0    0 -0.40147423943E+03 -0.58473573089E+03 -0.10244185039E+04  0.12486082640E+04  0.80572239420E+02 0.  0.
        254    2    1    2    0    0  0.40147423943E+03  0.58473573089E+03 -0.14852301921E+04  0.18987605654E+04  0.94672357171E+03 0.  0.
         23    2    4    4    0    0  0.34056147220E+02  0.43944494552E+03 -0.14182977167E+04  0.14876281918E+04  0.84838331718E+02 0.  0.
         23    2    4    4    0    0  0.36741809221E+03  0.14529078537E+03 -0.66932475369E+02  0.41113237356E+03  0.91893446647E+02 0.  0.
          4    1    3    3  502    0 -0.22795139076E+03 -0.34776371795E+03 -0.53164046443E+03  0.67493927393E+03  0.00000000000E+00 0. -1.
         -3    1    3    3    0  502 -0.17352284867E+03 -0.23697201294E+03 -0.49277803948E+03  0.57366899003E+03  0.00000000000E+00 0.  1.
         13    1    5    5    0    0  0.58051918119E+02  0.32977158866E+03 -0.11163041236E+04  0.11654416426E+04  0.00000000000E+00 0. -1.
        -13    1    5    5    0    0 -0.23995770899E+02  0.10967335686E+03 -0.30199359310E+03  0.32218654922E+03  0.00000000000E+00 0.  1.
          4    1    6    6  503    0  0.26006375709E+02  0.20942733535E+02  0.18075627033E+02  0.37969171154E+02  0.00000000000E+00 0. -1.
         -4    1    6    6    0  503  0.34141171650E+03  0.12434805183E+03 -0.85008102402E+02  0.37316320241E+03  0.00000000000E+00 0.  1.
<mgrwt>
<rscale>  0 0.18993667E+04</rscale>
<asrwt>0</asrwt>
<pdfrwt beam="1">  1        2 0.43515519E+00 0.18993667E+04</pdfrwt>
<pdfrwt beam="2">  1       -1 0.49055396E-01 0.18993667E+04</pdfrwt>
<totfact> 0.98825924E+00</totfact>
</mgrwt>
</event>
<event>
12    7  0.1740517E-007  0.1308330E+04  0.7818608E-02  0.9022986E-01
         -1   -1    0    0    0  501 -0.00000000000E+00  0.00000000000E+00  0.39524505589E+03  0.39524505589E+03  0.00000000000E+00 0.  1.
          2   -1    0    0  501    0  0.00000000000E+00 -0.00000000000E+00 -0.10826997610E+04  0.10826997610E+04  0.00000000000E+00 0. -1.
         24    2    1    2    0    0 -0.75173159319E+02 -0.87504807617E+02 -0.53127010425E+03  0.54902664468E+03  0.76643575470E+02 0.  0.
        254    2    1    2    0    0  0.75173159319E+02  0.87504807617E+02 -0.15618460089E+03  0.92891817225E+03  0.90839817588E+03 0.  0.
         23    2    4    4    0    0  0.25785350847E+03  0.40665091620E+03  0.58308232124E+02  0.49338920140E+03  0.90441443166E+02 0.  0.
         23    2    4    4    0    0 -0.18268034915E+03 -0.31914610859E+03 -0.21449283301E+03  0.43552897085E+03  0.91934544343E+02 0.  0.
          4    1    3    3  502    0 -0.65219315279E+02 -0.53613228267E+02 -0.47602695208E+03  0.48345588882E+03  0.00000000000E+00 0. -1.
         -3    1    3    3    0  502 -0.99538440395E+01 -0.33891579350E+02 -0.55243152167E+02  0.65570755855E+02  0.00000000000E+00 0.  1.
         13    1    5    5    0    0  0.21871114500E+03  0.37192580729E+03  0.76090738786E+02  0.43812460739E+03  0.00000000000E+00 0. -1.
        -13    1    5    5    0    0  0.39142363473E+02  0.34725108918E+02 -0.17782506662E+02  0.55264594007E+02  0.00000000000E+00 0.  1.
          3    1    6    6  503    0 -0.46495100472E+02 -0.13730512858E+03 -0.12478767767E+03  0.19127586675E+03  0.00000000000E+00 0. -1.
         -3    1    6    6    0  503 -0.13618524868E+03 -0.18184098001E+03 -0.89705155341E+02  0.24425310410E+03  0.00000000000E+00 0.  1.
<mgrwt>
<rscale>  0 0.13083298E+04</rscale>
<asrwt>0</asrwt>
<pdfrwt beam="1">  1        2 0.16656920E+00 0.13083298E+04</pdfrwt>
<pdfrwt beam="2">  1       -1 0.60806931E-01 0.13083298E+04</pdfrwt>
<totfact> 0.68431727E+01</totfact>
</mgrwt>
</event>
<event>
12    7  0.1740517E-007  0.1319488E+04  0.7818608E-02  0.9014252E-01
          2   -1    0    0  501    0  0.00000000000E+00  0.00000000000E+00  0.20730603362E+04  0.20730603362E+04  0.00000000000E+00 0. -1.
         -1   -1    0    0    0  501 -0.00000000000E+00 -0.00000000000E+00 -0.20996106383E+03  0.20996106383E+03  0.00000000000E+00 0.  1.
         24    2    1    2    0    0 -0.93226948993E+02  0.99296345693E+02  0.10602198572E+04  0.10719325408E+04  0.80138617099E+02 0.  0.
        254    2    1    2    0    0  0.93226948993E+02 -0.99296345693E+02  0.80287941513E+03  0.12110888593E+04  0.89642057179E+03 0.  0.
         23    2    4    4    0    0  0.16821555491E+03 -0.44018119469E+03  0.67506721676E+03  0.82813068797E+03  0.89603192662E+02 0.  0.
         23    2    4    4    0    0 -0.74988605918E+02  0.34088484900E+03  0.12781219837E+03  0.38295817130E+03  0.92169580769E+02 0.  0.
          4    1    3    3  502    0 -0.83939119358E+02  0.96385720898E+02  0.10502527229E+04  0.10580013067E+04  0.00000000000E+00 0. -1.
         -3    1    3    3    0  502 -0.92878296349E+01  0.29106247950E+01  0.99671343223E+01  0.13931234067E+02  0.00000000000E+00 0.  1.
         13    1    5    5    0    0  0.27320189937E+02 -0.18110248339E+02  0.67614749750E+02  0.75140723026E+02  0.00000000000E+00 0. -1.
        -13    1    5    5    0    0  0.14089536497E+03 -0.42207094636E+03  0.60745246701E+03  0.75298996495E+03  0.00000000000E+00 0.  1.
          3    1    6    6  503    0 -0.73798779632E+02  0.13057859893E+03  0.41495397255E+02  0.15562422166E+03  0.00000000000E+00 0. -1.
         -3    1    6    6    0  503 -0.11898262858E+01  0.21030625007E+03  0.86316801112E+02  0.22733394964E+03  0.00000000000E+00 0.  1.
<mgrwt>
<rscale>  0 0.13194877E+04</rscale>
<asrwt>0</asrwt>
<pdfrwt beam="1">  1        2 0.31893235E+00 0.13194877E+04</pdfrwt>
<pdfrwt beam="2">  1       -1 0.32301703E-01 0.13194877E+04</pdfrwt>
<totfact> 0.60810751E+01</totfact>
</mgrwt>
</event>
<event>
12    7  0.1740517E-007  0.1887578E+04  0.7818608E-02  0.8661064E-01
         -1   -1    0    0    0  501 -0.00000000000E+00  0.00000000000E+00  0.49545161043E+03  0.49545161043E+03  0.00000000000E+00 0.  1.
          2   -1    0    0  501    0  0.00000000000E+00 -0.00000000000E+00 -0.17978296765E+04  0.17978296765E+04  0.00000000000E+00 0. -1.
         24    2    1    2    0    0  0.16607589441E+02 -0.32271420725E+02 -0.13863328692E+04  0.13888351985E+04  0.75014183617E+02 0.  0.
        254    2    1    2    0    0 -0.16607589441E+02  0.32271420725E+02  0.83954803144E+02  0.90444608841E+03  0.89980945830E+03 0.  0.
         23    2    4    4    0    0 -0.27564074469E+03  0.33923673403E+03 -0.94111751942E+02  0.45643780517E+03  0.91755470084E+02 0.  0.
         23    2    4    4    0    0  0.25903315525E+03 -0.30696531330E+03  0.17806655509E+03  0.44800828324E+03  0.87623311534E+02 0.  0.
          4    1    3    3  502    0 -0.29873507800E+02 -0.89148056265E+01 -0.55877737330E+03  0.55964636435E+03  0.00000000000E+00 0. -1.
         -3    1    3    3    0  502  0.46481097241E+02 -0.23356615099E+02 -0.82755549591E+03  0.82918883416E+03  0.00000000000E+00 0.  1.
         13    1    5    5    0    0 -0.79026708603E+02  0.95349623555E+02  0.14917792609E+02  0.12473697095E+03  0.00000000000E+00 0. -1.
        -13    1    5    5    0    0 -0.19661403608E+03  0.24388711047E+03 -0.10902954455E+03  0.33170083422E+03  0.00000000000E+00 0.  1.
          3    1    6    6  503    0  0.12092818110E+03 -0.11210078679E+03  0.31783056160E+02  0.16792966993E+03  0.00000000000E+00 0. -1.
         -3    1    6    6    0  503  0.13810497414E+03 -0.19486452651E+03  0.14628349893E+03  0.28007861331E+03  0.00000000000E+00 0.  1.
<mgrwt>
<rscale>  0 0.18875779E+04</rscale>
<asrwt>0</asrwt>
<pdfrwt beam="1">  1        2 0.27658919E+00 0.18875779E+04</pdfrwt>
<pdfrwt beam="2">  1       -1 0.76223323E-01 0.18875779E+04</pdfrwt>
<totfact> 0.15965240E+01</totfact>
</mgrwt>
</event>
<event>
12    7  0.1740517E-007  0.2452303E+04  0.7818608E-02  0.8420178E-01
         -1   -1    0    0    0  501 -0.00000000000E+00  0.00000000000E+00  0.12360421793E+04  0.12360421793E+04  0.00000000000E+00 0.  1.
          2   -1    0    0  501    0  0.00000000000E+00 -0.00000000000E+00 -0.12163396814E+04  0.12163396814E+04  0.00000000000E+00 0. -1.
         24    2    1    2    0    0 -0.11337062152E+03 -0.57443616836E+03 -0.87347592047E+03  0.10545643324E+04  0.79472876952E+02 0.  0.
        254    2    1    2    0    0  0.11337062152E+03  0.57443616836E+03  0.89317841839E+03  0.13978175282E+04  0.90182944385E+03 0.  0.
         23    2    4    4    0    0  0.22304623659E+03 -0.18238810008E+03  0.20349679179E+03  0.36393746283E+03  0.89579517062E+02 0.  0.
         23    2    4    4    0    0 -0.10967561508E+03  0.75682426844E+03  0.68968162660E+03  0.10338800654E+04  0.91845139781E+02 0.  0.
          2    1    3    3  502    0 -0.54398114790E+02 -0.40939096847E+03 -0.65717286568E+03  0.77616769795E+03  0.00000000000E+00 0. -1.
         -1    1    3    3    0  502 -0.58972506726E+02 -0.16504519990E+03 -0.21630305479E+03  0.27839663444E+03  0.00000000000E+00 0.  1.
         13    1    5    5    0    0  0.29824227943E+01 -0.16024035168E+01 -0.83339988585E+01  0.89954477225E+01  0.00000000000E+00 0. -1.
        -13    1    5    5    0    0  0.22006381380E+03 -0.18078569656E+03  0.21183079065E+03  0.35494201511E+03  0.00000000000E+00 0.  1.
          1    1    6    6  503    0 -0.12461724309E+01  0.98022187837E+02  0.53626312103E+02  0.11173935566E+03  0.00000000000E+00 0. -1.
         -1    1    6    6    0  503 -0.10842944265E+03  0.65880208060E+03  0.63605531449E+03  0.92214070973E+03  0.00000000000E+00 0.  1.
<mgrwt>
<rscale>  0 0.24523027E+04</rscale>
<asrwt>0</asrwt>
<pdfrwt beam="1">  1        2 0.18712918E+00 0.24523027E+04</pdfrwt>
<pdfrwt beam="2">  1       -1 0.19016033E+00 0.24523027E+04</pdfrwt>
<totfact> 0.33308540E+00</totfact>
</mgrwt>
</event>
<event>
12    7  0.1740517E-007  0.2214240E+04  0.7818608E-02  0.8512524E-01
          2   -1    0    0  501    0  0.00000000000E+00  0.00000000000E+00  0.26858039557E+04  0.26858039557E+04  0.00000000000E+00 0. -1.
         -1   -1    0    0    0  501 -0.00000000000E+00 -0.00000000000E+00 -0.45636807192E+03  0.45636807192E+03  0.00000000000E+00 0.  1.
         24    2    1    2    0    0  0.18565085609E+03  0.72879044445E+03  0.17969290357E+03  0.77742938892E+03  0.80654589956E+02 0.  0.
        254    2    1    2    0    0 -0.18565085609E+03 -0.72879044445E+03  0.20497429802E+04  0.23647426387E+04  0.90827292706E+03 0.  0.
         23    2    4    4    0    0 -0.23425287608E+03 -0.47697682694E+02  0.65074357243E+02  0.26388756629E+03  0.90843253927E+02 0.  0.
         23    2    4    4    0    0  0.48602019994E+02 -0.68109276176E+03  0.19846686229E+04  0.21008550724E+04  0.91831289804E+02 0.  0.
          4    1    3    3  502    0 -0.36633370885E+01  0.88396692663E+02  0.16693528443E+02  0.90033711487E+02  0.00000000000E+00 0. -1.
         -3    1    3    3    0  502  0.18931419318E+03  0.64039375179E+03  0.16299937513E+03  0.68739567744E+03  0.00000000000E+00 0.  1.
         13    1    5    5    0    0 -0.13390123809E+03  0.14283967385E+02  0.55164370627E+02  0.14552209823E+03  0.00000000000E+00 0. -1.
        -13    1    5    5    0    0 -0.10035163799E+03 -0.61981650079E+02  0.99099866162E+01  0.11836546806E+03  0.00000000000E+00 0.  1.
          1    1    6    6  503    0  0.36231990064E+02 -0.67305079409E+03  0.19344151525E+04  0.20484804394E+04  0.00000000000E+00 0. -1.
         -1    1    6    6    0  503  0.12370029930E+02 -0.80419676633E+01  0.50253470467E+02  0.52374632966E+02  0.00000000000E+00 0.  1.
<mgrwt>
<rscale>  0 0.22142404E+04</rscale>
<asrwt>0</asrwt>
<pdfrwt beam="1">  1        2 0.41320060E+00 0.22142404E+04</pdfrwt>
<pdfrwt beam="2">  1       -1 0.70210474E-01 0.22142404E+04</pdfrwt>
<totfact> 0.57700624E+00</totfact>
</mgrwt>
</event>
<event>
12    7  0.1740517E-007  0.1457213E+04  0.7818608E-02  0.8913415E-01
         -1   -1    0    0    0  501 -0.00000000000E+00  0.00000000000E+00  0.32883714297E+03  0.32883714297E+03  0.00000000000E+00 0.  1.
          2   -1    0    0  501    0  0.00000000000E+00 -0.00000000000E+00 -0.16143779602E+04  0.16143779602E+04  0.00000000000E+00 0. -1.
         24    2    1    2    0    0  0.37040155932E+03  0.21186797651E+03 -0.57865282508E+03  0.72376700095E+03  0.83151819459E+02 0.  0.
        254    2    1    2    0    0 -0.37040155932E+03 -0.21186797651E+03 -0.70688799212E+03  0.12194481022E+04  0.89737265721E+03 0.  0.
         23    2    4    4    0    0 -0.25658564065E+03 -0.28711572080E+03  0.91960502909E+02  0.40399324941E+03  0.80512007525E+02 0.  0.
         23    2    4    4    0    0 -0.11381591867E+03  0.75247744295E+02 -0.79884849503E+03  0.81545485277E+03  0.90506422646E+02 0.  0.
          2    1    3    3  502    0  0.15957685584E+03  0.74525994605E+02 -0.30361071072E+03  0.35099623995E+03  0.00000000000E+00 0. -1.
         -1    1    3    3    0  502  0.21082470348E+03  0.13734198190E+03 -0.27504211436E+03  0.37277076100E+03  0.00000000000E+00 0.  1.
         13    1    5    5    0    0 -0.32665648406E+02 -0.54927704249E+01  0.23469586266E+01  0.33207278231E+02  0.00000000000E+00 0. -1.
        -13    1    5    5    0    0 -0.22391999225E+03 -0.28162295038E+03  0.89613544283E+02  0.37078597118E+03  0.00000000000E+00 0.  1.
          3    1    6    6  503    0 -0.55887415486E+02  0.87180939193E+02 -0.46314937339E+03  0.47458535738E+03  0.00000000000E+00 0. -1.
         -3    1    6    6    0  503 -0.57928503180E+02 -0.11933194898E+02 -0.33569912163E+03  0.34086949539E+03  0.00000000000E+00 0.  1.
<mgrwt>
<rscale>  0 0.14572130E+04</rscale>
<asrwt>0</asrwt>
<pdfrwt beam="1">  1        2 0.24836584E+00 0.14572130E+04</pdfrwt>
<pdfrwt beam="2">  1       -1 0.50590330E-01 0.14572130E+04</pdfrwt>
<totfact> 0.47445610E+01</totfact>
</mgrwt>
</event>
<event>
12    7  0.1740517E-007  0.2519187E+04  0.7818608E-02  0.8396182E-01
          2   -1    0    0  501    0  0.00000000000E+00  0.00000000000E+00  0.22716346153E+04  0.22716346153E+04  0.00000000000E+00 0. -1.
         -1   -1    0    0    0  501 -0.00000000000E+00 -0.00000000000E+00 -0.69842928862E+03  0.69842928862E+03  0.00000000000E+00 0.  1.
         24    2    1    2    0    0 -0.13835716368E+03 -0.45318061385E+03 -0.48043923803E+03  0.67929733965E+03  0.78151396093E+02 0.  0.
        254    2    1    2    0    0  0.13835716368E+03  0.45318061385E+03  0.20536445647E+04  0.22907665643E+04  0.89757455415E+03 0.  0.
         23    2    4    4    0    0 -0.12015530625E+03  0.62626075802E+03  0.10104155805E+04  0.11984531118E+04  0.93329423169E+02 0.  0.
         23    2    4    4    0    0  0.25851246993E+03 -0.17308014417E+03  0.10432289842E+04  0.10923134525E+04  0.89646703795E+02 0.  0.
          4    1    3    3  502    0 -0.11029986062E+02 -0.11979467278E+03 -0.15593836317E+03  0.19694973300E+03  0.00000000000E+00 0. -1.
         -1    1    3    3    0  502 -0.12732717762E+03 -0.33338594107E+03 -0.32450087486E+03  0.48234760666E+03  0.00000000000E+00 0.  1.
         13    1    5    5    0    0 -0.48565578854E+02  0.25822544813E+03  0.50362863671E+03  0.56804999887E+03  0.00000000000E+00 0. -1.
        -13    1    5    5    0    0 -0.71589727393E+02  0.36803530989E+03  0.50678694378E+03  0.63040311292E+03  0.00000000000E+00 0.  1.
          3    1    6    6  503    0  0.11151061540E+03 -0.12849231824E+03  0.54296441297E+03  0.56899494457E+03  0.00000000000E+00 0. -1.
         -3    1    6    6    0  503  0.14700185453E+03 -0.44587825927E+02  0.50026457126E+03  0.52331850791E+03  0.00000000000E+00 0.  1.
<mgrwt>
<rscale>  0 0.25191873E+04</rscale>
<asrwt>0</asrwt>
<pdfrwt beam="1">  1        2 0.34948224E+00 0.25191873E+04</pdfrwt>
<pdfrwt beam="2">  1       -1 0.10745066E+00 0.25191873E+04</pdfrwt>
<totfact> 0.38430879E+00</totfact>
</mgrwt>
</event>
<event>
12    7  0.1740517E-007  0.1092345E+04  0.7818608E-02  0.9212685E-01
         -1   -1    0    0    0  501 -0.00000000000E+00  0.00000000000E+00  0.29598348195E+03  0.29598348195E+03  0.00000000000E+00 0.  1.
          2   -1    0    0  501    0  0.00000000000E+00 -0.00000000000E+00 -0.10078410188E+04  0.10078410188E+04  0.00000000000E+00 0. -1.
         24    2    1    2    0    0  0.80743967653E+02 -0.12049332424E+03 -0.10198273752E+03  0.19408989290E+03  0.78944146554E+02 0.  0.
        254    2    1    2    0    0 -0.80743967653E+02  0.12049332424E+03 -0.60987479930E+03  0.11097346078E+04  0.91571032510E+03 0.  0.
         23    2    4    4    0    0 -0.27492678579E+03  0.35344167532E+03 -0.64539708329E+03  0.79059963073E+03  0.89468573167E+02 0.  0.
         23    2    4    4    0    0  0.19418281814E+03 -0.23294835108E+03  0.35522283991E+02  0.31913497710E+03  0.92808403810E+02 0.  0.
          4    1    3    3  502    0  0.74133173693E+02 -0.51182946321E+02 -0.81585876199E+02  0.12153878653E+03  0.00000000000E+00 0. -1.
         -3    1    3    3    0  502  0.66107939602E+01 -0.69310377914E+02 -0.20396861319E+02  0.72551106366E+02  0.00000000000E+00 0.  1.
         13    1    5    5    0    0 -0.10548636112E+03  0.20842769590E+03 -0.33213005533E+03  0.40605399943E+03  0.00000000000E+00 0. -1.
        -13    1    5    5    0    0 -0.16944042467E+03  0.14501397942E+03 -0.31326702796E+03  0.38454563129E+03  0.00000000000E+00 0.  1.
          2    1    6    6  503    0  0.23994995076E+02  0.50787238674E+01  0.19198866092E+01  0.24601609488E+02  0.00000000000E+00 0. -1.
         -2    1    6    6    0  503  0.17018782306E+03 -0.23802707495E+03  0.33602397382E+02  0.29453336761E+03  0.00000000000E+00 0.  1.
<mgrwt>
<rscale>  0 0.10923448E+04</rscale>
<asrwt>0</asrwt>
<pdfrwt beam="1">  1        2 0.15505247E+00 0.10923448E+04</pdfrwt>
<pdfrwt beam="2">  1       -1 0.45535920E-01 0.10923448E+04</pdfrwt>
<totfact> 0.13502765E+02</totfact>
</mgrwt>
</event>
<event>
12    7  0.1740517E-007  0.1709890E+04  0.7818608E-02  0.8755744E-01
          2   -1    0    0  501    0  0.00000000000E+00  0.00000000000E+00  0.14994567506E+04  0.14994567506E+04  0.00000000000E+00 0. -1.
         -1   -1    0    0    0  501 -0.00000000000E+00 -0.00000000000E+00 -0.48746382104E+03  0.48746382104E+03  0.00000000000E+00 0.  1.
         24    2    1    2    0    0  0.34626398504E+03 -0.12078360326E+03 -0.19524965303E+03  0.42318600543E+03  0.80476965802E+02 0.  0.
        254    2    1    2    0    0 -0.34626398504E+03  0.12078360326E+03  0.12072425826E+04  0.15637345663E+04  0.92376604953E+03 0.  0.
         23    2    4    4    0    0 -0.47129530672E+02  0.20968342810E+02 -0.14070041303E+03  0.17639706165E+03  0.93050809081E+02 0.  0.
         23    2    4    4    0    0 -0.29913445437E+03  0.99815260451E+02  0.13479429957E+04  0.13873375046E+04  0.91162076354E+02 0.  0.
          2    1    3    3  502    0  0.25655367084E+02 -0.31222286995E+02 -0.78089219736E+01  0.41158332422E+02  0.00000000000E+00 0. -1.
         -1    1    3    3    0  502  0.32060861796E+03 -0.89561316266E+02 -0.18744073105E+03  0.38202767300E+03  0.00000000000E+00 0.  1.
         13    1    5    5    0    0 -0.23390822978E+02  0.43126253412E+02 -0.13472340856E+03  0.14337852401E+03  0.00000000000E+00 0. -1.
        -13    1    5    5    0    0 -0.23738707695E+02 -0.22157910602E+02 -0.59770044630E+01  0.33018537636E+02  0.00000000000E+00 0.  1.
          4    1    6    6  503    0 -0.24734690512E+03  0.73665164230E+02  0.12178316535E+04  0.12448778993E+04  0.00000000000E+00 0. -1.
         -4    1    6    6    0  503 -0.51787549257E+02  0.26150096221E+02  0.13011134217E+03  0.14245960533E+03  0.00000000000E+00 0.  1.
<mgrwt>
<rscale>  0 0.17098900E+04</rscale>
<asrwt>0</asrwt>
<pdfrwt beam="1">  1        2 0.23068565E+00 0.17098900E+04</pdfrwt>
<pdfrwt beam="2">  1       -1 0.74994435E-01 0.17098900E+04</pdfrwt>
<totfact> 0.24610327E+01</totfact>
</mgrwt>
</event>
<event>
12    7  0.1740517E-007  0.1439247E+04  0.7818608E-02  0.8925889E-01
          2   -1    0    0  501    0  0.00000000000E+00  0.00000000000E+00  0.16682433983E+04  0.16682433983E+04  0.00000000000E+00 0. -1.
         -1   -1    0    0    0  501 -0.00000000000E+00 -0.00000000000E+00 -0.31042130643E+03  0.31042130643E+03  0.00000000000E+00 0.  1.
         24    2    1    2    0    0  0.23103737347E+03  0.68067620892E+02  0.91377812860E+03  0.94854143085E+03  0.82029926015E+02 0.  0.
        254    2    1    2    0    0 -0.23103737347E+03 -0.68067620892E+02  0.44404396327E+03  0.10301232739E+04  0.89775689868E+03 0.  0.
         23    2    4    4    0    0 -0.29644229578E+03  0.29572340777E+03 -0.20944750777E+02  0.42866131662E+03  0.89339090819E+02 0.  0.
         23    2    4    4    0    0  0.65404922303E+02 -0.36379102866E+03  0.46498871405E+03  0.60146195727E+03  0.94447156938E+02 0.  0.
          2    1    3    3  502    0  0.21728378870E+03  0.48302861382E+02  0.87522966067E+03  0.90309045514E+03  0.00000000000E+00 0. -1.
         -1    1    3    3    0  502  0.13753584775E+02  0.19764759509E+02  0.38548467937E+02  0.45450975709E+02  0.00000000000E+00 0.  1.
         13    1    5    5    0    0 -0.19773247786E+03  0.13470042265E+03 -0.93950123364E+01  0.23943809830E+03  0.00000000000E+00 0.  1.
        -13    1    5    5    0    0 -0.98709817921E+02  0.16102298512E+03 -0.11549738441E+02  0.18922321832E+03  0.00000000000E+00 0. -1.
          2    1    6    6  503    0  0.31223817075E+02 -0.77551608312E+02  0.16755851542E+03  0.18725660147E+03  0.00000000000E+00 0. -1.
         -2    1    6    6    0  503  0.34181105229E+02 -0.28623942035E+03  0.29743019863E+03  0.41420535580E+03  0.00000000000E+00 0.  1.
<mgrwt>
<rscale>  0 0.14392474E+04</rscale>
<asrwt>0</asrwt>
<pdfrwt beam="1">  1        2 0.25665282E+00 0.14392474E+04</pdfrwt>
<pdfrwt beam="2">  1       -1 0.47757125E-01 0.14392474E+04</pdfrwt>
<totfact> 0.49459764E+01</totfact>
</mgrwt>
</event>
<event>
12    7  0.1740517E-007  0.2955885E+04  0.7818608E-02  0.8256441E-01
         -1   -1    0    0    0  501 -0.00000000000E+00  0.00000000000E+00  0.20300481678E+04  0.20300481678E+04  0.00000000000E+00 0.  1.
          2   -1    0    0  501    0  0.00000000000E+00 -0.00000000000E+00 -0.10759913835E+04  0.10759913835E+04  0.00000000000E+00 0. -1.
         24    2    1    2    0    0 -0.43536935262E+02  0.69823946475E+03  0.16329531809E+04  0.17783534282E+04  0.81061766348E+02 0.  0.
        254    2    1    2    0    0  0.43536935262E+02 -0.69823946475E+03 -0.67889639662E+03  0.13276861231E+04  0.90134139437E+03 0.  0.
         23    2    4    4    0    0 -0.84411436727E+02  0.46020643533E+01  0.17157921247E+03  0.21309310356E+03  0.93929627827E+02 0.  0.
         23    2    4    4    0    0  0.12794837199E+03 -0.70284152910E+03 -0.85047560910E+03  0.11145930195E+04  0.93015249127E+02 0.  0.
          2    1    3    3  502    0 -0.12344187202E+02  0.22829099846E+03  0.63334505537E+03  0.67334620968E+03  0.00000000000E+00 0. -1.
         -1    1    3    3    0  502 -0.31192748060E+02  0.46994846629E+03  0.99960812549E+03  0.11050072185E+04  0.00000000000E+00 0.  1.
         13    1    5    5    0    0 -0.75371156111E+02  0.13221154897E+02  0.51207496746E+02  0.92075066295E+02  0.00000000000E+00 0. -1.
        -13    1    5    5    0    0 -0.90402806166E+01 -0.86190905433E+01  0.12037171573E+03  0.12101803726E+03  0.00000000000E+00 0.  1.
          3    1    6    6  503    0  0.44479573530E+01 -0.25391474465E+02 -0.65452242772E+02  0.70345628038E+02  0.00000000000E+00 0. -1.
         -3    1    6    6    0  503  0.12350041464E+03 -0.67745005464E+03 -0.78502336633E+03  0.10442473915E+04  0.00000000000E+00 0.  1.
<mgrwt>
<rscale>  0 0.29558852E+04</rscale>
<asrwt>0</asrwt>
<pdfrwt beam="1">  1        2 0.16553714E+00 0.29558852E+04</pdfrwt>
<pdfrwt beam="2">  1       -1 0.31231510E+00 0.29558852E+04</pdfrwt>
<totfact> 0.60621016E-01</totfact>
</mgrwt>
</event>
<event>
12    7  0.1740517E-007  0.1098274E+04  0.7818608E-02  0.9206876E-01
          2   -1    0    0  501    0  0.00000000000E+00  0.00000000000E+00  0.10959451228E+04  0.10959451228E+04  0.00000000000E+00 0. -1.
         -1   -1    0    0    0  501 -0.00000000000E+00 -0.00000000000E+00 -0.27515209313E+03  0.27515209313E+03  0.00000000000E+00 0.  1.
         24    2    1    2    0    0 -0.15123605956E+03  0.51517835920E+02  0.66414245567E+02  0.18819321039E+03  0.74022964629E+02 0.  0.
        254    2    1    2    0    0  0.15123605956E+03 -0.51517835920E+02  0.75437878407E+03  0.11829040055E+04  0.89702179641E+03 0.  0.
         23    2    4    4    0    0 -0.22024605977E+03 -0.31905757941E+03  0.53546937855E+03  0.66709046842E+03  0.89309416492E+02 0.  0.
         23    2    4    4    0    0  0.37148211933E+03  0.26753974349E+03  0.21890940552E+03  0.51581353708E+03  0.92551595750E+02 0.  0.
          4    1    3    3  502    0  0.70469873963E+01  0.12813502341E+01  0.11002346913E+02  0.13128348235E+02  0.00000000000E+00 0. -1.
         -3    1    3    3    0  502 -0.15828304696E+03  0.50236485686E+02  0.55411898654E+02  0.17506486215E+03  0.00000000000E+00 0.  1.
         13    1    5    5    0    0 -0.15909013077E+03 -0.17950560876E+03  0.38030277485E+03  0.44962443644E+03  0.00000000000E+00 0.  1.
        -13    1    5    5    0    0 -0.61155929000E+02 -0.13955197064E+03  0.15516660370E+03  0.21746603198E+03  0.00000000000E+00 0. -1.
          4    1    6    6  503    0  0.31999785149E+03  0.26498643181E+03  0.19266691731E+03  0.45797049581E+03  0.00000000000E+00 0. -1.
         -4    1    6    6    0  503  0.51484267841E+02  0.25533116735E+01  0.26242488210E+02  0.57843041268E+02  0.00000000000E+00 0.  1.
<mgrwt>
<rscale>  0 0.10982743E+04</rscale>
<asrwt>0</asrwt>
<pdfrwt beam="1">  1        2 0.16860694E+00 0.10982743E+04</pdfrwt>
<pdfrwt beam="2">  1       -1 0.42331092E-01 0.10982743E+04</pdfrwt>
<totfact> 0.13603275E+02</totfact>
</mgrwt>
</event>
<event>
12    7  0.1740517E-007  0.2717731E+04  0.7818608E-02  0.8329275E-01
          2   -1    0    0  501    0  0.00000000000E+00  0.00000000000E+00  0.35340608620E+04  0.35340608620E+04  0.00000000000E+00 0. -1.
         -1   -1    0    0    0  501 -0.00000000000E+00 -0.00000000000E+00 -0.52249114471E+03  0.52249114471E+03  0.00000000000E+00 0.  1.
         24    2    1    2    0    0  0.70668173192E+03 -0.18241725251E+03  0.27764528896E+04  0.28718430515E+04  0.78209590588E+02 0.  0.
        254    2    1    2    0    0 -0.70668173192E+03  0.18241725251E+03  0.23511682767E+03  0.11847089552E+04  0.90309482427E+03 0.  0.
         23    2    4    4    0    0 -0.12709308831E+03 -0.33010543751E+03 -0.11543027782E+02  0.36810821490E+03  0.10123321302E+03 0.  0.
         23    2    4    4    0    0 -0.57958864361E+03  0.51252269002E+03  0.24665985545E+03  0.81660074029E+03  0.85983609880E+02 0.  0.
          4    1    3    3  502    0  0.53772070793E+03 -0.13176641562E+03  0.19692928821E+04  0.20456344745E+04  0.00000000000E+00 0. -1.
         -3    1    3    3    0  502  0.16896102398E+03 -0.50650836886E+02  0.80716000754E+03  0.82620857698E+03  0.00000000000E+00 0.  1.
         13    1    5    5    0    0 -0.55196743839E+02 -0.72821362604E+02 -0.39420418540E+02  0.99516836665E+02  0.00000000000E+00 0.  1.
        -13    1    5    5    0    0 -0.71896344471E+02 -0.25728407491E+03  0.27877390759E+02  0.26859137824E+03  0.00000000000E+00 0. -1.
          2    1    6    6  503    0 -0.53890268948E+03  0.46836475211E+03  0.20276525064E+03  0.74222327949E+03  0.00000000000E+00 0. -1.
         -2    1    6    6    0  503 -0.40685954126E+02  0.44157937905E+02  0.43894604812E+02  0.74377460799E+02  0.00000000000E+00 0.  1.
<mgrwt>
<rscale>  0 0.27177310E+04</rscale>
<asrwt>0</asrwt>
<pdfrwt beam="1">  1        2 0.54370166E+00 0.27177310E+04</pdfrwt>
<pdfrwt beam="2">  1       -1 0.80383255E-01 0.27177310E+04</pdfrwt>
<totfact> 0.11831143E+00</totfact>
</mgrwt>
</event>
<event>
12    7  0.1740517E-007  0.3207994E+04  0.7818608E-02  0.8186709E-01
         -1   -1    0    0    0  501 -0.00000000000E+00  0.00000000000E+00  0.10206054744E+04  0.10206054744E+04  0.00000000000E+00 0.  1.
          2   -1    0    0  501    0  0.00000000000E+00 -0.00000000000E+00 -0.25208627577E+04  0.25208627577E+04  0.00000000000E+00 0. -1.
         24    2    1    2    0    0 -0.96747512455E+03  0.50670244725E+03 -0.18021544229E+04  0.21087773945E+04  0.80162638354E+02 0.  0.
        254    2    1    2    0    0  0.96747512455E+03 -0.50670244725E+03  0.30189713970E+03  0.14326908377E+04  0.87675861374E+03 0.  0.
         23    2    4    4    0    0  0.35306921003E+03 -0.61320127870E+03 -0.40992425458E+02  0.71517635615E+03  0.95515266758E+02 0.  0.
         23    2    4    4    0    0  0.61440591452E+03  0.10649883145E+03  0.34288956515E+03  0.71751448153E+03  0.91745018522E+02 0.  0.
          4    1    3    3  502    0 -0.79165216250E+03  0.44818635689E+03 -0.15047023691E+04  0.17583268685E+04  0.00000000000E+00 0. -1.
         -3    1    3    3    0  502 -0.17582296205E+03  0.58516090355E+02 -0.29745205380E+03  0.35045052593E+03  0.00000000000E+00 0.  1.
         13    1    5    5    0    0  0.24328250843E+03 -0.35781999160E+03  0.87586453821E+01  0.43277966584E+03  0.00000000000E+00 0. -1.
        -13    1    5    5    0    0  0.10978670160E+03 -0.25538128709E+03 -0.49751070840E+02  0.28239669031E+03  0.00000000000E+00 0.  1.
          4    1    6    6  503    0  0.29529984917E+03  0.89932632162E+02  0.13956652540E+03  0.33877528579E+03  0.00000000000E+00 0. -1.
         -4    1    6    6    0  503  0.31910606535E+03  0.16566199292E+02  0.20332303975E+03  0.37873919575E+03  0.00000000000E+00 0.  1.
<mgrwt>
<rscale>  0 0.32079940E+04</rscale>
<asrwt>0</asrwt>
<pdfrwt beam="1">  1        2 0.38782503E+00 0.32079940E+04</pdfrwt>
<pdfrwt beam="2">  1       -1 0.15701623E+00 0.32079940E+04</pdfrwt>
<totfact> 0.99674180E-01</totfact>
</mgrwt>
</event>
<event>
12    7  0.1740517E-007  0.1713454E+04  0.7818608E-02  0.8753728E-01
         -1   -1    0    0    0  501 -0.00000000000E+00  0.00000000000E+00  0.37919364483E+03  0.37919364483E+03  0.00000000000E+00 0.  1.
          2   -1    0    0  501    0  0.00000000000E+00 -0.00000000000E+00 -0.19356358819E+04  0.19356358819E+04  0.00000000000E+00 0. -1.
         24    2    1    2    0    0 -0.34317122578E+03 -0.48975664675E+03 -0.78033299532E+03  0.98633297630E+03  0.79404617713E+02 0.  0.
        254    2    1    2    0    0  0.34317122578E+03  0.48975664675E+03 -0.77610924174E+03  0.13284965504E+04  0.89717861438E+03 0.  0.
         23    2    4    4    0    0 -0.24439320832E+03  0.28414141937E+03 -0.84308624514E+02  0.39424204664E+03  0.88625395311E+02 0.  0.
         23    2    4    4    0    0  0.58756443410E+03  0.20561522738E+03 -0.69180061723E+03  0.93425450377E+03  0.82059721412E+02 0.  0.
          2    1    3    3  502    0 -0.19314213254E+03 -0.27945688528E+03 -0.37812015075E+03  0.50830589461E+03  0.00000000000E+00 0. -1.
         -1    1    3    3    0  502 -0.15002909325E+03 -0.21029976147E+03 -0.40221284457E+03  0.47802708169E+03  0.00000000000E+00 0.  1.
         13    1    5    5    0    0 -0.22621988664E+03  0.23607038418E+03 -0.97488834158E+02  0.34118724505E+03  0.00000000000E+00 0.  1.
        -13    1    5    5    0    0 -0.18173321677E+02  0.48071035191E+02  0.13180209645E+02  0.53054801586E+02  0.00000000000E+00 0. -1.
          1    1    6    6  503    0  0.32070352514E+03  0.14730043902E+03 -0.35449499362E+03  0.50021482473E+03  0.00000000000E+00 0. -1.
         -1    1    6    6    0  503  0.26686090896E+03  0.58314788355E+02 -0.33730562361E+03  0.43403967905E+03  0.00000000000E+00 0.  1.
<mgrwt>
<rscale>  0 0.17134536E+04</rscale>
<asrwt>0</asrwt>
<pdfrwt beam="1">  1        2 0.29779013E+00 0.17134536E+04</pdfrwt>
<pdfrwt beam="2">  1       -1 0.58337484E-01 0.17134536E+04</pdfrwt>
<totfact> 0.23387307E+01</totfact>
</mgrwt>
</event>
<event>
12    7  0.1740517E-007  0.1974693E+04  0.7818608E-02  0.8618545E-01
         -1   -1    0    0    0  501 -0.00000000000E+00  0.00000000000E+00  0.15566808053E+04  0.15566808053E+04  0.00000000000E+00 0.  1.
          2   -1    0    0  501    0  0.00000000000E+00 -0.00000000000E+00 -0.62623854760E+03  0.62623854760E+03  0.00000000000E+00 0. -1.
         24    2    1    2    0    0 -0.20268836221E+03  0.12677146045E+03 -0.45203691782E+03  0.51823839470E+03  0.84143230902E+02 0.  0.
        254    2    1    2    0    0  0.20268836221E+03 -0.12677146045E+03  0.13824791756E+04  0.16646809583E+04  0.89596899865E+03 0.  0.
         23    2    4    4    0    0  0.17484935585E+02 -0.49439321646E+03  0.79220801363E+03  0.93871527376E+03  0.94140601692E+02 0.  0.
         23    2    4    4    0    0  0.18520342663E+03  0.36762175601E+03  0.59027116193E+03  0.72596568449E+03  0.95708232282E+02 0.  0.
          2    1    3    3  502    0 -0.65310574270E+02  0.85449206942E+02 -0.22977853500E+03  0.25370300200E+03  0.00000000000E+00 0. -1.
         -1    1    3    3    0  502 -0.13737778794E+03  0.41322253507E+02 -0.22225838282E+03  0.26453539269E+03  0.00000000000E+00 0.  1.
         13    1    5    5    0    0  0.15633764090E+02 -0.49253186506E+03  0.75607024874E+03  0.90248228443E+03  0.00000000000E+00 0. -1.
        -13    1    5    5    0    0  0.18511714948E+01 -0.18613513973E+01  0.36137764886E+02  0.36232989331E+02  0.00000000000E+00 0.  1.
          2    1    6    6  503    0  0.14927156197E+03  0.31322660252E+03  0.54684015745E+03  0.64763188737E+03  0.00000000000E+00 0. -1.
         -2    1    6    6    0  503  0.35931864660E+02  0.54395153489E+02  0.43431004476E+02  0.78333797117E+02  0.00000000000E+00 0.  1.
<mgrwt>
<rscale>  0 0.19746934E+04</rscale>
<asrwt>0</asrwt>
<pdfrwt beam="1">  1        2 0.96344393E-01 0.19746934E+04</pdfrwt>
<pdfrwt beam="2">  1       -1 0.23948935E+00 0.19746934E+04</pdfrwt>
<totfact> 0.40884024E+00</totfact>
</mgrwt>
</event>
<event>
12    7  0.1740517E-007  0.1509713E+04  0.7818608E-02  0.8878020E-01
         -1   -1    0    0    0  501 -0.00000000000E+00  0.00000000000E+00  0.41205600725E+03  0.41205600725E+03  0.00000000000E+00 0.  1.
          2   -1    0    0  501    0  0.00000000000E+00 -0.00000000000E+00 -0.13828418470E+04  0.13828418470E+04  0.00000000000E+00 0. -1.
         24    2    1    2    0    0 -0.21060101902E+02 -0.96441998042E+02 -0.86128467327E+03  0.87174104617E+03  0.91523637875E+02 0.  0.
        254    2    1    2    0    0  0.21060101902E+02  0.96441998042E+02 -0.10950116652E+03  0.92315680812E+03  0.91130861953E+03 0.  0.
         23    2    4    4    0    0  0.40787624097E+03  0.18883536257E+03  0.94515161886E+02  0.46800213526E+03  0.89839082089E+02 0.  0.
         23    2    4    4    0    0 -0.38681613907E+03 -0.92393364531E+02 -0.20401632841E+03  0.45515467286E+03  0.85906080768E+02 0.  0.
          2    1    3    3  502    0 -0.17913723456E+01 -0.38781308335E+02 -0.66785368414E+03  0.66898112253E+03  0.00000000000E+00 0. -1.
         -1    1    3    3    0  502 -0.19268729556E+02 -0.57660689706E+02 -0.19343098913E+03  0.20275992363E+03  0.00000000000E+00 0.  1.
         13    1    5    5    0    0  0.58319299744E+02  0.66389295795E+01 -0.11484926446E+02  0.59809026443E+02  0.00000000000E+00 0. -1.
        -13    1    5    5    0    0  0.34955694123E+03  0.18219643299E+03  0.10600008833E+03  0.40819310882E+03  0.00000000000E+00 0.  1.
          1    1    6    6  503    0 -0.21283683698E+01  0.48883008558E+01  0.44354920415E+01  0.69353461935E+01  0.00000000000E+00 0. -1.
         -1    1    6    6    0  503 -0.38468777070E+03 -0.97281665387E+02 -0.20845182045E+03  0.44821932667E+03  0.00000000000E+00 0.  1.
<mgrwt>
<rscale>  0 0.15097129E+04</rscale>
<asrwt>0</asrwt>
<pdfrwt beam="1">  1        2 0.21274490E+00 0.15097129E+04</pdfrwt>
<pdfrwt beam="2">  1       -1 0.63393231E-01 0.15097129E+04</pdfrwt>
<totfact> 0.41108298E+01</totfact>
</mgrwt>
</event>
<event>
12    7  0.1740517E-007  0.2384653E+04  0.7818608E-02  0.8445272E-01
          2   -1    0    0  501    0  0.00000000000E+00  0.00000000000E+00  0.24672743850E+04  0.24672743850E+04  0.00000000000E+00 0. -1.
         -1   -1    0    0    0  501 -0.00000000000E+00 -0.00000000000E+00 -0.57619961201E+03  0.57619961201E+03  0.00000000000E+00 0.  1.
         24    2    1    2    0    0  0.86560169566E+03  0.54507026157E+03  0.81233659166E+03  0.13086790632E+04  0.79889090087E+02 0.  0.
        254    2    1    2    0    0 -0.86560169566E+03 -0.54507026157E+03  0.10787381813E+04  0.17347949338E+04  0.89413059053E+03 0.  0.
         23    2    4    4    0    0 -0.87915812723E+03 -0.25298900365E+03  0.10916850927E+04  0.14274362642E+04  0.94209861821E+02 0.  0.
         23    2    4    4    0    0  0.13556431565E+02 -0.29208125792E+03 -0.12946911376E+02  0.30735866962E+03  0.93842907084E+02 0.  0.
          4    1    3    3  502    0  0.26611719729E+03  0.20766418118E+03  0.28802811898E+03  0.44373750367E+03  0.00000000000E+00 0. -1.
         -3    1    3    3    0  502  0.59948449838E+03  0.33740608039E+03  0.52430847268E+03  0.86494155953E+03  0.00000000000E+00 0.  1.
         13    1    5    5    0    0 -0.42884102392E+03 -0.17033798581E+03  0.52688923626E+03  0.70037984016E+03  0.00000000000E+00 0.  1.
        -13    1    5    5    0    0 -0.45031710331E+03 -0.82651017834E+02  0.56479585642E+03  0.72705642402E+03  0.00000000000E+00 0. -1.
          4    1    6    6  503    0 -0.40222419580E+02 -0.14522038461E+03 -0.61492757292E+01  0.15081318488E+03  0.00000000000E+00 0. -1.
         -4    1    6    6    0  503  0.53778851144E+02 -0.14686087331E+03 -0.67976356471E+01  0.15654548474E+03  0.00000000000E+00 0.  1.
<mgrwt>
<rscale>  0 0.23846531E+04</rscale>
<asrwt>0</asrwt>
<pdfrwt beam="1">  1        2 0.37958067E+00 0.23846531E+04</pdfrwt>
<pdfrwt beam="2">  1       -1 0.88646096E-01 0.23846531E+04</pdfrwt>
<totfact> 0.46514866E+00</totfact>
</mgrwt>
</event>
<event>
12    7  0.1740517E-007  0.2013046E+04  0.7818608E-02  0.8600545E-01
          2   -1    0    0  501    0  0.00000000000E+00  0.00000000000E+00  0.32985492230E+04  0.32985492230E+04  0.00000000000E+00 0. -1.
         -1   -1    0    0    0  501 -0.00000000000E+00 -0.00000000000E+00 -0.30713165620E+03  0.30713165620E+03  0.00000000000E+00 0.  1.
         24    2    1    2    0    0 -0.98737127656E+02  0.59655392266E+03  0.21342119870E+04  0.22198073768E+04  0.84014176324E+02 0.  0.
        254    2    1    2    0    0  0.98737127656E+02 -0.59655392266E+03  0.85720557978E+03  0.13858735023E+04  0.90565907240E+03 0.  0.
         23    2    4    4    0    0  0.43233234472E+03 -0.58513823285E+02  0.29722260938E+03  0.53576587902E+03  0.91480455729E+02 0.  0.
         23    2    4    4    0    0 -0.33359521707E+03 -0.53804009937E+03  0.55998297040E+03  0.85010762331E+03  0.91264049232E+02 0.  0.
          2    1    3    3  502    0 -0.82107350726E+02  0.43592279471E+03  0.16864860738E+04  0.17438479225E+04  0.00000000000E+00 0. -1.
         -1    1    3    3    0  502 -0.16629776930E+02  0.16063112795E+03  0.44772591322E+03  0.47595945428E+03  0.00000000000E+00 0.  1.
         13    1    5    5    0    0  0.43932458003E+02 -0.15474089901E+02  0.31210458979E+01  0.46682429799E+02  0.00000000000E+00 0. -1.
        -13    1    5    5    0    0  0.38839988672E+03 -0.43039733384E+02  0.29410156348E+03  0.48908344922E+03  0.00000000000E+00 0.  1.
          2    1    6    6  503    0 -0.95136450244E+02 -0.90359089883E+02  0.13650950949E+03  0.18934242914E+03  0.00000000000E+00 0. -1.
         -2    1    6    6    0  503 -0.23845876682E+03 -0.44768100949E+03  0.42347346091E+03  0.66076519417E+03  0.00000000000E+00 0.  1.
<mgrwt>
<rscale>  0 0.20130463E+04</rscale>
<asrwt>0</asrwt>
<pdfrwt beam="1">  1        2 0.50746909E+00 0.20130463E+04</pdfrwt>
<pdfrwt beam="2">  1       -1 0.47251026E-01 0.20130463E+04</pdfrwt>
<totfact> 0.52903897E+00</totfact>
</mgrwt>
</event>
<event>
12    7  0.1740517E-007  0.1509002E+04  0.7818608E-02  0.8878489E-01
         -1   -1    0    0    0  501 -0.00000000000E+00  0.00000000000E+00  0.59308409396E+03  0.59308409396E+03  0.00000000000E+00 0.  1.
          2   -1    0    0  501    0  0.00000000000E+00 -0.00000000000E+00 -0.95985004941E+03  0.95985004941E+03  0.00000000000E+00 0. -1.
         24    2    1    2    0    0 -0.48312328766E+03  0.70955280762E+02 -0.17866132198E+03  0.52630102156E+03  0.81425637055E+02 0.  0.
        254    2    1    2    0    0  0.48312328766E+03 -0.70955280762E+02 -0.18810463347E+03  0.10266331218E+04  0.88326069240E+03 0.  0.
         23    2    4    4    0    0  0.11664792723E+03 -0.32352680567E+03 -0.39154856949E+03  0.52889510896E+03  0.90240905946E+02 0.  0.
         23    2    4    4    0    0  0.36647536043E+03  0.25257152491E+03  0.20344393601E+03  0.49773801286E+03  0.90868747912E+02 0.  0.
          2    1    3    3  502    0 -0.47454866073E+03  0.57646332589E+02 -0.16603453715E+03  0.50605039135E+03  0.00000000000E+00 0. -1.
         -1    1    3    3    0  502 -0.85746269344E+01  0.13308948173E+02 -0.12626784833E+02  0.20250630206E+02  0.00000000000E+00 0.  1.
         13    1    5    5    0    0  0.38594563502E+02 -0.12823257255E+03 -0.21971655738E+03  0.25731012141E+03  0.00000000000E+00 0.  1.
        -13    1    5    5    0    0  0.78053363733E+02 -0.19529423312E+03 -0.17183201211E+03  0.27158498755E+03  0.00000000000E+00 0. -1.
          2    1    6    6  503    0  0.24327620130E+03  0.20111504156E+03  0.10796244590E+03  0.33359625265E+03  0.00000000000E+00 0. -1.
         -2    1    6    6    0  503  0.12319915913E+03  0.51456483350E+02  0.95481490112E+02  0.16414176020E+03  0.00000000000E+00 0.  1.
<mgrwt>
<rscale>  0 0.15090021E+04</rscale>
<asrwt>0</asrwt>
<pdfrwt beam="1">  1        2 0.14766924E+00 0.15090021E+04</pdfrwt>
<pdfrwt beam="2">  1       -1 0.91243708E-01 0.15090021E+04</pdfrwt>
<totfact> 0.34540928E+01</totfact>
</mgrwt>
</event>
<event>
12    7  0.1740517E-007  0.1518609E+04  0.7818608E-02  0.8872172E-01
          2   -1    0    0  501    0  0.00000000000E+00  0.00000000000E+00  0.88275780069E+03  0.88275780069E+03  0.00000000000E+00 0. -1.
         -1   -1    0    0    0  501 -0.00000000000E+00 -0.00000000000E+00 -0.65311583823E+03  0.65311583823E+03  0.00000000000E+00 0.  1.
         24    2    1    2    0    0 -0.10045935821E+03 -0.43091203654E+03 -0.12724105186E+03  0.46754140616E+03  0.81408938788E+02 0.  0.
        254    2    1    2    0    0  0.10045935821E+03  0.43091203654E+03  0.35688301432E+03  0.10683322328E+04  0.90453911344E+03 0.  0.
         23    2    4    4    0    0 -0.50260767494E+01  0.67213532991E+03  0.39894814473E+03  0.78719451835E+03  0.93404627129E+02 0.  0.
         23    2    4    4    0    0  0.10548543496E+03 -0.24122329338E+03 -0.42065130412E+02  0.28113771441E+03  0.89180070690E+02 0.  0.
          2    1    3    3  502    0 -0.42616014582E+02 -0.55235288796E+02 -0.21556245118E+02  0.73018720413E+02  0.00000000000E+00 0. -1.
         -1    1    3    3    0  502 -0.57843343627E+02 -0.37567674774E+03 -0.10568480674E+03  0.39452268575E+03  0.00000000000E+00 0.  1.
         13    1    5    5    0    0 -0.19645229665E+02  0.27444365915E+02  0.19167251985E+02  0.38813809626E+02  0.00000000000E+00 0.  1.
        -13    1    5    5    0    0  0.14619152915E+02  0.64469096400E+03  0.37978089275E+03  0.74838070872E+03  0.00000000000E+00 0. -1.
          2    1    6    6  503    0  0.20839236348E+02  0.97595153173E+00  0.14352833624E+01  0.20911391424E+02  0.00000000000E+00 0.  1.
         -2    1    6    6    0  503  0.84646198610E+02 -0.24219924491E+03 -0.43500413775E+02  0.26022632298E+03  0.00000000000E+00 0. -1.
<mgrwt>
<rscale>  0 0.15186087E+04</rscale>
<asrwt>0</asrwt>
<pdfrwt beam="1">  1        2 0.13580889E+00 0.15186087E+04</pdfrwt>
<pdfrwt beam="2">  1       -1 0.10047936E+00 0.15186087E+04</pdfrwt>
<totfact> 0.31284548E+01</totfact>
</mgrwt>
</event>
<event>
12    7  0.1740517E-007  0.2133525E+04  0.7818608E-02  0.8546618E-01
         -1   -1    0    0    0  501 -0.00000000000E+00  0.00000000000E+00  0.52190281883E+03  0.52190281883E+03  0.00000000000E+00 0.  1.
          2   -1    0    0  501    0  0.00000000000E+00 -0.00000000000E+00 -0.21804479900E+04  0.21804479900E+04  0.00000000000E+00 0. -1.
         24    2    1    2    0    0  0.26118275510E+03  0.42609464096E+03 -0.15972500144E+04  0.16754614338E+04  0.78678670244E+02 0.  0.
        254    2    1    2    0    0 -0.26118275510E+03 -0.42609464096E+03 -0.61295156777E+02  0.10268893750E+04  0.89497017695E+03 0.  0.
         23    2    4    4    0    0 -0.52572110571E+03 -0.40156961818E+02  0.44815627224E+02  0.53842676397E+03  0.99497121286E+02 0.  0.
         23    2    4    4    0    0  0.26453835060E+03 -0.38593767914E+03 -0.10611078400E+03  0.48846261103E+03  0.91694017103E+02 0.  0.
          4    1    3    3  502    0  0.11059129504E+03  0.18176165952E+03 -0.81169001685E+03  0.83911168438E+03  0.00000000000E+00 0. -1.
         -3    1    3    3    0  502  0.15059146006E+03  0.24433298144E+03 -0.78555999755E+03  0.83634974945E+03  0.00000000000E+00 0.  1.
         13    1    5    5    0    0 -0.31852349145E+03 -0.40890930170E+02  0.72971052888E+02  0.32932363617E+03  0.00000000000E+00 0. -1.
        -13    1    5    5    0    0 -0.20719761425E+03  0.73396835209E+00 -0.28155425664E+02  0.20910312780E+03  0.00000000000E+00 0.  1.
          2    1    6    6  503    0  0.24410077975E+03 -0.31640500110E+03 -0.11399106367E+03  0.41556140099E+03  0.00000000000E+00 0. -1.
         -2    1    6    6    0  503  0.20437570860E+02 -0.69532678043E+02  0.78802796699E+01  0.72901210046E+02  0.00000000000E+00 0.  1.
<mgrwt>
<rscale>  0 0.21335247E+04</rscale>
<asrwt>0</asrwt>
<pdfrwt beam="1">  1        2 0.33545353E+00 0.21335247E+04</pdfrwt>
<pdfrwt beam="2">  1       -1 0.80292744E-01 0.21335247E+04</pdfrwt>
<totfact> 0.85745250E+00</totfact>
</mgrwt>
</event>
<event>
12    7  0.1740517E-007  0.1862841E+04  0.7818608E-02  0.8673577E-01
         -1   -1    0    0    0  501 -0.00000000000E+00  0.00000000000E+00  0.23534326388E+03  0.23534326388E+03  0.00000000000E+00 0.  1.
          2   -1    0    0  501    0  0.00000000000E+00 -0.00000000000E+00 -0.36862919738E+04  0.36862919738E+04  0.00000000000E+00 0. -1.
         24    2    1    2    0    0 -0.54553178630E+03 -0.26567743350E+03 -0.55221509470E+03  0.82426389904E+03  0.79246677643E+02 0.  0.
        254    2    1    2    0    0  0.54553178630E+03  0.26567743350E+03 -0.28987336152E+04  0.30973713386E+04  0.90711807880E+03 0.  0.
         23    2    4    4    0    0  0.24764722171E+03  0.58649087979E+03 -0.16978361762E+04  0.18155831452E+04  0.91617560685E+02 0.  0.
         23    2    4    4    0    0  0.29788456459E+03 -0.32081344629E+03 -0.12008974390E+04  0.12817881934E+04  0.95759243189E+02 0.  0.
          4    1    3    3  502    0 -0.16404322722E+03 -0.11780934165E+03 -0.20297071455E+03  0.28633255551E+03  0.00000000000E+00 0. -1.
         -3    1    3    3    0  502 -0.38148855907E+03 -0.14786809185E+03 -0.34924438015E+03  0.53793134354E+03  0.00000000000E+00 0.  1.
         13    1    5    5    0    0  0.37624897446E+02  0.14335549660E+03 -0.49223156650E+03  0.51406064465E+03  0.00000000000E+00 0.  1.
        -13    1    5    5    0    0  0.21002232426E+03  0.44313538319E+03 -0.12056046097E+04  0.13015225005E+04  0.00000000000E+00 0. -1.
          1    1    6    6  503    0  0.24425100259E+03 -0.30587625225E+03 -0.10205266667E+04  0.10930203618E+04  0.00000000000E+00 0. -1.
         -1    1    6    6    0  503  0.53633562002E+02 -0.14937194038E+02 -0.18037077231E+03  0.18876783159E+03  0.00000000000E+00 0.  1.
<mgrwt>
<rscale>  0 0.18628408E+04</rscale>
<asrwt>0</asrwt>
<pdfrwt beam="1">  1        2 0.56712182E+00 0.18628408E+04</pdfrwt>
<pdfrwt beam="2">  1       -1 0.36206657E-01 0.18628408E+04</pdfrwt>
<totfact> 0.47075424E+00</totfact>
</mgrwt>
</event>
<event>
12    7  0.1740517E-007  0.1634651E+04  0.7818608E-02  0.8799539E-01
          2   -1    0    0  501    0  0.00000000000E+00  0.00000000000E+00  0.16492689479E+04  0.16492689479E+04  0.00000000000E+00 0. -1.
         -1   -1    0    0    0  501 -0.00000000000E+00 -0.00000000000E+00 -0.40504054094E+03  0.40504054094E+03  0.00000000000E+00 0.  1.
         24    2    1    2    0    0 -0.19789761455E+03 -0.10466081950E+03  0.10920091085E+04  0.11174331803E+04  0.77818162535E+02 0.  0.
        254    2    1    2    0    0  0.19789761455E+03  0.10466081950E+03  0.15221929846E+03  0.93687630853E+03  0.89691089283E+03 0.  0.
         23    2    4    4    0    0  0.38477363328E+03 -0.68503997905E+02 -0.23454765785E+03  0.46482355899E+03  0.91130623761E+02 0.  0.
         23    2    4    4    0    0 -0.18687601873E+03  0.17316481741E+03  0.38676695631E+03  0.47205274954E+03  0.91303994941E+02 0.  0.
          4    1    3    3  502    0 -0.15613979780E+03 -0.83342509727E+02  0.67582509994E+03  0.69861661596E+03  0.00000000000E+00 0. -1.
         -3    1    3    3    0  502 -0.41757816745E+02 -0.21318309774E+02  0.41618400852E+03  0.41881656431E+03  0.00000000000E+00 0.  1.
         13    1    5    5    0    0  0.33905515575E+03 -0.44359678814E+02 -0.23168412922E+03  0.41304202628E+03  0.00000000000E+00 0.  1.
        -13    1    5    5    0    0  0.45718477539E+02 -0.24144319091E+02 -0.28635286228E+01  0.51781532702E+02  0.00000000000E+00 0. -1.
          4    1    6    6  503    0 -0.17560041499E+02  0.48424878011E+01  0.86706663828E+02  0.88599380910E+02  0.00000000000E+00 0. -1.
         -4    1    6    6    0  503 -0.16931597724E+03  0.16832232960E+03  0.30006029248E+03  0.38345336863E+03  0.00000000000E+00 0.  1.
<mgrwt>
<rscale>  0 0.16346508E+04</rscale>
<asrwt>0</asrwt>
<pdfrwt beam="1">  1        2 0.25373368E+00 0.16346508E+04</pdfrwt>
<pdfrwt beam="2">  1       -1 0.62313930E-01 0.16346508E+04</pdfrwt>
<totfact> 0.29787885E+01</totfact>
</mgrwt>
</event>
<event>
12    7  0.1740517E-007  0.1861476E+04  0.7818608E-02  0.8674273E-01
          2   -1    0    0  501    0  0.00000000000E+00  0.00000000000E+00  0.22451413819E+04  0.22451413819E+04  0.00000000000E+00 0. -1.
         -1   -1    0    0    0  501 -0.00000000000E+00 -0.00000000000E+00 -0.38584362077E+03  0.38584362077E+03  0.00000000000E+00 0.  1.
         24    2    1    2    0    0  0.67545315346E+03  0.22348038205E+03  0.73867880942E+03  0.10289519675E+04  0.83158428035E+02 0.  0.
        254    2    1    2    0    0 -0.67545315346E+03 -0.22348038205E+03  0.11206189517E+04  0.16020330352E+04  0.89696296876E+03 0.  0.
         23    2    4    4    0    0 -0.88033090820E+03 -0.17331964185E+03  0.78530989837E+03  0.11958325329E+04  0.91003318674E+02 0.  0.
         23    2    4    4    0    0  0.20487775474E+03 -0.50160740199E+02  0.33530905337E+03  0.40620050237E+03  0.89864857499E+02 0.  0.
          2    1    3    3  502    0  0.46769966815E+03  0.16370489434E+03  0.45882641688E+03  0.67532507198E+03  0.00000000000E+00 0. -1.
         -1    1    3    3    0  502  0.20775348531E+03  0.59775487715E+02  0.27985239254E+03  0.35362689548E+03  0.00000000000E+00 0.  1.
         13    1    5    5    0    0 -0.53519933445E+03 -0.60441953139E+02  0.45986129203E+03  0.70821180815E+03  0.00000000000E+00 0.  1.
        -13    1    5    5    0    0 -0.34513157374E+03 -0.11287768872E+03  0.32544860634E+03  0.48762072471E+03  0.00000000000E+00 0. -1.
          3    1    6    6  503    0  0.16227960592E+03 -0.29555033497E+01  0.27015535214E+03  0.31516237051E+03  0.00000000000E+00 0. -1.
         -3    1    6    6    0  503  0.42598148812E+02 -0.47205236849E+02  0.65153701229E+02  0.91038131857E+02  0.00000000000E+00 0.  1.
<mgrwt>
<rscale>  0 0.18614763E+04</rscale>
<asrwt>0</asrwt>
<pdfrwt beam="1">  1        2 0.34540636E+00 0.18614763E+04</pdfrwt>
<pdfrwt beam="2">  1       -1 0.59360559E-01 0.18614763E+04</pdfrwt>
<totfact> 0.14990355E+01</totfact>
</mgrwt>
</event>
<event>
12    7  0.1740517E-007  0.2529522E+04  0.7818608E-02  0.8392543E-01
          2   -1    0    0  501    0  0.00000000000E+00  0.00000000000E+00  0.19410379940E+04  0.19410379940E+04  0.00000000000E+00 0. -1.
         -1   -1    0    0    0  501 -0.00000000000E+00 -0.00000000000E+00 -0.82410569361E+03  0.82410569361E+03  0.00000000000E+00 0.  1.
         24    2    1    2    0    0 -0.10213556177E+03  0.69133669659E+03 -0.44471437997E+03  0.83209278469E+03  0.78926684600E+02 0.  0.
        254    2    1    2    0    0  0.10213556177E+03 -0.69133669659E+03  0.15616466803E+04  0.19330509029E+04  0.89975960010E+03 0.  0.
         23    2    4    4    0    0 -0.37765486991E+03 -0.42941822439E+03  0.90181526667E+03  0.10714783197E+04  0.88157825107E+02 0.  0.
         23    2    4    4    0    0  0.47979043168E+03 -0.26191847220E+03  0.65983141367E+03  0.86157258323E+03  0.90164723129E+02 0.  0.
          4    1    3    3  502    0 -0.63351080098E+02  0.19087617072E+03 -0.11812807428E+03  0.23324089228E+03  0.00000000000E+00 0. -1.
         -3    1    3    3    0  502 -0.38784481669E+02  0.50046052588E+03 -0.32658630569E+03  0.59885189241E+03  0.00000000000E+00 0.  1.
         13    1    5    5    0    0 -0.14748341919E+03 -0.15346096940E+03  0.41502317371E+03  0.46641812013E+03  0.00000000000E+00 0. -1.
        -13    1    5    5    0    0 -0.23017145072E+03 -0.27595725499E+03  0.48679209295E+03  0.60506019955E+03  0.00000000000E+00 0.  1.
          3    1    6    6  503    0  0.33963398339E+02 -0.31353226257E+02  0.96997245896E+02  0.10744767533E+03  0.00000000000E+00 0. -1.
         -3    1    6    6    0  503  0.44582703334E+03 -0.23056524594E+03  0.56283416778E+03  0.75412490790E+03  0.00000000000E+00 0.  1.
<mgrwt>
<rscale>  0 0.25295221E+04</rscale>
<asrwt>0</asrwt>
<pdfrwt beam="1">  1        2 0.29862123E+00 0.25295221E+04</pdfrwt>
<pdfrwt beam="2">  1       -1 0.12678549E+00 0.25295221E+04</pdfrwt>
<totfact> 0.39401912E+00</totfact>
</mgrwt>
</event>
<event>
12    7  0.1740517E-007  0.1776352E+04  0.7818608E-02  0.8718977E-01
          2   -1    0    0  501    0  0.00000000000E+00  0.00000000000E+00  0.27243145609E+04  0.27243145609E+04  0.00000000000E+00 0. -1.
         -1   -1    0    0    0  501 -0.00000000000E+00 -0.00000000000E+00 -0.28956159269E+03  0.28956159269E+03  0.00000000000E+00 0.  1.
         24    2    1    2    0    0  0.10077609335E+03  0.40066321884E+03  0.41699594217E+02  0.42274614656E+03  0.79300771420E+02 0.  0.
        254    2    1    2    0    0 -0.10077609335E+03 -0.40066321884E+03  0.23930533740E+04  0.25911300070E+04  0.90363899130E+03 0.  0.
         23    2    4    4    0    0  0.19855295081E+03  0.21083712681E+03  0.82906869441E+03  0.88300293817E+03  0.91998480684E+02 0.  0.
         23    2    4    4    0    0 -0.29932904415E+03 -0.61150034565E+03  0.15639846795E+04  0.17081270688E+04  0.90108023926E+02 0.  0.
          2    1    3    3  502    0  0.63892833135E+01  0.10730004658E+03  0.39638630611E+02  0.11456589359E+03  0.00000000000E+00 0. -1.
         -1    1    3    3    0  502  0.94386810034E+02  0.29336317226E+03  0.20609636064E+01  0.30818025297E+03  0.00000000000E+00 0.  1.
         13    1    5    5    0    0  0.99500352131E+02  0.16913655898E+03  0.52151466821E+03  0.55721184914E+03  0.00000000000E+00 0.  1.
        -13    1    5    5    0    0  0.99052598677E+02  0.41700567826E+02  0.30755402620E+03  0.32579108903E+03  0.00000000000E+00 0. -1.
          2    1    6    6  503    0 -0.19795248722E+03 -0.30510622280E+03  0.85550361469E+03  0.92960283409E+03  0.00000000000E+00 0. -1.
         -2    1    6    6    0  503 -0.10137655693E+03 -0.30639412285E+03  0.70848106485E+03  0.77852423473E+03  0.00000000000E+00 0.  1.
<mgrwt>
<rscale>  0 0.17763523E+04</rscale>
<asrwt>0</asrwt>
<pdfrwt beam="1">  1        2 0.41912530E+00 0.17763523E+04</pdfrwt>
<pdfrwt beam="2">  1       -1 0.44547939E-01 0.17763523E+04</pdfrwt>
<totfact> 0.13835102E+01</totfact>
</mgrwt>
</event>
<event>
12    7  0.1740517E-007  0.1866279E+04  0.7818608E-02  0.8671826E-01
         -1   -1    0    0    0  501 -0.00000000000E+00  0.00000000000E+00  0.11225733870E+04  0.11225733870E+04  0.00000000000E+00 0.  1.
          2   -1    0    0  501    0  0.00000000000E+00 -0.00000000000E+00 -0.77567276381E+03  0.77567276381E+03  0.00000000000E+00 0. -1.
         24    2    1    2    0    0 -0.49765252826E+03 -0.90565816777E+02 -0.38187100332E+03  0.63906780864E+03  0.81987772353E+02 0.  0.
        254    2    1    2    0    0  0.49765252826E+03  0.90565816777E+02  0.72877162649E+03  0.12591783422E+04  0.89362285542E+03 0.  0.
         23    2    4    4    0    0  0.50468328824E+03 -0.24121825341E+03  0.15165941937E+03  0.58726746548E+03  0.94821038360E+02 0.  0.
         23    2    4    4    0    0 -0.70307599838E+01  0.33178407019E+03  0.57711220712E+03  0.67191087668E+03  0.90970466471E+02 0.  0.
          2    1    3    3  502    0 -0.49108634401E+03 -0.93558471994E+02 -0.36003827931E+03  0.61607349198E+03  0.00000000000E+00 0. -1.
         -1    1    3    3    0  502 -0.65661842463E+01  0.29926552163E+01 -0.21832724014E+02  0.22994316660E+02  0.00000000000E+00 0.  1.
         13    1    5    5    0    0  0.14218935964E+03 -0.42367957591E+02  0.45962074867E+01  0.14843848204E+03  0.00000000000E+00 0. -1.
        -13    1    5    5    0    0  0.36249392860E+03 -0.19885029582E+03  0.14706321188E+03  0.43882898344E+03  0.00000000000E+00 0.  1.
          4    1    6    6  503    0  0.20804607439E+02  0.94511701326E+02  0.10499319815E+03  0.14278958308E+03  0.00000000000E+00 0.  1.
         -4    1    6    6    0  503 -0.27835367423E+02  0.23727236886E+03  0.47211900897E+03  0.52912129360E+03  0.00000000000E+00 0. -1.
<mgrwt>
<rscale>  0 0.18662793E+04</rscale>
<asrwt>0</asrwt>
<pdfrwt beam="1">  1        2 0.11933427E+00 0.18662793E+04</pdfrwt>
<pdfrwt beam="2">  1       -1 0.17270360E+00 0.18662793E+04</pdfrwt>
<totfact> 0.90426833E+00</totfact>
</mgrwt>
</event>
<event>
12    7  0.1740517E-007  0.1397466E+04  0.7818608E-02  0.8955655E-01
         -1   -1    0    0    0  501 -0.00000000000E+00  0.00000000000E+00  0.56954369649E+03  0.56954369649E+03  0.00000000000E+00 0.  1.
          2   -1    0    0  501    0  0.00000000000E+00 -0.00000000000E+00 -0.85722656339E+03  0.85722656339E+03  0.00000000000E+00 0. -1.
         24    2    1    2    0    0 -0.17168902604E+02  0.31038998337E+03 -0.34493077780E+03  0.47136787197E+03  0.81078457418E+02 0.  0.
        254    2    1    2    0    0  0.17168902604E+02 -0.31038998337E+03  0.57247910903E+02  0.95540238792E+03  0.90159840646E+03 0.  0.
         23    2    4    4    0    0  0.28612960703E+03 -0.35630829805E+03 -0.25468968125E+03  0.53101099377E+03  0.90994980539E+02 0.  0.
         23    2    4    4    0    0 -0.26896070443E+03  0.45918314680E+02  0.31193759215E+03  0.42439139415E+03  0.91403730124E+02 0.  0.
          4    1    3    3  502    0 -0.14906172200E+02  0.24084404158E+03 -0.31188933018E+03  0.39433868770E+03  0.00000000000E+00 0. -1.
         -3    1    3    3    0  502 -0.22627304044E+01  0.69545941794E+02 -0.33041447616E+02  0.77029184271E+02  0.00000000000E+00 0.  1.
         13    1    5    5    0    0  0.15492553811E+03 -0.21296500728E+03 -0.19511886310E+03  0.32776117437E+03  0.00000000000E+00 0. -1.
        -13    1    5    5    0    0  0.13120406892E+03 -0.14334329077E+03 -0.59570818150E+02  0.20324981940E+03  0.00000000000E+00 0.  1.
          1    1    6    6  503    0 -0.16065607677E+03  0.29708369549E+01  0.23532193600E+03  0.28494844172E+03  0.00000000000E+00 0. -1.
         -1    1    6    6    0  503 -0.10830462765E+03  0.42947477725E+02  0.76615656154E+02  0.13944295243E+03  0.00000000000E+00 0.  1.
<mgrwt>
<rscale>  0 0.13974663E+04</rscale>
<asrwt>0</asrwt>
<pdfrwt beam="1">  1        2 0.13188101E+00 0.13974663E+04</pdfrwt>
<pdfrwt beam="2">  1       -1 0.87622107E-01 0.13974663E+04</pdfrwt>
<totfact> 0.44683565E+01</totfact>
</mgrwt>
</event>
<event>
12    7  0.1740517E-007  0.3596955E+04  0.7818608E-02  0.8091190E-01
          2   -1    0    0  501    0  0.00000000000E+00  0.00000000000E+00  0.16798633278E+04  0.16798633278E+04  0.00000000000E+00 0. -1.
         -1   -1    0    0    0  501 -0.00000000000E+00 -0.00000000000E+00 -0.19254670649E+04  0.19254670649E+04  0.00000000000E+00 0.  1.
         24    2    1    2    0    0  0.13486775357E+04  0.83252867531E+02  0.89651346997E+03  0.16235743297E+04  0.79969163553E+02 0.  0.
        254    2    1    2    0    0 -0.13486775357E+04 -0.83252867531E+02 -0.11421172070E+04  0.19817560630E+04  0.89278398476E+03 0.  0.
         23    2    4    4    0    0  0.66361627310E+02 -0.15394056739E+03 -0.89709000980E+02  0.21456919399E+03  0.99451849067E+02 0.  0.
         23    2    4    4    0    0 -0.14150391630E+04  0.70687699862E+02 -0.10524082061E+04  0.17671868690E+04  0.89743045061E+02 0.  0.
          2    1    3    3  502    0  0.11153374819E+04  0.88230268283E+02  0.76902994805E+03  0.13576337282E+04  0.00000000000E+00 0. -1.
         -1    1    3    3    0  502  0.23334005374E+03 -0.49774007525E+01  0.12748352192E+03  0.26594060156E+03  0.00000000000E+00 0.  1.
         13    1    5    5    0    0  0.90633854391E+02 -0.10057293015E+03 -0.52961384705E+02  0.14537647028E+03  0.00000000000E+00 0.  1.
        -13    1    5    5    0    0 -0.24272227081E+02 -0.53367637242E+02 -0.36747616275E+02  0.69192723708E+02  0.00000000000E+00 0. -1.
          1    1    6    6  503    0 -0.39236536335E+03  0.49907035779E+02 -0.26086077201E+03  0.47380336950E+03  0.00000000000E+00 0. -1.
         -1    1    6    6    0  503 -0.10226737996E+04  0.20780664084E+02 -0.79154743404E+03  0.12933834995E+04  0.00000000000E+00 0.  1.
<mgrwt>
<rscale>  0 0.35969551E+04</rscale>
<asrwt>0</asrwt>
<pdfrwt beam="1">  1        2 0.25844051E+00 0.35969551E+04</pdfrwt>
<pdfrwt beam="2">  1       -1 0.29622570E+00 0.35969551E+04</pdfrwt>
<totfact> 0.32622719E-01</totfact>
</mgrwt>
</event>
<event>
12    7  0.1740517E-007  0.1788110E+04  0.7818608E-02  0.8712648E-01
          2   -1    0    0  501    0  0.00000000000E+00  0.00000000000E+00  0.18081031212E+04  0.18081031212E+04  0.00000000000E+00 0. -1.
         -1   -1    0    0    0  501 -0.00000000000E+00 -0.00000000000E+00 -0.44208462287E+03  0.44208462287E+03  0.00000000000E+00 0.  1.
         24    2    1    2    0    0 -0.30686890154E+03  0.25593462794E+03  0.11928246768E+04  0.12604216400E+04  0.78491683322E+02 0.  0.
        254    2    1    2    0    0  0.30686890154E+03 -0.25593462794E+03  0.17319382147E+03  0.98976610408E+03  0.88880244401E+03 0.  0.
         23    2    4    4    0    0  0.53653551820E+03 -0.36694373695E+03 -0.20403795255E+02  0.65700412665E+03  0.93381150098E+02 0.  0.
         23    2    4    4    0    0 -0.22966661666E+03  0.11100910901E+03  0.19359761673E+03  0.33276197743E+03  0.90447329025E+02 0.  0.
          4    1    3    3  502    0 -0.29824731344E+03  0.22191468811E+03  0.11043222576E+04  0.11652146744E+04  0.00000000000E+00 0. -1.
         -3    1    3    3    0  502 -0.86215881023E+01  0.34019939824E+02  0.88502419252E+02  0.95206965609E+02  0.00000000000E+00 0.  1.
         13    1    5    5    0    0  0.21118077679E+03 -0.16105610184E+03  0.35468681603E+02  0.26794479991E+03  0.00000000000E+00 0. -1.
        -13    1    5    5    0    0  0.32535474141E+03 -0.20588763511E+03 -0.55872476858E+02  0.38905932673E+03  0.00000000000E+00 0.  1.
          3    1    6    6  503    0 -0.52242884462E+02 -0.79660041571E+01  0.16753135913E+02  0.55438648631E+02  0.00000000000E+00 0. -1.
         -3    1    6    6    0  503 -0.17742373220E+03  0.11897511317E+03  0.17684448081E+03  0.27732332880E+03  0.00000000000E+00 0.  1.
<mgrwt>
<rscale>  0 0.17881103E+04</rscale>
<asrwt>0</asrwt>
<pdfrwt beam="1">  1        2 0.27816971E+00 0.17881103E+04</pdfrwt>
<pdfrwt beam="2">  1       -1 0.68013020E-01 0.17881103E+04</pdfrwt>
<totfact> 0.20116218E+01</totfact>
</mgrwt>
</event>
<event>
12    7  0.1740517E-007  0.2023186E+04  0.7818608E-02  0.8595857E-01
          2   -1    0    0  501    0  0.00000000000E+00  0.00000000000E+00  0.33557062864E+04  0.33557062864E+04  0.00000000000E+00 0. -1.
         -1   -1    0    0    0  501 -0.00000000000E+00 -0.00000000000E+00 -0.30494918898E+03  0.30494918898E+03  0.00000000000E+00 0.  1.
         24    2    1    2    0    0  0.68041267453E+03 -0.34523531139E+03  0.99017930538E+03  0.12526100511E+04  0.80175154857E+02 0.  0.
        254    2    1    2    0    0 -0.68041267453E+03  0.34523531139E+03  0.20605777921E+04  0.24080454243E+04  0.98516653433E+03 0.  0.
         23    2    4    4    0    0 -0.85109727268E+03  0.50422985805E+03  0.17072187379E+04  0.19752053276E+04  0.90697022104E+02 0.  0.
         23    2    4    4    0    0  0.17068459815E+03 -0.15899454666E+03  0.35335905414E+03  0.43284009666E+03  0.89863397573E+02 0.  0.
          4    1    3    3  502    0  0.54426962039E+03 -0.28586421280E+03  0.74444302949E+03  0.96547562993E+03  0.00000000000E+00 0. -1.
         -3    1    3    3    0  502  0.13614305414E+03 -0.59371098586E+02  0.24573627589E+03  0.28713442118E+03  0.00000000000E+00 0.  1.
         13    1    5    5    0    0 -0.81794261821E+03  0.49800756063E+03  0.16691172277E+04  0.19243164960E+04  0.00000000000E+00 0.  1.
        -13    1    5    5    0    0 -0.33154654474E+02  0.62222974167E+01  0.38101510257E+02  0.50888831607E+02  0.00000000000E+00 0. -1.
          2    1    6    6  503    0  0.33246927442E+02 -0.21552334233E+02  0.14496340163E+02  0.42190107530E+02  0.00000000000E+00 0. -1.
         -2    1    6    6    0  503  0.13743767071E+03 -0.13744221243E+03  0.33886271397E+03  0.39064998913E+03  0.00000000000E+00 0.  1.
<mgrwt>
<rscale>  0 0.20231855E+04</rscale>
<asrwt>0</asrwt>
<pdfrwt beam="1">  1        2 0.51626248E+00 0.20231855E+04</pdfrwt>
<pdfrwt beam="2">  1       -1 0.46915262E-01 0.20231855E+04</pdfrwt>
<totfact> 0.49055336E+00</totfact>
</mgrwt>
</event>
<event>
12    7  0.1740517E-007  0.2904828E+04  0.7818608E-02  0.8271443E-01
         -1   -1    0    0    0  501 -0.00000000000E+00  0.00000000000E+00  0.17627871436E+04  0.17627871436E+04  0.00000000000E+00 0.  1.
          2   -1    0    0  501    0  0.00000000000E+00 -0.00000000000E+00 -0.11966879235E+04  0.11966879235E+04  0.00000000000E+00 0. -1.
         24    2    1    2    0    0 -0.11147558498E+04 -0.67098489018E+03  0.38955905031E+03  0.13607041359E+04  0.82814034786E+02 0.  0.
        254    2    1    2    0    0  0.11147558498E+04  0.67098489018E+03  0.17654016982E+03  0.15987709311E+04  0.91214074085E+03 0.  0.
         23    2    4    4    0    0 -0.10298805545E+03  0.18406424244E+03 -0.10919341351E+03  0.25355000554E+03  0.88759331041E+02 0.  0.
         23    2    4    4    0    0  0.12177439053E+04  0.48692064775E+03  0.28573358333E+03  0.13452209256E+04  0.89351675910E+02 0.  0.
          2    1    3    3  502    0 -0.98002677312E+03 -0.58205146745E+03  0.36836001469E+03  0.11978837536E+04  0.00000000000E+00 0. -1.
         -1    1    3    3    0  502 -0.13472907669E+03 -0.88933422736E+02  0.21199035614E+02  0.16282038231E+03  0.00000000000E+00 0.  1.
         13    1    5    5    0    0 -0.67896510202E+02  0.15490060725E+03 -0.45394219869E+02  0.17511359006E+03  0.00000000000E+00 0. -1.
        -13    1    5    5    0    0 -0.35091545251E+02  0.29163635183E+02 -0.63799193637E+02  0.78436415484E+02  0.00000000000E+00 0.  1.
          2    1    6    6  503    0  0.54739559488E+02  0.24155943341E+02  0.32788894143E+02  0.68227857586E+02  0.00000000000E+00 0. -1.
         -2    1    6    6    0  503  0.11630043458E+04  0.46276470441E+03  0.25294468919E+03  0.12769930680E+04  0.00000000000E+00 0.  1.
<mgrwt>
<rscale>  0 0.29048278E+04</rscale>
<asrwt>0</asrwt>
<pdfrwt beam="1">  1        2 0.18410583E+00 0.29048278E+04</pdfrwt>
<pdfrwt beam="2">  1       -1 0.27119802E+00 0.29048278E+04</pdfrwt>
<totfact> 0.94915841E-01</totfact>
</mgrwt>
</event>
<event>
12    7  0.1740517E-007  0.1374954E+04  0.7818608E-02  0.8972150E-01
          2   -1    0    0  501    0  0.00000000000E+00  0.00000000000E+00  0.20541835310E+04  0.20541835310E+04  0.00000000000E+00 0. -1.
         -1   -1    0    0    0  501 -0.00000000000E+00 -0.00000000000E+00 -0.23007907789E+03  0.23007907789E+03  0.00000000000E+00 0.  1.
         24    2    1    2    0    0  0.27663679420E+03 -0.22303258614E+03  0.27953508527E+03  0.45900432768E+03  0.79206429976E+02 0.  0.
        254    2    1    2    0    0 -0.27663679420E+03  0.22303258614E+03  0.15445693679E+04  0.18252582812E+04  0.90531862383E+03 0.  0.
         23    2    4    4    0    0 -0.33819675247E+03  0.51071277822E+03  0.74762975337E+03  0.97077647955E+03  0.90841289629E+02 0.  0.
         23    2    4    4    0    0  0.61559958267E+02 -0.28768019209E+03  0.79693961452E+03  0.85448180170E+03  0.92069967183E+02 0.  0.
          4    1    3    3  502    0  0.45301205284E+02 -0.40066227624E+01  0.33473142822E+02  0.56468606469E+02  0.00000000000E+00 0. -1.
         -3    1    3    3    0  502  0.23133558892E+03 -0.21902596337E+03  0.24606194245E+03  0.40253572121E+03  0.00000000000E+00 0.  1.
         13    1    5    5    0    0 -0.30722199358E+03  0.42316889209E+03  0.66877746708E+03  0.84895262827E+03  0.00000000000E+00 0.  1.
        -13    1    5    5    0    0 -0.30974758892E+02  0.87543886131E+02  0.78852286285E+02  0.12182385128E+03  0.00000000000E+00 0. -1.
          4    1    6    6  503    0  0.83170203206E+01 -0.21814998799E+03  0.51816125077E+03  0.56227188431E+03  0.00000000000E+00 0.  1.
         -4    1    6    6    0  503  0.53242937946E+02 -0.69530204095E+02  0.27877836375E+03  0.29220991738E+03  0.00000000000E+00 0. -1.
<mgrwt>
<rscale>  0 0.13749540E+04</rscale>
<asrwt>0</asrwt>
<pdfrwt beam="1">  1        2 0.31602822E+00 0.13749540E+04</pdfrwt>
<pdfrwt beam="2">  1       -1 0.35396783E-01 0.13749540E+04</pdfrwt>
<totfact> 0.52686333E+01</totfact>
</mgrwt>
</event>
<event>
12    7  0.1740517E-007  0.2669908E+04  0.7818608E-02  0.8344835E-01
         -1   -1    0    0    0  501 -0.00000000000E+00  0.00000000000E+00  0.95326340653E+03  0.95326340653E+03  0.00000000000E+00 0.  1.
          2   -1    0    0  501    0  0.00000000000E+00 -0.00000000000E+00 -0.18694754138E+04  0.18694754138E+04  0.00000000000E+00 0. -1.
         24    2    1    2    0    0  0.76143408881E+03 -0.23556981958E+03  0.51430844112E+03  0.95234640506E+03  0.84708270777E+02 0.  0.
        254    2    1    2    0    0 -0.76143408881E+03  0.23556981958E+03 -0.14305204484E+04  0.18703924153E+04  0.90371678216E+03 0.  0.
         23    2    4    4    0    0 -0.50958466599E+03 -0.24781203109E+03 -0.10606838438E+04  0.12057268294E+04  0.87405012117E+02 0.  0.
         23    2    4    4    0    0 -0.25184942282E+03  0.48338185067E+03 -0.36983660462E+03  0.66466558587E+03  0.88966744344E+02 0.  0.
          2    1    3    3  502    0  0.50538774656E+01  0.10695186570E+01 -0.29514995480E+01  0.59495291559E+01  0.00000000000E+00 0. -1.
         -1    1    3    3    0  502  0.75638021134E+03 -0.23663933824E+03  0.51725994067E+03  0.94639687591E+03  0.00000000000E+00 0.  1.
         13    1    5    5    0    0 -0.28762669460E+02 -0.36188743701E+02 -0.62423257975E+02  0.77676118990E+02  0.00000000000E+00 0.  1.
        -13    1    5    5    0    0 -0.48082199653E+03 -0.21162328739E+03 -0.99826058579E+03  0.11280507104E+04  0.00000000000E+00 0. -1.
          3    1    6    6  503    0 -0.14492331843E+03  0.31812230862E+03 -0.28190748553E+03  0.44908395859E+03  0.00000000000E+00 0. -1.
         -3    1    6    6    0  503 -0.10692610439E+03  0.16525954205E+03 -0.87929119089E+02  0.21558162728E+03  0.00000000000E+00 0.  1.
<mgrwt>
<rscale>  0 0.26699082E+04</rscale>
<asrwt>0</asrwt>
<pdfrwt beam="1">  1        2 0.28761160E+00 0.26699082E+04</pdfrwt>
<pdfrwt beam="2">  1       -1 0.14665591E+00 0.26699082E+04</pdfrwt>
<totfact> 0.29292307E+00</totfact>
</mgrwt>
</event>
<event>
12    7  0.1740517E-007  0.1669691E+04  0.7818608E-02  0.8778842E-01
          2   -1    0    0  501    0  0.00000000000E+00  0.00000000000E+00  0.87621633152E+03  0.87621633152E+03  0.00000000000E+00 0. -1.
         -1   -1    0    0    0  501 -0.00000000000E+00 -0.00000000000E+00 -0.79542789642E+03  0.79542789642E+03  0.00000000000E+00 0.  1.
         24    2    1    2    0    0  0.26379660435E+03 -0.25276800082E+03 -0.43301327358E+03  0.57371740558E+03  0.90392785499E+02 0.  0.
        254    2    1    2    0    0 -0.26379660435E+03  0.25276800082E+03  0.51380170868E+03  0.10979268224E+04  0.89887196012E+03 0.  0.
         23    2    4    4    0    0  0.23657813246E+03  0.23361297156E+03 -0.39055229807E+02  0.34643834656E+03  0.89162681375E+02 0.  0.
         23    2    4    4    0    0 -0.50037473681E+03  0.19155029252E+02  0.55285693849E+03  0.75148847579E+03  0.91336424447E+02 0.  0.
          4    1    3    3  502    0  0.10439346316E+03 -0.65004525631E+02 -0.94555853253E+02  0.15512702179E+03  0.00000000000E+00 0. -1.
         -3    1    3    3    0  502  0.15940314119E+03 -0.18776347519E+03 -0.33845742033E+03  0.41859038380E+03  0.00000000000E+00 0.  1.
         13    1    5    5    0    0 -0.13556027314E+01 -0.32715432388E+01  0.67084737013E+01  0.75857941793E+01  0.00000000000E+00 0. -1.
        -13    1    5    5    0    0  0.23793373519E+03  0.23688451480E+03 -0.45763703508E+02  0.33885255238E+03  0.00000000000E+00 0.  1.
          3    1    6    6  503    0 -0.15385384932E+02 -0.15231741798E+02  0.35005954478E+02  0.41159845440E+02  0.00000000000E+00 0. -1.
         -3    1    6    6    0  503 -0.48498935188E+03  0.34386771050E+02  0.51785098401E+03  0.71032863035E+03  0.00000000000E+00 0.  1.
<mgrwt>
<rscale>  0 0.16696909E+04</rscale>
<asrwt>0</asrwt>
<pdfrwt beam="1">  1        2 0.13480251E+00 0.16696909E+04</pdfrwt>
<pdfrwt beam="2">  1       -1 0.12237352E+00 0.16696909E+04</pdfrwt>
<totfact> 0.19551179E+01</totfact>
</mgrwt>
</event>
<event>
12    7  0.1740517E-007  0.1877427E+04  0.7818608E-02  0.8666175E-01
          2   -1    0    0  501    0  0.00000000000E+00  0.00000000000E+00  0.90970228364E+03  0.90970228364E+03  0.00000000000E+00 0. -1.
         -1   -1    0    0    0  501 -0.00000000000E+00 -0.00000000000E+00 -0.96864950762E+03  0.96864950762E+03  0.00000000000E+00 0.  1.
         24    2    1    2    0    0  0.31361785815E+03 -0.30291642899E+03 -0.59739104751E+03  0.74347992829E+03  0.75972470113E+02 0.  0.
        254    2    1    2    0    0 -0.31361785815E+03  0.30291642899E+03  0.53844382353E+03  0.11348718630E+04  0.89883139151E+03 0.  0.
         23    2    4    4    0    0 -0.29443988704E+03 -0.37561555495E+02 -0.16187897566E+03  0.35047129841E+03  0.92301737342E+02 0.  0.
         23    2    4    4    0    0 -0.19177971106E+02  0.34047798448E+03  0.70032279919E+03  0.78440056456E+03  0.92407630262E+02 0.  0.
          4    1    3    3  502    0 -0.15875410179E+01  0.17986779937E+01  0.97182207481E-01  0.24010358994E+01  0.00000000000E+00 0. -1.
         -3    1    3    3    0  502  0.31520539917E+03 -0.30471510698E+03 -0.59748822972E+03  0.74107889239E+03  0.00000000000E+00 0.  1.
         13    1    5    5    0    0 -0.44580643255E+01 -0.48462801792E+01 -0.29147689586E+02  0.29882245185E+02  0.00000000000E+00 0.  1.
        -13    1    5    5    0    0 -0.28998182272E+03 -0.32715275316E+02 -0.13273128607E+03  0.32058905323E+03  0.00000000000E+00 0. -1.
          3    1    6    6  503    0  0.89605519824E+01  0.31568674534E+03  0.62634650457E+03  0.70146158587E+03  0.00000000000E+00 0. -1.
         -3    1    6    6    0  503 -0.28138523088E+02  0.24791239139E+02  0.73976294624E+02  0.82938978689E+02  0.00000000000E+00 0.  1.
<mgrwt>
<rscale>  0 0.18774266E+04</rscale>
<asrwt>0</asrwt>
<pdfrwt beam="1">  1        2 0.13995420E+00 0.18774266E+04</pdfrwt>
<pdfrwt beam="2">  1       -1 0.14902300E+00 0.18774266E+04</pdfrwt>
<totfact> 0.10981045E+01</totfact>
</mgrwt>
</event>
<event>
12    7  0.1740517E-007  0.3819975E+04  0.7818608E-02  0.8041882E-01
          2   -1    0    0  501    0  0.00000000000E+00  0.00000000000E+00  0.30148541553E+04  0.30148541553E+04  0.00000000000E+00 0. -1.
         -1   -1    0    0    0  501 -0.00000000000E+00 -0.00000000000E+00 -0.12100263279E+04  0.12100263279E+04  0.00000000000E+00 0.  1.
         24    2    1    2    0    0  0.19755912511E+03  0.16378602326E+04  0.16534090947E+04  0.23367464189E+04  0.70756217681E+02 0.  0.
        254    2    1    2    0    0 -0.19755912511E+03 -0.16378602326E+04  0.15141873263E+03  0.18881340643E+04  0.90581833862E+03 0.  0.
         23    2    4    4    0    0 -0.62902972284E+02 -0.16544094087E+04  0.27716076349E+03  0.16811880996E+04  0.92455730136E+02 0.  0.
         23    2    4    4    0    0 -0.13465615282E+03  0.16549176080E+02 -0.12574203086E+03  0.20694596464E+03  0.92786956161E+02 0.  0.
          2    1    3    3  502    0  0.15922816372E+03  0.14212101715E+04  0.14615532458E+04  0.20448300296E+04  0.00000000000E+00 0. -1.
         -1    1    3    3    0  502  0.38330961383E+02  0.21665006111E+03  0.19185584892E+03  0.29191638930E+03  0.00000000000E+00 0.  1.
         13    1    5    5    0    0 -0.13324823602E+02 -0.12176355521E+03 -0.21560127236E+01  0.12250943920E+03  0.00000000000E+00 0. -1.
        -13    1    5    5    0    0 -0.49578148683E+02 -0.15326458535E+04  0.27931677621E+03  0.15586786604E+04  0.00000000000E+00 0.  1.
          4    1    6    6  503    0 -0.59119713894E+02  0.12101940816E+02 -0.17912778342E+00  0.60345916425E+02  0.00000000000E+00 0. -1.
         -4    1    6    6    0  503 -0.75536438929E+02  0.44472352649E+01 -0.12556290307E+03  0.14660004821E+03  0.00000000000E+00 0.  1.
<mgrwt>
<rscale>  0 0.38199753E+04</rscale>
<asrwt>0</asrwt>
<pdfrwt beam="1">  1        2 0.46382371E+00 0.38199753E+04</pdfrwt>
<pdfrwt beam="2">  1       -1 0.18615790E+00 0.38199753E+04</pdfrwt>
<totfact> 0.29115932E-01</totfact>
</mgrwt>
</event>
<event>
12    7  0.1740517E-007  0.1506474E+04  0.7818608E-02  0.8880159E-01
         -1   -1    0    0    0  501 -0.00000000000E+00  0.00000000000E+00  0.57801659296E+03  0.57801659296E+03  0.00000000000E+00 0.  1.
          2   -1    0    0  501    0  0.00000000000E+00 -0.00000000000E+00 -0.98157375046E+03  0.98157375046E+03  0.00000000000E+00 0. -1.
         24    2    1    2    0    0 -0.12279409012E+03 -0.31127708467E+03 -0.48544438979E+03  0.59507095957E+03  0.80507014228E+02 0.  0.
        254    2    1    2    0    0  0.12279409012E+03  0.31127708467E+03  0.81887232290E+02  0.96451938386E+03  0.90089972306E+03 0.  0.
         23    2    4    4    0    0  0.41532121286E+03  0.44497518343E+03  0.12831020519E+03  0.62883575845E+03  0.92066707502E+02 0.  0.
         23    2    4    4    0    0 -0.29252712274E+03 -0.13369809877E+03 -0.46422972896E+02  0.33568362541E+03  0.84149300660E+02 0.  0.
          2    1    3    3  502    0 -0.59493785584E+02 -0.23440167166E+03 -0.37644288047E+03  0.44742920832E+03  0.00000000000E+00 0. -1.
         -1    1    3    3    0  502 -0.63300304532E+02 -0.76875413003E+02 -0.10900150932E+03  0.14764175125E+03  0.00000000000E+00 0.  1.
         13    1    5    5    0    0  0.33446828099E+03  0.39783061511E+03  0.88961095535E+02  0.52730665256E+03  0.00000000000E+00 0.  1.
        -13    1    5    5    0    0  0.80852931864E+02  0.47144568318E+02  0.39349109651E+02  0.10152910589E+03  0.00000000000E+00 0. -1.
          1    1    6    6  503    0 -0.23100034778E+03 -0.13507619997E+03 -0.18881201905E+02  0.26825965082E+03  0.00000000000E+00 0.  1.
         -1    1    6    6    0  503 -0.61526774955E+02  0.13781012018E+01 -0.27541770992E+02  0.67423974584E+02  0.00000000000E+00 0. -1.
<mgrwt>
<rscale>  0 0.15064739E+04</rscale>
<asrwt>0</asrwt>
<pdfrwt beam="1">  1        2 0.15101134E+00 0.15064739E+04</pdfrwt>
<pdfrwt beam="2">  1       -1 0.88925631E-01 0.15064739E+04</pdfrwt>
<totfact> 0.35392545E+01</totfact>
</mgrwt>
</event>
<event>
12    7  0.1740517E-007  0.1667625E+04  0.7818608E-02  0.8780047E-01
          2   -1    0    0  501    0  0.00000000000E+00  0.00000000000E+00  0.64915105194E+03  0.64915105194E+03  0.00000000000E+00 0. -1.
         -1   -1    0    0    0  501 -0.00000000000E+00 -0.00000000000E+00 -0.10710044475E+04  0.10710044475E+04  0.00000000000E+00 0.  1.
         24    2    1    2    0    0 -0.49188759896E+03 -0.22011447310E+03 -0.38404332775E+03  0.66664566034E+03  0.80767367057E+02 0.  0.
        254    2    1    2    0    0  0.49188759896E+03  0.22011447310E+03 -0.37810067797E+02  0.10535098391E+04  0.90446093810E+03 0.  0.
         23    2    4    4    0    0 -0.73430754240E+02  0.41851372119E+03  0.59515205127E+02  0.43846560237E+03  0.90356041996E+02 0.  0.
         23    2    4    4    0    0  0.56531835320E+03 -0.19839924809E+03 -0.97325272925E+02  0.61504423672E+03  0.99298047682E+02 0.  0.
          4    1    3    3  502    0 -0.11010975746E+02 -0.15320204063E+02 -0.29698172461E+02  0.35184253395E+02  0.00000000000E+00 0. -1.
         -3    1    3    3    0  502 -0.48087662321E+03 -0.20479426904E+03 -0.35434515529E+03  0.63146140694E+03  0.00000000000E+00 0.  1.
         13    1    5    5    0    0 -0.20748654178E+02  0.31073642744E+02  0.27023897954E+02  0.46112568614E+02  0.00000000000E+00 0. -1.
        -13    1    5    5    0    0 -0.52682100063E+02  0.38744007845E+03  0.32491307173E+02  0.39235303375E+03  0.00000000000E+00 0.  1.
          1    1    6    6  503    0  0.35286972619E+02  0.11007839756E+02 -0.11550515355E+02  0.38726701095E+02  0.00000000000E+00 0. -1.
         -1    1    6    6    0  503  0.53003138058E+03 -0.20940708785E+03 -0.85774757570E+02  0.57631753563E+03  0.00000000000E+00 0.  1.
<mgrwt>
<rscale>  0 0.16676255E+04</rscale>
<asrwt>0</asrwt>
<pdfrwt beam="1">  1        2 0.99869394E-01 0.16676255E+04</pdfrwt>
<pdfrwt beam="2">  1       -1 0.16476991E+00 0.16676255E+04</pdfrwt>
<totfact> 0.13202384E+01</totfact>
</mgrwt>
</event>
<event>
12    7  0.1740517E-007  0.2797581E+04  0.7818608E-02  0.8304020E-01
          2   -1    0    0  501    0  0.00000000000E+00  0.00000000000E+00  0.20286192846E+04  0.20286192846E+04  0.00000000000E+00 0. -1.
         -1   -1    0    0    0  501 -0.00000000000E+00 -0.00000000000E+00 -0.96450604192E+03  0.96450604192E+03  0.00000000000E+00 0.  1.
         24    2    1    2    0    0 -0.24661089206E+03  0.12085588817E+04  0.24549002245E+03  0.12602746441E+04  0.81211604630E+02 0.  0.
        254    2    1    2    0    0  0.24661089206E+03 -0.12085588817E+04  0.81862322026E+03  0.17328506824E+04  0.90066420391E+03 0.  0.
         23    2    4    4    0    0  0.51363137890E+03 -0.36119223683E+03  0.35613934601E+03  0.72713176016E+03  0.87225784773E+02 0.  0.
         23    2    4    4    0    0 -0.26702048684E+03 -0.84736664491E+03  0.46248387425E+03  0.10057189223E+04  0.90824255580E+02 0.  0.
          2    1    3    3  502    0 -0.23141127783E+03  0.10359944655E+04  0.19018063163E+03  0.10784268100E+04  0.00000000000E+00 0. -1.
         -1    1    3    3    0  502 -0.15199614227E+02  0.17256441628E+03  0.55309390824E+02  0.18184783406E+03  0.00000000000E+00 0.  1.
         13    1    5    5    0    0  0.43365491953E+03 -0.32079829796E+03  0.33532786210E+03  0.63514794522E+03  0.00000000000E+00 0.  1.
        -13    1    5    5    0    0  0.79976459366E+02 -0.40393938863E+02  0.20811483904E+02  0.91983814945E+02  0.00000000000E+00 0. -1.
          3    1    6    6  503    0 -0.63539422365E+02 -0.15631643056E+03  0.12619312566E+03  0.21070545702E+03  0.00000000000E+00 0. -1.
         -3    1    6    6    0  503 -0.20348106448E+03 -0.69105021435E+03  0.33629074859E+03  0.79501346526E+03  0.00000000000E+00 0.  1.
<mgrwt>
<rscale>  0 0.27975815E+04</rscale>
<asrwt>0</asrwt>
<pdfrwt beam="1">  1        2 0.31209527E+00 0.27975815E+04</pdfrwt>
<pdfrwt beam="2">  1       -1 0.14838555E+00 0.27975815E+04</pdfrwt>
<totfact> 0.22904901E+00</totfact>
</mgrwt>
</event>
<event>
12    7  0.1740517E-007  0.1481340E+04  0.7818608E-02  0.8896957E-01
         -1   -1    0    0    0  501 -0.00000000000E+00  0.00000000000E+00  0.13391018623E+03  0.13391018623E+03  0.00000000000E+00 0.  1.
          2   -1    0    0  501    0  0.00000000000E+00 -0.00000000000E+00 -0.40967183680E+04  0.40967183680E+04  0.00000000000E+00 0. -1.
         24    2    1    2    0    0 -0.13062003953E+03  0.10636111947E+03 -0.22462943556E+02  0.18648280524E+03  0.76791733632E+02 0.  0.
        254    2    1    2    0    0  0.13062003953E+03 -0.10636111947E+03 -0.39403452382E+04  0.40441457490E+04  0.89466192513E+03 0.  0.
         23    2    4    4    0    0  0.61878100382E+02  0.64659823204E+02 -0.37768010842E+04  0.37789546829E+04  0.90897050421E+02 0.  0.
         23    2    4    4    0    0  0.68741939152E+02 -0.17102094267E+03 -0.16354415404E+03  0.26519106611E+03  0.98010173928E+02 0.  0.
          2    1    3    3  502    0  0.62936933209E+01 -0.54655323443E+01 -0.59039788998E+00  0.83565057945E+01  0.00000000000E+00 0. -1.
         -1    1    3    3    0  502 -0.13691373285E+03  0.11182665181E+03 -0.21872545666E+02  0.17812629944E+03  0.00000000000E+00 0.  1.
         13    1    5    5    0    0  0.45548057289E+02  0.68886492656E+02 -0.36610175663E+04  0.36619488793E+04  0.00000000000E+00 0.  1.
        -13    1    5    5    0    0  0.16330043093E+02 -0.42266694524E+01 -0.11578351791E+03  0.11700580354E+03  0.00000000000E+00 0. -1.
          1    1    6    6  503    0  0.17731723340E+02 -0.59523739889E+02 -0.11992111832E+03  0.13505022859E+03  0.00000000000E+00 0. -1.
         -1    1    6    6    0  503  0.51010215812E+02 -0.11149720278E+03 -0.43623035722E+02  0.13014083752E+03  0.00000000000E+00 0.  1.
<mgrwt>
<rscale>  0 0.14813404E+04</rscale>
<asrwt>0</asrwt>
<pdfrwt beam="1">  1        2 0.63026447E+00 0.14813404E+04</pdfrwt>
<pdfrwt beam="2">  1       -1 0.20601564E-01 0.14813404E+04</pdfrwt>
<totfact> 0.62720184E+00</totfact>
</mgrwt>
</event>
<event>
12    7  0.1740517E-007  0.1465850E+04  0.7818608E-02  0.8907486E-01
         -1   -1    0    0    0  501 -0.00000000000E+00  0.00000000000E+00  0.63253225085E+03  0.63253225085E+03  0.00000000000E+00 0.  1.
          2   -1    0    0  501    0  0.00000000000E+00 -0.00000000000E+00 -0.84925106773E+03  0.84925106773E+03  0.00000000000E+00 0. -1.
         24    2    1    2    0    0  0.31538572975E+03  0.32297351733E+03 -0.69429759762E+02  0.46355007875E+03  0.79234667550E+02 0.  0.
        254    2    1    2    0    0 -0.31538572975E+03 -0.32297351733E+03 -0.14728905711E+03  0.10182332398E+04  0.90073570648E+03 0.  0.
         23    2    4    4    0    0 -0.25372899207E+03 -0.21892019980E+03  0.35317688616E+03  0.49537401771E+03  0.91416897799E+02 0.  0.
         23    2    4    4    0    0 -0.61656737674E+02 -0.10405331754E+03 -0.50046594327E+03  0.52285922213E+03  0.91032739141E+02 0.  0.
          4    1    3    3  502    0  0.29180820633E+03  0.27686054968E+03 -0.40642877419E+02  0.40429647134E+03  0.00000000000E+00 0. -1.
         -3    1    3    3    0  502  0.23577523415E+02  0.46112967658E+02 -0.28786882343E+02  0.59253607415E+02  0.00000000000E+00 0.  1.
         13    1    5    5    0    0 -0.17908776854E+03 -0.19712211867E+03  0.30005728121E+03  0.40120310382E+03  0.00000000000E+00 0. -1.
        -13    1    5    5    0    0 -0.74641223538E+02 -0.21798081129E+02  0.53119604945E+02  0.94170913884E+02  0.00000000000E+00 0.  1.
          1    1    6    6  503    0 -0.47533789697E+02 -0.13954326919E+02 -0.93645739786E+02  0.10594200764E+03  0.00000000000E+00 0. -1.
         -1    1    6    6    0  503 -0.14122947977E+02 -0.90098990618E+02 -0.40682020349E+03  0.41691721449E+03  0.00000000000E+00 0.  1.
<mgrwt>
<rscale>  0 0.14658495E+04</rscale>
<asrwt>0</asrwt>
<pdfrwt beam="1">  1        2 0.13065401E+00 0.14658495E+04</pdfrwt>
<pdfrwt beam="2">  1       -1 0.97312654E-01 0.14658495E+04</pdfrwt>
<totfact> 0.35646195E+01</totfact>
</mgrwt>
</event>
<event>
12    7  0.1740517E-007  0.2053468E+04  0.7818608E-02  0.8582023E-01
         -1   -1    0    0    0  501 -0.00000000000E+00  0.00000000000E+00  0.82844403196E+03  0.82844403196E+03  0.00000000000E+00 0.  1.
          2   -1    0    0  501    0  0.00000000000E+00 -0.00000000000E+00 -0.12724856451E+04  0.12724856451E+04  0.00000000000E+00 0. -1.
         24    2    1    2    0    0  0.28862845483E+03 -0.44671467228E+03 -0.84286833346E+03  0.99970970746E+03  0.78307651491E+02 0.  0.
        254    2    1    2    0    0 -0.28862845483E+03  0.44671467228E+03  0.39882672032E+03  0.11012199696E+04  0.87793068362E+03 0.  0.
         23    2    4    4    0    0 -0.11372112956E+03 -0.25349557039E+03  0.66215167824E+02  0.30132804666E+03  0.96029389967E+02 0.  0.
         23    2    4    4    0    0 -0.17490732527E+03  0.70021024267E+03  0.33261155249E+03  0.79989192293E+03  0.91157485435E+02 0.  0.
          2    1    3    3  502    0  0.15970938203E+03 -0.31529357753E+03 -0.54788704338E+03  0.65199489188E+03  0.00000000000E+00 0. -1.
         -1    1    3    3    0  502  0.12891907280E+03 -0.13142109475E+03 -0.29498129008E+03  0.34771481558E+03  0.00000000000E+00 0.  1.
         13    1    5    5    0    0 -0.58152576801E+01 -0.33163826851E+02 -0.22442922687E+02  0.40464075573E+02  0.00000000000E+00 0. -1.
        -13    1    5    5    0    0 -0.10790587188E+03 -0.22033174354E+03  0.88658090511E+02  0.26086397109E+03  0.00000000000E+00 0.  1.
          1    1    6    6  503    0  0.88452741130E+01  0.12804168439E+02  0.36405895966E+01  0.15982474657E+02  0.00000000000E+00 0. -1.
         -1    1    6    6    0  503 -0.18375259938E+03  0.68740607423E+03  0.32897096290E+03  0.78390944828E+03  0.00000000000E+00 0.  1.
<mgrwt>
<rscale>  0 0.20534684E+04</rscale>
<asrwt>0</asrwt>
<pdfrwt beam="1">  1        2 0.19576702E+00 0.20534684E+04</pdfrwt>
<pdfrwt beam="2">  1       -1 0.12745293E+00 0.20534684E+04</pdfrwt>
<totfact> 0.96446020E+00</totfact>
</mgrwt>
</event>
<event>
12    7  0.1740517E-007  0.2089308E+04  0.7818608E-02  0.8565968E-01
         -1   -1    0    0    0  501 -0.00000000000E+00  0.00000000000E+00  0.11393099131E+04  0.11393099131E+04  0.00000000000E+00 0.  1.
          2   -1    0    0  501    0  0.00000000000E+00 -0.00000000000E+00 -0.95786245026E+03  0.95786245026E+03  0.00000000000E+00 0. -1.
         24    2    1    2    0    0 -0.54041286886E+03 -0.39965621704E+03  0.56821359023E+03  0.88371260397E+03  0.79436274103E+02 0.  0.
        254    2    1    2    0    0  0.54041286886E+03  0.39965621704E+03 -0.38676612737E+03  0.12134597594E+04  0.93334098258E+03 0.  0.
         23    2    4    4    0    0  0.18748002793E+03  0.63242864943E+03 -0.40688401827E+03  0.78039791031E+03  0.91386741958E+02 0.  0.
         23    2    4    4    0    0  0.35293284093E+03 -0.23277243239E+03  0.20117890893E+02  0.43306184910E+03  0.91614628297E+02 0.  0.
          4    1    3    3  502    0 -0.60519730383E+02 -0.75371462818E+02  0.98411633002E+02  0.13794326618E+03  0.00000000000E+00 0. -1.
         -3    1    3    3    0  502 -0.47989313848E+03 -0.32428475422E+03  0.46980195723E+03  0.74576933780E+03  0.00000000000E+00 0.  1.
         13    1    5    5    0    0  0.80823733776E+02  0.29194440889E+03 -0.13415404583E+03  0.33130246277E+03  0.00000000000E+00 0. -1.
        -13    1    5    5    0    0  0.10665629415E+03  0.34048424054E+03 -0.27272997244E+03  0.44909544754E+03  0.00000000000E+00 0.  1.
          1    1    6    6  503    0  0.34919533373E+03 -0.23824607379E+03  0.26895276168E+02  0.42358225725E+03  0.00000000000E+00 0. -1.
         -1    1    6    6    0  503  0.37375072011E+01  0.54736414066E+01 -0.67773852747E+01  0.94795918419E+01  0.00000000000E+00 0.  1.
<mgrwt>
<rscale>  0 0.20893082E+04</rscale>
<asrwt>0</asrwt>
<pdfrwt beam="1">  1        2 0.14736345E+00 0.20893082E+04</pdfrwt>
<pdfrwt beam="2">  1       -1 0.17527845E+00 0.20893082E+04</pdfrwt>
<totfact> 0.63548661E+00</totfact>
</mgrwt>
</event>
<event>
12    7  0.1740517E-007  0.1360481E+04  0.7818608E-02  0.8982932E-01
         -1   -1    0    0    0  501 -0.00000000000E+00  0.00000000000E+00  0.16065124034E+04  0.16065124034E+04  0.00000000000E+00 0.  1.
          2   -1    0    0  501    0  0.00000000000E+00 -0.00000000000E+00 -0.28803214301E+03  0.28803214301E+03  0.00000000000E+00 0. -1.
         24    2    1    2    0    0 -0.32349813864E+03 -0.28697135665E+02  0.10813030638E+03  0.35146276684E+03  0.79745482733E+02 0.  0.
        254    2    1    2    0    0  0.32349813864E+03  0.28697135665E+02  0.12103499540E+04  0.15430817796E+04  0.90037758524E+03 0.  0.
         23    2    4    4    0    0 -0.49615060541E+01  0.26647974222E+02 -0.12851490185E+03  0.16148272797E+03  0.93946050268E+02 0.  0.
         23    2    4    4    0    0  0.32845964470E+03  0.20491614432E+01  0.13388648559E+04  0.13815990516E+04  0.91470759668E+02 0.  0.
          2    1    3    3  502    0 -0.29858021767E+03 -0.21135351041E+02  0.12045294874E+03  0.32265424576E+03  0.00000000000E+00 0. -1.
         -1    1    3    3    0  502 -0.24917920975E+02 -0.75617846237E+01 -0.12322642354E+02  0.28808521083E+02  0.00000000000E+00 0.  1.
         13    1    5    5    0    0  0.11880749717E+02  0.38495168240E+02 -0.13420329240E+03  0.14011978406E+03  0.00000000000E+00 0. -1.
        -13    1    5    5    0    0 -0.16842255771E+02 -0.11847194018E+02  0.56883905500E+01  0.21362943913E+02  0.00000000000E+00 0.  1.
          2    1    6    6  503    0  0.27375351704E+03 -0.26369024826E+02  0.99780695527E+03  0.10350145089E+04  0.00000000000E+00 0. -1.
         -2    1    6    6    0  503  0.54706127661E+02  0.28418186270E+02  0.34105790063E+03  0.34658454278E+03  0.00000000000E+00 0.  1.
<mgrwt>
<rscale>  0 0.13604811E+04</rscale>
<asrwt>0</asrwt>
<pdfrwt beam="1">  1        2 0.44312638E-01 0.13604811E+04</pdfrwt>
<pdfrwt beam="2">  1       -1 0.24715575E+00 0.13604811E+04</pdfrwt>
<totfact> 0.93592493E+00</totfact>
</mgrwt>
</event>
<event>
12    7  0.1740517E-007  0.1650300E+04  0.7818608E-02  0.8790229E-01
         -1   -1    0    0    0  501 -0.00000000000E+00  0.00000000000E+00  0.44242897376E+03  0.44242897376E+03  0.00000000000E+00 0.  1.
          2   -1    0    0  501    0  0.00000000000E+00 -0.00000000000E+00 -0.15389419568E+04  0.15389419568E+04  0.00000000000E+00 0. -1.
         24    2    1    2    0    0  0.34679642422E+03  0.46298376324E+03 -0.37562867182E+03  0.69444448082E+03  0.80836334423E+02 0.  0.
        254    2    1    2    0    0 -0.34679642422E+03 -0.46298376324E+03 -0.72088431125E+03  0.12869264498E+04  0.89547963240E+03 0.  0.
         23    2    4    4    0    0  0.27977145278E+03 -0.24943708900E+03 -0.18178479258E+03  0.42830499424E+03  0.99541599939E+02 0.  0.
         23    2    4    4    0    0 -0.62656787700E+03 -0.21354667424E+03 -0.53909951867E+03  0.85862145554E+03  0.91722550681E+02 0.  0.
          2    1    3    3  502    0  0.26982539536E+03  0.36842791008E+03 -0.33337870050E+03  0.56540801803E+03  0.00000000000E+00 0. -1.
         -1    1    3    3    0  502  0.76971028861E+02  0.94555853163E+02 -0.42249971320E+02  0.12903646278E+03  0.00000000000E+00 0.  1.
         13    1    5    5    0    0  0.25934270301E+03 -0.18683021787E+03 -0.13230093642E+03  0.34593020350E+03  0.00000000000E+00 0.  1.
        -13    1    5    5    0    0  0.20428749770E+02 -0.62606871124E+02 -0.49483856156E+02  0.82374790738E+02  0.00000000000E+00 0. -1.
          3    1    6    6  503    0 -0.15027605115E+03 -0.17892182364E+02 -0.95269136485E+02  0.17882737516E+03  0.00000000000E+00 0. -1.
         -3    1    6    6    0  503 -0.47629182585E+03 -0.19565449188E+03 -0.44383038219E+03  0.67979408038E+03  0.00000000000E+00 0.  1.
<mgrwt>
<rscale>  0 0.16503000E+04</rscale>
<asrwt>0</asrwt>
<pdfrwt beam="1">  1        2 0.23676030E+00 0.16503000E+04</pdfrwt>
<pdfrwt beam="2">  1       -1 0.68065997E-01 0.16503000E+04</pdfrwt>
<totfact> 0.28701675E+01</totfact>
</mgrwt>
</event>
<event>
12    7  0.1740517E-007  0.1530623E+04  0.7818608E-02  0.8864340E-01
         -1   -1    0    0    0  501 -0.00000000000E+00  0.00000000000E+00  0.86302767077E+03  0.86302767077E+03  0.00000000000E+00 0.  1.
          2   -1    0    0  501    0  0.00000000000E+00 -0.00000000000E+00 -0.67865932580E+03  0.67865932580E+03  0.00000000000E+00 0. -1.
         24    2    1    2    0    0  0.55165940506E+02 -0.44963544088E+03  0.25315830715E+03  0.52420841724E+03  0.74094706544E+02 0.  0.
        254    2    1    2    0    0 -0.55165940506E+02  0.44963544088E+03 -0.68789962180E+02  0.10174785793E+04  0.90846865097E+03 0.  0.
         23    2    4    4    0    0  0.32708895098E+03  0.44227693198E+03  0.13633754821E+03  0.57396347583E+03  0.90829940693E+02 0.  0.
         23    2    4    4    0    0 -0.38225489149E+03  0.73585089025E+01 -0.20512751039E+03  0.44351510349E+03  0.91953258714E+02 0.  0.
          2    1    3    3  502    0  0.22520167307E+02 -0.67467188624E+02  0.14895794597E+02  0.72669554650E+02  0.00000000000E+00 0. -1.
         -1    1    3    3    0  502  0.32645773199E+02 -0.38216825226E+03  0.23826251255E+03  0.45153886259E+03  0.00000000000E+00 0.  1.
         13    1    5    5    0    0  0.16270107168E+03  0.28347453273E+03  0.10477352230E+03  0.34323015661E+03  0.00000000000E+00 0.  1.
        -13    1    5    5    0    0  0.16438787930E+03  0.15880239925E+03  0.31564025901E+02  0.23073331922E+03  0.00000000000E+00 0. -1.
          3    1    6    6  503    0 -0.37839238057E+03  0.59244711349E+01 -0.21326525800E+03  0.43439378829E+03  0.00000000000E+00 0. -1.
         -3    1    6    6    0  503 -0.38625109126E+01  0.14340377675E+01  0.81377476099E+01  0.91213152029E+01  0.00000000000E+00 0.  1.
<mgrwt>
<rscale>  0 0.15306231E+04</rscale>
<asrwt>0</asrwt>
<pdfrwt beam="1">  1        2 0.10440913E+00 0.15306231E+04</pdfrwt>
<pdfrwt beam="2">  1       -1 0.13277349E+00 0.15306231E+04</pdfrwt>
<totfact> 0.22554338E+01</totfact>
</mgrwt>
</event>
<event>
12    7  0.1740517E-007  0.2665995E+04  0.7818608E-02  0.8346123E-01
          2   -1    0    0  501    0  0.00000000000E+00  0.00000000000E+00  0.16747154480E+04  0.16747154480E+04  0.00000000000E+00 0. -1.
         -1   -1    0    0    0  501 -0.00000000000E+00 -0.00000000000E+00 -0.10610055525E+04  0.10610055525E+04  0.00000000000E+00 0.  1.
         24    2    1    2    0    0 -0.10963815561E+02  0.10682609758E+04  0.78378232020E+03  0.13273728771E+04  0.79387100509E+02 0.  0.
        254    2    1    2    0    0  0.10963815561E+02 -0.10682609758E+04 -0.17007242473E+03  0.14083481235E+04  0.90178605535E+03 0.  0.
         23    2    4    4    0    0  0.33858174167E+03 -0.81354456713E+03  0.11980722563E+03  0.89394341016E+03  0.91042247104E+02 0.  0.
         23    2    4    4    0    0 -0.32761792611E+03 -0.25471640864E+03 -0.28987965036E+03  0.51440471331E+03  0.91477008296E+02 0.  0.
          4    1    3    3  502    0 -0.18432029059E+02  0.42106437535E+03  0.35428210935E+03  0.55059128297E+03  0.00000000000E+00 0. -1.
         -3    1    3    3    0  502  0.74682134986E+01  0.64719660041E+03  0.42950021085E+03  0.77678159409E+03  0.00000000000E+00 0.  1.
         13    1    5    5    0    0  0.83924886900E+02 -0.14584360857E+03  0.52000074914E+02  0.17611857538E+03  0.00000000000E+00 0. -1.
        -13    1    5    5    0    0  0.25465685477E+03 -0.66770095856E+03  0.67807150715E+02  0.71782483478E+03  0.00000000000E+00 0.  1.
          3    1    6    6  503    0 -0.15643134898E+03 -0.17908360484E+03 -0.16430420010E+03  0.28902867442E+03  0.00000000000E+00 0. -1.
         -3    1    6    6    0  503 -0.17118657712E+03 -0.75632803800E+02 -0.12557545025E+03  0.22537603889E+03  0.00000000000E+00 0.  1.
<mgrwt>
<rscale>  0 0.26659950E+04</rscale>
<asrwt>0</asrwt>
<pdfrwt beam="1">  1        2 0.25764853E+00 0.26659950E+04</pdfrwt>
<pdfrwt beam="2">  1       -1 0.16323162E+00 0.26659950E+04</pdfrwt>
<totfact> 0.28032495E+00</totfact>
</mgrwt>
</event>
<event>
12    7  0.1740517E-007  0.3358846E+04  0.7818608E-02  0.8148081E-01
         -1   -1    0    0    0  501 -0.00000000000E+00  0.00000000000E+00  0.13426133637E+04  0.13426133637E+04  0.00000000000E+00 0.  1.
          2   -1    0    0  501    0  0.00000000000E+00 -0.00000000000E+00 -0.21007247933E+04  0.21007247933E+04  0.00000000000E+00 0. -1.
         24    2    1    2    0    0 -0.23632950219E+03  0.14591872133E+03 -0.19260737079E+04  0.19475617536E+04  0.78057344697E+02 0.  0.
        254    2    1    2    0    0  0.23632950219E+03 -0.14591872133E+03  0.11679622783E+04  0.14957764034E+04  0.89222601312E+03 0.  0.
         23    2    4    4    0    0  0.11708925680E+03 -0.47620286272E+03  0.37632297820E+03  0.62489862853E+03  0.91652885927E+02 0.  0.
         23    2    4    4    0    0  0.11924024539E+03  0.33028414139E+03  0.79163930011E+03  0.87087777485E+03  0.91812129186E+02 0.  0.
          4    1    3    3  502    0 -0.16459053288E+03  0.10172718537E+03 -0.15579027796E+04  0.15698724580E+04  0.00000000000E+00 0. -1.
         -3    1    3    3    0  502 -0.71738969306E+02  0.44191535951E+02 -0.36817092829E+03  0.37768929560E+03  0.00000000000E+00 0.  1.
         13    1    5    5    0    0  0.18929870613E+01 -0.13726553869E+03  0.13922352193E+03  0.19552135579E+03  0.00000000000E+00 0.  1.
        -13    1    5    5    0    0  0.11519626974E+03 -0.33893732403E+03  0.23709945627E+03  0.42937727273E+03  0.00000000000E+00 0. -1.
          4    1    6    6  503    0  0.12329211144E+03  0.32510414435E+03  0.72659971716E+03  0.80550654771E+03  0.00000000000E+00 0. -1.
         -4    1    6    6    0  503 -0.40518660462E+01  0.51799970427E+01  0.65039582949E+02  0.65371227142E+02  0.00000000000E+00 0.  1.
<mgrwt>
<rscale>  0 0.33588457E+04</rscale>
<asrwt>0</asrwt>
<pdfrwt beam="1">  1        2 0.32318843E+00 0.33588457E+04</pdfrwt>
<pdfrwt beam="2">  1       -1 0.20655590E+00 0.33588457E+04</pdfrwt>
<totfact> 0.75297478E-01</totfact>
</mgrwt>
</event>
<event>
12    7  0.1740517E-007  0.2087847E+04  0.7818608E-02  0.8566616E-01
          2   -1    0    0  501    0  0.00000000000E+00  0.00000000000E+00  0.16084615636E+04  0.16084615636E+04  0.00000000000E+00 0. -1.
         -1   -1    0    0    0  501 -0.00000000000E+00 -0.00000000000E+00 -0.67752730976E+03  0.67752730976E+03  0.00000000000E+00 0.  1.
         24    2    1    2    0    0  0.29884433467E+03 -0.66836557794E+03  0.86176201432E+03  0.11336663681E+04  0.80902303044E+02 0.  0.
        254    2    1    2    0    0 -0.29884433467E+03  0.66836557794E+03  0.69172239538E+02  0.11523225053E+04  0.88715380592E+03 0.  0.
         23    2    4    4    0    0  0.12685478832E+03 -0.14196884583E+03  0.95704662008E+02  0.23208797395E+03  0.91968227201E+02 0.  0.
         23    2    4    4    0    0 -0.42569912299E+03  0.81033442377E+03 -0.26532422470E+02  0.92023453136E+03  0.90917553882E+02 0.  0.
          4    1    3    3  502    0  0.25667547638E+03 -0.48835456445E+03  0.64335556638E+03  0.84751334242E+03  0.00000000000E+00 0. -1.
         -3    1    3    3    0  502  0.42168858293E+02 -0.18001101349E+03  0.21840644794E+03  0.28615302565E+03  0.00000000000E+00 0.  1.
         13    1    5    5    0    0 -0.45919900509E+01 -0.45862201175E+02  0.36613706496E+02  0.58864177329E+02  0.00000000000E+00 0.  1.
        -13    1    5    5    0    0  0.13144677837E+03 -0.96106644650E+02  0.59090955513E+02  0.17322379662E+03  0.00000000000E+00 0. -1.
          3    1    6    6  503    0 -0.42000491783E+03  0.79959101793E+03 -0.14758823981E+02  0.90330933231E+03  0.00000000000E+00 0. -1.
         -3    1    6    6    0  503 -0.56942051643E+01  0.10743405839E+02 -0.11773598489E+02  0.16925199049E+02  0.00000000000E+00 0.  1.
<mgrwt>
<rscale>  0 0.20878473E+04</rscale>
<asrwt>0</asrwt>
<pdfrwt beam="1">  1        2 0.24745562E+00 0.20878473E+04</pdfrwt>
<pdfrwt beam="2">  1       -1 0.10423497E+00 0.20878473E+04</pdfrwt>
<totfact> 0.10037351E+01</totfact>
</mgrwt>
</event>
<event>
12    7  0.1740517E-007  0.1468176E+04  0.7818608E-02  0.8905896E-01
         -1   -1    0    0    0  501 -0.00000000000E+00  0.00000000000E+00  0.90348700895E+03  0.90348700895E+03  0.00000000000E+00 0.  1.
          2   -1    0    0  501    0  0.00000000000E+00 -0.00000000000E+00 -0.59645000396E+03  0.59645000396E+03  0.00000000000E+00 0. -1.
         24    2    1    2    0    0  0.17794970771E+03  0.16274161489E+03 -0.29376278111E+03  0.38831148171E+03  0.79613463526E+02 0.  0.
        254    2    1    2    0    0 -0.17794970771E+03 -0.16274161489E+03  0.60079978610E+03  0.11116255312E+04  0.90365923165E+03 0.  0.
         23    2    4    4    0    0  0.11156397078E+02 -0.74877608738E+02 -0.22517438600E+03  0.25473647940E+03  0.91956774304E+02 0.  0.
         23    2    4    4    0    0 -0.18910610479E+03 -0.87864006150E+02  0.82597417210E+03  0.85688905180E+03  0.92435445974E+02 0.  0.
          4    1    3    3  502    0  0.17169419429E+03  0.15562322496E+03 -0.23959696932E+03  0.33332295481E+03  0.00000000000E+00 0. -1.
         -3    1    3    3    0  502  0.62555134192E+01  0.71183899266E+01 -0.54165811794E+02  0.54988526899E+02  0.00000000000E+00 0.  1.
         13    1    5    5    0    0  0.12031987101E+02 -0.61234834360E+02 -0.23143438445E+03  0.23970053809E+03  0.00000000000E+00 0.  1.
        -13    1    5    5    0    0 -0.87559002320E+00 -0.13642774378E+02  0.62599984497E+01  0.15035941314E+02  0.00000000000E+00 0. -1.
          1    1    6    6  503    0 -0.10039802892E+03  0.38810021194E+01  0.36310387377E+03  0.37674825751E+03  0.00000000000E+00 0. -1.
         -1    1    6    6    0  503 -0.88708075865E+02 -0.91745008269E+02  0.46287029833E+03  0.48014079429E+03  0.00000000000E+00 0.  1.
<mgrwt>
<rscale>  0 0.14681755E+04</rscale>
<asrwt>0</asrwt>
<pdfrwt beam="1">  1        2 0.91761539E-01 0.14681755E+04</pdfrwt>
<pdfrwt beam="2">  1       -1 0.13899800E+00 0.14681755E+04</pdfrwt>
<totfact> 0.23616641E+01</totfact>
</mgrwt>
</event>
<event>
12    7  0.1740517E-007  0.1095755E+04  0.7818608E-02  0.9209339E-01
          2   -1    0    0  501    0  0.00000000000E+00  0.00000000000E+00  0.22720390052E+03  0.22720390052E+03  0.00000000000E+00 0. -1.
         -1   -1    0    0    0  501 -0.00000000000E+00 -0.00000000000E+00 -0.13211478768E+04  0.13211478768E+04  0.00000000000E+00 0.  1.
         24    2    1    2    0    0 -0.50642265429E+02 -0.31150418025E+02 -0.39590140528E+03  0.40822957748E+03  0.79865371933E+02 0.  0.
        254    2    1    2    0    0  0.50642265429E+02  0.31150418025E+02 -0.69804257100E+03  0.11401221998E+04  0.89948886156E+03 0.  0.
         23    2    4    4    0    0  0.24778665303E+03  0.29992699221E+03 -0.68528404870E+03  0.79410519126E+03  0.98154986194E+02 0.  0.
         23    2    4    4    0    0 -0.19714438760E+03 -0.26877657418E+03 -0.12758522296E+02  0.34601700858E+03  0.91968657406E+02 0.  0.
          2    1    3    3  502    0 -0.15905806350E+02  0.67200991690E+01 -0.12296927284E+02  0.21198321375E+02  0.00000000000E+00 0. -1.
         -1    1    3    3    0  502 -0.34736459078E+02 -0.37870517194E+02 -0.38360447800E+03  0.38703125610E+03  0.00000000000E+00 0.  1.
         13    1    5    5    0    0  0.12245490538E+02  0.36981995125E+02 -0.13342570361E+03  0.13899654092E+03  0.00000000000E+00 0.  1.
        -13    1    5    5    0    0  0.23554116249E+03  0.26294499708E+03 -0.55185834509E+03  0.65510865035E+03  0.00000000000E+00 0. -1.
          1    1    6    6  503    0 -0.19604247495E+03 -0.24991182481E+03  0.82803941838E+01  0.31773752862E+03  0.00000000000E+00 0. -1.
         -1    1    6    6    0  503 -0.11019126512E+01 -0.18864749368E+02 -0.21038916480E+02  0.28279479961E+02  0.00000000000E+00 0.  1.
<mgrwt>
<rscale>  0 0.10957554E+04</rscale>
<asrwt>0</asrwt>
<pdfrwt beam="1">  1        2 0.34954446E-01 0.10957554E+04</pdfrwt>
<pdfrwt beam="2">  1       -1 0.20325352E+00 0.10957554E+04</pdfrwt>
<totfact> 0.24426792E+01</totfact>
</mgrwt>
</event>
<event>
12    7  0.1740517E-007  0.1432811E+04  0.7818608E-02  0.8930405E-01
         -1   -1    0    0    0  501 -0.00000000000E+00  0.00000000000E+00  0.42609582786E+03  0.42609582786E+03  0.00000000000E+00 0.  1.
          2   -1    0    0  501    0  0.00000000000E+00 -0.00000000000E+00 -0.12045101384E+04  0.12045101384E+04  0.00000000000E+00 0. -1.
         24    2    1    2    0    0  0.41015252656E+03 -0.59834104709E+02 -0.35440613356E+03  0.55173193074E+03  0.83661226205E+02 0.  0.
        254    2    1    2    0    0 -0.41015252656E+03  0.59834104709E+02 -0.42400817700E+03  0.10788740355E+04  0.90132182668E+03 0.  0.
         23    2    4    4    0    0 -0.12640281155E+03  0.41012130300E+03 -0.43699550986E+03  0.61955246511E+03  0.93290017955E+02 0.  0.
         23    2    4    4    0    0 -0.28374971500E+03 -0.35028719829E+03  0.12987332857E+02  0.45932157041E+03  0.87135596528E+02 0.  0.
          4    1    3    3  502    0  0.25436943082E+03 -0.46422755758E+01 -0.24723641743E+03  0.35475513268E+03  0.00000000000E+00 0. -1.
         -3    1    3    3    0  502  0.15578309574E+03 -0.55191829133E+02 -0.10716971613E+03  0.19697679807E+03  0.00000000000E+00 0.  1.
         13    1    5    5    0    0 -0.10150882584E+03  0.21521105093E+03 -0.28407950612E+03  0.37056848755E+03  0.00000000000E+00 0. -1.
        -13    1    5    5    0    0 -0.24893985718E+02  0.19491025206E+03 -0.15291600374E+03  0.24898397757E+03  0.00000000000E+00 0.  1.
          3    1    6    6  503    0 -0.25474740189E+03 -0.32715751303E+03  0.35116086900E+02  0.41612668343E+03  0.00000000000E+00 0. -1.
         -3    1    6    6    0  503 -0.29002313110E+02 -0.23129685256E+02 -0.22128754043E+02  0.43194886981E+02  0.00000000000E+00 0.  1.
<mgrwt>
<rscale>  0 0.14328109E+04</rscale>
<asrwt>0</asrwt>
<pdfrwt beam="1">  1        2 0.18530925E+00 0.14328109E+04</pdfrwt>
<pdfrwt beam="2">  1       -1 0.65553204E-01 0.14328109E+04</pdfrwt>
<totfact> 0.49162409E+01</totfact>
</mgrwt>
</event>
<event>
12    7  0.1740517E-007  0.2307901E+04  0.7818608E-02  0.8474813E-01
          2   -1    0    0  501    0  0.00000000000E+00  0.00000000000E+00  0.49754405935E+04  0.49754405935E+04  0.00000000000E+00 0. -1.
         -1   -1    0    0    0  501 -0.00000000000E+00 -0.00000000000E+00 -0.26763482760E+03  0.26763482760E+03  0.00000000000E+00 0.  1.
         24    2    1    2    0    0 -0.90865889189E+03 -0.86094125918E+02  0.12322722904E+04  0.15355268960E+04  0.79212816763E+02 0.  0.
        254    2    1    2    0    0  0.90865889189E+03  0.86094125918E+02  0.34755334754E+04  0.37075485250E+04  0.91296765898E+03 0.  0.
         23    2    4    4    0    0  0.10064954915E+04  0.21091683510E+03  0.23432763150E+04  0.25604452210E+04  0.86120586702E+02 0.  0.
         23    2    4    4    0    0 -0.97836599579E+02 -0.12482270918E+03  0.11322571604E+04  0.11471033040E+04  0.93204098206E+02 0.  0.
          2    1    3    3  502    0 -0.70062703071E+03 -0.72735216573E+02  0.89366024889E+03  0.11378915978E+04  0.00000000000E+00 0. -1.
         -1    1    3    3    0  502 -0.20803186118E+03 -0.13358909346E+02  0.33861204153E+03  0.39763529822E+03  0.00000000000E+00 0.  1.
         13    1    5    5    0    0  0.28303187192E+03  0.72632143007E+02  0.57786507395E+03  0.64754190012E+03  0.00000000000E+00 0.  1.
        -13    1    5    5    0    0  0.72346361956E+03  0.13828469209E+03  0.17654112411E+04  0.19129033209E+04  0.00000000000E+00 0. -1.
          2    1    6    6  503    0 -0.88744602966E+02 -0.54526210651E+02  0.83706136645E+03  0.84351671199E+03  0.00000000000E+00 0. -1.
         -2    1    6    6    0  503 -0.90919966135E+01 -0.70296498530E+02  0.29519579396E+03  0.30358659206E+03  0.00000000000E+00 0.  1.
<mgrwt>
<rscale>  0 0.23079005E+04</rscale>
<asrwt>0</asrwt>
<pdfrwt beam="1">  1        2 0.76545233E+00 0.23079005E+04</pdfrwt>
<pdfrwt beam="2">  1       -1 0.41174593E-01 0.23079005E+04</pdfrwt>
<totfact> 0.22265547E-01</totfact>
</mgrwt>
</event>
<event>
12    7  0.1740517E-007  0.1390058E+04  0.7818608E-02  0.8961047E-01
          2   -1    0    0  501    0  0.00000000000E+00  0.00000000000E+00  0.19160695961E+04  0.19160695961E+04  0.00000000000E+00 0. -1.
         -1   -1    0    0    0  501 -0.00000000000E+00 -0.00000000000E+00 -0.25211265921E+03  0.25211265921E+03  0.00000000000E+00 0.  1.
         24    2    1    2    0    0 -0.60302802960E+02 -0.18756890008E+03 -0.48396652380E+02  0.21860615995E+03  0.81411896461E+02 0.  0.
        254    2    1    2    0    0  0.60302802960E+02  0.18756890008E+03  0.17123535893E+04  0.19495760954E+04  0.91097399337E+03 0.  0.
         23    2    4    4    0    0 -0.81094098870E+02  0.29977887117E+03  0.17169446161E+04  0.17472417005E+04  0.92255734272E+02 0.  0.
         23    2    4    4    0    0  0.14139690183E+03 -0.11220997109E+03 -0.45910268310E+01  0.20233439493E+03  0.91290571174E+02 0.  0.
          4    1    3    3  502    0 -0.14896850876E+01 -0.45787071098E+02 -0.46245817318E+02  0.65094935754E+02  0.00000000000E+00 0. -1.
         -3    1    3    3    0  502 -0.58813117873E+02 -0.14178182898E+03 -0.21508350620E+01  0.15351122420E+03  0.00000000000E+00 0.  1.
         13    1    5    5    0    0 -0.72250667602E+02  0.11673146487E+03  0.61252347790E+03  0.62771920859E+03  0.00000000000E+00 0.  1.
        -13    1    5    5    0    0 -0.88434312683E+01  0.18304740630E+03  0.11044211382E+04  0.11195224919E+04  0.00000000000E+00 0. -1.
          1    1    6    6  503    0  0.59213710793E+01  0.77547777035E+01 -0.18426198939E+02  0.20850036452E+02  0.00000000000E+00 0. -1.
         -1    1    6    6    0  503  0.13547553075E+03 -0.11996474879E+03  0.13835172108E+02  0.18148435848E+03  0.00000000000E+00 0.  1.
<mgrwt>
<rscale>  0 0.13900581E+04</rscale>
<asrwt>0</asrwt>
<pdfrwt beam="1">  1        2 0.29477993E+00 0.13900581E+04</pdfrwt>
<pdfrwt beam="2">  1       -1 0.38786564E-01 0.13900581E+04</pdfrwt>
<totfact> 0.53205768E+01</totfact>
</mgrwt>
</event>
<event>
12    7  0.1740517E-007  0.2368574E+04  0.7818608E-02  0.8451364E-01
          2   -1    0    0  501    0  0.00000000000E+00  0.00000000000E+00  0.23284641559E+04  0.23284641559E+04  0.00000000000E+00 0. -1.
         -1   -1    0    0    0  501 -0.00000000000E+00 -0.00000000000E+00 -0.60234372642E+03  0.60234372642E+03  0.00000000000E+00 0.  1.
         24    2    1    2    0    0 -0.33172297044E+03  0.76232650589E+03  0.14026562659E+04  0.16325345312E+04  0.80886120474E+02 0.  0.
        254    2    1    2    0    0  0.33172297044E+03 -0.76232650589E+03  0.32346416349E+03  0.12982733511E+04  0.94324058350E+03 0.  0.
         23    2    4    4    0    0  0.46607727829E+03 -0.54220557696E+03  0.57877697921E+03  0.92440630741E+03  0.91265067205E+02 0.  0.
         23    2    4    4    0    0 -0.13435430785E+03 -0.22012092893E+03 -0.25531281572E+03  0.37386704367E+03  0.89931246392E+02 0.  0.
          4    1    3    3  502    0 -0.28980139605E+03  0.69918248724E+03  0.12337868960E+04  0.14474360450E+04  0.00000000000E+00 0. -1.
         -3    1    3    3    0  502 -0.41921574393E+02  0.63144018651E+02  0.16886936997E+03  0.18509848623E+03  0.00000000000E+00 0.  1.
         13    1    5    5    0    0  0.32772577750E+03 -0.32025298992E+03  0.39202270827E+03  0.60303230974E+03  0.00000000000E+00 0. -1.
        -13    1    5    5    0    0  0.13835150079E+03 -0.22195258704E+03  0.18675427094E+03  0.32137399767E+03  0.00000000000E+00 0.  1.
          4    1    6    6  503    0 -0.14766632262E+03 -0.20799879320E+03 -0.23971486275E+03  0.35004579163E+03  0.00000000000E+00 0. -1.
         -4    1    6    6    0  503  0.13312014774E+02 -0.12122135729E+02 -0.15597952970E+02  0.23821252042E+02  0.00000000000E+00 0.  1.
<mgrwt>
<rscale>  0 0.23685741E+04</rscale>
<asrwt>0</asrwt>
<pdfrwt beam="1">  1        2 0.35822525E+00 0.23685741E+04</pdfrwt>
<pdfrwt beam="2">  1       -1 0.92668267E-01 0.23685741E+04</pdfrwt>
<totfact> 0.50709927E+00</totfact>
</mgrwt>
</event>
<event>
12    7  0.1740517E-007  0.3330672E+04  0.7818608E-02  0.8155134E-01
         -1   -1    0    0    0  501 -0.00000000000E+00  0.00000000000E+00  0.85109840739E+03  0.85109840739E+03  0.00000000000E+00 0.  1.
          2   -1    0    0  501    0  0.00000000000E+00 -0.00000000000E+00 -0.32585466129E+04  0.32585466129E+04  0.00000000000E+00 0. -1.
         24    2    1    2    0    0  0.14616616374E+03 -0.13971109338E+04 -0.33252304452E+03  0.14460035682E+04  0.84090638049E+02 0.  0.
        254    2    1    2    0    0 -0.14616616374E+03  0.13971109338E+04 -0.20749251609E+04  0.26636414520E+04  0.90354183768E+03 0.  0.
         23    2    4    4    0    0  0.14095837248E+03  0.26687756251E+03 -0.40902597044E+02  0.31730845395E+03  0.88987282042E+02 0.  0.
         23    2    4    4    0    0 -0.28712453622E+03  0.11302333713E+04 -0.20340225639E+04  0.23463329980E+04  0.90348073052E+02 0.  0.
          4    1    3    3  502    0  0.50794327919E+02 -0.22377613057E+03 -0.69649208911E+02  0.23980582283E+03  0.00000000000E+00 0. -1.
         -3    1    3    3    0  502  0.95371835824E+02 -0.11733348033E+04 -0.26287383561E+03  0.12061977454E+04  0.00000000000E+00 0.  1.
         13    1    5    5    0    0  0.20975575201E+02  0.82570910425E+01  0.14602149480E+02  0.26858463785E+02  0.00000000000E+00 0. -1.
        -13    1    5    5    0    0  0.11998279727E+03  0.25862047146E+03 -0.55504746524E+02  0.29044999017E+03  0.00000000000E+00 0.  1.
          3    1    6    6  503    0 -0.13084775908E+03  0.67548513317E+03 -0.11561242983E+04  0.13453715822E+04  0.00000000000E+00 0. -1.
         -3    1    6    6    0  503 -0.15627677714E+03  0.45474823815E+03 -0.87789826561E+03  0.10009614158E+04  0.00000000000E+00 0.  1.
<mgrwt>
<rscale>  0 0.33306719E+04</rscale>
<asrwt>0</asrwt>
<pdfrwt beam="1">  1        2 0.50131486E+00 0.33306719E+04</pdfrwt>
<pdfrwt beam="2">  1       -1 0.13093822E+00 0.33306719E+04</pdfrwt>
<totfact> 0.55850681E-01</totfact>
</mgrwt>
</event>
<event>
12    7  0.1740517E-007  0.3680448E+04  0.7818608E-02  0.8072309E-01
         -1   -1    0    0    0  501 -0.00000000000E+00  0.00000000000E+00  0.13058797920E+04  0.13058797920E+04  0.00000000000E+00 0.  1.
          2   -1    0    0  501    0  0.00000000000E+00 -0.00000000000E+00 -0.25932130222E+04  0.25932130222E+04  0.00000000000E+00 0. -1.
         24    2    1    2    0    0 -0.88553287527E+03 -0.12631801180E+04 -0.14328383138E+04  0.21068208673E+04  0.76655397903E+02 0.  0.
        254    2    1    2    0    0  0.88553287527E+03  0.12631801180E+04  0.14550508355E+03  0.17922719468E+04  0.90070778734E+03 0.  0.
         23    2    4    4    0    0  0.35980493349E+03  0.11562647550E+04  0.24571447564E+03  0.12390733423E+04  0.92300435420E+02 0.  0.
         23    2    4    4    0    0  0.52572794178E+03  0.10691536301E+03 -0.10020939209E+03  0.55319860444E+03  0.90365978485E+02 0.  0.
          4    1    3    3  502    0 -0.75827275926E+03 -0.10622445453E+04 -0.12455417568E+04  0.18040829580E+04  0.00000000000E+00 0. -1.
         -3    1    3    3    0  502 -0.12726011601E+03 -0.20093557268E+03 -0.18729655698E+03  0.30273790934E+03  0.00000000000E+00 0.  1.
         13    1    5    5    0    0  0.11365647024E+03  0.46376382715E+03  0.61853067680E+02  0.48147739571E+03  0.00000000000E+00 0.  1.
        -13    1    5    5    0    0  0.24614846325E+03  0.69250092783E+03  0.18386140796E+03  0.75759594662E+03  0.00000000000E+00 0. -1.
          4    1    6    6  503    0  0.58111373395E+02 -0.57043998232E+00 -0.37847858566E+02  0.69352126987E+02  0.00000000000E+00 0. -1.
         -4    1    6    6    0  503  0.46761656839E+03  0.10748580299E+03 -0.62361533527E+02  0.48384647745E+03  0.00000000000E+00 0.  1.
<mgrwt>
<rscale>  0 0.36804481E+04</rscale>
<asrwt>0</asrwt>
<pdfrwt beam="1">  1        2 0.39895584E+00 0.36804481E+04</pdfrwt>
<pdfrwt beam="2">  1       -1 0.20090459E+00 0.36804481E+04</pdfrwt>
<totfact> 0.41914697E-01</totfact>
</mgrwt>
</event>
<event>
12    7  0.1740517E-007  0.1175284E+04  0.7818608E-02  0.9134770E-01
         -3   -1    0    0    0  501 -0.00000000000E+00  0.00000000000E+00  0.34242924758E+03  0.34242924758E+03  0.00000000000E+00 0.  1.
          2   -1    0    0  501    0  0.00000000000E+00 -0.00000000000E+00 -0.10084503679E+04  0.10084503679E+04  0.00000000000E+00 0. -1.
         24    2    1    2    0    0  0.19498084923E+02 -0.10604924836E+03  0.99057818692E+02  0.16691489564E+03  0.80134340634E+02 0.  0.
        254    2    1    2    0    0 -0.19498084923E+02  0.10604924836E+03 -0.76507893904E+03  0.11839647199E+04  0.89710649118E+03 0.  0.
         23    2    4    4    0    0 -0.40443758767E+02 -0.22459141332E+03 -0.80291940992E+03  0.83963331273E+03  0.90705680326E+02 0.  0.
         23    2    4    4    0    0  0.20945673844E+02  0.33064066168E+03  0.37840470880E+02  0.34433140714E+03  0.85850150245E+02 0.  0.
          4    1    3    3  502    0  0.20556032889E+02 -0.42542116758E+02 -0.22956814331E+01  0.47303830073E+02  0.00000000000E+00 0. -1.
         -3    1    3    3    0  502 -0.10579479656E+01 -0.63507131601E+02  0.10135350013E+03  0.11961106557E+03  0.00000000000E+00 0.  1.
         13    1    5    5    0    0  0.13749185377E-01  0.51487352804E+01 -0.76583671863E+02  0.76756553206E+02  0.00000000000E+00 0.  1.
        -13    1    5    5    0    0 -0.40457507952E+02 -0.22974014860E+03 -0.72633573806E+03  0.76287675952E+03  0.00000000000E+00 0. -1.
          1    1    6    6  503    0 -0.31693077524E+02  0.16873890909E+03  0.11645777700E+02  0.17208397584E+03  0.00000000000E+00 0. -1.
         -1    1    6    6    0  503  0.52638751367E+02  0.16190175259E+03  0.26194693180E+02  0.17224743129E+03  0.00000000000E+00 0.  1.
<mgrwt>
<rscale>  0 0.11752836E+04</rscale>
<asrwt>0</asrwt>
<pdfrwt beam="1">  1        2 0.15514621E+00 0.11752836E+04</pdfrwt>
<pdfrwt beam="2">  1       -3 0.52681423E-01 0.11752836E+04</pdfrwt>
<totfact> 0.55819406E+01</totfact>
</mgrwt>
</event>
<event>
12    7  0.1740517E-007  0.2127244E+04  0.7818608E-02  0.8549336E-01
          2   -1    0    0  501    0  0.00000000000E+00  0.00000000000E+00  0.40517181518E+04  0.40517181518E+04  0.00000000000E+00 0. -1.
         -1   -1    0    0    0  501 -0.00000000000E+00 -0.00000000000E+00 -0.27921277327E+03  0.27921277327E+03  0.00000000000E+00 0.  1.
         24    2    1    2    0    0  0.23853637042E+03 -0.55572291188E+03  0.28191449549E+04  0.28843524911E+04  0.78634989399E+02 0.  0.
        254    2    1    2    0    0 -0.23853637042E+03  0.55572291188E+03  0.95336042364E+03  0.14465784339E+04  0.90441445885E+03 0.  0.
         23    2    4    4    0    0  0.12625397517E+02 -0.11632211435E+03 -0.92197394899E+02  0.17524270307E+03  0.92300652238E+02 0.  0.
         23    2    4    4    0    0 -0.25116176794E+03  0.67204502623E+03  0.10455578185E+04  0.12713357309E+04  0.91523973482E+02 0.  0.
          4    1    3    3  502    0  0.16132361956E+03 -0.43603039671E+03  0.22624346505E+04  0.23097095846E+04  0.00000000000E+00 0. -1.
         -3    1    3    3    0  502  0.77212750857E+02 -0.11969251517E+03  0.55671030435E+03  0.57464290655E+03  0.00000000000E+00 0.  1.
         13    1    5    5    0    0  0.33728692260E+02 -0.86109953038E+02 -0.10141983625E+03  0.13725353139E+03  0.00000000000E+00 0. -1.
        -13    1    5    5    0    0 -0.21103294743E+02 -0.30212161313E+02  0.92224413553E+01  0.37989171678E+02  0.00000000000E+00 0.  1.
          4    1    6    6  503    0 -0.20485719102E+03  0.44860936276E+03  0.75671437240E+03  0.90323500290E+03  0.00000000000E+00 0. -1.
         -4    1    6    6    0  503 -0.46304576924E+02  0.22343566347E+03  0.28884344614E+03  0.36810072797E+03  0.00000000000E+00 0.  1.
<mgrwt>
<rscale>  0 0.21272437E+04</rscale>
<asrwt>0</asrwt>
<pdfrwt beam="1">  1        2 0.62334121E+00 0.21272437E+04</pdfrwt>
<pdfrwt beam="2">  1       -1 0.42955814E-01 0.21272437E+04</pdfrwt>
<totfact> 0.17499382E+00</totfact>
</mgrwt>
</event>
<event>
12    7  0.1740517E-007  0.1937361E+04  0.7818608E-02  0.8636480E-01
         -3   -1    0    0    0  501 -0.00000000000E+00  0.00000000000E+00  0.19610221350E+04  0.19610221350E+04  0.00000000000E+00 0.  1.
          4   -1    0    0  501    0  0.00000000000E+00 -0.00000000000E+00 -0.47849651038E+03  0.47849651038E+03  0.00000000000E+00 0. -1.
         24    2    1    2    0    0  0.17997131113E+03  0.53038083568E+03  0.12097080270E+04  0.13353790623E+04  0.78423373687E+02 0.  0.
        254    2    1    2    0    0 -0.17997131113E+03 -0.53038083568E+03  0.27281759755E+03  0.11041395831E+04  0.91159271263E+03 0.  0.
         23    2    4    4    0    0 -0.23180103673E+03 -0.71194414114E+03 -0.66395117763E+01  0.75435138138E+03  0.91682837795E+02 0.  0.
         23    2    4    4    0    0  0.51829725600E+02  0.18156330546E+03  0.27945710932E+03  0.34978820171E+03  0.92757510528E+02 0.  0.
          4    1    3    3  502    0  0.54371614944E+02  0.17060583016E+03  0.47699519192E+03  0.50949684485E+03  0.00000000000E+00 0. -1.
         -3    1    3    3    0  502  0.12559969619E+03  0.35977500553E+03  0.73271283512E+03  0.82588221741E+03  0.00000000000E+00 0.  1.
         13    1    5    5    0    0  0.59565782995E+01 -0.29641809187E+02 -0.98660737491E+01  0.31803413152E+02  0.00000000000E+00 0.  1.
        -13    1    5    5    0    0 -0.23775761503E+03 -0.68230233195E+03  0.32265619728E+01  0.72254796823E+03  0.00000000000E+00 0. -1.
          4    1    6    6  503    0  0.65456705521E+02  0.17904631379E+03  0.27611753938E+03  0.33553398983E+03  0.00000000000E+00 0. -1.
         -4    1    6    6    0  503 -0.13626979921E+02  0.25169916690E+01  0.33395699409E+01  0.14254211876E+02  0.00000000000E+00 0.  1.
<mgrwt>
<rscale>  0 0.19373613E+04</rscale>
<asrwt>0</asrwt>
<pdfrwt beam="1">  1        4 0.73614849E-01 0.19373613E+04</pdfrwt>
<pdfrwt beam="2">  1       -3 0.30169571E+00 0.19373613E+04</pdfrwt>
<totfact> 0.13329954E-01</totfact>
</mgrwt>
</event>
<event>
12    7  0.1740517E-007  0.1298305E+04  0.7818608E-02  0.9030910E-01
          2   -1    0    0  501    0  0.00000000000E+00  0.00000000000E+00  0.98568542773E+03  0.98568542773E+03  0.00000000000E+00 0. -1.
         -1   -1    0    0    0  501 -0.00000000000E+00 -0.00000000000E+00 -0.42751900316E+03  0.42751900316E+03  0.00000000000E+00 0.  1.
         24    2    1    2    0    0  0.67252723011E+02 -0.13064814314E+03 -0.17548213453E+03  0.24311168557E+03  0.81960027239E+02 0.  0.
        254    2    1    2    0    0 -0.67252723011E+02  0.13064814314E+03  0.73364855910E+03  0.11700927453E+04  0.89960266691E+03 0.  0.
         23    2    4    4    0    0 -0.41321739222E+03  0.29328873521E+03  0.46732083775E+03  0.69542313618E+03  0.91965632195E+02 0.  0.
         23    2    4    4    0    0  0.34596466921E+03 -0.16264059207E+03  0.26632772135E+03  0.47466960914E+03  0.90759397014E+02 0.  0.
          2    1    3    3  502    0  0.14584095573E+02 -0.33054909070E+02 -0.72430505326E+00  0.36136511662E+02  0.00000000000E+00 0. -1.
         -3    1    3    3    0  502  0.52668627439E+02 -0.97593234069E+02 -0.17475782947E+03  0.20697517391E+03  0.00000000000E+00 0.  1.
         13    1    5    5    0    0 -0.23702100230E+03  0.17661137521E+03  0.33184482132E+03  0.44440017869E+03  0.00000000000E+00 0.  1.
        -13    1    5    5    0    0 -0.17619638993E+03  0.11667736000E+03  0.13547601643E+03  0.25102295749E+03  0.00000000000E+00 0. -1.
          1    1    6    6  503    0  0.94580695081E+02 -0.99301625031E+01  0.94279314934E+02  0.13391305102E+03  0.00000000000E+00 0. -1.
         -1    1    6    6    0  503  0.25138397413E+03 -0.15271042957E+03  0.17204840642E+03  0.34075655812E+03  0.00000000000E+00 0.  1.
<mgrwt>
<rscale>  0 0.12983054E+04</rscale>
<asrwt>0</asrwt>
<pdfrwt beam="1">  1        2 0.15164391E+00 0.12983054E+04</pdfrwt>
<pdfrwt beam="2">  1       -1 0.65772155E-01 0.12983054E+04</pdfrwt>
<totfact> 0.67432792E+01</totfact>
</mgrwt>
</event>
<event>
12    7  0.1740517E-007  0.1596111E+04  0.7818608E-02  0.8822941E-01
          2   -1    0    0  501    0  0.00000000000E+00  0.00000000000E+00  0.22678978529E+04  0.22678978529E+04  0.00000000000E+00 0. -1.
         -1   -1    0    0    0  501 -0.00000000000E+00 -0.00000000000E+00 -0.28082944008E+03  0.28082944008E+03  0.00000000000E+00 0.  1.
         24    2    1    2    0    0 -0.48839747843E+03  0.98513783850E+02  0.10220666160E+04  0.11403650384E+04  0.87035572594E+02 0.  0.
        254    2    1    2    0    0  0.48839747843E+03 -0.98513783850E+02  0.96500179689E+03  0.14083622546E+04  0.89667090369E+03 0.  0.
         23    2    4    4    0    0 -0.94939270455E+02  0.28432911633E+03  0.38818149023E+03  0.49856011523E+03  0.89558962006E+02 0.  0.
         23    2    4    4    0    0  0.58333674889E+03 -0.38284290018E+03  0.57682030666E+03  0.90980213933E+03  0.90375979826E+02 0.  0.
          4    1    3    3  502    0 -0.45268137976E+03  0.84766254940E+02  0.87994986679E+03  0.99318554038E+03  0.00000000000E+00 0. -1.
         -3    1    3    3    0  502 -0.35716098673E+02  0.13747528910E+02  0.14211674916E+03  0.14717949806E+03  0.00000000000E+00 0.  1.
         13    1    5    5    0    0 -0.93075087212E+02  0.14434704131E+03  0.19288777195E+03  0.25827259390E+03  0.00000000000E+00 0. -1.
        -13    1    5    5    0    0 -0.18641832433E+01  0.13998207502E+03  0.19529371828E+03  0.24028752133E+03  0.00000000000E+00 0.  1.
          2    1    6    6  503    0  0.35405021763E+03 -0.18150075148E+03  0.34457573961E+03  0.52633308819E+03  0.00000000000E+00 0. -1.
         -2    1    6    6    0  503  0.22928653126E+03 -0.20134214870E+03  0.23224456705E+03  0.38346905114E+03  0.00000000000E+00 0.  1.
<mgrwt>
<rscale>  0 0.15961109E+04</rscale>
<asrwt>0</asrwt>
<pdfrwt beam="1">  1        2 0.34890735E+00 0.15961109E+04</pdfrwt>
<pdfrwt beam="2">  1       -1 0.43204531E-01 0.15961109E+04</pdfrwt>
<totfact> 0.27315839E+01</totfact>
</mgrwt>
</event>
<event>
12    7  0.1740517E-007  0.1707408E+04  0.7818608E-02  0.8757151E-01
         -1   -1    0    0    0  501 -0.00000000000E+00  0.00000000000E+00  0.95533150846E+03  0.95533150846E+03  0.00000000000E+00 0.  1.
          2   -1    0    0  501    0  0.00000000000E+00 -0.00000000000E+00 -0.76288742500E+03  0.76288742500E+03  0.00000000000E+00 0. -1.
         24    2    1    2    0    0 -0.18608460881E+03  0.57550434130E+03  0.13027345863E+03  0.62414426694E+03  0.82171548862E+02 0.  0.
        254    2    1    2    0    0  0.18608460881E+03 -0.57550434130E+03  0.62170624831E+02  0.10940746665E+04  0.90956113639E+03 0.  0.
         23    2    4    4    0    0  0.27495045983E+03 -0.38838136397E+03 -0.36778413508E+03  0.60834995889E+03  0.91578726924E+02 0.  0.
         23    2    4    4    0    0 -0.88865851025E+02 -0.18712297733E+03  0.42995475991E+03  0.48572470763E+03  0.90306411227E+02 0.  0.
          2    1    3    3  502    0 -0.13627838969E+01 -0.18895165053E+01  0.44190379834E+01  0.49955329318E+01  0.00000000000E+00 0. -1.
         -1    1    3    3    0  502 -0.18472182491E+03  0.57739385781E+03  0.12585442064E+03  0.61914873401E+03  0.00000000000E+00 0.  1.
         13    1    5    5    0    0  0.15355425737E+02 -0.35532452252E+02 -0.65630320552E+02  0.76195034211E+02  0.00000000000E+00 0. -1.
        -13    1    5    5    0    0  0.25959503410E+03 -0.35284891172E+03 -0.30215381452E+03  0.53215492468E+03  0.00000000000E+00 0.  1.
          2    1    6    6  503    0 -0.56197025065E+02 -0.46542180772E+02  0.86426383769E+02  0.11310968141E+03  0.00000000000E+00 0. -1.
         -2    1    6    6    0  503 -0.32668825960E+02 -0.14058079656E+03  0.34352837614E+03  0.37261502622E+03  0.00000000000E+00 0.  1.
<mgrwt>
<rscale>  0 0.17074079E+04</rscale>
<asrwt>0</asrwt>
<pdfrwt beam="1">  1        2 0.11736730E+00 0.17074079E+04</pdfrwt>
<pdfrwt beam="2">  1       -1 0.14697408E+00 0.17074079E+04</pdfrwt>
<totfact> 0.14677471E+01</totfact>
</mgrwt>
</event>
<event>
12    7  0.1740517E-007  0.1705587E+04  0.7818608E-02  0.8758184E-01
          2   -1    0    0  501    0  0.00000000000E+00  0.00000000000E+00  0.34861285723E+04  0.34861285723E+04  0.00000000000E+00 0. -1.
         -1   -1    0    0    0  501 -0.00000000000E+00 -0.00000000000E+00 -0.20861450186E+03  0.20861450186E+03  0.00000000000E+00 0.  1.
         24    2    1    2    0    0  0.40132222608E+03 -0.20985282120E+03  0.20579666390E+04  0.21093286781E+04  0.94567696917E+02 0.  0.
        254    2    1    2    0    0 -0.40132222608E+03  0.20985282120E+03  0.12195474315E+04  0.15854143961E+04  0.90617058770E+03 0.  0.
         23    2    4    4    0    0  0.26335905415E+03 -0.47756391978E+02  0.23989050523E+03  0.37062924430E+03  0.90442898314E+02 0.  0.
         23    2    4    4    0    0 -0.66468128023E+03  0.25760921318E+03  0.97965692626E+03  0.12147851518E+04  0.88383035022E+02 0.  0.
          2    1    3    3  502    0  0.39677860741E+03 -0.18995487843E+03  0.19127061652E+04  0.19626413309E+04  0.00000000000E+00 0. -1.
         -1    1    3    3    0  502  0.45436186783E+01 -0.19897942770E+02  0.14526047372E+03  0.14668734718E+03  0.00000000000E+00 0.  1.
         13    1    5    5    0    0  0.45755970815E+02 -0.44323057114E+02  0.69106478632E+02  0.93988550611E+02  0.00000000000E+00 0.  1.
        -13    1    5    5    0    0  0.21760308333E+03 -0.34333348643E+01  0.17078402660E+03  0.27664069369E+03  0.00000000000E+00 0. -1.
          4    1    6    6  503    0 -0.39812225897E+03  0.12380035104E+03  0.62624445188E+03  0.75233634334E+03  0.00000000000E+00 0. -1.
         -4    1    6    6    0  503 -0.26655902126E+03  0.13380886214E+03  0.35341247438E+03  0.46244880847E+03  0.00000000000E+00 0.  1.
<mgrwt>
<rscale>  0 0.17055873E+04</rscale>
<asrwt>0</asrwt>
<pdfrwt beam="1">  1        2 0.53632743E+00 0.17055873E+04</pdfrwt>
<pdfrwt beam="2">  1       -1 0.32094541E-01 0.17055873E+04</pdfrwt>
<totfact> 0.82335127E+00</totfact>
</mgrwt>
</event>
<event>
12    7  0.1740517E-007  0.1646971E+04  0.7818608E-02  0.8792200E-01
         -1   -1    0    0    0  501 -0.00000000000E+00  0.00000000000E+00  0.46760255262E+03  0.46760255262E+03  0.00000000000E+00 0.  1.
          2   -1    0    0  501    0  0.00000000000E+00 -0.00000000000E+00 -0.14502243493E+04  0.14502243493E+04  0.00000000000E+00 0. -1.
         24    2    1    2    0    0 -0.28622438896E+03 -0.26946161943E+03  0.10770725474E+03  0.41527194830E+03  0.79473096956E+02 0.  0.
        254    2    1    2    0    0  0.28622438896E+03  0.26946161943E+03 -0.10903290514E+04  0.15025549536E+04  0.95620080688E+03 0.  0.
         23    2    4    4    0    0  0.61105164741E+03  0.11438085600E+03 -0.86171493793E+03  0.10664749175E+04  0.91372968059E+02 0.  0.
         23    2    4    4    0    0 -0.32482725845E+03  0.15508076344E+03 -0.22861411351E+03  0.43608003617E+03  0.91315902395E+02 0.  0.
          4    1    3    3  502    0 -0.17437974798E+03 -0.12807195272E+03  0.89278390909E+02  0.23405416608E+03  0.00000000000E+00 0. -1.
         -3    1    3    3    0  502 -0.11184464098E+03 -0.14138966671E+03  0.18428863833E+02  0.18121778222E+03  0.00000000000E+00 0.  1.
         13    1    5    5    0    0  0.16737764366E+03  0.52606697624E+02 -0.30560096994E+03  0.35238429741E+03  0.00000000000E+00 0. -1.
        -13    1    5    5    0    0  0.44367400375E+03  0.61774158374E+02 -0.55611396798E+03  0.71409062005E+03  0.00000000000E+00 0.  1.
          3    1    6    6  503    0 -0.35001626532E+02 -0.10460891547E+02 -0.32885816858E+02  0.49153037162E+02  0.00000000000E+00 0. -1.
         -3    1    6    6    0  503 -0.28982563192E+03  0.16554165498E+03 -0.19572829665E+03  0.38692699901E+03  0.00000000000E+00 0.  1.
<mgrwt>
<rscale>  0 0.16469713E+04</rscale>
<asrwt>0</asrwt>
<pdfrwt beam="1">  1        2 0.22311144E+00 0.16469713E+04</pdfrwt>
<pdfrwt beam="2">  1       -1 0.71938855E-01 0.16469713E+04</pdfrwt>
<totfact> 0.28763657E+01</totfact>
</mgrwt>
</event>
<event>
12    7  0.1740517E-007  0.3496294E+04  0.7818608E-02  0.8114669E-01
          2   -1    0    0  501    0  0.00000000000E+00  0.00000000000E+00  0.32239066368E+04  0.32239066368E+04  0.00000000000E+00 0. -1.
         -1   -1    0    0    0  501 -0.00000000000E+00 -0.00000000000E+00 -0.94792393153E+03  0.94792393153E+03  0.00000000000E+00 0.  1.
         24    2    1    2    0    0 -0.52743953034E+03 -0.15278835612E+04  0.86332044379E+03  0.18345043553E+04  0.86391007909E+02 0.  0.
        254    2    1    2    0    0  0.52743953034E+03  0.15278835612E+04  0.14126622615E+04  0.23373262131E+04  0.92458559724E+03 0.  0.
         23    2    4    4    0    0 -0.21162227859E+02  0.74953600856E+03  0.17877069197E+03  0.77633525683E+03  0.92116245441E+02 0.  0.
         23    2    4    4    0    0  0.54860175820E+03  0.77834755260E+03  0.12338915695E+04  0.15609909562E+04  0.86113636439E+02 0.  0.
          2    1    3    3  502    0  0.88043956199E+00 -0.37832311895E+01 -0.15741073906E+01  0.41911604757E+01  0.00000000000E+00 0. -1.
         -1    1    3    3    0  502 -0.52831996990E+03 -0.15241003300E+04  0.86489455118E+03  0.18303131948E+04  0.00000000000E+00 0.  1.
         13    1    5    5    0    0  0.88881766619E+01  0.47244761826E+03  0.72555188183E+02  0.47806904001E+03  0.00000000000E+00 0.  1.
        -13    1    5    5    0    0 -0.30050404521E+02  0.27708839030E+03  0.10621550379E+03  0.29826621682E+03  0.00000000000E+00 0. -1.
          1    1    6    6  503    0  0.57429155827E+02  0.48958489428E+02  0.76734303858E+02  0.10762525268E+03  0.00000000000E+00 0. -1.
         -1    1    6    6    0  503  0.49117260237E+03  0.72938906317E+03  0.11571572657E+04  0.14533657036E+04  0.00000000000E+00 0.  1.
<mgrwt>
<rscale>  0 0.34962942E+04</rscale>
<asrwt>0</asrwt>
<pdfrwt beam="1">  1        2 0.49598563E+00 0.34962942E+04</pdfrwt>
<pdfrwt beam="2">  1       -1 0.14583445E+00 0.34962942E+04</pdfrwt>
<totfact> 0.43878123E-01</totfact>
</mgrwt>
</event>
<event>
12    7  0.1740517E-007  0.1581018E+04  0.7818608E-02  0.8832295E-01
          2   -1    0    0  501    0  0.00000000000E+00  0.00000000000E+00  0.65932690138E+03  0.65932690138E+03  0.00000000000E+00 0. -1.
         -1   -1    0    0    0  501 -0.00000000000E+00 -0.00000000000E+00 -0.94779207361E+03  0.94779207361E+03  0.00000000000E+00 0.  1.
         24    2    1    2    0    0  0.13226862670E+03 -0.49502891632E+03  0.43533520758E+02  0.51960525689E+03  0.74470383080E+02 0.  0.
        254    2    1    2    0    0 -0.13226862670E+03  0.49502891632E+03 -0.33199869299E+03  0.10875137181E+04  0.89995240835E+03 0.  0.
         23    2    4    4    0    0 -0.26426642768E+03  0.54920479075E+03 -0.53972900117E+03  0.81862606179E+03  0.85898704074E+02 0.  0.
         23    2    4    4    0    0  0.13199780098E+03 -0.54175874427E+02  0.20773030818E+03  0.26888765630E+03  0.93756311474E+02 0.  0.
          4    1    3    3  502    0  0.13182837383E+03 -0.39162898128E+03  0.48664416392E+02  0.41607716177E+03  0.00000000000E+00 0. -1.
         -3    1    3    3    0  502  0.44025287139E+00 -0.10339993504E+03 -0.51308956344E+01  0.10352809512E+03  0.00000000000E+00 0.  1.
         13    1    5    5    0    0 -0.11882985540E+03  0.25118599563E+03 -0.30338670578E+03  0.41141029664E+03  0.00000000000E+00 0.  1.
        -13    1    5    5    0    0 -0.14543657228E+03  0.29801879512E+03 -0.23634229538E+03  0.40721576515E+03  0.00000000000E+00 0. -1.
          4    1    6    6  503    0  0.45362185427E+02 -0.27409837239E+01  0.93625233331E+01  0.46399328677E+02  0.00000000000E+00 0. -1.
         -4    1    6    6    0  503  0.86635615550E+02 -0.51434890703E+02  0.19836778485E+03  0.22248832763E+03  0.00000000000E+00 0.  1.
<mgrwt>
<rscale>  0 0.15810184E+04</rscale>
<asrwt>0</asrwt>
<pdfrwt beam="1">  1        2 0.10143491E+00 0.15810184E+04</pdfrwt>
<pdfrwt beam="2">  1       -1 0.14581416E+00 0.15810184E+04</pdfrwt>
<totfact> 0.18242272E+01</totfact>
</mgrwt>
</event>
<event>
12    7  0.1740517E-007  0.1343467E+04  0.7818608E-02  0.8995788E-01
          2   -1    0    0  501    0  0.00000000000E+00  0.00000000000E+00  0.12310859608E+04  0.12310859608E+04  0.00000000000E+00 0. -1.
         -1   -1    0    0    0  501 -0.00000000000E+00 -0.00000000000E+00 -0.36652665501E+03  0.36652665501E+03  0.00000000000E+00 0.  1.
         24    2    1    2    0    0  0.32976982052E+03 -0.13316333716E+03  0.34337382021E+03  0.50106733597E+03  0.81745249934E+02 0.  0.
        254    2    1    2    0    0 -0.32976982052E+03  0.13316333716E+03  0.52118548557E+03  0.10965452798E+04  0.89682586463E+03 0.  0.
         23    2    4    4    0    0 -0.33782060610E+03  0.29070970300E+03  0.70420105998E+03  0.83858720233E+03  0.93244140332E+02 0.  0.
         23    2    4    4    0    0  0.80507855815E+01 -0.15754636584E+03 -0.18301557442E+03  0.25795807750E+03  0.90343769745E+02 0.  0.
          4    1    3    3  502    0  0.29882789049E+03 -0.96255209643E+02  0.31701712026E+03  0.44616479921E+03  0.00000000000E+00 0. -1.
         -3    1    3    3    0  502  0.30941930028E+02 -0.36908127514E+02  0.26356699945E+02  0.54902536758E+02  0.00000000000E+00 0.  1.
         13    1    5    5    0    0 -0.27194516749E+03  0.23983333327E+03  0.63091708920E+03  0.72768851531E+03  0.00000000000E+00 0. -1.
        -13    1    5    5    0    0 -0.65875438611E+02  0.50876369733E+02  0.73283970781E+02  0.11089868702E+03  0.00000000000E+00 0.  1.
          4    1    6    6  503    0  0.10453742408E+02 -0.97081933817E+02 -0.17002374372E+03  0.19606696824E+03  0.00000000000E+00 0. -1.
         -4    1    6    6    0  503 -0.24029568267E+01 -0.60464432024E+02 -0.12991830694E+02  0.61891109267E+02  0.00000000000E+00 0.  1.
<mgrwt>
<rscale>  0 0.13434669E+04</rscale>
<asrwt>0</asrwt>
<pdfrwt beam="1">  1        2 0.18939784E+00 0.13434669E+04</pdfrwt>
<pdfrwt beam="2">  1       -1 0.56388717E-01 0.13434669E+04</pdfrwt>
<totfact> 0.64348576E+01</totfact>
</mgrwt>
</event>
<event>
12    7  0.1740517E-007  0.1285513E+04  0.7818608E-02  0.9041133E-01
          2   -1    0    0  501    0  0.00000000000E+00  0.00000000000E+00  0.42937035810E+04  0.42937035810E+04  0.00000000000E+00 0. -1.
         -1   -1    0    0    0  501 -0.00000000000E+00 -0.00000000000E+00 -0.96218970328E+02  0.96218970328E+02  0.00000000000E+00 0.  1.
         24    2    1    2    0    0 -0.16561497997E+03  0.27383707223E+03  0.93504310620E+03  0.99161045374E+03  0.81059347444E+02 0.  0.
        254    2    1    2    0    0  0.16561497997E+03 -0.27383707223E+03  0.32624415044E+04  0.33983120976E+04  0.89587135168E+03 0.  0.
         23    2    4    4    0    0  0.34118916237E+03 -0.48177371372E+03  0.27190142913E+04  0.27838449233E+04  0.90762796342E+02 0.  0.
         23    2    4    4    0    0 -0.17557418240E+03  0.20793664150E+03  0.54342721316E+03  0.61446717423E+03  0.90514262933E+02 0.  0.
          4    1    3    3  502    0 -0.50917270237E+00 -0.53682249744E+01  0.10265527299E+02  0.11595608951E+02  0.00000000000E+00 0. -1.
         -3    1    3    3    0  502 -0.16510580727E+03  0.27920529720E+03  0.92477757890E+03  0.98001484479E+03  0.00000000000E+00 0.  1.
         13    1    5    5    0    0 -0.55237306744E+01 -0.83939680976E+01  0.33471346468E+02  0.34947121990E+02  0.00000000000E+00 0.  1.
        -13    1    5    5    0    0  0.34671289304E+03 -0.47337974563E+03  0.26855429448E+04  0.27488978013E+04  0.00000000000E+00 0. -1.
          1    1    6    6  503    0 -0.15424076478E+03  0.18145269027E+03  0.38715499494E+03  0.45453743788E+03  0.00000000000E+00 0. -1.
         -1    1    6    6    0  503 -0.21333417614E+02  0.26483951229E+02  0.15627221823E+03  0.15992973635E+03  0.00000000000E+00 0.  1.
<mgrwt>
<rscale>  0 0.12855127E+04</rscale>
<asrwt>0</asrwt>
<pdfrwt beam="1">  1        2 0.66056963E+00 0.12855127E+04</pdfrwt>
<pdfrwt beam="2">  1       -1 0.14802922E-01 0.12855127E+04</pdfrwt>
<totfact> 0.75383504E+00</totfact>
</mgrwt>
</event>
<event>
12    7  0.1740517E-007  0.1653922E+04  0.7818608E-02  0.8788090E-01
          2   -1    0    0  501    0  0.00000000000E+00  0.00000000000E+00  0.19824217516E+04  0.19824217516E+04  0.00000000000E+00 0. -1.
         -1   -1    0    0    0  501 -0.00000000000E+00 -0.00000000000E+00 -0.34496426277E+03  0.34496426277E+03  0.00000000000E+00 0.  1.
         24    2    1    2    0    0  0.39048762501E+03 -0.39658593243E+03  0.36679098239E+03  0.67134844933E+03  0.80075767687E+02 0.  0.
        254    2    1    2    0    0 -0.39048762501E+03  0.39658593243E+03  0.12706665064E+04  0.16560375650E+04  0.90449215538E+03 0.  0.
         23    2    4    4    0    0  0.19265717414E+03  0.15704920634E+03  0.35928501627E+02  0.26667775852E+03  0.89693532120E+02 0.  0.
         23    2    4    4    0    0 -0.58314479914E+03  0.23953672610E+03  0.12347380048E+04  0.13893598065E+04  0.91142918100E+02 0.  0.
          2    1    3    3  502    0  0.22378018915E+03 -0.18710636003E+03  0.22506859657E+03  0.36843213240E+03  0.00000000000E+00 0. -1.
         -1    1    3    3    0  502  0.16670743586E+03 -0.20947957240E+03  0.14172238582E+03  0.30291631693E+03  0.00000000000E+00 0.  1.
         13    1    5    5    0    0  0.22227667117E+02  0.29747454353E+02 -0.25752912124E+02  0.45190626338E+02  0.00000000000E+00 0. -1.
        -13    1    5    5    0    0  0.17042950702E+03  0.12730175198E+03  0.61681413751E+02  0.22148713219E+03  0.00000000000E+00 0.  1.
          2    1    6    6  503    0 -0.53881745352E+03  0.19982462767E+03  0.11526684839E+04  0.12879824392E+04  0.00000000000E+00 0.  1.
         -2    1    6    6    0  503 -0.44327345629E+02  0.39712098425E+02  0.82069520927E+02  0.10137736728E+03  0.00000000000E+00 0. -1.
<mgrwt>
<rscale>  0 0.16539222E+04</rscale>
<asrwt>0</asrwt>
<pdfrwt beam="1">  1        2 0.30498795E+00 0.16539222E+04</pdfrwt>
<pdfrwt beam="2">  1       -1 0.53071426E-01 0.16539222E+04</pdfrwt>
<totfact> 0.26614237E+01</totfact>
</mgrwt>
</event>
<event>
12    7  0.1740517E-007  0.2209462E+04  0.7818608E-02  0.8514500E-01
          2   -1    0    0  501    0  0.00000000000E+00  0.00000000000E+00  0.60011889455E+03  0.60011889455E+03  0.00000000000E+00 0. -1.
         -1   -1    0    0    0  501 -0.00000000000E+00 -0.00000000000E+00 -0.20336473195E+04  0.20336473195E+04  0.00000000000E+00 0.  1.
         24    2    1    2    0    0  0.53467724779E+03  0.63484291612E+03 -0.12345291362E+03  0.84295691172E+03  0.80190059780E+02 0.  0.
        254    2    1    2    0    0 -0.53467724779E+03 -0.63484291612E+03 -0.13100755113E+04  0.17908093023E+04  0.89542996624E+03 0.  0.
         23    2    4    4    0    0 -0.74424164174E+02  0.13073247926E+03 -0.65804340853E+03  0.68086273382E+03  0.89011220899E+02 0.  0.
         23    2    4    4    0    0 -0.46025308362E+03 -0.76557539538E+03 -0.65203210278E+03  0.11099465685E+04  0.94323564694E+02 0.  0.
          2    1    3    3  502    0  0.50047586994E+03  0.60090567802E+03 -0.13454489421E+03  0.79351500227E+03  0.00000000000E+00 0. -1.
         -1    1    3    3    0  502  0.34201377849E+02  0.33937238097E+02  0.11091980596E+02  0.49441909449E+02  0.00000000000E+00 0.  1.
         13    1    5    5    0    0 -0.94917050020E+02  0.11229160421E+03 -0.56530978568E+03  0.58411797143E+03  0.00000000000E+00 0.  1.
        -13    1    5    5    0    0  0.20492885846E+02  0.18440875048E+02 -0.92733622851E+02  0.96744762390E+02  0.00000000000E+00 0. -1.
          1    1    6    6  503    0 -0.19693761039E+03 -0.24054388880E+03 -0.22581159021E+03  0.38423516119E+03  0.00000000000E+00 0. -1.
         -1    1    6    6    0  503 -0.26331547323E+03 -0.52503150658E+03 -0.42622051257E+03  0.72571140730E+03  0.00000000000E+00 0.  1.
<mgrwt>
<rscale>  0 0.22094616E+04</rscale>
<asrwt>0</asrwt>
<pdfrwt beam="1">  1        2 0.92325984E-01 0.22094616E+04</pdfrwt>
<pdfrwt beam="2">  1       -1 0.31286882E+00 0.22094616E+04</pdfrwt>
<totfact> 0.14089403E+00</totfact>
</mgrwt>
</event>
<event>
12    7  0.1740517E-007  0.3590396E+04  0.7818608E-02  0.8092695E-01
          2   -1    0    0  501    0  0.00000000000E+00  0.00000000000E+00  0.26719338181E+04  0.26719338181E+04  0.00000000000E+00 0. -1.
         -1   -1    0    0    0  501 -0.00000000000E+00 -0.00000000000E+00 -0.12061433630E+04  0.12061433630E+04  0.00000000000E+00 0.  1.
         24    2    1    2    0    0  0.80246181339E+03  0.14766831885E+04  0.61405493351E+03  0.17909690327E+04  0.77255508280E+02 0.  0.
        254    2    1    2    0    0 -0.80246181339E+03 -0.14766831885E+04  0.85173552166E+03  0.20871081485E+04  0.89779108006E+03 0.  0.
         23    2    4    4    0    0 -0.60382665942E+03 -0.14444177971E+04  0.96316888505E+03  0.18405136298E+04  0.94056968268E+02 0.  0.
         23    2    4    4    0    0 -0.19863515397E+03 -0.32265391370E+02 -0.11143336340E+03  0.24659451862E+03  0.88850899044E+02 0.  0.
          2    1    3    3  502    0  0.47900869384E+03  0.84221119698E+03  0.38924518513E+03  0.10441651417E+04  0.00000000000E+00 0. -1.
         -1    1    3    3    0  502  0.32345311955E+03  0.63447199149E+03  0.22480974837E+03  0.74680389092E+03  0.00000000000E+00 0.  1.
         13    1    5    5    0    0 -0.58077776907E+03 -0.14212723798E+04  0.94849029768E+03  0.18047027011E+04  0.00000000000E+00 0. -1.
        -13    1    5    5    0    0 -0.23048890355E+02 -0.23145417291E+02  0.14678587374E+02  0.35810928716E+02  0.00000000000E+00 0.  1.
          1    1    6    6  503    0 -0.15419128664E+03  0.97336779435E+01 -0.10094582873E+03  0.18455285882E+03  0.00000000000E+00 0. -1.
         -1    1    6    6    0  503 -0.44443867335E+02 -0.41999069313E+02 -0.10487534663E+02  0.62041659795E+02  0.00000000000E+00 0.  1.
<mgrwt>
<rscale>  0 0.35903957E+04</rscale>
<asrwt>0</asrwt>
<pdfrwt beam="1">  1        2 0.41106674E+00 0.35903957E+04</pdfrwt>
<pdfrwt beam="2">  1       -1 0.18556052E+00 0.35903957E+04</pdfrwt>
<totfact> 0.48556797E-01</totfact>
</mgrwt>
</event>
<event>
12    7  0.2461095E-007  0.1676782E+04  0.7818608E-02  0.8774718E-01
          2   -1    0    0  501    0  0.00000000000E+00  0.00000000000E+00  0.18187358032E+04  0.18187358032E+04  0.00000000000E+00 0. -1.
         -1   -1    0    0    0  501 -0.00000000000E+00 -0.00000000000E+00 -0.38647716469E+03  0.38647716469E+03  0.00000000000E+00 0.  1.
         24    2    1    2    0    0 -0.28350228087E+03  0.44047307503E+03  0.88883134918E+03  0.10350040988E+04  0.82596876883E+02 0.  0.
        254    2    1    2    0    0  0.28350228087E+03 -0.44047307503E+03  0.54342728931E+03  0.11702088691E+04  0.89425136596E+03 0.  0.
         23    2    4    4    0    0 -0.14359202355E+03  0.15071466922E+03 -0.40843752952E+02  0.23125861112E+03  0.92080140720E+02 0.  0.
         23    2    4    4    0    0  0.42709430442E+03 -0.59118774425E+03  0.58427104227E+03  0.93895025800E+03  0.91336971479E+02 0.  0.
          2    1    3    3  502    0 -0.25528655415E+03  0.39353305246E+03  0.73721708686E+03  0.87380119093E+03  0.00000000000E+00 0. -1.
         -1    1    3    3    0  502 -0.28215726722E+02  0.46940022564E+02  0.15161426232E+03  0.16120290783E+03  0.00000000000E+00 0.  1.
         13    1    5    5    0    0 -0.18806630461E+01 -0.60919058737E+01 -0.17493265331E+02  0.18618875976E+02  0.00000000000E+00 0.  1.
        -13    1    5    5    0    0 -0.14171136050E+03  0.15680657510E+03 -0.23350487621E+02  0.21263973514E+03  0.00000000000E+00 0. -1.
          2    1    6    6  503    0  0.32535123198E+03 -0.46813119862E+03  0.40756828692E+03  0.70079394388E+03  0.00000000000E+00 0. -1.
         -2    1    6    6    0  503  0.10174307243E+03 -0.12305654563E+03  0.17670275535E+03  0.23815631412E+03  0.00000000000E+00 0.  1.
<mgrwt>
<rscale>  0 0.16767825E+04</rscale>
<asrwt>0</asrwt>
<pdfrwt beam="1">  1        2 0.27980550E+00 0.16767825E+04</pdfrwt>
<pdfrwt beam="2">  1       -1 0.59458026E-01 0.16767825E+04</pdfrwt>
<totfact> 0.26231901E+01</totfact>
</mgrwt>
</event>
<event>
12    7  0.1740517E-007  0.2428861E+04  0.7818608E-02  0.8428777E-01
         -1   -1    0    0    0  501 -0.00000000000E+00  0.00000000000E+00  0.20104841099E+04  0.20104841099E+04  0.00000000000E+00 0.  1.
          2   -1    0    0  501    0  0.00000000000E+00 -0.00000000000E+00 -0.73357501402E+03  0.73357501402E+03  0.00000000000E+00 0. -1.
         24    2    1    2    0    0  0.30135362476E+02 -0.28326652379E+03  0.16797417878E+04  0.17054417479E+04  0.76491949806E+02 0.  0.
        254    2    1    2    0    0 -0.30135362476E+02  0.28326652379E+03 -0.40283269195E+03  0.10386173759E+04  0.91394956772E+03 0.  0.
         23    2    4    4    0    0 -0.11708100170E+03 -0.10763923836E+03  0.22366940813E+03  0.28937359290E+03  0.91732794252E+02 0.  0.
         23    2    4    4    0    0  0.86945639221E+02  0.39090576216E+03 -0.62650210009E+03  0.74924378304E+03  0.92165644096E+02 0.  0.
          2    1    3    3  502    0 -0.11915791788E+02 -0.94916152404E+01  0.48045593191E+02  0.50402935221E+02  0.00000000000E+00 0. -1.
         -1    1    3    3    0  502  0.42051154264E+02 -0.27377490855E+03  0.16316961946E+04  0.16550388127E+04  0.00000000000E+00 0.  1.
         13    1    5    5    0    0 -0.55435040474E+00 -0.55114944578E+02  0.56412282160E+02  0.78868941915E+02  0.00000000000E+00 0.  1.
        -13    1    5    5    0    0 -0.11652665129E+03 -0.52524293786E+02  0.16725712597E+03  0.21050465099E+03  0.00000000000E+00 0. -1.
          1    1    6    6  503    0  0.71666437344E+02  0.38347157447E+03 -0.57366788753E+03  0.69374445716E+03  0.00000000000E+00 0. -1.
         -1    1    6    6    0  503  0.15279201877E+02  0.74341876923E+01 -0.52834212557E+02  0.55499325880E+02  0.00000000000E+00 0.  1.
<mgrwt>
<rscale>  0 0.24288606E+04</rscale>
<asrwt>0</asrwt>
<pdfrwt beam="1">  1        2 0.11285770E+00 0.24288606E+04</pdfrwt>
<pdfrwt beam="2">  1       -1 0.30930524E+00 0.24288606E+04</pdfrwt>
<totfact> 0.11350755E+00</totfact>
</mgrwt>
</event>
<event>
12    7  0.1740517E-007  0.2084258E+04  0.7818608E-02  0.8568210E-01
         -1   -1    0    0    0  501 -0.00000000000E+00  0.00000000000E+00  0.58259700478E+03  0.58259700478E+03  0.00000000000E+00 0.  1.
          2   -1    0    0  501    0  0.00000000000E+00 -0.00000000000E+00 -0.18641231844E+04  0.18641231844E+04  0.00000000000E+00 0. -1.
         24    2    1    2    0    0 -0.33664120727E+03  0.38147507068E+03  0.27155560835E+03  0.58220255585E+03  0.79792453533E+02 0.  0.
        254    2    1    2    0    0  0.33664120727E+03 -0.38147507068E+03 -0.15530817879E+04  0.18645176333E+04  0.89750344448E+03 0.  0.
         23    2    4    4    0    0  0.84189099931E+02 -0.45945745966E+03 -0.26163194778E+03  0.54314907482E+03  0.91491418128E+02 0.  0.
         23    2    4    4    0    0  0.25245210734E+03  0.77982388989E+02 -0.12914498402E+04  0.13213685585E+04  0.91426791372E+02 0.  0.
          4    1    3    3  502    0 -0.13362265527E+02  0.89419763457E+01  0.27562285298E+02  0.31909068489E+02  0.00000000000E+00 0. -1.
         -3    1    3    3    0  502 -0.32327894174E+03  0.37253309433E+03  0.24399332305E+03  0.55029348736E+03  0.00000000000E+00 0.  1.
         13    1    5    5    0    0 -0.14833125560E+02 -0.15666591943E+03 -0.90000230351E+02  0.18128506113E+03  0.00000000000E+00 0.  1.
        -13    1    5    5    0    0  0.99022225491E+02 -0.30279154023E+03 -0.17163171743E+03  0.36186401369E+03  0.00000000000E+00 0. -1.
          2    1    6    6  503    0  0.47080484102E+02 -0.20655871334E+02 -0.26440674222E+03  0.26935879851E+03  0.00000000000E+00 0.  1.
         -2    1    6    6    0  503  0.20537162323E+03  0.98638260322E+02 -0.10270430979E+04  0.10520097600E+04  0.00000000000E+00 0. -1.
<mgrwt>
<rscale>  0 0.20842577E+04</rscale>
<asrwt>0</asrwt>
<pdfrwt beam="1">  1        2 0.28678818E+00 0.20842577E+04</pdfrwt>
<pdfrwt beam="2">  1       -1 0.89630310E-01 0.20842577E+04</pdfrwt>
<totfact> 0.10180563E+01</totfact>
</mgrwt>
</event>
<event>
12    7  0.1740517E-007  0.1941163E+04  0.7818608E-02  0.8634634E-01
         -1   -1    0    0    0  501 -0.00000000000E+00  0.00000000000E+00  0.71065873885E+03  0.71065873885E+03  0.00000000000E+00 0.  1.
          2   -1    0    0  501    0  0.00000000000E+00 -0.00000000000E+00 -0.13255713728E+04  0.13255713728E+04  0.00000000000E+00 0. -1.
         24    2    1    2    0    0 -0.17533135470E+02  0.12039164653E+03  0.54665354051E+03  0.56570441740E+03  0.79936444273E+02 0.  0.
        254    2    1    2    0    0  0.17533135470E+02 -0.12039164653E+03 -0.11615661745E+04  0.14705256942E+04  0.89353694963E+03 0.  0.
         23    2    4    4    0    0 -0.25378582003E+03 -0.40541665519E+03 -0.51560341066E+03  0.70878425348E+03  0.88081406312E+02 0.  0.
         23    2    4    4    0    0  0.27131895550E+03  0.28502500866E+03 -0.64596276379E+03  0.76174144075E+03  0.90160408000E+02 0.  0.
          2    1    3    3  502    0  0.24153926879E+02  0.78848458139E+02  0.24937891513E+03  0.26266011279E+03  0.00000000000E+00 0. -1.
         -3    1    3    3    0  502 -0.41687062349E+02  0.41543188392E+02  0.29727462538E+03  0.30304430462E+03  0.00000000000E+00 0.  1.
         13    1    5    5    0    0 -0.22304921577E+03 -0.38506648829E+03 -0.44607008400E+03  0.63008386180E+03  0.00000000000E+00 0. -1.
        -13    1    5    5    0    0 -0.30736604264E+02 -0.20350166907E+02 -0.69533326654E+02  0.78700391679E+02  0.00000000000E+00 0.  1.
          4    1    6    6  503    0  0.15310068730E+03  0.20916585786E+03 -0.46837523305E+03  0.53531816285E+03  0.00000000000E+00 0. -1.
         -4    1    6    6    0  503  0.11821826821E+03  0.75859150806E+02 -0.17758753074E+03  0.22642327789E+03  0.00000000000E+00 0.  1.
<mgrwt>
<rscale>  0 0.19411634E+04</rscale>
<asrwt>0</asrwt>
<pdfrwt beam="1">  1        2 0.20393405E+00 0.19411634E+04</pdfrwt>
<pdfrwt beam="2">  1       -1 0.10933212E+00 0.19411634E+04</pdfrwt>
<totfact> 0.13160795E+01</totfact>
</mgrwt>
</event>
<event>
12    7  0.1740517E-007  0.1762991E+04  0.7818608E-02  0.8726232E-01
          2   -1    0    0  501    0  0.00000000000E+00  0.00000000000E+00  0.27782791363E+04  0.27782791363E+04  0.00000000000E+00 0. -1.
         -1   -1    0    0    0  501 -0.00000000000E+00 -0.00000000000E+00 -0.27968176687E+03  0.27968176687E+03  0.00000000000E+00 0.  1.
         24    2    1    2    0    0  0.56335629133E+03 -0.16203052792E+03  0.14312071407E+04  0.15486846923E+04  0.80288190902E+02 0.  0.
        254    2    1    2    0    0 -0.56335629133E+03  0.16203052792E+03  0.10673902287E+04  0.15092762109E+04  0.89161010388E+03 0.  0.
         23    2    4    4    0    0 -0.35868879425E+03 -0.32725211948E+03  0.70314510493E+03  0.85933709633E+03  0.91080215776E+02 0.  0.
         23    2    4    4    0    0 -0.20466749708E+03  0.48928264740E+03  0.36424512379E+03  0.64993911454E+03  0.91978524633E+02 0.  0.
          2    1    3    3  502    0  0.55555988907E+03 -0.14851939653E+03  0.13764885117E+04  0.14917859848E+04  0.00000000000E+00 0. -1.
         -1    1    3    3    0  502  0.77964022662E+01 -0.13511131395E+02  0.54718628943E+02  0.56898707483E+02  0.00000000000E+00 0.  1.
         13    1    5    5    0    0 -0.34306193356E+03 -0.27830975149E+03  0.64460240225E+03  0.78144741666E+03  0.00000000000E+00 0.  1.
        -13    1    5    5    0    0 -0.15626860690E+02 -0.48942367993E+02  0.58542702687E+02  0.77889679661E+02  0.00000000000E+00 0. -1.
          4    1    6    6  503    0 -0.84494474303E+02  0.12439241631E+03  0.13799513839E+03  0.20409666249E+03  0.00000000000E+00 0. -1.
         -4    1    6    6    0  503 -0.12017302278E+03  0.36489023109E+03  0.22624998540E+03  0.44584245204E+03  0.00000000000E+00 0.  1.
<mgrwt>
<rscale>  0 0.17629907E+04</rscale>
<asrwt>0</asrwt>
<pdfrwt beam="1">  1        2 0.42742754E+00 0.17629907E+04</pdfrwt>
<pdfrwt beam="2">  1       -1 0.43027966E-01 0.17629907E+04</pdfrwt>
<totfact> 0.13716752E+01</totfact>
</mgrwt>
</event>
<event>
12    7  0.1740517E-007  0.1673144E+04  0.7818608E-02  0.8776831E-01
         -1   -1    0    0    0  501 -0.00000000000E+00  0.00000000000E+00  0.52956025170E+03  0.52956025170E+03  0.00000000000E+00 0.  1.
          2   -1    0    0  501    0  0.00000000000E+00 -0.00000000000E+00 -0.13215729089E+04  0.13215729089E+04  0.00000000000E+00 0. -1.
         24    2    1    2    0    0  0.52470803620E+02  0.52769506124E+03 -0.56653843943E+03  0.77984786075E+03  0.77340931463E+02 0.  0.
        254    2    1    2    0    0 -0.52470803620E+02 -0.52769506124E+03 -0.22547421775E+03  0.10712852998E+04  0.90310481554E+03 0.  0.
         23    2    4    4    0    0  0.22869501682E+03 -0.18112770187E+03  0.26283834615E+03  0.40363909681E+03  0.93444471005E+02 0.  0.
         23    2    4    4    0    0 -0.28116582044E+03 -0.34656735937E+03 -0.48831256390E+03  0.66764620301E+03  0.90217177780E+02 0.  0.
          4    1    3    3  502    0  0.16566486161E+02  0.65889474193E+02 -0.11124926396E+03  0.13035440156E+03  0.00000000000E+00 0. -1.
         -3    1    3    3    0  502  0.35904317458E+02  0.46180558705E+03 -0.45528917547E+03  0.64949345919E+03  0.00000000000E+00 0.  1.
         13    1    5    5    0    0  0.13749714258E+03 -0.16127292644E+03  0.16658333557E+03  0.26956340388E+03  0.00000000000E+00 0. -1.
        -13    1    5    5    0    0  0.91197874237E+02 -0.19854775433E+02  0.96255010585E+02  0.13407569293E+03  0.00000000000E+00 0.  1.
          4    1    6    6  503    0 -0.27654682361E+02 -0.33300721551E+02 -0.14542746466E+02  0.45664110493E+02  0.00000000000E+00 0.  1.
         -4    1    6    6    0  503 -0.25351113808E+03 -0.31326663782E+03 -0.47376981744E+03  0.62198209252E+03  0.00000000000E+00 0. -1.
<mgrwt>
<rscale>  0 0.16731437E+04</rscale>
<asrwt>0</asrwt>
<pdfrwt beam="1">  1        2 0.20331890E+00 0.16731437E+04</pdfrwt>
<pdfrwt beam="2">  1       -1 0.81470810E-01 0.16731437E+04</pdfrwt>
<totfact> 0.26191638E+01</totfact>
</mgrwt>
</event>
<event>
12    7  0.1740517E-007  0.2222963E+04  0.7818608E-02  0.8508931E-01
          2   -1    0    0  501    0  0.00000000000E+00  0.00000000000E+00  0.89310144972E+03  0.89310144972E+03  0.00000000000E+00 0. -1.
         -1   -1    0    0    0  501 -0.00000000000E+00 -0.00000000000E+00 -0.13832600803E+04  0.13832600803E+04  0.00000000000E+00 0.  1.
         24    2    1    2    0    0  0.49508814657E+02 -0.34708758987E+02 -0.11497045297E+04  0.11540275341E+04  0.79392841505E+02 0.  0.
        254    2    1    2    0    0 -0.49508814657E+02  0.34708758987E+02  0.65954589912E+03  0.11223339959E+04  0.90607780271E+03 0.  0.
         23    2    4    4    0    0 -0.94487580801E+02  0.43686213056E+03  0.50265923811E+03  0.67862696242E+03  0.89954546379E+02 0.  0.
         23    2    4    4    0    0  0.44978766143E+02 -0.40215337157E+03  0.15688666100E+03  0.44370703345E+03  0.92260953076E+02 0.  0.
          2    1    3    3  502    0  0.66472743828E+01 -0.40694121720E+02 -0.25806686727E+03  0.26134021080E+03  0.00000000000E+00 0. -1.
         -1    1    3    3    0  502  0.42861540275E+02  0.59853627328E+01 -0.89163766240E+03  0.89268732332E+03  0.00000000000E+00 0.  1.
         13    1    5    5    0    0 -0.11122238659E+03  0.40395768887E+03  0.46017734120E+03  0.62234670323E+03  0.00000000000E+00 0. -1.
        -13    1    5    5    0    0  0.16734805793E+02  0.32904441692E+02  0.42481896916E+02  0.56280259181E+02  0.00000000000E+00 0.  1.
          3    1    6    6  503    0  0.47900263311E+02 -0.40613384773E+03  0.15079347079E+03  0.43586443802E+03  0.00000000000E+00 0. -1.
         -3    1    6    6    0  503 -0.29214971676E+01  0.39804761576E+01  0.60931902117E+01  0.78425954312E+01  0.00000000000E+00 0.  1.
<mgrwt>
<rscale>  0 0.22229634E+04</rscale>
<asrwt>0</asrwt>
<pdfrwt beam="1">  1        2 0.13740022E+00 0.22229634E+04</pdfrwt>
<pdfrwt beam="2">  1       -1 0.21280924E+00 0.22229634E+04</pdfrwt>
<totfact> 0.37948769E+00</totfact>
</mgrwt>
</event>
<event>
12    7  0.1740517E-007  0.1626289E+04  0.7818608E-02  0.8804559E-01
          2   -1    0    0  501    0  0.00000000000E+00  0.00000000000E+00  0.23073798200E+04  0.23073798200E+04  0.00000000000E+00 0. -1.
         -1   -1    0    0    0  501 -0.00000000000E+00 -0.00000000000E+00 -0.28656037510E+03  0.28656037510E+03  0.00000000000E+00 0.  1.
         24    2    1    2    0    0 -0.48811513877E+03  0.74178961094E+02  0.28382453758E+03  0.57546498899E+03  0.82732571912E+02 0.  0.
        254    2    1    2    0    0  0.48811513877E+03 -0.74178961094E+02  0.17369949073E+04  0.20184752061E+04  0.90184917954E+03 0.  0.
         23    2    4    4    0    0  0.22450587303E+02 -0.36133248384E+03  0.30050468040E+03  0.47866539774E+03  0.88047187961E+02 0.  0.
         23    2    4    4    0    0  0.46566455147E+03  0.28715352274E+03  0.14364902269E+04  0.15398098083E+04  0.90606036098E+02 0.  0.
          4    1    3    3  502    0 -0.57175455617E+02  0.32380692486E+02  0.21036929226E+02  0.68993437095E+02  0.00000000000E+00 0. -1.
         -3    1    3    3    0  502 -0.43093968315E+03  0.41798268608E+02  0.26278760836E+03  0.50647155190E+03  0.00000000000E+00 0.  1.
         13    1    5    5    0    0  0.21695130317E+01 -0.31961253175E+03  0.22806428921E+03  0.39264512890E+03  0.00000000000E+00 0.  1.
        -13    1    5    5    0    0  0.20281074271E+02 -0.41719952089E+02  0.72440391186E+02  0.86020268838E+02  0.00000000000E+00 0. -1.
          2    1    6    6  503    0  0.10057526845E+03  0.93155197468E+02  0.28272571431E+03  0.31420869652E+03  0.00000000000E+00 0. -1.
         -2    1    6    6    0  503  0.36508928302E+03  0.19399832528E+03  0.11537645126E+04  0.12256011118E+04  0.00000000000E+00 0.  1.
<mgrwt>
<rscale>  0 0.16262886E+04</rscale>
<asrwt>0</asrwt>
<pdfrwt beam="1">  1        2 0.35498150E+00 0.16262886E+04</pdfrwt>
<pdfrwt beam="2">  1       -1 0.44086213E-01 0.16262886E+04</pdfrwt>
<totfact> 0.24929158E+01</totfact>
</mgrwt>
</event>
<event>
12    7  0.1740517E-007  0.2022082E+04  0.7818608E-02  0.8596366E-01
         -1   -1    0    0    0  501 -0.00000000000E+00  0.00000000000E+00  0.64496282217E+03  0.64496282217E+03  0.00000000000E+00 0.  1.
          2   -1    0    0  501    0  0.00000000000E+00 -0.00000000000E+00 -0.15849036370E+04  0.15849036370E+04  0.00000000000E+00 0. -1.
         24    2    1    2    0    0  0.22687721955E+03 -0.31953976611E+03 -0.11552575616E+04  0.12225493117E+04  0.80173880082E+02 0.  0.
        254    2    1    2    0    0 -0.22687721955E+03  0.31953976611E+03  0.21531674680E+03  0.10073171474E+04  0.90263370154E+03 0.  0.
         23    2    4    4    0    0 -0.25998813336E+03  0.20456440241E+03  0.54571157808E+03  0.64405541537E+03  0.86981764733E+02 0.  0.
         23    2    4    4    0    0  0.33110913814E+02  0.11497536371E+03 -0.33039483127E+03  0.36326173205E+03  0.92101436306E+02 0.  0.
          4    1    3    3  502    0  0.22472668688E+03 -0.32441337455E+03 -0.11379262994E+04  0.12044178611E+04  0.00000000000E+00 0. -1.
         -3    1    3    3    0  502  0.21505326629E+01  0.48736084398E+01 -0.17331262216E+02  0.18131450575E+02  0.00000000000E+00 0.  1.
         13    1    5    5    0    0 -0.16115309555E+03  0.83586047910E+02  0.34357952931E+03  0.38859212623E+03  0.00000000000E+00 0. -1.
        -13    1    5    5    0    0 -0.98835037808E+02  0.12097835450E+03  0.20213204877E+03  0.25546328914E+03  0.00000000000E+00 0.  1.
          4    1    6    6  503    0 -0.18180930443E+02  0.93723483159E+02 -0.20928780065E+03  0.23003482569E+03  0.00000000000E+00 0. -1.
         -4    1    6    6    0  503  0.51291844257E+02  0.21251880547E+02 -0.12110703062E+03  0.13322690637E+03  0.00000000000E+00 0.  1.
<mgrwt>
<rscale>  0 0.20220820E+04</rscale>
<asrwt>0</asrwt>
<pdfrwt beam="1">  1        2 0.24383133E+00 0.20220820E+04</pdfrwt>
<pdfrwt beam="2">  1       -1 0.99225050E-01 0.20220820E+04</pdfrwt>
<totfact> 0.11655615E+01</totfact>
</mgrwt>
</event>
<event>
12    7  0.1740517E-007  0.1235463E+04  0.7818608E-02  0.9082370E-01
          2   -1    0    0  501    0  0.00000000000E+00  0.00000000000E+00  0.31004698404E+03  0.31004698404E+03  0.00000000000E+00 0. -1.
         -1   -1    0    0    0  501 -0.00000000000E+00 -0.00000000000E+00 -0.12307552548E+04  0.12307552548E+04  0.00000000000E+00 0.  1.
         24    2    1    2    0    0  0.86128347433E+02 -0.12084696175E+03  0.83530512995E+02  0.18819410671E+03  0.80109892048E+02 0.  0.
        254    2    1    2    0    0 -0.86128347433E+02  0.12084696175E+03 -0.10042387837E+04  0.13526081321E+04  0.89388541989E+03 0.  0.
         23    2    4    4    0    0 -0.54705026931E+02  0.35257932065E+03 -0.56473853372E+02  0.37210107099E+03  0.89247373026E+02 0.  0.
         23    2    4    4    0    0 -0.31423320503E+02 -0.23173235890E+03 -0.94776493037E+03  0.98050706113E+03  0.91915300358E+02 0.  0.
          2    1    3    3  502    0  0.65525952968E+02 -0.10035038578E+03  0.24399860520E+02  0.12230782327E+03  0.00000000000E+00 0. -1.
         -1    1    3    3    0  502  0.20602394465E+02 -0.20496575971E+02  0.59130652475E+02  0.65886283446E+02  0.00000000000E+00 0.  1.
         13    1    5    5    0    0 -0.26549688932E+02  0.63497253479E+02 -0.43382647329E+02  0.81356261413E+02  0.00000000000E+00 0. -1.
        -13    1    5    5    0    0 -0.28155337998E+02  0.28908206717E+03 -0.13091206044E+02  0.29074480958E+03  0.00000000000E+00 0.  1.
          4    1    6    6  503    0  0.68321061639E+01 -0.43347852107E+02 -0.75636537776E+02  0.87444838633E+02  0.00000000000E+00 0. -1.
         -4    1    6    6    0  503 -0.38255426667E+02 -0.18838450680E+03 -0.87212839260E+03  0.89306222249E+03  0.00000000000E+00 0.  1.
<mgrwt>
<rscale>  0 0.12354626E+04</rscale>
<asrwt>0</asrwt>
<pdfrwt beam="1">  1        2 0.47699536E-01 0.12354626E+04</pdfrwt>
<pdfrwt beam="2">  1       -1 0.18934696E+00 0.12354626E+04</pdfrwt>
<totfact> 0.21314006E+01</totfact>
</mgrwt>
</event>
<event>
12    7  0.1740517E-007  0.1846713E+04  0.7818608E-02  0.8681845E-01
          2   -1    0    0  501    0  0.00000000000E+00  0.00000000000E+00  0.29469302082E+04  0.29469302082E+04  0.00000000000E+00 0. -1.
         -1   -1    0    0    0  501 -0.00000000000E+00 -0.00000000000E+00 -0.28931382038E+03  0.28931382038E+03  0.00000000000E+00 0.  1.
         24    2    1    2    0    0  0.48113956506E+03 -0.27728743282E+03  0.16619624438E+04  0.17541825890E+04  0.81570764573E+02 0.  0.
        254    2    1    2    0    0 -0.48113956506E+03  0.27728743282E+03  0.99565394397E+03  0.14820614395E+04  0.94699299512E+03 0.  0.
         23    2    4    4    0    0 -0.42824764324E+03 -0.18570852154E+03  0.12738894860E+03  0.49208802739E+03  0.89660379019E+02 0.  0.
         23    2    4    4    0    0 -0.52891921822E+02  0.46299595436E+03  0.86826499538E+03  0.98997341210E+03  0.94870676844E+02 0.  0.
          2    1    3    3  502    0  0.32243054730E+03 -0.22793108893E+03  0.11915881859E+04  0.12553073105E+04  0.00000000000E+00 0. -1.
         -1    1    3    3    0  502  0.15870901777E+03 -0.49356343892E+02  0.47037425792E+03  0.49887527852E+03  0.00000000000E+00 0.  1.
         13    1    5    5    0    0 -0.48848392165E+02  0.45086475138E+01  0.30570639528E+00  0.49056974794E+02  0.00000000000E+00 0. -1.
        -13    1    5    5    0    0 -0.37939925108E+03 -0.19021716905E+03  0.12708324220E+03  0.44303105260E+03  0.00000000000E+00 0.  1.
          1    1    6    6  503    0 -0.39696654361E+02  0.11224159550E+03  0.15926227615E+03  0.19884283425E+03  0.00000000000E+00 0. -1.
         -1    1    6    6    0  503 -0.13195267460E+02  0.35075435886E+03  0.70900271923E+03  0.79113057785E+03  0.00000000000E+00 0.  1.
<mgrwt>
<rscale>  0 0.18467134E+04</rscale>
<asrwt>0</asrwt>
<pdfrwt beam="1">  1        2 0.45337386E+00 0.18467134E+04</pdfrwt>
<pdfrwt beam="2">  1       -1 0.44509821E-01 0.18467134E+04</pdfrwt>
<totfact> 0.10089394E+01</totfact>
</mgrwt>
</event>
<event>
12    7  0.1740517E-007  0.1714990E+04  0.7818608E-02  0.8752861E-01
         -1   -1    0    0    0  501 -0.00000000000E+00  0.00000000000E+00  0.55455430168E+03  0.55455430168E+03  0.00000000000E+00 0.  1.
          2   -1    0    0  501    0  0.00000000000E+00 -0.00000000000E+00 -0.13259255351E+04  0.13259255351E+04  0.00000000000E+00 0. -1.
         24    2    1    2    0    0 -0.37293589185E+02  0.25491504236E+03  0.33690148171E+03  0.43172176993E+03  0.80675818160E+02 0.  0.
        254    2    1    2    0    0  0.37293589185E+02 -0.25491504236E+03 -0.11082727152E+04  0.14487580669E+04  0.89680490330E+03 0.  0.
         23    2    4    4    0    0  0.74155766868E+02  0.27455754454E+03 -0.11627165630E+03  0.32029272797E+03  0.90484310875E+02 0.  0.
         23    2    4    4    0    0 -0.36862177683E+02 -0.52947258690E+03 -0.99200105888E+03  0.11284653389E+04  0.87566431421E+02 0.  0.
          2    1    3    3  502    0 -0.11899206538E+02 -0.14431279404E+01  0.20054770361E+02  0.23363808524E+02  0.00000000000E+00 0. -1.
         -1    1    3    3    0  502 -0.25394382647E+02  0.25635817030E+03  0.31684671135E+03  0.40835796140E+03  0.00000000000E+00 0.  1.
         13    1    5    5    0    0 -0.81471210630E+01  0.55334516451E+02  0.57819457325E+01  0.56229131141E+02  0.00000000000E+00 0.  1.
        -13    1    5    5    0    0  0.82302887931E+02  0.21922302808E+03 -0.12205360203E+03  0.26406359683E+03  0.00000000000E+00 0. -1.
          3    1    6    6  503    0 -0.62306852518E+02 -0.27213366611E+03 -0.50121552674E+03  0.57372108237E+03  0.00000000000E+00 0. -1.
         -3    1    6    6    0  503  0.25444674835E+02 -0.25733892079E+03 -0.49078553214E+03  0.55474425656E+03  0.00000000000E+00 0.  1.
<mgrwt>
<rscale>  0 0.17149900E+04</rscale>
<asrwt>0</asrwt>
<pdfrwt beam="1">  1        2 0.20398854E+00 0.17149900E+04</pdfrwt>
<pdfrwt beam="2">  1       -1 0.85316047E-01 0.17149900E+04</pdfrwt>
<totfact> 0.23494400E+01</totfact>
</mgrwt>
</event>
<event>
12    7  0.1740517E-007  0.1730068E+04  0.7818608E-02  0.8744399E-01
          2   -1    0    0  501    0  0.00000000000E+00  0.00000000000E+00  0.25149930644E+04  0.25149930644E+04  0.00000000000E+00 0. -1.
         -1   -1    0    0    0  501 -0.00000000000E+00 -0.00000000000E+00 -0.29752910646E+03  0.29752910646E+03  0.00000000000E+00 0.  1.
         24    2    1    2    0    0  0.42912648123E+03  0.11328564599E+03  0.14559100258E+04  0.15240717808E+04  0.78342935697E+02 0.  0.
        254    2    1    2    0    0 -0.42912648123E+03 -0.11328564599E+03  0.76155393214E+03  0.12884503900E+04  0.93976424778E+03 0.  0.
         23    2    4    4    0    0 -0.60997664174E+03 -0.44228363124E+00  0.15013248616E+03  0.63473775450E+03  0.90997552190E+02 0.  0.
         23    2    4    4    0    0  0.18085016051E+03 -0.11284336236E+03  0.61142144598E+03  0.65371263548E+03  0.89797662483E+02 0.  0.
          2    1    3    3  502    0  0.11652777224E+03  0.62736414848E+02  0.49147521425E+03  0.50898179306E+03  0.00000000000E+00 0. -1.
         -1    1    3    3    0  502  0.31259870899E+03  0.50549231142E+02  0.96443481151E+03  0.10150899878E+04  0.00000000000E+00 0.  1.
         13    1    5    5    0    0 -0.42624052852E+03  0.25267985867E+02  0.70183327177E+02  0.43271833642E+03  0.00000000000E+00 0.  1.
        -13    1    5    5    0    0 -0.18373611322E+03 -0.25710269498E+02  0.79949158978E+02  0.20201941808E+03  0.00000000000E+00 0. -1.
          4    1    6    6  503    0  0.87475620071E+02 -0.26887086032E+02  0.15524694443E+03  0.18021241149E+03  0.00000000000E+00 0. -1.
         -4    1    6    6    0  503  0.93374540444E+02 -0.85956276326E+02  0.45617450156E+03  0.47350022398E+03  0.00000000000E+00 0.  1.
<mgrwt>
<rscale>  0 0.17300678E+04</rscale>
<asrwt>0</asrwt>
<pdfrwt beam="1">  1        2 0.38692199E+00 0.17300678E+04</pdfrwt>
<pdfrwt beam="2">  1       -1 0.45773710E-01 0.17300678E+04</pdfrwt>
<totfact> 0.17522547E+01</totfact>
</mgrwt>
</event>
<event>
12    7  0.1740517E-007  0.1433242E+04  0.7818608E-02  0.8930102E-01
         -1   -1    0    0    0  501 -0.00000000000E+00  0.00000000000E+00  0.82406095395E+03  0.82406095395E+03  0.00000000000E+00 0.  1.
          2   -1    0    0  501    0  0.00000000000E+00 -0.00000000000E+00 -0.62318870512E+03  0.62318870512E+03  0.00000000000E+00 0. -1.
         24    2    1    2    0    0 -0.33441946109E+02 -0.41019969314E+03  0.18972883378E+03  0.45999122113E+03  0.78820943482E+02 0.  0.
        254    2    1    2    0    0  0.33441946109E+02  0.41019969314E+03  0.11143415050E+02  0.98725843795E+03  0.89731426802E+03 0.  0.
         23    2    4    4    0    0 -0.61114128202E+02 -0.22084612351E+03 -0.18994116159E+03  0.31149755699E+03  0.91897422203E+02 0.  0.
         23    2    4    4    0    0  0.94556074311E+02  0.63104581665E+03  0.20108457664E+03  0.67576088096E+03  0.95173984700E+02 0.  0.
          2    1    3    3  502    0 -0.22034429964E+02 -0.26353072568E+02  0.23014576830E+02  0.41348171474E+02  0.00000000000E+00 0. -1.
         -1    1    3    3    0  502 -0.11407516145E+02 -0.38384662057E+03  0.16671425695E+03  0.41864304965E+03  0.00000000000E+00 0.  1.
         13    1    5    5    0    0 -0.73835310169E+02 -0.20481104970E+03 -0.19282433842E+03  0.29082717307E+03  0.00000000000E+00 0. -1.
        -13    1    5    5    0    0  0.12721181967E+02 -0.16035073816E+02  0.28831768311E+01  0.20670383924E+02  0.00000000000E+00 0.  1.
          1    1    6    6  503    0  0.11210773483E+03  0.57715275528E+03  0.19103866729E+03  0.61819836585E+03  0.00000000000E+00 0. -1.
         -1    1    6    6    0  503 -0.17551660517E+02  0.53893061371E+02  0.10045909350E+02  0.57562515108E+02  0.00000000000E+00 0.  1.
<mgrwt>
<rscale>  0 0.14332418E+04</rscale>
<asrwt>0</asrwt>
<pdfrwt beam="1">  1        2 0.95875185E-01 0.14332418E+04</pdfrwt>
<pdfrwt beam="2">  1       -1 0.12677861E+00 0.14332418E+04</pdfrwt>
<totfact> 0.28391082E+01</totfact>
</mgrwt>
</event>
<event>
12    7  0.1740517E-007  0.2305445E+04  0.7818608E-02  0.8475777E-01
         -1   -1    0    0    0  501 -0.00000000000E+00  0.00000000000E+00  0.19656391041E+04  0.19656391041E+04  0.00000000000E+00 0.  1.
          2   -1    0    0  501    0  0.00000000000E+00 -0.00000000000E+00 -0.67599839261E+03  0.67599839261E+03  0.00000000000E+00 0. -1.
         24    2    1    2    0    0 -0.45266758415E+03  0.57572605945E+03 -0.19274625708E+03  0.76098593949E+03  0.74699686867E+02 0.  0.
        254    2    1    2    0    0  0.45266758415E+03 -0.57572605945E+03  0.14823869686E+04  0.18806515572E+04  0.89610865291E+03 0.  0.
         23    2    4    4    0    0  0.22925836224E+03 -0.47863092517E+03  0.15255073035E+04  0.16177269740E+04  0.90670117131E+02 0.  0.
         23    2    4    4    0    0  0.22340922191E+03 -0.97095134281E+02 -0.43120334905E+02  0.26292458325E+03  0.89055194474E+02 0.  0.
          4    1    3    3  502    0 -0.38675907120E+03  0.44655075789E+03 -0.16467089193E+03  0.61327535510E+03  0.00000000000E+00 0. -1.
         -3    1    3    3    0  502 -0.65908512949E+02  0.12917530156E+03 -0.28075365151E+02  0.14771058439E+03  0.00000000000E+00 0.  1.
         13    1    5    5    0    0  0.12760056231E+03 -0.27757839675E+03  0.74087091666E+03  0.80138716299E+03  0.00000000000E+00 0. -1.
        -13    1    5    5    0    0  0.10165779994E+03 -0.20105252842E+03  0.78463638685E+03  0.81633981101E+03  0.00000000000E+00 0.  1.
          2    1    6    6  503    0  0.51690798472E+02  0.53997528950E+01 -0.35231167001E+02  0.62787985365E+02  0.00000000000E+00 0. -1.
         -2    1    6    6    0  503  0.17171842343E+03 -0.10249488718E+03 -0.78891679046E+01  0.20013659789E+03  0.00000000000E+00 0.  1.
<mgrwt>
<rscale>  0 0.23054448E+04</rscale>
<asrwt>0</asrwt>
<pdfrwt beam="1">  1        2 0.10399975E+00 0.23054448E+04</pdfrwt>
<pdfrwt beam="2">  1       -1 0.30240601E+00 0.23054448E+04</pdfrwt>
<totfact> 0.14110457E+00</totfact>
</mgrwt>
</event>
<event>
12    7  0.1740517E-007  0.2780034E+04  0.7818608E-02  0.8309494E-01
         -1   -1    0    0    0  501 -0.00000000000E+00  0.00000000000E+00  0.15073013782E+04  0.15073013782E+04  0.00000000000E+00 0.  1.
          2   -1    0    0  501    0  0.00000000000E+00 -0.00000000000E+00 -0.12818584293E+04  0.12818584293E+04  0.00000000000E+00 0. -1.
         24    2    1    2    0    0  0.89241038426E+02 -0.12330070257E+04  0.23340147201E+03  0.12606838714E+04  0.81100480444E+02 0.  0.
        254    2    1    2    0    0 -0.89241038426E+02  0.12330070257E+04 -0.79585231331E+01  0.15284759362E+04  0.89883539144E+03 0.  0.
         23    2    4    4    0    0 -0.29985668468E+03  0.35121773176E+03  0.30998847610E+03  0.56364959099E+03  0.91324036633E+02 0.  0.
         23    2    4    4    0    0  0.21061564625E+03  0.88178929399E+03 -0.31794699923E+03  0.96482634518E+03  0.88815947900E+02 0.  0.
          2    1    3    3  502    0  0.61676632768E+02 -0.73985433630E+03  0.10048652990E+03  0.74919022195E+03  0.00000000000E+00 0. -1.
         -1    1    3    3    0  502  0.27564405657E+02 -0.49315268944E+03  0.13291494211E+03  0.51149364942E+03  0.00000000000E+00 0.  1.
         13    1    5    5    0    0 -0.16277425646E+03  0.19114931504E+03  0.11354664763E+03  0.27554738322E+03  0.00000000000E+00 0.  1.
        -13    1    5    5    0    0 -0.13708242822E+03  0.16006841671E+03  0.19644182847E+03  0.28810220778E+03  0.00000000000E+00 0. -1.
          3    1    6    6  503    0  0.11416462201E+03  0.60536694167E+03 -0.18443970144E+03  0.64305575066E+03  0.00000000000E+00 0. -1.
         -3    1    6    6    0  503  0.96451024241E+02  0.27642235232E+03 -0.13350729779E+03  0.32177059452E+03  0.00000000000E+00 0.  1.
<mgrwt>
<rscale>  0 0.27800338E+04</rscale>
<asrwt>0</asrwt>
<pdfrwt beam="1">  1        2 0.19720899E+00 0.27800338E+04</pdfrwt>
<pdfrwt beam="2">  1       -1 0.23189252E+00 0.27800338E+04</pdfrwt>
<totfact> 0.15425388E+00</totfact>
</mgrwt>
</event>
<event>
12    7  0.1740517E-007  0.2718298E+04  0.7818608E-02  0.8329092E-01
         -1   -1    0    0    0  501 -0.00000000000E+00  0.00000000000E+00  0.13365177365E+04  0.13365177365E+04  0.00000000000E+00 0.  1.
          2   -1    0    0  501    0  0.00000000000E+00 -0.00000000000E+00 -0.13821634326E+04  0.13821634326E+04  0.00000000000E+00 0. -1.
         24    2    1    2    0    0 -0.99115769801E+03  0.48523473271E+03 -0.52552246568E+03  0.12249139574E+04  0.79962572432E+02 0.  0.
        254    2    1    2    0    0  0.99115769801E+03 -0.48523473271E+03  0.47987676953E+03  0.14937672117E+04  0.88499290429E+03 0.  0.
         23    2    4    4    0    0  0.48962522438E+03 -0.47958204699E+03  0.65745711403E+03  0.95416196788E+03  0.91887997120E+02 0.  0.
         23    2    4    4    0    0  0.50153247363E+03 -0.56526857254E+01 -0.17758034449E+03  0.53960524382E+03  0.89845787016E+02 0.  0.
          4    1    3    3  502    0 -0.44506539818E+03  0.19600499340E+03 -0.26974301043E+03  0.55611370939E+03  0.00000000000E+00 0. -1.
         -3    1    3    3    0  502 -0.54609229984E+03  0.28922973931E+03 -0.25577945525E+03  0.66880024803E+03  0.00000000000E+00 0.  1.
         13    1    5    5    0    0  0.59873011130E+02 -0.10004606344E+03  0.13608923891E+03  0.17920455692E+03  0.00000000000E+00 0.  1.
        -13    1    5    5    0    0  0.42975221325E+03 -0.37953598354E+03  0.52136787511E+03  0.77495741096E+03  0.00000000000E+00 0. -1.
          3    1    6    6  503    0  0.29148646413E+03 -0.10153507640E+02 -0.14917870999E+03  0.32759996948E+03  0.00000000000E+00 0. -1.
         -3    1    6    6    0  503  0.21004600950E+03  0.45008219145E+01 -0.28401634501E+02  0.21200527434E+03  0.00000000000E+00 0.  1.
<mgrwt>
<rscale>  0 0.27182980E+04</rscale>
<asrwt>0</asrwt>
<pdfrwt beam="1">  1        2 0.21264053E+00 0.27182980E+04</pdfrwt>
<pdfrwt beam="2">  1       -1 0.20561811E+00 0.27182980E+04</pdfrwt>
<totfact> 0.20358383E+00</totfact>
</mgrwt>
</event>
<event>
12    7  0.1740517E-007  0.1821354E+04  0.7818608E-02  0.8695026E-01
          2   -1    0    0  501    0  0.00000000000E+00  0.00000000000E+00  0.10945708650E+04  0.10945708650E+04  0.00000000000E+00 0. -1.
         -1   -1    0    0    0  501 -0.00000000000E+00 -0.00000000000E+00 -0.75767809838E+03  0.75767809838E+03  0.00000000000E+00 0.  1.
         24    2    1    2    0    0 -0.26303222301E+03 -0.40620955545E+03  0.50592666292E+03  0.70544102712E+03  0.86562701057E+02 0.  0.
        254    2    1    2    0    0  0.26303222301E+03  0.40620955545E+03 -0.16903389630E+03  0.11468079363E+04  0.10258673556E+04 0.  0.
         23    2    4    4    0    0  0.31405298648E+03 -0.25577268589E+03 -0.22427166648E+03  0.47393242578E+03  0.10131741536E+03 0.  0.
         23    2    4    4    0    0 -0.51020763467E+02  0.66198224134E+03  0.55237770182E+02  0.67287551048E+03  0.94268951410E+02 0.  0.
          2    1    3    3  502    0 -0.13464543612E+03 -0.18526241563E+03  0.29895514465E+03  0.37659757650E+03  0.00000000000E+00 0. -1.
         -1    1    3    3    0  502 -0.12838678690E+03 -0.22094713982E+03  0.20697151827E+03  0.32884345062E+03  0.00000000000E+00 0.  1.
         13    1    5    5    0    0  0.54801262825E+02 -0.14656544347E+02 -0.63333567726E+02  0.85024311232E+02  0.00000000000E+00 0. -1.
        -13    1    5    5    0    0  0.25925172365E+03 -0.24111614154E+03 -0.16093809875E+03  0.38890811454E+03  0.00000000000E+00 0.  1.
          1    1    6    6  503    0 -0.17323180899E+02  0.16201267433E+03  0.54378690977E+02  0.17177089763E+03  0.00000000000E+00 0. -1.
         -1    1    6    6    0  503 -0.33697582568E+02  0.49996956701E+03  0.85907920470E+00  0.50110461285E+03  0.00000000000E+00 0.  1.
<mgrwt>
<rscale>  0 0.18213538E+04</rscale>
<asrwt>0</asrwt>
<pdfrwt beam="1">  1        2 0.16839552E+00 0.18213538E+04</pdfrwt>
<pdfrwt beam="2">  1       -1 0.11656586E+00 0.18213538E+04</pdfrwt>
<totfact> 0.15682260E+01</totfact>
</mgrwt>
</event>
<event>
12    7  0.1740517E-007  0.1991040E+04  0.7818608E-02  0.8610821E-01
         -1   -1    0    0    0  501 -0.00000000000E+00  0.00000000000E+00  0.55900591829E+03  0.55900591829E+03  0.00000000000E+00 0.  1.
          2   -1    0    0  501    0  0.00000000000E+00 -0.00000000000E+00 -0.17728972328E+04  0.17728972328E+04  0.00000000000E+00 0. -1.
         24    2    1    2    0    0  0.42746871514E+03 -0.28627674320E+03 -0.11887103775E+04  0.12978295392E+04  0.81518555849E+02 0.  0.
        254    2    1    2    0    0 -0.42746871514E+03  0.28627674320E+03 -0.25180936976E+02  0.10340736119E+04  0.89665505027E+03 0.  0.
         23    2    4    4    0    0 -0.34726753363E+03  0.42239235643E+03 -0.35385934038E+03  0.65762844127E+03  0.90822306252E+02 0.  0.
         23    2    4    4    0    0 -0.80201181505E+02 -0.13611561323E+03  0.32867840340E+03  0.37644517065E+03  0.93390491821E+02 0.  0.
          4    1    3    3  502    0  0.17859268333E+03 -0.10264415308E+03 -0.38462323785E+03  0.43630975670E+03  0.00000000000E+00 0. -1.
         -3    1    3    3    0  502  0.24887603180E+03 -0.18363259012E+03 -0.80408713968E+03  0.86151978245E+03  0.00000000000E+00 0.  1.
         13    1    5    5    0    0 -0.10838620241E+03  0.12882020991E+03 -0.60960319787E+02  0.17904852957E+03  0.00000000000E+00 0.  1.
        -13    1    5    5    0    0 -0.23888133123E+03  0.29357214652E+03 -0.29289902059E+03  0.47857991170E+03  0.00000000000E+00 0. -1.
          4    1    6    6  503    0 -0.73088820133E+02 -0.12893120831E+03  0.33371901139E+03  0.36514875143E+03  0.00000000000E+00 0. -1.
         -4    1    6    6    0  503 -0.71123613722E+01 -0.71844049124E+01 -0.50406079909E+01  0.11296419218E+02  0.00000000000E+00 0.  1.
<mgrwt>
<rscale>  0 0.19910400E+04</rscale>
<asrwt>0</asrwt>
<pdfrwt beam="1">  1        2 0.27275341E+00 0.19910400E+04</pdfrwt>
<pdfrwt beam="2">  1       -1 0.86000912E-01 0.19910400E+04</pdfrwt>
<totfact> 0.12623264E+01</totfact>
</mgrwt>
</event>
<event>
12    7  0.1740517E-007  0.1456008E+04  0.7818608E-02  0.8914246E-01
         -1   -1    0    0    0  501 -0.00000000000E+00  0.00000000000E+00  0.54661168821E+03  0.54661168821E+03  0.00000000000E+00 0.  1.
          2   -1    0    0  501    0  0.00000000000E+00 -0.00000000000E+00 -0.96959044551E+03  0.96959044551E+03  0.00000000000E+00 0. -1.
         24    2    1    2    0    0  0.26037737655E+03  0.14407180030E+03 -0.49972383113E+03  0.58711132417E+03  0.80141984654E+02 0.  0.
        254    2    1    2    0    0 -0.26037737655E+03 -0.14407180030E+03  0.76745073828E+02  0.92909080956E+03  0.87679351286E+03 0.  0.
         23    2    4    4    0    0 -0.10318115838E+03  0.96819630770E+02  0.43242880140E+03  0.46275743659E+03  0.84435682567E+02 0.  0.
         23    2    4    4    0    0 -0.15719621817E+03 -0.24089143107E+03 -0.35568372757E+03  0.46633337297E+03  0.90645287355E+02 0.  0.
          4    1    3    3  502    0  0.15700252944E+03  0.74603399262E+02 -0.36106564438E+03  0.40072916164E+03  0.00000000000E+00 0. -1.
         -3    1    3    3    0  502  0.10337484710E+03  0.69468401040E+02 -0.13865818675E+03  0.18638216253E+03  0.00000000000E+00 0.  1.
         13    1    5    5    0    0 -0.35923552841E+02  0.62509076429E-01  0.43750712362E+02  0.56609454937E+02  0.00000000000E+00 0.  1.
        -13    1    5    5    0    0 -0.67257605542E+02  0.96757121694E+02  0.38867808903E+03  0.40614798165E+03  0.00000000000E+00 0. -1.
          1    1    6    6  503    0 -0.12406484596E+03 -0.15548986480E+03 -0.18031750765E+03  0.26848386846E+03  0.00000000000E+00 0. -1.
         -1    1    6    6    0  503 -0.33131372206E+02 -0.85401566270E+02 -0.17536621992E+03  0.19784950451E+03  0.00000000000E+00 0.  1.
<mgrwt>
<rscale>  0 0.14560075E+04</rscale>
<asrwt>0</asrwt>
<pdfrwt beam="1">  1        2 0.14916776E+00 0.14560075E+04</pdfrwt>
<pdfrwt beam="2">  1       -1 0.84094106E-01 0.14560075E+04</pdfrwt>
<totfact> 0.40862856E+01</totfact>
</mgrwt>
</event>
<event>
12    7  0.1740517E-007  0.1141511E+04  0.7818608E-02  0.9165651E-01
         -1   -1    0    0    0  501 -0.00000000000E+00  0.00000000000E+00  0.31646791105E+03  0.31646791105E+03  0.00000000000E+00 0.  1.
          2   -1    0    0  501    0  0.00000000000E+00 -0.00000000000E+00 -0.10293669842E+04  0.10293669842E+04  0.00000000000E+00 0. -1.
         24    2    1    2    0    0 -0.39788781003E+02  0.62957235526E+02 -0.47181303832E+03  0.48456170495E+03  0.81521421585E+02 0.  0.
        254    2    1    2    0    0  0.39788781003E+02 -0.62957235526E+02 -0.24108603478E+03  0.86127319025E+03  0.82348179790E+03 0.  0.
         23    2    4    4    0    0 -0.18817577782E+03 -0.31953505650E+03 -0.31876994111E+03  0.49749292840E+03  0.91499523319E+02 0.  0.
         23    2    4    4    0    0  0.22796455882E+03  0.25657782097E+03  0.77683906335E+02  0.36378026185E+03  0.92202338976E+02 0.  0.
          4    1    3    3  502    0 -0.62323056706E+02  0.40968209281E+02 -0.38636093207E+03  0.39349374506E+03  0.00000000000E+00 0. -1.
         -3    1    3    3    0  502  0.22534275703E+02  0.21989026245E+02 -0.85452106247E+02  0.91067959891E+02  0.00000000000E+00 0.  1.
         13    1    5    5    0    0 -0.15863431859E+03 -0.18591734642E+03 -0.21869916900E+03  0.32796254856E+03  0.00000000000E+00 0. -1.
        -13    1    5    5    0    0 -0.29541459224E+02 -0.13361771008E+03 -0.10007077211E+03  0.16953037985E+03  0.00000000000E+00 0.  1.
          3    1    6    6  503    0  0.18086154708E+03  0.16495206191E+03  0.88267734439E+02  0.26021390217E+03  0.00000000000E+00 0. -1.
         -3    1    6    6    0  503  0.47103011737E+02  0.91625759062E+02 -0.10583828104E+02  0.10356635967E+03  0.00000000000E+00 0.  1.
<mgrwt>
<rscale>  0 0.11415106E+04</rscale>
<asrwt>0</asrwt>
<pdfrwt beam="1">  1        2 0.15836416E+00 0.11415106E+04</pdfrwt>
<pdfrwt beam="2">  1       -1 0.48687370E-01 0.11415106E+04</pdfrwt>
<totfact> 0.11499711E+02</totfact>
</mgrwt>
</event>
<event>
12    7  0.1740517E-007  0.1129294E+04  0.7818608E-02  0.9177101E-01
          2   -1    0    0  501    0  0.00000000000E+00  0.00000000000E+00  0.15749629097E+04  0.15749629097E+04  0.00000000000E+00 0. -1.
         -1   -1    0    0    0  501 -0.00000000000E+00 -0.00000000000E+00 -0.20243405762E+03  0.20243405762E+03  0.00000000000E+00 0.  1.
         24    2    1    2    0    0 -0.10270818655E+03 -0.13393066046E+03  0.10365675940E+03  0.21308197901E+03  0.78567248991E+02 0.  0.
        254    2    1    2    0    0  0.10270818655E+03  0.13393066046E+03  0.12688720927E+04  0.15643149883E+04  0.89919886661E+03 0.  0.
         23    2    4    4    0    0 -0.35572359589E+03  0.78203644003E+02  0.86901983887E+03  0.94661876153E+03  0.90755235264E+02 0.  0.
         23    2    4    4    0    0  0.45843178244E+03  0.55727016458E+02  0.39985225383E+03  0.61769622681E+03  0.91660265100E+02 0.  0.
          2    1    3    3  502    0  0.94059068668E+01 -0.28644944135E+01  0.17992942379E+02  0.20504204146E+02  0.00000000000E+00 0. -1.
         -1    1    3    3    0  502 -0.11211409342E+03 -0.13106616605E+03  0.85663817022E+02  0.19257777487E+03  0.00000000000E+00 0.  1.
         13    1    5    5    0    0 -0.27875515240E+02 -0.18576650462E+02  0.74644100334E+02  0.81816123148E+02  0.00000000000E+00 0.  1.
        -13    1    5    5    0    0 -0.32784808065E+03  0.96780294465E+02  0.79437573853E+03  0.86480263838E+03  0.00000000000E+00 0. -1.
          4    1    6    6  503    0  0.46152252631E+03  0.53444206231E+02  0.38824543156E+03  0.60546993369E+03  0.00000000000E+00 0. -1.
         -4    1    6    6    0  503 -0.30907438660E+01  0.22828102268E+01  0.11606822275E+02  0.12226293122E+02  0.00000000000E+00 0.  1.
<mgrwt>
<rscale>  0 0.11292938E+04</rscale>
<asrwt>0</asrwt>
<pdfrwt beam="1">  1        2 0.24230198E+00 0.11292938E+04</pdfrwt>
<pdfrwt beam="2">  1       -1 0.31143702E-01 0.11292938E+04</pdfrwt>
<totfact> 0.12418908E+02</totfact>
</mgrwt>
</event>
<event>
12    7  0.1740517E-007  0.1832067E+04  0.7818608E-02  0.8689430E-01
          2   -1    0    0  501    0  0.00000000000E+00  0.00000000000E+00  0.18761725869E+04  0.18761725869E+04  0.00000000000E+00 0. -1.
         -1   -1    0    0    0  501 -0.00000000000E+00 -0.00000000000E+00 -0.44724965648E+03  0.44724965648E+03  0.00000000000E+00 0.  1.
         24    2    1    2    0    0 -0.41128991550E+03  0.59354145693E+02 -0.16034111004E+03  0.45313382885E+03  0.83298775940E+02 0.  0.
        254    2    1    2    0    0  0.41128991550E+03 -0.59354145693E+02  0.15892640404E+04  0.18702884145E+04  0.89416791153E+03 0.  0.
         23    2    4    4    0    0  0.54936035472E+03  0.87597680299E+02  0.48368583924E+03  0.74284321680E+03  0.91618233601E+02 0.  0.
         23    2    4    4    0    0 -0.13807043922E+03 -0.14695182599E+03  0.11055782012E+04  0.11274451977E+04  0.90394853477E+02 0.  0.
          4    1    3    3  502    0 -0.35694281750E+02  0.28282371396E+02 -0.29163832939E+02  0.54078678174E+02  0.00000000000E+00 0. -1.
         -1    1    3    3    0  502 -0.37559563375E+03  0.31071774297E+02 -0.13117727710E+03  0.39905515068E+03  0.00000000000E+00 0.  1.
         13    1    5    5    0    0  0.45040311154E+03  0.35528076999E+02  0.39495091273E+03  0.60009285166E+03  0.00000000000E+00 0.  1.
        -13    1    5    5    0    0  0.98957243179E+02  0.52069603301E+02  0.88734926508E+02  0.14275036514E+03  0.00000000000E+00 0. -1.
          3    1    6    6  503    0  0.22357925773E+01 -0.33770352401E+02  0.30228706534E+03  0.30417578034E+03  0.00000000000E+00 0. -1.
         -3    1    6    6    0  503 -0.14030623179E+03 -0.11318147359E+03  0.80329113583E+03  0.82326941735E+03  0.00000000000E+00 0.  1.
<mgrwt>
<rscale>  0 0.18320672E+04</rscale>
<asrwt>0</asrwt>
<pdfrwt beam="1">  1        2 0.28864193E+00 0.18320672E+04</pdfrwt>
<pdfrwt beam="2">  1       -1 0.68807640E-01 0.18320672E+04</pdfrwt>
<totfact> 0.17942268E+01</totfact>
</mgrwt>
</event>
<event>
12    7  0.1740517E-007  0.1255175E+04  0.7818608E-02  0.9065887E-01
          2   -1    0    0  501    0  0.00000000000E+00  0.00000000000E+00  0.73275540028E+03  0.73275540028E+03  0.00000000000E+00 0. -1.
         -1   -1    0    0    0  501 -0.00000000000E+00 -0.00000000000E+00 -0.53751328750E+03  0.53751328750E+03  0.00000000000E+00 0.  1.
         24    2    1    2    0    0  0.53768105211E+02 -0.15198734189E+03  0.29403090021E+03  0.34485165578E+03  0.80481879855E+02 0.  0.
        254    2    1    2    0    0 -0.53768105211E+02  0.15198734189E+03 -0.98788787427E+02  0.92541703200E+03  0.90589530154E+03 0.  0.
         23    2    4    4    0    0 -0.89607747082E+02  0.30851173103E+03  0.32356031651E+03  0.46472570931E+03  0.89831341702E+02 0.  0.
         23    2    4    4    0    0  0.35839641871E+02 -0.15652438914E+03 -0.42234910394E+03  0.46069132269E+03  0.89851905244E+02 0.  0.
          4    1    3    3  502    0  0.51992353105E+02 -0.76061465133E+02  0.22122798597E+03  0.23964634993E+03  0.00000000000E+00 0. -1.
         -3    1    3    3    0  502  0.17757521061E+01 -0.75925876760E+02  0.72802914235E+02  0.10520530585E+03  0.00000000000E+00 0.  1.
         13    1    5    5    0    0 -0.32527006097E+02  0.24590251381E+03  0.22662678252E+03  0.33598474813E+03  0.00000000000E+00 0.  1.
        -13    1    5    5    0    0 -0.57080740985E+02  0.62609217223E+02  0.96933533997E+02  0.12874096118E+03  0.00000000000E+00 0. -1.
          3    1    6    6  503    0  0.89868320181E+01 -0.68977284056E+02 -0.78627145429E+02  0.10498026893E+03  0.00000000000E+00 0. -1.
         -3    1    6    6    0  503  0.26852809853E+02 -0.87547105081E+02 -0.34372195851E+03  0.35571105376E+03  0.00000000000E+00 0.  1.
<mgrwt>
<rscale>  0 0.12551745E+04</rscale>
<asrwt>0</asrwt>
<pdfrwt beam="1">  1        2 0.11273160E+00 0.12551745E+04</pdfrwt>
<pdfrwt beam="2">  1       -1 0.82694352E-01 0.12551745E+04</pdfrwt>
<totfact> 0.63077476E+01</totfact>
</mgrwt>
</event>
<event>
12    7  0.1740517E-007  0.2111948E+04  0.7818608E-02  0.8555998E-01
          2   -1    0    0  501    0  0.00000000000E+00  0.00000000000E+00  0.22345793275E+04  0.22345793275E+04  0.00000000000E+00 0. -1.
         -1   -1    0    0    0  501 -0.00000000000E+00 -0.00000000000E+00 -0.49901180177E+03  0.49901180177E+03  0.00000000000E+00 0.  1.
         24    2    1    2    0    0  0.75650927005E+03 -0.25913855962E+03  0.29235089104E+03  0.85529594221E+03  0.81259070307E+02 0.  0.
        254    2    1    2    0    0 -0.75650927005E+03  0.25913855962E+03  0.14432166347E+04  0.18782951871E+04  0.89758536437E+03 0.  0.
         23    2    4    4    0    0 -0.49454056741E+03 -0.28397397762E+03  0.84241663900E+03  0.10222071749E+04  0.10015049644E+03 0.  0.
         23    2    4    4    0    0 -0.26196870265E+03  0.54311253724E+03  0.60079999570E+03  0.85608801219E+03  0.91253605481E+02 0.  0.
          2    1    3    3  502    0  0.17869740405E+03 -0.28541318730E+02  0.80832188728E+02  0.19819488344E+03  0.00000000000E+00 0. -1.
         -1    1    3    3    0  502  0.57781186600E+03 -0.23059724089E+03  0.21151870232E+03  0.65710105876E+03  0.00000000000E+00 0.  1.
         13    1    5    5    0    0 -0.47092529646E+03 -0.24331980354E+03  0.79435231699E+03  0.95497160437E+03  0.00000000000E+00 0. -1.
        -13    1    5    5    0    0 -0.23615270943E+02 -0.40654174076E+02  0.48064322005E+02  0.67235570506E+02  0.00000000000E+00 0.  1.
          2    1    6    6  503    0 -0.20230755299E+03  0.42964190849E+03  0.52159451690E+03  0.70539446808E+03  0.00000000000E+00 0. -1.
         -2    1    6    6    0  503 -0.59661149659E+02  0.11347062874E+03  0.79205478793E+02  0.15069354411E+03  0.00000000000E+00 0.  1.
<mgrwt>
<rscale>  0 0.21119483E+04</rscale>
<asrwt>0</asrwt>
<pdfrwt beam="1">  1        2 0.34378143E+00 0.21119483E+04</pdfrwt>
<pdfrwt beam="2">  1       -1 0.76771047E-01 0.21119483E+04</pdfrwt>
<totfact> 0.88071058E+00</totfact>
</mgrwt>
</event>
<event>
12    7  0.1740517E-007  0.1401117E+04  0.7818608E-02  0.8953010E-01
         -1   -1    0    0    0  501 -0.00000000000E+00  0.00000000000E+00  0.74850059394E+03  0.74850059394E+03  0.00000000000E+00 0.  1.
          2   -1    0    0  501    0  0.00000000000E+00 -0.00000000000E+00 -0.65568742237E+03  0.65568742237E+03  0.00000000000E+00 0. -1.
         24    2    1    2    0    0 -0.31191869480E+03 -0.12411811164E+03  0.26541970133E+03  0.43516078659E+03  0.78858826613E+02 0.  0.
        254    2    1    2    0    0  0.31191869480E+03  0.12411811164E+03 -0.17260652975E+03  0.96902722973E+03  0.89248091298E+03 0.  0.
         23    2    4    4    0    0 -0.29970991264E+03 -0.30473526026E+02 -0.83306949817E+02  0.32528571097E+03  0.90089279860E+02 0.  0.
         23    2    4    4    0    0  0.61162860744E+03  0.15459163767E+03 -0.89299579938E+02  0.64374151876E+03  0.91872738718E+02 0.  0.
          4    1    3    3  502    0 -0.14800325286E+02  0.85781680135E+01  0.26188795642E+02  0.31280786630E+02  0.00000000000E+00 0. -1.
         -1    1    3    3    0  502 -0.29711836951E+03 -0.13269627966E+03  0.23923090568E+03  0.40387999996E+03  0.00000000000E+00 0.  1.
         13    1    5    5    0    0 -0.16724479852E+03 -0.58526045376E+02 -0.64592451711E+02  0.18859561351E+03  0.00000000000E+00 0. -1.
        -13    1    5    5    0    0 -0.13246511413E+03  0.28052519349E+02 -0.18714498106E+02  0.13669009745E+03  0.00000000000E+00 0.  1.
          4    1    6    6  503    0  0.60023336291E+03  0.16440529181E+03 -0.89206569269E+02  0.62870263395E+03  0.00000000000E+00 0. -1.
         -4    1    6    6    0  503  0.11395244528E+02 -0.98136541409E+01 -0.93010668929E-01  0.15038884813E+02  0.00000000000E+00 0.  1.
<mgrwt>
<rscale>  0 0.14011173E+04</rscale>
<asrwt>0</asrwt>
<pdfrwt beam="1">  1        2 0.10087499E+00 0.14011173E+04</pdfrwt>
<pdfrwt beam="2">  1       -1 0.11515394E+00 0.14011173E+04</pdfrwt>
<totfact> 0.33850019E+01</totfact>
</mgrwt>
</event>
<event>
12    7  0.1740517E-007  0.1852696E+04  0.7818608E-02  0.8678768E-01
          2   -1    0    0  501    0  0.00000000000E+00  0.00000000000E+00  0.30099791029E+04  0.30099791029E+04  0.00000000000E+00 0. -1.
         -1   -1    0    0    0  501 -0.00000000000E+00 -0.00000000000E+00 -0.28509178168E+03  0.28509178168E+03  0.00000000000E+00 0.  1.
         24    2    1    2    0    0 -0.55507734148E+03  0.39437128848E+03  0.13544863751E+04  0.15181315160E+04  0.80314328041E+02 0.  0.
        254    2    1    2    0    0  0.55507734148E+03 -0.39437128848E+03  0.13704009461E+04  0.17769393686E+04  0.90325810173E+03 0.  0.
         23    2    4    4    0    0  0.71022887835E+03 -0.15402814751E+03  0.59114472619E+03  0.94145149293E+03  0.93429633309E+02 0.  0.
         23    2    4    4    0    0 -0.15515153687E+03 -0.24034314097E+03  0.77925621992E+03  0.83548787566E+03  0.94672642722E+02 0.  0.
          4    1    3    3  502    0 -0.11129388210E+03  0.60650742250E+02  0.31705739008E+03  0.34145311439E+03  0.00000000000E+00 0. -1.
         -1    1    3    3    0  502 -0.44378345939E+03  0.33372054623E+03  0.10374289850E+04  0.11766784016E+04  0.00000000000E+00 0.  1.
         13    1    5    5    0    0  0.64050315529E+03 -0.15442707251E+03  0.56157906897E+03  0.86571534777E+03  0.00000000000E+00 0.  1.
        -13    1    5    5    0    0  0.69725723063E+02  0.39892499987E+00  0.29565657218E+02  0.75736145166E+02  0.00000000000E+00 0. -1.
          2    1    6    6  503    0 -0.15059491340E+03 -0.24823098669E+03  0.73426598234E+03  0.78958469053E+03  0.00000000000E+00 0.  1.
         -2    1    6    6    0  503 -0.45566234679E+01  0.78878457153E+01  0.44990237583E+02  0.45903185132E+02  0.00000000000E+00 0. -1.
<mgrwt>
<rscale>  0 0.18526957E+04</rscale>
<asrwt>0</asrwt>
<pdfrwt beam="1">  1        2 0.46307369E+00 0.18526957E+04</pdfrwt>
<pdfrwt beam="2">  1       -1 0.43860276E-01 0.18526957E+04</pdfrwt>
<totfact> 0.94692277E+00</totfact>
</mgrwt>
</event>
<event>
12    7  0.1740517E-007  0.2206645E+04  0.7818608E-02  0.8515667E-01
         -1   -1    0    0    0  501 -0.00000000000E+00  0.00000000000E+00  0.60694164513E+03  0.60694164513E+03  0.00000000000E+00 0.  1.
          2   -1    0    0  501    0  0.00000000000E+00 -0.00000000000E+00 -0.20056639431E+04  0.20056639431E+04  0.00000000000E+00 0. -1.
         24    2    1    2    0    0 -0.21797345996E+03  0.48203944492E+03 -0.14687228233E+04  0.15632231262E+04  0.81519046184E+02 0.  0.
        254    2    1    2    0    0  0.21797345996E+03 -0.48203944492E+03  0.70000525289E+02  0.10493824621E+04  0.90356461996E+03 0.  0.
         23    2    4    4    0    0  0.23750359118E+03  0.77178131809E+02  0.33111782133E+03  0.42531543074E+03  0.94285651961E+02 0.  0.
         23    2    4    4    0    0 -0.19530131225E+02 -0.55921757673E+03 -0.26111729604E+03  0.62406703133E+03  0.90397417852E+02 0.  0.
          4    1    3    3  502    0 -0.66799582125E+02  0.24646279395E+03 -0.69587818814E+03  0.74125066320E+03  0.00000000000E+00 0. -1.
         -3    1    3    3    0  502 -0.15117387783E+03  0.23557665097E+03 -0.77284463514E+03  0.82197246297E+03  0.00000000000E+00 0.  1.
         13    1    5    5    0    0  0.17081990604E+03  0.77097708873E+02  0.29494873230E+03  0.34945421974E+03  0.00000000000E+00 0.  1.
        -13    1    5    5    0    0  0.66683685140E+02  0.80422936671E-01  0.36169089035E+02  0.75861210993E+02  0.00000000000E+00 0. -1.
          1    1    6    6  503    0  0.13038668760E+02 -0.74616031379E+02 -0.74298740661E+01  0.76110196757E+02  0.00000000000E+00 0. -1.
         -1    1    6    6    0  503 -0.32568799984E+02 -0.48460154535E+03 -0.25368742198E+03  0.54795683457E+03  0.00000000000E+00 0.  1.
<mgrwt>
<rscale>  0 0.22066454E+04</rscale>
<asrwt>0</asrwt>
<pdfrwt beam="1">  1        2 0.30856368E+00 0.22066454E+04</pdfrwt>
<pdfrwt beam="2">  1       -1 0.93375638E-01 0.22066454E+04</pdfrwt>
<totfact> 0.76757576E+00</totfact>
</mgrwt>
</event>
<event>
12    7  0.1740517E-007  0.1335159E+04  0.7818608E-02  0.9002139E-01
          2   -1    0    0  501    0  0.00000000000E+00  0.00000000000E+00  0.72109153604E+03  0.72109153604E+03  0.00000000000E+00 0. -1.
         -1   -1    0    0    0  501 -0.00000000000E+00 -0.00000000000E+00 -0.61803862846E+03  0.61803862846E+03  0.00000000000E+00 0.  1.
         24    2    1    2    0    0  0.68188888170E+02  0.98538659525E+02 -0.30522675888E+03  0.33727071123E+03  0.78921267261E+02 0.  0.
        254    2    1    2    0    0 -0.68188888170E+02 -0.98538659525E+02  0.40827966647E+03  0.10018594533E+04  0.90701184455E+03 0.  0.
         23    2    4    4    0    0  0.23480742628E+03 -0.26854278290E+03 -0.99873303673E+02  0.37962323658E+03  0.83002236595E+02 0.  0.
         23    2    4    4    0    0 -0.30299631445E+03  0.17000412338E+03  0.50815297014E+03  0.62223621668E+03  0.90831160690E+02 0.  0.
          2    1    3    3  502    0 -0.98567069862E+01  0.46664379250E+02 -0.13146904803E+03  0.13985288540E+03  0.00000000000E+00 0. -1.
         -1    1    3    3    0  502  0.78045595157E+02  0.51874280274E+02 -0.17375771085E+03  0.19741782584E+03  0.00000000000E+00 0.  1.
         13    1    5    5    0    0  0.22785049607E+03 -0.26794963799E+03 -0.83038053583E+02  0.36139753099E+03  0.00000000000E+00 0.  1.
        -13    1    5    5    0    0  0.69569302091E+01 -0.59314491065E+00 -0.16835250090E+02  0.18225705594E+02  0.00000000000E+00 0. -1.
          2    1    6    6  503    0 -0.51397457356E+00  0.13001763354E+02  0.47319179336E+02  0.49075602423E+02  0.00000000000E+00 0. -1.
         -2    1    6    6    0  503 -0.30248233988E+03  0.15700236003E+03  0.46083379081E+03  0.57316061426E+03  0.00000000000E+00 0.  1.
<mgrwt>
<rscale>  0 0.13351591E+04</rscale>
<asrwt>0</asrwt>
<pdfrwt beam="1">  1        2 0.11093716E+00 0.13351591E+04</pdfrwt>
<pdfrwt beam="2">  1       -1 0.95082865E-01 0.13351591E+04</pdfrwt>
<totfact> 0.47104554E+01</totfact>
</mgrwt>
</event>
<event>
12    7  0.1740517E-007  0.1692703E+04  0.7818608E-02  0.8765537E-01
          2   -1    0    0  501    0  0.00000000000E+00  0.00000000000E+00  0.17507770041E+04  0.17507770041E+04  0.00000000000E+00 0. -1.
         -1   -1    0    0    0  501 -0.00000000000E+00 -0.00000000000E+00 -0.40913900453E+03  0.40913900453E+03  0.00000000000E+00 0.  1.
         24    2    1    2    0    0 -0.14377255390E+03 -0.64842704906E+02 -0.25417104789E+03  0.31228934576E+03  0.89702788425E+02 0.  0.
        254    2    1    2    0    0  0.14377255390E+03  0.64842704906E+02  0.15958090474E+04  0.18476266629E+04  0.91773778705E+03 0.  0.
         23    2    4    4    0    0 -0.32865244586E+03 -0.14317033552E+03  0.92580125134E+03  0.99695547316E+03  0.91115768889E+02 0.  0.
         23    2    4    4    0    0  0.47242499976E+03  0.20801304043E+03  0.67000779610E+03  0.85067118969E+03  0.90973736598E+02 0.  0.
          4    1    3    3  502    0 -0.11463609015E+03 -0.69269926003E+01 -0.14088156692E+03  0.18176092069E+03  0.00000000000E+00 0. -1.
         -3    1    3    3    0  502 -0.29136463750E+02 -0.57915712306E+02 -0.11328948097E+03  0.13052842506E+03  0.00000000000E+00 0.  1.
         13    1    5    5    0    0 -0.33077296757E+02 -0.43787449761E+02  0.97242129792E+02  0.11165787085E+03  0.00000000000E+00 0. -1.
        -13    1    5    5    0    0 -0.29557514910E+03 -0.99382885763E+02  0.82855912155E+03  0.88529760231E+03  0.00000000000E+00 0.  1.
          2    1    6    6  503    0  0.50659354255E+01  0.74842476560E+01 -0.57418082953E+00  0.90557908731E+01  0.00000000000E+00 0. -1.
         -2    1    6    6    0  503  0.46735906434E+03  0.20052879277E+03  0.67058197693E+03  0.84161539882E+03  0.00000000000E+00 0.  1.
<mgrwt>
<rscale>  0 0.16927034E+04</rscale>
<asrwt>0</asrwt>
<pdfrwt beam="1">  1        2 0.26935030E+00 0.16927034E+04</pdfrwt>
<pdfrwt beam="2">  1       -1 0.62944463E-01 0.16927034E+04</pdfrwt>
<totfact> 0.25512856E+01</totfact>
</mgrwt>
</event>
<event>
12    7  0.1740517E-007  0.1528174E+04  0.7818608E-02  0.8865931E-01
         -1   -1    0    0    0  501 -0.00000000000E+00  0.00000000000E+00  0.54355619200E+03  0.54355619200E+03  0.00000000000E+00 0.  1.
          2   -1    0    0  501    0  0.00000000000E+00 -0.00000000000E+00 -0.10740906171E+04  0.10740906171E+04  0.00000000000E+00 0. -1.
         24    2    1    2    0    0  0.49446307231E+02  0.39982339517E+03 -0.48566650574E+03  0.63593645830E+03  0.78990756230E+02 0.  0.
        254    2    1    2    0    0 -0.49446307231E+02 -0.39982339517E+03 -0.44867919400E+02  0.98171035084E+03  0.89411319090E+03 0.  0.
         23    2    4    4    0    0  0.13672543795E+03 -0.41208249382E+03  0.33048969708E+03  0.55295052742E+03  0.89582469308E+02 0.  0.
         23    2    4    4    0    0 -0.18617174518E+03  0.12259098644E+02 -0.37535761648E+03  0.42875982342E+03  0.90174507060E+02 0.  0.
          2    1    3    3  502    0  0.48921814156E+02  0.39593024720E+03 -0.48878283829E+03  0.63092215649E+03  0.00000000000E+00 0. -1.
         -1    1    3    3    0  502  0.52449307511E+00  0.38931479746E+01  0.31163325430E+01  0.50143018115E+01  0.00000000000E+00 0.  1.
         13    1    5    5    0    0  0.10674140540E+03 -0.27154484055E+03  0.26827307696E+03  0.39635939736E+03  0.00000000000E+00 0.  1.
        -13    1    5    5    0    0  0.29984032549E+02 -0.14053765327E+03  0.62216620120E+02  0.15659113006E+03  0.00000000000E+00 0. -1.
          1    1    6    6  503    0 -0.56535516033E+02  0.45683359996E+02 -0.11607852143E+03  0.13695786611E+03  0.00000000000E+00 0. -1.
         -1    1    6    6    0  503 -0.12963622915E+03 -0.33424261352E+02 -0.25927909506E+03  0.29180195731E+03  0.00000000000E+00 0.  1.
<mgrwt>
<rscale>  0 0.15281736E+04</rscale>
<asrwt>0</asrwt>
<pdfrwt beam="1">  1        2 0.16524471E+00 0.15281736E+04</pdfrwt>
<pdfrwt beam="2">  1       -1 0.83624030E-01 0.15281736E+04</pdfrwt>
<totfact> 0.35273039E+01</totfact>
</mgrwt>
</event>
<event>
12    7  0.1740517E-007  0.2940628E+04  0.7818608E-02  0.8260891E-01
          2   -1    0    0  501    0  0.00000000000E+00  0.00000000000E+00  0.27104860942E+04  0.27104860942E+04  0.00000000000E+00 0. -1.
         -1   -1    0    0    0  501 -0.00000000000E+00 -0.00000000000E+00 -0.79757772365E+03  0.79757772365E+03  0.00000000000E+00 0.  1.
         24    2    1    2    0    0  0.99487716423E+03  0.75150975054E+03  0.14238200319E+04  0.18942382768E+04  0.79546773272E+02 0.  0.
        254    2    1    2    0    0 -0.99487716423E+03 -0.75150975054E+03  0.48908833865E+03  0.16138255410E+04  0.90037658608E+03 0.  0.
         23    2    4    4    0    0 -0.70527268658E+03 -0.87391785252E+03  0.14053831421E+03  0.11354970857E+04  0.91981729437E+02 0.  0.
         23    2    4    4    0    0 -0.28960447765E+03  0.12240810198E+03  0.34855002444E+03  0.47832845528E+03  0.91959201240E+02 0.  0.
          4    1    3    3  502    0  0.89286792520E+03  0.69844298248E+03  0.13112175871E+04  0.17332995391E+04  0.00000000000E+00 0. -1.
         -3    1    3    3    0  502  0.10200923903E+03  0.53066768058E+02  0.11260244477E+03  0.16093873768E+03  0.00000000000E+00 0.  1.
         13    1    5    5    0    0 -0.25690239800E+03 -0.33488087298E+03  0.92560988842E+01  0.42217261464E+03  0.00000000000E+00 0. -1.
        -13    1    5    5    0    0 -0.44837028858E+03 -0.53903697953E+03  0.13128221533E+03  0.71332447109E+03  0.00000000000E+00 0.  1.
          2    1    6    6  503    0 -0.29508164401E+03  0.12598969021E+03  0.34366594908E+03  0.47016259233E+03  0.00000000000E+00 0.  1.
         -2    1    6    6    0  503  0.54771663632E+01 -0.35815882295E+01  0.48840753589E+01  0.81658629505E+01  0.00000000000E+00 0. -1.
<mgrwt>
<rscale>  0 0.29406280E+04</rscale>
<asrwt>0</asrwt>
<pdfrwt beam="1">  1        2 0.41699786E+00 0.29406280E+04</pdfrwt>
<pdfrwt beam="2">  1       -1 0.12270427E+00 0.29406280E+04</pdfrwt>
<totfact> 0.14989179E+00</totfact>
</mgrwt>
</event>
<event>
12    7  0.1740517E-007  0.1810531E+04  0.7818608E-02  0.8700719E-01
         -1   -1    0    0    0  501 -0.00000000000E+00  0.00000000000E+00  0.29168913616E+03  0.29168913616E+03  0.00000000000E+00 0.  1.
          2   -1    0    0  501    0  0.00000000000E+00 -0.00000000000E+00 -0.28095173355E+04  0.28095173355E+04  0.00000000000E+00 0. -1.
         24    2    1    2    0    0  0.42922773370E+03 -0.15996630031E+03 -0.82326204476E+02  0.47199566760E+03  0.78591613290E+02 0.  0.
        254    2    1    2    0    0 -0.42922773370E+03  0.15996630031E+03 -0.24355019949E+04  0.26292108041E+04  0.87821057875E+03 0.  0.
         23    2    4    4    0    0 -0.44440450626E+03 -0.11460822586E+03 -0.22140719819E+04  0.22629532348E+04  0.90621140963E+02 0.  0.
         23    2    4    4    0    0  0.15176772555E+02  0.27457452617E+03 -0.22143001300E+03  0.36625756931E+03  0.97426133942E+02 0.  0.
          4    1    3    3  502    0  0.74864585080E+02 -0.28076800090E+02 -0.45749018575E+02  0.92119408938E+02  0.00000000000E+00 0. -1.
         -3    1    3    3    0  502  0.35436314862E+03 -0.13188950022E+03 -0.36577185900E+02  0.37987625866E+03  0.00000000000E+00 0.  1.
         13    1    5    5    0    0 -0.41348189299E+03 -0.12975148259E+03 -0.20467243466E+04  0.20921002065E+04  0.00000000000E+00 0. -1.
        -13    1    5    5    0    0 -0.30922613270E+02  0.15143256727E+02 -0.16734763531E+03  0.17085302830E+03  0.00000000000E+00 0.  1.
          2    1    6    6  503    0 -0.49739396278E+01  0.17365288022E+03 -0.79775118490E+02  0.19116519666E+03  0.00000000000E+00 0. -1.
         -2    1    6    6    0  503  0.20150712183E+02  0.10092164595E+03 -0.14165489451E+03  0.17509237265E+03  0.00000000000E+00 0.  1.
<mgrwt>
<rscale>  0 0.18105311E+04</rscale>
<asrwt>0</asrwt>
<pdfrwt beam="1">  1        2 0.43223342E+00 0.18105311E+04</pdfrwt>
<pdfrwt beam="2">  1       -1 0.44875253E-01 0.18105311E+04</pdfrwt>
<totfact> 0.12095234E+01</totfact>
</mgrwt>
</event>
<event>
12    7  0.1740517E-007  0.1446693E+04  0.7818608E-02  0.8920697E-01
         -1   -1    0    0    0  501 -0.00000000000E+00  0.00000000000E+00  0.43384850324E+03  0.43384850324E+03  0.00000000000E+00 0.  1.
          2   -1    0    0  501    0  0.00000000000E+00 -0.00000000000E+00 -0.12060196723E+04  0.12060196723E+04  0.00000000000E+00 0. -1.
         24    2    1    2    0    0 -0.95489957042E+02 -0.30052404755E+03  0.10676159178E+03  0.34217923692E+03  0.79092083304E+02 0.  0.
        254    2    1    2    0    0  0.95489957042E+02  0.30052404755E+03 -0.87893276088E+03  0.12976889387E+04  0.90113303588E+03 0.  0.
         23    2    4    4    0    0  0.37418801597E+03  0.34135450970E+03 -0.85755177301E+03  0.10009978609E+04  0.10031002735E+03 0.  0.
         23    2    4    4    0    0 -0.27869805893E+03 -0.40830462150E+02 -0.21380987874E+02  0.29669107775E+03  0.90712260927E+02 0.  0.
          4    1    3    3  502    0 -0.49275778154E+02 -0.64805575248E+02  0.58003372375E+01  0.81618066676E+02  0.00000000000E+00 0. -1.
         -3    1    3    3    0  502 -0.46214178888E+02 -0.23571847231E+03  0.10096125455E+03  0.26056117024E+03  0.00000000000E+00 0.  1.
         13    1    5    5    0    0  0.32979308248E+03  0.31444250725E+03 -0.70120437780E+03  0.83625662752E+03  0.00000000000E+00 0. -1.
        -13    1    5    5    0    0  0.44394933498E+02  0.26912002451E+02 -0.15634739521E+03  0.16474123340E+03  0.00000000000E+00 0.  1.
          1    1    6    6  503    0 -0.18717739364E+03 -0.45841421340E+02 -0.52776739045E+02  0.19980539729E+03  0.00000000000E+00 0. -1.
         -1    1    6    6    0  503 -0.91520665288E+02  0.50109591897E+01  0.31395751171E+02  0.96885680461E+02  0.00000000000E+00 0.  1.
<mgrwt>
<rscale>  0 0.14466925E+04</rscale>
<asrwt>0</asrwt>
<pdfrwt beam="1">  1        2 0.18554149E+00 0.14466925E+04</pdfrwt>
<pdfrwt beam="2">  1       -1 0.66745923E-01 0.14466925E+04</pdfrwt>
<totfact> 0.47250933E+01</totfact>
</mgrwt>
</event>
<event>
12    7  0.1740517E-007  0.1392320E+04  0.7818608E-02  0.8959397E-01
         -1   -1    0    0    0  501 -0.00000000000E+00  0.00000000000E+00  0.10226599454E+04  0.10226599454E+04  0.00000000000E+00 0.  1.
          2   -1    0    0  501    0  0.00000000000E+00 -0.00000000000E+00 -0.47390013805E+03  0.47390013805E+03  0.00000000000E+00 0. -1.
         24    2    1    2    0    0  0.35576384512E+02  0.19626299451E+03  0.51733310343E+03  0.56022241138E+03  0.80192070459E+02 0.  0.
        254    2    1    2    0    0 -0.35576384512E+02 -0.19626299451E+03  0.31426703899E+02  0.93633767204E+03  0.91430616110E+03 0.  0.
         23    2    4    4    0    0  0.37685497785E+03 -0.30396600934E+03 -0.45811786061E+02  0.49375611743E+03  0.85330970871E+02 0.  0.
         23    2    4    4    0    0 -0.41243136236E+03  0.10770301484E+03  0.77238489960E+02  0.44258155461E+03  0.90626045279E+02 0.  0.
          2    1    3    3  502    0  0.36698072009E+02  0.46925390099E+02  0.21373050855E+03  0.22187715297E+03  0.00000000000E+00 0. -1.
         -1    1    3    3    0  502 -0.11216874975E+01  0.14933760441E+03  0.30360259488E+03  0.33834525841E+03  0.00000000000E+00 0.  1.
         13    1    5    5    0    0  0.19368110831E+03 -0.18090708785E+03  0.13113958523E+02  0.26535207189E+03  0.00000000000E+00 0.  1.
        -13    1    5    5    0    0  0.18317386955E+03 -0.12305892149E+03 -0.58925744585E+02  0.22840404554E+03  0.00000000000E+00 0. -1.
          4    1    6    6  503    0 -0.35218075255E+03  0.71699364093E+02  0.91699607197E+02  0.37091899283E+03  0.00000000000E+00 0. -1.
         -4    1    6    6    0  503 -0.60250609812E+02  0.36003650742E+02 -0.14461117237E+02  0.71662561783E+02  0.00000000000E+00 0.  1.
<mgrwt>
<rscale>  0 0.13923199E+04</rscale>
<asrwt>0</asrwt>
<pdfrwt beam="1">  1        2 0.72907714E-01 0.13923199E+04</pdfrwt>
<pdfrwt beam="2">  1       -1 0.15733230E+00 0.13923199E+04</pdfrwt>
<totfact> 0.22349978E+01</totfact>
</mgrwt>
</event>
<event>
12    7  0.1740517E-007  0.1189266E+04  0.7818608E-02  0.9122304E-01
         -1   -1    0    0    0  501 -0.00000000000E+00  0.00000000000E+00  0.46334046899E+03  0.46334046899E+03  0.00000000000E+00 0.  1.
          2   -1    0    0  501    0  0.00000000000E+00 -0.00000000000E+00 -0.76312907648E+03  0.76312907648E+03  0.00000000000E+00 0. -1.
         24    2    1    2    0    0  0.22776863853E+03 -0.81383447382E+02 -0.12552040114E+03  0.28364343785E+03  0.78717282270E+02 0.  0.
        254    2    1    2    0    0 -0.22776863853E+03  0.81383447382E+02 -0.17426820634E+03  0.94282610762E+03  0.89445505380E+03 0.  0.
         23    2    4    4    0    0 -0.47470091384E+03  0.25231107439E+03 -0.27925077398E+03  0.61203295303E+03  0.87186610003E+02 0.  0.
         23    2    4    4    0    0  0.24693227531E+03 -0.17092762701E+03  0.10498256763E+03  0.33079315459E+03  0.90614399257E+02 0.  0.
          4    1    3    3  502    0  0.15090489846E+03 -0.22606404320E+02 -0.10358549363E+03  0.18442692967E+03  0.00000000000E+00 0. -1.
         -3    1    3    3    0  502  0.76863740068E+02 -0.58777043062E+02 -0.21934907506E+02  0.99216508181E+02  0.00000000000E+00 0.  1.
         13    1    5    5    0    0 -0.46579482327E+03  0.24032691461E+03 -0.25339978994E+03  0.58217978049E+03  0.00000000000E+00 0.  1.
        -13    1    5    5    0    0 -0.89060905750E+01  0.11984159783E+02 -0.25850984039E+02  0.29853172542E+02  0.00000000000E+00 0. -1.
          3    1    6    6  503    0  0.88379565017E+01 -0.32790745896E+02  0.30458282319E+02  0.45618520947E+02  0.00000000000E+00 0. -1.
         -3    1    6    6    0  503  0.23809431881E+03 -0.13813688112E+03  0.74524285314E+02  0.28517463365E+03  0.00000000000E+00 0.  1.
<mgrwt>
<rscale>  0 0.11892663E+04</rscale>
<asrwt>0</asrwt>
<pdfrwt beam="1">  1        2 0.11740447E+00 0.11892663E+04</pdfrwt>
<pdfrwt beam="2">  1       -1 0.71283150E-01 0.11892663E+04</pdfrwt>
<totfact> 0.82174304E+01</totfact>
</mgrwt>
</event>
<event>
12    7  0.1740517E-007  0.1637722E+04  0.7818608E-02  0.8797703E-01
         -1   -1    0    0    0  501 -0.00000000000E+00  0.00000000000E+00  0.52167953054E+03  0.52167953054E+03  0.00000000000E+00 0.  1.
          2   -1    0    0  501    0  0.00000000000E+00 -0.00000000000E+00 -0.12853355284E+04  0.12853355284E+04  0.00000000000E+00 0. -1.
         24    2    1    2    0    0 -0.43552796890E+03 -0.19729270575E+03  0.64520220470E+02  0.48906742745E+03  0.80094109061E+02 0.  0.
        254    2    1    2    0    0  0.43552796890E+03  0.19729270575E+03 -0.82817621835E+03  0.13179476315E+04  0.90691845684E+03 0.  0.
         23    2    4    4    0    0  0.44416757024E+03 -0.28174903071E+03 -0.49138539248E+03  0.72540437629E+03  0.89914172702E+02 0.  0.
         23    2    4    4    0    0 -0.86396013393E+01  0.47904173645E+03 -0.33679082587E+03  0.59254325523E+03  0.90132241439E+02 0.  0.
          2    1    3    3  502    0 -0.98133942924E+02 -0.63921124601E+02 -0.13754564702E+02  0.11792102855E+03  0.00000000000E+00 0. -1.
         -1    1    3    3    0  502 -0.33739402597E+03 -0.13337158115E+03  0.78274785173E+02  0.37114639890E+03  0.00000000000E+00 0.  1.
         13    1    5    5    0    0  0.39180987649E+03 -0.25595686222E+03 -0.46992513724E+03  0.66321831190E+03  0.00000000000E+00 0.  1.
        -13    1    5    5    0    0  0.52357693745E+02 -0.25792168485E+02 -0.21460255236E+02  0.62186064389E+02  0.00000000000E+00 0. -1.
          2    1    6    6  503    0 -0.21190644002E+02  0.43591509994E+03 -0.27389756799E+03  0.51525808630E+03  0.00000000000E+00 0.  1.
         -2    1    6    6    0  503  0.12551042662E+02  0.43126636516E+02 -0.62893257878E+02  0.77285168924E+02  0.00000000000E+00 0. -1.
<mgrwt>
<rscale>  0 0.16377219E+04</rscale>
<asrwt>0</asrwt>
<pdfrwt beam="1">  1        2 0.19774393E+00 0.16377219E+04</pdfrwt>
<pdfrwt beam="2">  1       -1 0.80258390E-01 0.16377219E+04</pdfrwt>
<totfact> 0.28475676E+01</totfact>
</mgrwt>
</event>
<event>
12    7  0.1740517E-007  0.1338122E+04  0.7818608E-02  0.8999868E-01
         -1   -1    0    0    0  501 -0.00000000000E+00  0.00000000000E+00  0.15524015981E+03  0.15524015981E+03  0.00000000000E+00 0.  1.
          2   -1    0    0  501    0  0.00000000000E+00 -0.00000000000E+00 -0.28835497105E+04  0.28835497105E+04  0.00000000000E+00 0. -1.
         24    2    1    2    0    0  0.10549037379E+03  0.45352949054E+02  0.20842885217E+02  0.14090375047E+03  0.78957786706E+02 0.  0.
        254    2    1    2    0    0 -0.10549037379E+03 -0.45352949054E+02 -0.27491524359E+04  0.28978861199E+04  0.90924129842E+03 0.  0.
         23    2    4    4    0    0 -0.42470453501E+03  0.11497623173E+03 -0.21322253432E+04  0.21789892701E+04  0.89531274773E+02 0.  0.
         23    2    4    4    0    0  0.31921416121E+03 -0.16032918078E+03 -0.61692709276E+03  0.71889684978E+03  0.92792865630E+02 0.  0.
          2    1    3    3  502    0  0.30915327229E+02  0.55335473942E+02  0.23758865648E+01  0.63430410459E+02  0.00000000000E+00 0. -1.
         -1    1    3    3    0  502  0.74575046564E+02 -0.99825248886E+01  0.18466998652E+02  0.77473340011E+02  0.00000000000E+00 0.  1.
         13    1    5    5    0    0 -0.70797638429E+02 -0.28268253584E+01 -0.47874639756E+03  0.48396116551E+03  0.00000000000E+00 0. -1.
        -13    1    5    5    0    0 -0.35390689658E+03  0.11780305709E+03 -0.16534789456E+04  0.16950281046E+04  0.00000000000E+00 0.  1.
          3    1    6    6  503    0  0.16208128022E+03 -0.44610192541E+02 -0.22282258300E+03  0.27912419130E+03  0.00000000000E+00 0. -1.
         -3    1    6    6    0  503  0.15713288099E+03 -0.11571898824E+03 -0.39410450976E+03  0.43977265848E+03  0.00000000000E+00 0.  1.
<mgrwt>
<rscale>  0 0.13381221E+04</rscale>
<asrwt>0</asrwt>
<pdfrwt beam="1">  1        2 0.44362301E+00 0.13381221E+04</pdfrwt>
<pdfrwt beam="2">  1       -1 0.23883103E-01 0.13381221E+04</pdfrwt>
<totfact> 0.34990013E+01</totfact>
</mgrwt>
</event>
<event>
12    7  0.1740517E-007  0.2148613E+04  0.7818608E-02  0.8540126E-01
          2   -1    0    0  501    0  0.00000000000E+00  0.00000000000E+00  0.22070773283E+04  0.22070773283E+04  0.00000000000E+00 0. -1.
         -1   -1    0    0    0  501 -0.00000000000E+00 -0.00000000000E+00 -0.52292450657E+03  0.52292450657E+03  0.00000000000E+00 0.  1.
         24    2    1    2    0    0 -0.28481636522E+03  0.46853399530E+03 -0.17870538810E+03  0.58350442905E+03  0.88866958621E+02 0.  0.
        254    2    1    2    0    0  0.28481636522E+03 -0.46853399530E+03  0.18628582098E+04  0.21464974058E+04  0.91463978517E+03 0.  0.
         23    2    4    4    0    0 -0.19637770468E+03 -0.43109255627E+03  0.13646011709E+04  0.14472989502E+04  0.90182595884E+02 0.  0.
         23    2    4    4    0    0  0.48119406990E+03 -0.37441439030E+02  0.49825703896E+03  0.69919845567E+03  0.87571737864E+02 0.  0.
          4    1    3    3  502    0 -0.62261573035E+02  0.14851245512E+03 -0.87112606902E+02  0.18308757217E+03  0.00000000000E+00 0. -1.
         -3    1    3    3    0  502 -0.22255479219E+03  0.32002154018E+03 -0.91592781201E+02  0.40041685688E+03  0.00000000000E+00 0.  1.
         13    1    5    5    0    0  0.78528437466E+00 -0.75704624046E+02  0.22505383118E+03  0.23744690712E+03  0.00000000000E+00 0. -1.
        -13    1    5    5    0    0 -0.19716298906E+03 -0.35538793223E+03  0.11395473397E+04  0.12098520430E+04  0.00000000000E+00 0.  1.
          1    1    6    6  503    0  0.26530572073E+03  0.19942226346E+01  0.21898238693E+03  0.34401219187E+03  0.00000000000E+00 0. -1.
         -1    1    6    6    0  503  0.21588834918E+03 -0.39435661665E+02  0.27927465204E+03  0.35518626380E+03  0.00000000000E+00 0.  1.
<mgrwt>
<rscale>  0 0.21486133E+04</rscale>
<asrwt>0</asrwt>
<pdfrwt beam="1">  1        2 0.33955035E+00 0.21486133E+04</pdfrwt>
<pdfrwt beam="2">  1       -1 0.80449925E-01 0.21486133E+04</pdfrwt>
<totfact> 0.82387031E+00</totfact>
</mgrwt>
</event>
<event>
12    7  0.1740517E-007  0.1763242E+04  0.7818608E-02  0.8726095E-01
          2   -1    0    0  501    0  0.00000000000E+00  0.00000000000E+00  0.11470662957E+04  0.11470662957E+04  0.00000000000E+00 0. -1.
         -1   -1    0    0    0  501 -0.00000000000E+00 -0.00000000000E+00 -0.67760337305E+03  0.67760337305E+03  0.00000000000E+00 0.  1.
         24    2    1    2    0    0 -0.28676699519E+03 -0.39725445600E+03 -0.27373815825E+03  0.56669115914E+03  0.78484891713E+02 0.  0.
        254    2    1    2    0    0  0.28676699519E+03  0.39725445600E+03  0.74320108091E+03  0.12579785096E+04  0.88888450973E+03 0.  0.
         23    2    4    4    0    0  0.23434789127E+03 -0.24770194067E+03  0.33483888425E+03  0.48730504785E+03  0.95257260605E+02 0.  0.
         23    2    4    4    0    0  0.52419103918E+02  0.64495639667E+03  0.40836219666E+03  0.77067346176E+03  0.91985786620E+02 0.  0.
          2    1    3    3  502    0 -0.21128089514E+02 -0.61294828588E+02 -0.15819089046E+02  0.66736015437E+02  0.00000000000E+00 0. -1.
         -1    1    3    3    0  502 -0.26563890568E+03 -0.33595962741E+03 -0.25791906920E+03  0.49995514370E+03  0.00000000000E+00 0.  1.
         13    1    5    5    0    0  0.14519226668E+03 -0.20813447811E+03  0.26783926619E+03  0.36896968411E+03  0.00000000000E+00 0. -1.
        -13    1    5    5    0    0  0.89155624598E+02 -0.39567462562E+02  0.66999618064E+02  0.11833536374E+03  0.00000000000E+00 0.  1.
          3    1    6    6  503    0  0.49406420454E+02  0.60574983645E+03  0.35322898711E+03  0.70295417779E+03  0.00000000000E+00 0. -1.
         -3    1    6    6    0  503  0.30126834635E+01  0.39206560223E+02  0.55133209551E+02  0.67719283971E+02  0.00000000000E+00 0.  1.
<mgrwt>
<rscale>  0 0.17632425E+04</rscale>
<asrwt>0</asrwt>
<pdfrwt beam="1">  1        2 0.17647174E+00 0.17632425E+04</pdfrwt>
<pdfrwt beam="2">  1       -1 0.10424667E+00 0.17632425E+04</pdfrwt>
<totfact> 0.19060087E+01</totfact>
</mgrwt>
</event>
<event>
12    7  0.1740517E-007  0.1230322E+04  0.7818608E-02  0.9086722E-01
         -1   -1    0    0    0  501 -0.00000000000E+00  0.00000000000E+00  0.12558252313E+03  0.12558252313E+03  0.00000000000E+00 0.  1.
          2   -1    0    0  501    0  0.00000000000E+00 -0.00000000000E+00 -0.30133409871E+04  0.30133409871E+04  0.00000000000E+00 0. -1.
         24    2    1    2    0    0 -0.16940491140E+03 -0.12002563343E+03 -0.11298134892E+04  0.11515632170E+04  0.80716452263E+02 0.  0.
        254    2    1    2    0    0  0.16940491140E+03  0.12002563343E+03 -0.17579449747E+04  0.19873602932E+04  0.90339704675E+03 0.  0.
         23    2    4    4    0    0  0.25473467579E+03 -0.21489650909E+02 -0.17755323720E+04  0.17961569704E+04  0.91176193419E+02 0.  0.
         23    2    4    4    0    0 -0.85329764387E+02  0.14151528434E+03  0.17587397245E+02  0.19120332279E+03  0.94560296702E+02 0.  0.
          4    1    3    3  502    0 -0.25578323402E+02 -0.36980075196E+01 -0.31301435371E+03  0.31407946688E+03  0.00000000000E+00 0. -1.
         -3    1    3    3    0  502 -0.14382658800E+03 -0.11632762591E+03 -0.81679913554E+03  0.83748375016E+03  0.00000000000E+00 0.  1.
         13    1    5    5    0    0  0.25843378808E+03 -0.10722193926E+02 -0.17296527785E+04  0.17488858517E+04  0.00000000000E+00 0.  1.
        -13    1    5    5    0    0 -0.36991122897E+01 -0.10767456983E+02 -0.45879593496E+02  0.47271118677E+02  0.00000000000E+00 0. -1.
          3    1    6    6  503    0 -0.40504126616E+02  0.33151736752E+02 -0.34706925293E+02  0.62802807149E+02  0.00000000000E+00 0. -1.
         -3    1    6    6    0  503 -0.44825637771E+02  0.10836354759E+03  0.52294322538E+02  0.12840051564E+03  0.00000000000E+00 0.  1.
<mgrwt>
<rscale>  0 0.12303219E+04</rscale>
<asrwt>0</asrwt>
<pdfrwt beam="1">  1        2 0.46359089E+00 0.12303219E+04</pdfrwt>
<pdfrwt beam="2">  1       -1 0.19320390E-01 0.12303219E+04</pdfrwt>
<totfact> 0.42090697E+01</totfact>
</mgrwt>
</event>
<event>
12    7  0.1740517E-007  0.1509083E+04  0.7818608E-02  0.8878435E-01
          2   -1    0    0  501    0  0.00000000000E+00  0.00000000000E+00  0.12074824198E+04  0.12074824198E+04  0.00000000000E+00 0. -1.
         -1   -1    0    0    0  501 -0.00000000000E+00 -0.00000000000E+00 -0.47150395831E+03  0.47150395831E+03  0.00000000000E+00 0.  1.
         24    2    1    2    0    0 -0.24584408047E+03 -0.32180876482E+03 -0.54493204540E+02  0.41653758202E+03  0.80832263798E+02 0.  0.
        254    2    1    2    0    0  0.24584408047E+03  0.32180876482E+03  0.79047166599E+03  0.12624487961E+04  0.89717964473E+03 0.  0.
         23    2    4    4    0    0 -0.18672359679E+03  0.35523666190E+03  0.70760543855E+02  0.41730100582E+03  0.89857038303E+02 0.  0.
         23    2    4    4    0    0  0.43256767726E+03 -0.33427897082E+02  0.71971112214E+03  0.84514779024E+03  0.89768971886E+02 0.  0.
          2    1    3    3  502    0  0.20754636059E+01  0.34209924709E+01 -0.78801438389E+00  0.40781987855E+01  0.00000000000E+00 0. -1.
         -1    1    3    3    0  502 -0.24791954408E+03 -0.32522975729E+03 -0.53705190156E+02  0.41245938323E+03  0.00000000000E+00 0.  1.
         13    1    5    5    0    0 -0.40602788963E+02  0.25273163698E+02 -0.64634468359E+01  0.48260702646E+02  0.00000000000E+00 0.  1.
        -13    1    5    5    0    0 -0.14612080783E+03  0.32996349821E+03  0.77223990691E+02  0.36904030317E+03  0.00000000000E+00 0. -1.
          4    1    6    6  503    0  0.24502382605E+03 -0.47472954263E+01  0.48451901670E+03  0.54297135255E+03  0.00000000000E+00 0. -1.
         -4    1    6    6    0  503  0.18754385121E+03 -0.28680601656E+02  0.23519210544E+03  0.30217643769E+03  0.00000000000E+00 0.  1.
<mgrwt>
<rscale>  0 0.15090828E+04</rscale>
<asrwt>0</asrwt>
<pdfrwt beam="1">  1        2 0.18576652E+00 0.15090828E+04</pdfrwt>
<pdfrwt beam="2">  1       -1 0.72539071E-01 0.15090828E+04</pdfrwt>
<totfact> 0.39562877E+01</totfact>
</mgrwt>
</event>
<event>
12    7  0.1740517E-007  0.1225547E+04  0.7818608E-02  0.9090785E-01
          2   -1    0    0  501    0  0.00000000000E+00  0.00000000000E+00  0.20368493827E+04  0.20368493827E+04  0.00000000000E+00 0. -1.
         -1   -1    0    0    0  501 -0.00000000000E+00 -0.00000000000E+00 -0.18434898266E+03  0.18434898266E+03  0.00000000000E+00 0.  1.
         24    2    1    2    0    0  0.15310663873E+03 -0.38366571274E+02  0.89484697517E+03  0.91214401648E+03  0.79636431461E+02 0.  0.
        254    2    1    2    0    0 -0.15310663873E+03  0.38366571274E+02  0.95765342488E+03  0.13090543489E+04  0.87841309734E+03 0.  0.
         23    2    4    4    0    0 -0.13531538323E+03 -0.15319261726E+03 -0.89127372454E+02  0.24082866936E+03  0.90975428248E+02 0.  0.
         23    2    4    4    0    0 -0.17791255500E+02  0.19155918854E+03  0.10467807973E+04  0.10682256795E+04  0.91348854745E+02 0.  0.
          2    1    3    3  502    0  0.88872083346E+02 -0.45599552731E+02  0.69399363112E+03  0.70114529624E+03  0.00000000000E+00 0. -1.
         -1    1    3    3    0  502  0.64234555384E+02  0.72329814573E+01  0.20085334405E+03  0.21099872024E+03  0.00000000000E+00 0.  1.
         13    1    5    5    0    0 -0.12605066928E+03 -0.16488784930E+03 -0.89206238626E+02  0.22590822712E+03  0.00000000000E+00 0. -1.
        -13    1    5    5    0    0 -0.92647139537E+01  0.11695232032E+02  0.78866172310E-01  0.14920442246E+02  0.00000000000E+00 0.  1.
          3    1    6    6  503    0  0.19451237701E+02  0.11566335760E+03  0.43119547041E+03  0.44686227928E+03  0.00000000000E+00 0. -1.
         -3    1    6    6    0  503 -0.37242493201E+02  0.75895830937E+02  0.61558532692E+03  0.62136340026E+03  0.00000000000E+00 0.  1.
<mgrwt>
<rscale>  0 0.12255466E+04</rscale>
<asrwt>0</asrwt>
<pdfrwt beam="1">  1        2 0.31336143E+00 0.12255466E+04</pdfrwt>
<pdfrwt beam="2">  1       -1 0.28361383E-01 0.12255466E+04</pdfrwt>
<totfact> 0.80631875E+01</totfact>
</mgrwt>
</event>
<event>
12    7  0.1740517E-007  0.2577707E+04  0.7818608E-02  0.8375813E-01
         -1   -1    0    0    0  501 -0.00000000000E+00  0.00000000000E+00  0.13992669703E+04  0.13992669703E+04  0.00000000000E+00 0.  1.
          2   -1    0    0  501    0  0.00000000000E+00 -0.00000000000E+00 -0.11871526204E+04  0.11871526204E+04  0.00000000000E+00 0. -1.
         24    2    1    2    0    0  0.39011295653E+03  0.59702009259E+03 -0.74515861130E+03  0.10346619319E+04  0.81503665219E+02 0.  0.
        254    2    1    2    0    0 -0.39011295653E+03 -0.59702009259E+03  0.95727296120E+03  0.15517576588E+04  0.99144298859E+03 0.  0.
         23    2    4    4    0    0  0.29124243550E+03 -0.28945659954E+03  0.14709907753E+03  0.44564282973E+03  0.91389900015E+02 0.  0.
         23    2    4    4    0    0 -0.68135539202E+03 -0.30756349305E+03  0.81017388367E+03  0.11061148291E+04  0.90927558180E+02 0.  0.
          2    1    3    3  502    0  0.12858341949E+03  0.20586104362E+03 -0.31032500864E+03  0.39397217673E+03  0.00000000000E+00 0. -1.
         -1    1    3    3    0  502  0.26152953703E+03  0.39115904896E+03 -0.43483360266E+03  0.64068975513E+03  0.00000000000E+00 0.  1.
         13    1    5    5    0    0  0.68076914360E+02 -0.37813657940E+02 -0.16111553022E+01  0.77890530984E+02  0.00000000000E+00 0.  1.
        -13    1    5    5    0    0  0.22316552114E+03 -0.25164294160E+03  0.14871023283E+03  0.36775229874E+03  0.00000000000E+00 0. -1.
          4    1    6    6  503    0 -0.55317969277E+03 -0.27365470454E+03  0.62493078979E+03  0.87831267886E+03  0.00000000000E+00 0. -1.
         -4    1    6    6    0  503 -0.12817569926E+03 -0.33908788502E+02  0.18524309388E+03  0.22780215022E+03  0.00000000000E+00 0.  1.
<mgrwt>
<rscale>  0 0.25777071E+04</rscale>
<asrwt>0</asrwt>
<pdfrwt beam="1">  1        2 0.18263886E+00 0.25777071E+04</pdfrwt>
<pdfrwt beam="2">  1       -1 0.21527184E+00 0.25777071E+04</pdfrwt>
<totfact> 0.23056249E+00</totfact>
</mgrwt>
</event>
<event>
12    7  0.1740517E-007  0.1762168E+04  0.7818608E-02  0.8726681E-01
         -1   -1    0    0    0  501 -0.00000000000E+00  0.00000000000E+00  0.55344956270E+03  0.55344956270E+03  0.00000000000E+00 0.  1.
          2   -1    0    0  501    0  0.00000000000E+00 -0.00000000000E+00 -0.14026730961E+04  0.14026730961E+04  0.00000000000E+00 0. -1.
         24    2    1    2    0    0 -0.28934176885E+03 -0.45173113831E+03  0.86834229350E+02  0.54918002612E+03  0.79239113982E+02 0.  0.
        254    2    1    2    0    0  0.28934176885E+03  0.45173113831E+03 -0.93605776278E+03  0.14069426327E+04  0.90305246578E+03 0.  0.
         23    2    4    4    0    0  0.48162673901E+03  0.28283043286E+02 -0.19776339514E+03  0.52987081901E+03  0.94278725652E+02 0.  0.
         23    2    4    4    0    0 -0.19228497016E+03  0.42344809502E+03 -0.73829436764E+03  0.87707181370E+03  0.88851528814E+02 0.  0.
          4    1    3    3  502    0 -0.34755632305E+02 -0.91485657711E+02  0.39452194902E+02  0.10551803271E+03  0.00000000000E+00 0. -1.
         -3    1    3    3    0  502 -0.25458613655E+03 -0.36024548060E+03  0.47382034448E+02  0.44366199341E+03  0.00000000000E+00 0.  1.
         13    1    5    5    0    0  0.27746734510E+03  0.62663168222E+02 -0.10937267069E+03  0.30475757799E+03  0.00000000000E+00 0.  1.
        -13    1    5    5    0    0  0.20415939391E+03 -0.34380124936E+02 -0.88390724446E+02  0.22511324102E+03  0.00000000000E+00 0. -1.
          2    1    6    6  503    0 -0.20145321875E+03  0.39239397539E+03 -0.68907557140E+03  0.81815742640E+03  0.00000000000E+00 0. -1.
         -2    1    6    6    0  503  0.91682485860E+01  0.31054119636E+02 -0.49218796236E+02  0.58914387304E+02  0.00000000000E+00 0.  1.
<mgrwt>
<rscale>  0 0.17621678E+04</rscale>
<asrwt>0</asrwt>
<pdfrwt beam="1">  1        2 0.21579586E+00 0.17621678E+04</pdfrwt>
<pdfrwt beam="2">  1       -1 0.85146087E-01 0.17621678E+04</pdfrwt>
<totfact> 0.21226784E+01</totfact>
</mgrwt>
</event>
<event>
12    7  0.1740517E-007  0.2258194E+04  0.7818608E-02  0.8494589E-01
          2   -1    0    0  501    0  0.00000000000E+00  0.00000000000E+00  0.15650710181E+04  0.15650710181E+04  0.00000000000E+00 0. -1.
         -1   -1    0    0    0  501 -0.00000000000E+00 -0.00000000000E+00 -0.81456997641E+03  0.81456997641E+03  0.00000000000E+00 0.  1.
         24    2    1    2    0    0 -0.21695900153E+03 -0.89701285201E+03  0.88662489813E+02  0.93037822674E+03  0.77713207881E+02 0.  0.
        254    2    1    2    0    0  0.21695900153E+03  0.89701285201E+03  0.66183855183E+03  0.14492627677E+04  0.90034939675E+03 0.  0.
         23    2    4    4    0    0  0.22354790815E+03  0.10061189755E+04  0.75025316770E+03  0.12775447564E+04  0.83616557967E+02 0.  0.
         23    2    4    4    0    0 -0.65889066220E+01 -0.10910612353E+03 -0.88414615877E+02  0.17171801133E+03  0.98602085336E+02 0.  0.
          2    1    3    3  502    0 -0.14846079979E+03 -0.48197726397E+03  0.71609349835E+02  0.50938255864E+03  0.00000000000E+00 0. -1.
         -1    1    3    3    0  502 -0.68498201740E+02 -0.41503558804E+03  0.17053139979E+02  0.42099566810E+03  0.00000000000E+00 0.  1.
         13    1    5    5    0    0  0.11557018446E+03  0.52988148749E+03  0.44617443653E+03  0.70228376468E+03  0.00000000000E+00 0.  1.
        -13    1    5    5    0    0  0.10797772369E+03  0.47623748805E+03  0.30407873117E+03  0.57526099172E+03  0.00000000000E+00 0. -1.
          2    1    6    6  503    0 -0.12496260389E+02 -0.84491584223E+02 -0.61329517026E+01  0.85630586970E+02  0.00000000000E+00 0. -1.
         -2    1    6    6    0  503  0.59073537675E+01 -0.24614539307E+02 -0.82281664174E+02  0.86087424361E+02  0.00000000000E+00 0.  1.
<mgrwt>
<rscale>  0 0.22581938E+04</rscale>
<asrwt>0</asrwt>
<pdfrwt beam="1">  1        2 0.24078016E+00 0.22581938E+04</pdfrwt>
<pdfrwt beam="2">  1       -1 0.12531846E+00 0.22581938E+04</pdfrwt>
<totfact> 0.67223808E+00</totfact>
</mgrwt>
</event>
<event>
12    7  0.1740517E-007  0.3146270E+04  0.7818608E-02  0.8203153E-01
         -1   -1    0    0    0  501 -0.00000000000E+00  0.00000000000E+00  0.94492434876E+03  0.94492434876E+03  0.00000000000E+00 0.  1.
          2   -1    0    0  501    0  0.00000000000E+00 -0.00000000000E+00 -0.26189971306E+04  0.26189971306E+04  0.00000000000E+00 0. -1.
         24    2    1    2    0    0  0.64584497104E+03  0.76557892185E+03  0.40701241169E+03  0.10839487156E+04  0.77838952760E+02 0.  0.
        254    2    1    2    0    0 -0.64584497104E+03 -0.76557892185E+03 -0.20810851935E+04  0.24799727637E+04  0.90339499338E+03 0.  0.
         23    2    4    4    0    0  0.10901051620E+02  0.51574135189E+02  0.39337548985E+02  0.11272463305E+03  0.91546030988E+02 0.  0.
         23    2    4    4    0    0 -0.65674602266E+03 -0.81715305703E+03 -0.21204227425E+04  0.23672481307E+04  0.92825904115E+02 0.  0.
          4    1    3    3  502    0  0.24162284497E+01  0.11035721082E+02  0.12151354035E+02  0.16591585355E+02  0.00000000000E+00 0. -1.
         -3    1    3    3    0  502  0.64342874259E+03  0.75454320076E+03  0.39486105766E+03  0.10673571302E+04  0.00000000000E+00 0.  1.
         13    1    5    5    0    0  0.89547602850E+01  0.76185627237E+02  0.15208306907E+02  0.78203133750E+02  0.00000000000E+00 0. -1.
        -13    1    5    5    0    0  0.19462913346E+01 -0.24611492048E+02  0.24129242079E+02  0.34521499303E+02  0.00000000000E+00 0.  1.
          1    1    6    6  503    0 -0.64261760209E+03 -0.76968713487E+03 -0.20311303053E+04  0.22651414934E+04  0.00000000000E+00 0. -1.
         -1    1    6    6    0  503 -0.14128420565E+02 -0.47465922164E+02 -0.89292437162E+02  0.10210663724E+03  0.00000000000E+00 0.  1.
<mgrwt>
<rscale>  0 0.31462703E+04</rscale>
<asrwt>0</asrwt>
<pdfrwt beam="1">  1        2 0.40292263E+00 0.31462703E+04</pdfrwt>
<pdfrwt beam="2">  1       -1 0.14537298E+00 0.31462703E+04</pdfrwt>
<totfact> 0.10813753E+00</totfact>
</mgrwt>
</event>
<event>
12    7  0.1740517E-007  0.1312005E+04  0.7818608E-02  0.9020099E-01
          2   -1    0    0  501    0  0.00000000000E+00  0.00000000000E+00  0.11998121636E+04  0.11998121636E+04  0.00000000000E+00 0. -1.
         -1   -1    0    0    0  501 -0.00000000000E+00 -0.00000000000E+00 -0.35867204601E+03  0.35867204601E+03  0.00000000000E+00 0.  1.
         24    2    1    2    0    0  0.16265811172E+03  0.13914363297E+02 -0.12744014010E+03  0.22206614127E+03  0.80131834974E+02 0.  0.
        254    2    1    2    0    0 -0.16265811172E+03 -0.13914363297E+02  0.96858025766E+03  0.13364180683E+04  0.90620873255E+03 0.  0.
         23    2    4    4    0    0 -0.19168503099E+03  0.10311358670E+03  0.11069299592E+04  0.11319226688E+04  0.92625216783E+02 0.  0.
         23    2    4    4    0    0  0.29026919273E+02 -0.11702795000E+03 -0.13834970153E+03  0.20449539948E+03  0.90219872374E+02 0.  0.
          4    1    3    3  502    0  0.41493429582E+02  0.38664838600E+02 -0.53576415459E+02  0.78019912432E+02  0.00000000000E+00 0. -1.
         -3    1    3    3    0  502  0.12116468213E+03 -0.24750475303E+02 -0.73863724646E+02  0.14404622884E+03  0.00000000000E+00 0.  1.
         13    1    5    5    0    0 -0.26664568414E+02 -0.42894595147E+01  0.30427073386E+03  0.30546698374E+03  0.00000000000E+00 0. -1.
        -13    1    5    5    0    0 -0.16502046257E+03  0.10740304621E+03  0.80265922533E+03  0.82645568509E+03  0.00000000000E+00 0.  1.
          4    1    6    6  503    0  0.24447169263E+02 -0.83393122031E+02 -0.31585447486E+02  0.92464681798E+02  0.00000000000E+00 0.  1.
         -4    1    6    6    0  503  0.45797500100E+01 -0.33634827966E+02 -0.10676425404E+03  0.11203071768E+03  0.00000000000E+00 0. -1.
<mgrwt>
<rscale>  0 0.13120047E+04</rscale>
<asrwt>0</asrwt>
<pdfrwt beam="1">  1        2 0.18458648E+00 0.13120047E+04</pdfrwt>
<pdfrwt beam="2">  1       -1 0.55180315E-01 0.13120047E+04</pdfrwt>
<totfact> 0.70223304E+01</totfact>
</mgrwt>
</event>
<event>
12    7  0.1740517E-007  0.2126636E+04  0.7818608E-02  0.8549600E-01
         -1   -1    0    0    0  501 -0.00000000000E+00  0.00000000000E+00  0.41627827709E+03  0.41627827709E+03  0.00000000000E+00 0.  1.
          2   -1    0    0  501    0  0.00000000000E+00 -0.00000000000E+00 -0.27160790568E+04  0.27160790568E+04  0.00000000000E+00 0. -1.
         24    2    1    2    0    0 -0.55025393939E+03 -0.57425282649E+03 -0.12074423680E+04  0.14480455439E+04  0.79831814004E+02 0.  0.
        254    2    1    2    0    0  0.55025393939E+03  0.57425282649E+03 -0.10923584117E+04  0.16843117900E+04  0.10055414461E+04 0.  0.
         23    2    4    4    0    0  0.57760727459E+02  0.69383569843E+03 -0.36098868255E+03  0.78881742687E+03  0.84710247033E+02 0.  0.
         23    2    4    4    0    0  0.49249321193E+03 -0.11958287194E+03 -0.73136972916E+03  0.89549436316E+03  0.10079110406E+03 0.  0.
          4    1    3    3  502    0 -0.86956978438E+02 -0.91455149232E+02 -0.14263465327E+03  0.19044738048E+03  0.00000000000E+00 0. -1.
         -3    1    3    3    0  502 -0.46329696095E+03 -0.48279767726E+03 -0.10648077148E+04  0.12575981634E+04  0.00000000000E+00 0.  1.
         13    1    5    5    0    0  0.31410274879E+02  0.68212777781E+02 -0.42718898460E+02  0.86397295711E+02  0.00000000000E+00 0.  1.
        -13    1    5    5    0    0  0.26350452580E+02  0.62562292064E+03 -0.31826978409E+03  0.70242013115E+03  0.00000000000E+00 0. -1.
          1    1    6    6  503    0  0.45985623337E+03 -0.11853143038E+03 -0.71656490605E+03  0.85964104133E+03  0.00000000000E+00 0. -1.
         -1    1    6    6    0  503  0.32636978558E+02 -0.10514415535E+01 -0.14804823114E+02  0.35853321829E+02  0.00000000000E+00 0.  1.
<mgrwt>
<rscale>  0 0.21266356E+04</rscale>
<asrwt>0</asrwt>
<pdfrwt beam="1">  1        2 0.41785832E+00 0.21266356E+04</pdfrwt>
<pdfrwt beam="2">  1       -1 0.64042812E-01 0.21266356E+04</pdfrwt>
<totfact> 0.67257455E+00</totfact>
</mgrwt>
</event>
<event>
12    7  0.1740517E-007  0.1270103E+04  0.7818608E-02  0.9053615E-01
         -1   -1    0    0    0  501 -0.00000000000E+00  0.00000000000E+00  0.20008553147E+03  0.20008553147E+03  0.00000000000E+00 0.  1.
          2   -1    0    0  501    0  0.00000000000E+00 -0.00000000000E+00 -0.20155915184E+04  0.20155915184E+04  0.00000000000E+00 0. -1.
         24    2    1    2    0    0 -0.15182726023E+03 -0.26476390042E+03 -0.33994568190E+03  0.46656784140E+03  0.94715595719E+02 0.  0.
        254    2    1    2    0    0  0.15182726023E+03  0.26476390042E+03 -0.14755603050E+04  0.17491092085E+04  0.88823047089E+03 0.  0.
         23    2    4    4    0    0  0.26707457571E+03  0.35315092929E+03 -0.25994523801E+03  0.52127711218E+03  0.90077150701E+02 0.  0.
         23    2    4    4    0    0 -0.11524731548E+03 -0.88387028862E+02 -0.12156150670E+04  0.12278320963E+04  0.93581274201E+02 0.  0.
          2    1    3    3  502    0 -0.13428136621E+02  0.61824508726E+01 -0.10546447937E+02  0.18159436004E+02  0.00000000000E+00 0. -1.
         -1    1    3    3    0  502 -0.13839912360E+03 -0.27094635130E+03 -0.32939923396E+03  0.44840840540E+03  0.00000000000E+00 0.  1.
         13    1    5    5    0    0  0.19785236652E+03  0.18896145112E+03 -0.15316276154E+03  0.31354556363E+03  0.00000000000E+00 0. -1.
        -13    1    5    5    0    0  0.69222209183E+02  0.16418947816E+03 -0.10678247646E+03  0.20773154855E+03  0.00000000000E+00 0.  1.
          1    1    6    6  503    0 -0.88365253131E+02 -0.19728846722E+02 -0.85333553056E+03  0.85812538307E+03  0.00000000000E+00 0. -1.
         -1    1    6    6    0  503 -0.26882062350E+02 -0.68658182140E+02 -0.36227953645E+03  0.36970671320E+03  0.00000000000E+00 0.  1.
<mgrwt>
<rscale>  0 0.12701035E+04</rscale>
<asrwt>0</asrwt>
<pdfrwt beam="1">  1        2 0.31009101E+00 0.12701035E+04</pdfrwt>
<pdfrwt beam="2">  1       -1 0.30782389E-01 0.12701035E+04</pdfrwt>
<totfact> 0.71528436E+01</totfact>
</mgrwt>
</event>
<event>
12    7  0.1740517E-007  0.1366100E+04  0.7818608E-02  0.8978729E-01
          2   -1    0    0  501    0  0.00000000000E+00  0.00000000000E+00  0.22718882651E+04  0.22718882651E+04  0.00000000000E+00 0. -1.
         -1   -1    0    0    0  501 -0.00000000000E+00 -0.00000000000E+00 -0.20536102914E+03  0.20536102914E+03  0.00000000000E+00 0.  1.
         24    2    1    2    0    0  0.28427180898E+03  0.21964430061E+03  0.83869503073E+03  0.91583215245E+03  0.79278601848E+02 0.  0.
        254    2    1    2    0    0 -0.28427180898E+03 -0.21964430061E+03  0.12278322052E+04  0.15614171418E+04  0.89520806873E+03 0.  0.
         23    2    4    4    0    0  0.18202430264E+03  0.23103064800E+03  0.35222116335E+03  0.46806384791E+03  0.92282234129E+02 0.  0.
         23    2    4    4    0    0 -0.46629611162E+03 -0.45067494861E+03  0.87561104187E+03  0.10933532939E+04  0.90480691811E+02 0.  0.
          2    1    3    3  502    0  0.18226211298E+03  0.10689429864E+03  0.41525843323E+03  0.46592428062E+03  0.00000000000E+00 0. -1.
         -1    1    3    3    0  502  0.10200969601E+03  0.11275000197E+03  0.42343659750E+03  0.44990787182E+03  0.00000000000E+00 0.  1.
         13    1    5    5    0    0  0.15019021707E+02 -0.34472603781E+01  0.42555576699E+02  0.45259603681E+02  0.00000000000E+00 0.  1.
        -13    1    5    5    0    0  0.16700528093E+03  0.23447790838E+03  0.30966558665E+03  0.42280424422E+03  0.00000000000E+00 0. -1.
          3    1    6    6  503    0 -0.41824992709E+03 -0.37368311254E+03  0.71333835858E+03  0.90742695790E+03  0.00000000000E+00 0. -1.
         -3    1    6    6    0  503 -0.48046184523E+02 -0.76991836073E+02  0.16227268329E+03  0.18592633598E+03  0.00000000000E+00 0.  1.
<mgrwt>
<rscale>  0 0.13661000E+04</rscale>
<asrwt>0</asrwt>
<pdfrwt beam="1">  1        2 0.34952125E+00 0.13661000E+04</pdfrwt>
<pdfrwt beam="2">  1       -1 0.31594006E-01 0.13661000E+04</pdfrwt>
<totfact> 0.48782388E+01</totfact>
</mgrwt>
</event>
<event>
12    7  0.1740517E-007  0.1848202E+04  0.7818608E-02  0.8681078E-01
          2   -1    0    0  501    0  0.00000000000E+00  0.00000000000E+00  0.10086548609E+04  0.10086548609E+04  0.00000000000E+00 0. -1.
         -1   -1    0    0    0  501 -0.00000000000E+00 -0.00000000000E+00 -0.84663542950E+03  0.84663542950E+03  0.00000000000E+00 0.  1.
         24    2    1    2    0    0 -0.57822418608E+03  0.41648706087E+03  0.25732581691E+03  0.76237820128E+03  0.84848479581E+02 0.  0.
        254    2    1    2    0    0  0.57822418608E+03 -0.41648706087E+03 -0.95306385489E+02  0.10929120891E+04  0.82314570171E+03 0.  0.
         23    2    4    4    0    0 -0.12161100517E+03 -0.19831101955E+03 -0.23291504979E+03  0.34140316085E+03  0.90499727982E+02 0.  0.
         23    2    4    4    0    0  0.69983519126E+03 -0.21817604133E+03  0.13760866430E+03  0.75150892829E+03  0.91975240585E+02 0.  0.
          2    1    3    3  502    0 -0.46338724906E+03  0.36822127464E+03  0.19560839103E+03  0.62335968135E+03  0.00000000000E+00 0. -1.
         -1    1    3    3    0  502 -0.11483693703E+03  0.48265786233E+02  0.61717425888E+02  0.13901851993E+03  0.00000000000E+00 0.  1.
         13    1    5    5    0    0 -0.99381064179E+01 -0.74350363237E+02 -0.11420730529E+03  0.13663839524E+03  0.00000000000E+00 0. -1.
        -13    1    5    5    0    0 -0.11167289876E+03 -0.12396065631E+03 -0.11870774450E+03  0.20476476561E+03  0.00000000000E+00 0.  1.
          3    1    6    6  503    0  0.38883381539E+03 -0.13612438382E+03  0.12127100797E+03  0.42945109295E+03  0.00000000000E+00 0. -1.
         -3    1    6    6    0  503  0.31100137587E+03 -0.82051657502E+02  0.16337656332E+02  0.32205783534E+03  0.00000000000E+00 0.  1.
<mgrwt>
<rscale>  0 0.18482023E+04</rscale>
<asrwt>0</asrwt>
<pdfrwt beam="1">  1        2 0.15517767E+00 0.18482023E+04</pdfrwt>
<pdfrwt beam="2">  1       -1 0.13025160E+00 0.18482023E+04</pdfrwt>
<totfact> 0.13465989E+01</totfact>
</mgrwt>
</event>
<event>
12    7  0.1740517E-007  0.1469662E+04  0.7818608E-02  0.8904882E-01
          2   -1    0    0  501    0  0.00000000000E+00  0.00000000000E+00  0.11962563249E+04  0.11962563249E+04  0.00000000000E+00 0. -1.
         -1   -1    0    0    0  501 -0.00000000000E+00 -0.00000000000E+00 -0.45138848424E+03  0.45138848424E+03  0.00000000000E+00 0.  1.
         24    2    1    2    0    0 -0.24228127030E+03 -0.36876867955E+02  0.66004946666E+03  0.70859136889E+03  0.79851814642E+02 0.  0.
        254    2    1    2    0    0  0.24228127030E+03  0.36876867955E+02  0.84818373959E+02  0.93905344020E+03  0.90253370556E+03 0.  0.
         23    2    4    4    0    0  0.43356689781E+03 -0.65071374173E+02  0.36088695517E+03  0.57700686715E+03  0.10238648209E+03 0.  0.
         23    2    4    4    0    0 -0.19128562751E+03  0.10194824213E+03 -0.27606858121E+03  0.36204657305E+03  0.88770626681E+02 0.  0.
          2    1    3    3  502    0 -0.23571928035E+03 -0.51090100775E+02  0.63214982625E+03  0.67659971944E+03  0.00000000000E+00 0. -1.
         -3    1    3    3    0  502 -0.65619899483E+01  0.14213232820E+02  0.27899640414E+02  0.31991649449E+02  0.00000000000E+00 0.  1.
         13    1    5    5    0    0  0.43480684270E+03 -0.64538442116E+02  0.36582795459E+03  0.57188486021E+03  0.00000000000E+00 0. -1.
        -13    1    5    5    0    0 -0.12399448944E+01 -0.53293205684E+00 -0.49409994182E+01  0.51220069474E+01  0.00000000000E+00 0.  1.
          3    1    6    6  503    0 -0.17842269501E+03  0.10405541545E+03 -0.28044407752E+03  0.34829738471E+03  0.00000000000E+00 0. -1.
         -3    1    6    6    0  503 -0.12862932503E+02 -0.21071733262E+01  0.43754963128E+01  0.13749188340E+02  0.00000000000E+00 0.  1.
<mgrwt>
<rscale>  0 0.14696616E+04</rscale>
<asrwt>0</asrwt>
<pdfrwt beam="1">  1        2 0.18403943E+00 0.14696616E+04</pdfrwt>
<pdfrwt beam="2">  1       -1 0.69444382E-01 0.14696616E+04</pdfrwt>
<totfact> 0.44093836E+01</totfact>
</mgrwt>
</event>
<event>
12    7  0.1740517E-007  0.1170456E+04  0.7818608E-02  0.9139116E-01
          2   -1    0    0  501    0  0.00000000000E+00  0.00000000000E+00  0.39652477956E+04  0.39652477956E+04  0.00000000000E+00 0. -1.
         -1   -1    0    0    0  501 -0.00000000000E+00 -0.00000000000E+00 -0.86373406161E+02  0.86373406161E+02  0.00000000000E+00 0.  1.
         24    2    1    2    0    0 -0.18501556455E+03 -0.51160556723E+02  0.37015139133E+03  0.42510316468E+03  0.82779746482E+02 0.  0.
        254    2    1    2    0    0  0.18501556455E+03  0.51160556723E+02  0.35087229981E+04  0.36265180371E+04  0.89646407297E+03 0.  0.
         23    2    4    4    0    0 -0.83903313409E+02 -0.30232258682E+03  0.60678000538E+03  0.68935513269E+03  0.92681236140E+02 0.  0.
         23    2    4    4    0    0  0.26891887796E+03  0.35348314355E+03  0.29019429927E+04  0.29371629044E+04  0.91570181796E+02 0.  0.
          4    1    3    3  502    0 -0.29030383365E+02  0.22321693912E+02  0.64620659508E+02  0.74275506142E+02  0.00000000000E+00 0. -1.
         -3    1    3    3    0  502 -0.15598518118E+03 -0.73482250635E+02  0.30553073182E+03  0.35082765854E+03  0.00000000000E+00 0.  1.
         13    1    5    5    0    0 -0.91260557508E+02 -0.27778018888E+03  0.59070745089E+03  0.65910971410E+03  0.00000000000E+00 0. -1.
        -13    1    5    5    0    0  0.73572440984E+01 -0.24542397945E+02  0.16072554492E+02  0.30245418588E+02  0.00000000000E+00 0.  1.
          3    1    6    6  503    0  0.21565956465E+03  0.21475118344E+03  0.18814848543E+04  0.19059413358E+04  0.00000000000E+00 0. -1.
         -3    1    6    6    0  503  0.53259313306E+02  0.13873196010E+03  0.10204581385E+04  0.10312215686E+04  0.00000000000E+00 0.  1.
<mgrwt>
<rscale>  0 0.11704563E+04</rscale>
<asrwt>0</asrwt>
<pdfrwt beam="1">  1        2 0.61003798E+00 0.11704563E+04</pdfrwt>
<pdfrwt beam="2">  1       -1 0.13288219E-01 0.11704563E+04</pdfrwt>
<totfact> 0.17149198E+01</totfact>
</mgrwt>
</event>
<event>
12    7  0.1740517E-007  0.1078946E+04  0.7818608E-02  0.9225958E-01
         -1   -1    0    0    0  501 -0.00000000000E+00  0.00000000000E+00  0.96433600368E+02  0.96433600368E+02  0.00000000000E+00 0.  1.
          2   -1    0    0  501    0  0.00000000000E+00 -0.00000000000E+00 -0.30179457728E+04  0.30179457728E+04  0.00000000000E+00 0. -1.
         24    2    1    2    0    0 -0.14327475786E+03 -0.19302450014E+02 -0.70664849827E+03  0.72576702391E+03  0.80532180321E+02 0.  0.
        254    2    1    2    0    0  0.14327475786E+03  0.19302450014E+02 -0.22148636741E+04  0.23886123492E+04  0.88258009217E+03 0.  0.
         23    2    4    4    0    0  0.11467211527E+03  0.41812802188E+03 -0.15018069181E+04  0.15658902597E+04  0.92776881050E+02 0.  0.
         23    2    4    4    0    0  0.28602642588E+02 -0.39882557186E+03 -0.71305675606E+03  0.82272208950E+03  0.92421595144E+02 0.  0.
          4    1    3    3  502    0 -0.10389537443E+03 -0.28613606056E+02 -0.62942925104E+03  0.63858763638E+03  0.00000000000E+00 0. -1.
         -3    1    3    3    0  502 -0.39379383426E+02  0.93111560423E+01 -0.77219247236E+02  0.87179387527E+02  0.00000000000E+00 0.  1.
         13    1    5    5    0    0  0.11957538689E+03  0.27218678385E+03 -0.99446653999E+03  0.10379535720E+04  0.00000000000E+00 0. -1.
        -13    1    5    5    0    0 -0.49032716201E+01  0.14594123803E+03 -0.50734037808E+03  0.52793668774E+03  0.00000000000E+00 0.  1.
          2    1    6    6  503    0 -0.18526897974E+02 -0.76685892807E+02 -0.20101496399E+03  0.21594209375E+03  0.00000000000E+00 0. -1.
         -2    1    6    6    0  503  0.47129540562E+02 -0.32213967906E+03 -0.51204179207E+03  0.60677999575E+03  0.00000000000E+00 0.  1.
<mgrwt>
<rscale>  0 0.10789465E+04</rscale>
<asrwt>0</asrwt>
<pdfrwt beam="1">  1        2 0.46429939E+00 0.10789465E+04</pdfrwt>
<pdfrwt beam="2">  1       -1 0.14835937E-01 0.10789465E+04</pdfrwt>
<totfact> 0.65664470E+01</totfact>
</mgrwt>
</event>
<event>
12    7  0.1740517E-007  0.2067271E+04  0.7818608E-02  0.8575799E-01
         -1   -1    0    0    0  501 -0.00000000000E+00  0.00000000000E+00  0.63868311688E+03  0.63868311688E+03  0.00000000000E+00 0.  1.
          2   -1    0    0  501    0  0.00000000000E+00 -0.00000000000E+00 -0.16728213047E+04  0.16728213047E+04  0.00000000000E+00 0. -1.
         24    2    1    2    0    0  0.59076873124E+03 -0.58521932364E+03 -0.32153564731E+03  0.89501281366E+03  0.78571073245E+02 0.  0.
        254    2    1    2    0    0 -0.59076873124E+03  0.58521932364E+03 -0.71260254051E+03  0.14164916079E+04  0.89841902473E+03 0.  0.
         23    2    4    4    0    0 -0.48352063554E+03  0.53387456698E+03 -0.91235079017E+03  0.11659468788E+04  0.90740849021E+02 0.  0.
         23    2    4    4    0    0 -0.10724809570E+03  0.51344756663E+02  0.19974824967E+03  0.25054472908E+03  0.93460472704E+02 0.  0.
          4    1    3    3  502    0  0.48819458389E+03 -0.50786078207E+03 -0.24711759275E+03  0.74654111096E+03  0.00000000000E+00 0. -1.
         -3    1    3    3    0  502  0.10257414735E+03 -0.77358541567E+02 -0.74418054558E+02  0.14847170270E+03  0.00000000000E+00 0.  1.
         13    1    5    5    0    0 -0.32824518992E+03  0.30085224542E+03 -0.58487598525E+03  0.73507611606E+03  0.00000000000E+00 0.  1.
        -13    1    5    5    0    0 -0.15527544562E+03  0.23302232156E+03 -0.32747480493E+03  0.43087076278E+03  0.00000000000E+00 0. -1.
          4    1    6    6  503    0 -0.42342914428E+02 -0.98755506950E+01  0.16089745642E+02  0.46360854377E+02  0.00000000000E+00 0. -1.
         -4    1    6    6    0  503 -0.64905181274E+02  0.61220307358E+02  0.18365850403E+03  0.20418387471E+03  0.00000000000E+00 0.  1.
<mgrwt>
<rscale>  0 0.20672714E+04</rscale>
<asrwt>0</asrwt>
<pdfrwt beam="1">  1        2 0.25735713E+00 0.20672714E+04</pdfrwt>
<pdfrwt beam="2">  1       -1 0.98258940E-01 0.20672714E+04</pdfrwt>
<totfact> 0.10602248E+01</totfact>
</mgrwt>
</event>
<event>
12    7  0.1740517E-007  0.1872795E+04  0.7818608E-02  0.8668518E-01
          2   -1    0    0  501    0  0.00000000000E+00  0.00000000000E+00  0.10645843176E+04  0.10645843176E+04  0.00000000000E+00 0. -1.
         -1   -1    0    0    0  501 -0.00000000000E+00 -0.00000000000E+00 -0.82364535286E+03  0.82364535286E+03  0.00000000000E+00 0.  1.
         24    2    1    2    0    0  0.31448541143E+03  0.24040331827E+03  0.69737879413E+03  0.80634357610E+03  0.84604673479E+02 0.  0.
        254    2    1    2    0    0 -0.31448541143E+03 -0.24040331827E+03 -0.45643982943E+03  0.10818860943E+04  0.89746608501E+03 0.  0.
         23    2    4    4    0    0 -0.50626657925E+03  0.11654118265E+03 -0.10157777906E+03  0.53570394901E+03  0.82298112184E+02 0.  0.
         23    2    4    4    0    0  0.19178116782E+03 -0.35694450091E+03 -0.35486205038E+03  0.54618214531E+03  0.90545391911E+02 0.  0.
          4    1    3    3  502    0  0.26682328275E+03  0.17854155978E+03  0.60872775849E+03  0.68820145070E+03  0.00000000000E+00 0. -1.
         -3    1    3    3    0  502  0.47662128679E+02  0.61861758492E+02  0.88651035637E+02  0.11814212540E+03  0.00000000000E+00 0.  1.
         13    1    5    5    0    0 -0.15966941552E+03  0.39451173601E+02 -0.71579689566E+02  0.17937215310E+03  0.00000000000E+00 0.  1.
        -13    1    5    5    0    0 -0.34659716373E+03  0.77090009044E+02 -0.29998089492E+02  0.35633179591E+03  0.00000000000E+00 0. -1.
          3    1    6    6  503    0  0.19421576863E+03 -0.29493031794E+03 -0.30164353757E+03  0.46442704592E+03  0.00000000000E+00 0. -1.
         -3    1    6    6    0  503 -0.24346008115E+01 -0.62014182972E+02 -0.53218512802E+02  0.81755099386E+02  0.00000000000E+00 0.  1.
<mgrwt>
<rscale>  0 0.18727946E+04</rscale>
<asrwt>0</asrwt>
<pdfrwt beam="1">  1        2 0.16378220E+00 0.18727946E+04</pdfrwt>
<pdfrwt beam="2">  1       -1 0.12671467E+00 0.18727946E+04</pdfrwt>
<totfact> 0.13273854E+01</totfact>
</mgrwt>
</event>
<event>
12    7  0.1740517E-007  0.1270600E+04  0.7818608E-02  0.9053210E-01
         -1   -1    0    0    0  501 -0.00000000000E+00  0.00000000000E+00  0.43369973816E+03  0.43369973816E+03  0.00000000000E+00 0.  1.
          2   -1    0    0  501    0  0.00000000000E+00 -0.00000000000E+00 -0.93061203922E+03  0.93061203922E+03  0.00000000000E+00 0. -1.
         24    2    1    2    0    0 -0.11445522595E+03  0.28762642461E+03 -0.18206952879E+03  0.36794265207E+03  0.80022015856E+02 0.  0.
        254    2    1    2    0    0  0.11445522595E+03 -0.28762642461E+03 -0.31484277227E+03  0.99636912530E+03  0.89319454976E+03 0.  0.
         23    2    4    4    0    0  0.38834473436E+03  0.74147910610E+02 -0.34485527735E+03  0.53253738512E+03  0.91440466326E+02 0.  0.
         23    2    4    4    0    0 -0.27388950841E+03 -0.36177433522E+03  0.30012505080E+02  0.46383174018E+03  0.91340025695E+02 0.  0.
          4    1    3    3  502    0 -0.55460012565E+02  0.14189668282E+03 -0.13571801633E+03  0.20403397155E+03  0.00000000000E+00 0. -1.
         -3    1    3    3    0  502 -0.58995213384E+02  0.14572974179E+03 -0.46351512454E+02  0.16390868053E+03  0.00000000000E+00 0.  1.
         13    1    5    5    0    0  0.84168651359E+02  0.52915225384E+00 -0.32078431336E+02  0.90075899277E+02  0.00000000000E+00 0. -1.
        -13    1    5    5    0    0  0.30417608300E+03  0.73618758357E+02 -0.31277684602E+03  0.44246148585E+03  0.00000000000E+00 0.  1.
          1    1    6    6  503    0 -0.41085567317E+02 -0.12112262593E+03  0.13194006308E+02  0.12857992128E+03  0.00000000000E+00 0. -1.
         -1    1    6    6    0  503 -0.23280394110E+03 -0.24065170929E+03  0.16818498772E+02  0.33525181890E+03  0.00000000000E+00 0.  1.
<mgrwt>
<rscale>  0 0.12706002E+04</rscale>
<asrwt>0</asrwt>
<pdfrwt beam="1">  1        2 0.14317108E+00 0.12706002E+04</pdfrwt>
<pdfrwt beam="2">  1       -1 0.66723037E-01 0.12706002E+04</pdfrwt>
<totfact> 0.71336100E+01</totfact>
</mgrwt>
</event>
<event>
12    7  0.1740517E-007  0.1914222E+04  0.7818608E-02  0.8647809E-01
          2   -1    0    0  501    0  0.00000000000E+00  0.00000000000E+00  0.22652563543E+04  0.22652563543E+04  0.00000000000E+00 0. -1.
         -1   -1    0    0    0  501 -0.00000000000E+00 -0.00000000000E+00 -0.40439640371E+03  0.40439640371E+03  0.00000000000E+00 0.  1.
         24    2    1    2    0    0  0.38964994951E+02  0.13707586084E+03 -0.29262986242E+03  0.33532486093E+03  0.80637854155E+02 0.  0.
        254    2    1    2    0    0 -0.38964994951E+02 -0.13707586084E+03  0.21534898130E+04  0.23343278971E+04  0.88952812991E+03 0.  0.
         23    2    4    4    0    0 -0.31859730270E+03  0.19757842885E+03  0.56383086642E+03  0.68335557244E+03  0.92347797085E+02 0.  0.
         23    2    4    4    0    0  0.27963230775E+03 -0.33465428970E+03  0.15896589466E+04  0.16509723246E+04  0.92229762607E+02 0.  0.
          4    1    3    3  502    0  0.10584837113E+02  0.49556127480E+02 -0.34540276490E+02  0.61326007921E+02  0.00000000000E+00 0. -1.
         -3    1    3    3    0  502  0.28380157838E+02  0.87519733363E+02 -0.25808958593E+03  0.27399885301E+03  0.00000000000E+00 0.  1.
         13    1    5    5    0    0 -0.15831471249E+03  0.10624683369E+03  0.20549566431E+03  0.28032196830E+03  0.00000000000E+00 0. -1.
        -13    1    5    5    0    0 -0.16028259020E+03  0.91331595164E+02  0.35833520211E+03  0.40303360414E+03  0.00000000000E+00 0.  1.
          2    1    6    6  503    0  0.24018515075E+03 -0.25692560524E+03  0.11430219458E+04  0.11959092114E+04  0.00000000000E+00 0.  1.
         -2    1    6    6    0  503  0.39447156993E+02 -0.77728684459E+02  0.44663700076E+03  0.45506311323E+03  0.00000000000E+00 0. -1.
<mgrwt>
<rscale>  0 0.19142221E+04</rscale>
<asrwt>0</asrwt>
<pdfrwt beam="1">  1        2 0.34850097E+00 0.19142221E+04</pdfrwt>
<pdfrwt beam="2">  1       -1 0.62214833E-01 0.19142221E+04</pdfrwt>
<totfact> 0.13243536E+01</totfact>
</mgrwt>
</event>
<event>
12    7  0.1740517E-007  0.1730719E+04  0.7818608E-02  0.8744035E-01
          2   -1    0    0  501    0  0.00000000000E+00  0.00000000000E+00  0.26963217790E+04  0.26963217790E+04  0.00000000000E+00 0. -1.
         -1   -1    0    0    0  501 -0.00000000000E+00 -0.00000000000E+00 -0.27772923819E+03  0.27772923819E+03  0.00000000000E+00 0.  1.
         24    2    1    2    0    0 -0.31654113908E+03  0.53764062813E+03  0.91969683888E+03  0.11154358542E+04  0.95389369006E+02 0.  0.
        254    2    1    2    0    0  0.31654113908E+03 -0.53764062813E+03  0.14988957020E+04  0.18586151630E+04  0.90471335846E+03 0.  0.
         23    2    4    4    0    0  0.46619704412E+03 -0.65859803407E+03  0.14082173844E+04  0.16256912042E+04  0.93298634625E+02 0.  0.
         23    2    4    4    0    0 -0.14965590504E+03  0.12095740593E+03  0.90678317576E+02  0.23292395881E+03  0.94886402310E+02 0.  0.
          4    1    3    3  502    0 -0.12846659117E+03  0.27396224438E+03  0.37665067957E+03  0.48314046696E+03  0.00000000000E+00 0. -1.
         -3    1    3    3    0  502 -0.18807454790E+03  0.26367838375E+03  0.54304615931E+03  0.63229538728E+03  0.00000000000E+00 0.  1.
         13    1    5    5    0    0  0.29308037084E+03 -0.48733020120E+03  0.97503748675E+03  0.11287537062E+04  0.00000000000E+00 0.  1.
        -13    1    5    5    0    0  0.17311667328E+03 -0.17126783286E+03  0.43317989764E+03  0.49693749794E+03  0.00000000000E+00 0. -1.
          3    1    6    6  503    0 -0.11475964509E+03  0.53311183543E+02  0.18237013752E+02  0.12784540314E+03  0.00000000000E+00 0. -1.
         -3    1    6    6    0  503 -0.34896259953E+02  0.67646222392E+02  0.72441303824E+02  0.10507855567E+03  0.00000000000E+00 0.  1.
<mgrwt>
<rscale>  0 0.17307194E+04</rscale>
<asrwt>0</asrwt>
<pdfrwt beam="1">  1        2 0.41481872E+00 0.17307194E+04</pdfrwt>
<pdfrwt beam="2">  1       -1 0.42727577E-01 0.17307194E+04</pdfrwt>
<totfact> 0.15597445E+01</totfact>
</mgrwt>
</event>
<event>
12    7  0.1740517E-007  0.1259314E+04  0.7818608E-02  0.9062467E-01
          2   -1    0    0  501    0  0.00000000000E+00  0.00000000000E+00  0.11920893694E+04  0.11920893694E+04  0.00000000000E+00 0. -1.
         -1   -1    0    0    0  501 -0.00000000000E+00 -0.00000000000E+00 -0.33258220448E+03  0.33258220448E+03  0.00000000000E+00 0.  1.
         24    2    1    2    0    0  0.20537955937E+03  0.20351914476E+03  0.26813489040E+03  0.40145356608E+03  0.75285062106E+02 0.  0.
        254    2    1    2    0    0 -0.20537955937E+03 -0.20351914476E+03  0.59137227452E+03  0.11232180078E+04  0.91010808165E+03 0.  0.
         23    2    4    4    0    0  0.13235485922E+03 -0.39884015654E+03  0.58058484029E+03  0.72254036148E+03  0.91621711233E+02 0.  0.
         23    2    4    4    0    0 -0.33773441858E+03  0.19532101178E+03  0.10787434233E+02  0.40067764631E+03  0.90616623088E+02 0.  0.
          2    1    3    3  502    0  0.16525119024E+03  0.12587240112E+03  0.21601427516E+03  0.29968981350E+03  0.00000000000E+00 0. -1.
         -1    1    3    3    0  502  0.40128369121E+02  0.77646743637E+02  0.52120615241E+02  0.10176375258E+03  0.00000000000E+00 0.  1.
         13    1    5    5    0    0 -0.12502000203E+02 -0.47112576211E+02  0.51532971404E+02  0.70933363011E+02  0.00000000000E+00 0. -1.
        -13    1    5    5    0    0  0.14485685942E+03 -0.35172758033E+03  0.52905186888E+03  0.65160699847E+03  0.00000000000E+00 0.  1.
          3    1    6    6  503    0 -0.56003511700E+02  0.72399122008E+02 -0.12670825433E+02  0.92404415519E+02  0.00000000000E+00 0. -1.
         -3    1    6    6    0  503 -0.28173090688E+03  0.12292188977E+03  0.23458259667E+02  0.30827323080E+03  0.00000000000E+00 0.  1.
<mgrwt>
<rscale>  0 0.12593136E+04</rscale>
<asrwt>0</asrwt>
<pdfrwt beam="1">  1        2 0.18339836E+00 0.12593136E+04</pdfrwt>
<pdfrwt beam="2">  1       -1 0.51166494E-01 0.12593136E+04</pdfrwt>
<totfact> 0.82395459E+01</totfact>
</mgrwt>
</event>
<event>
12    7  0.1740517E-007  0.2237041E+04  0.7818608E-02  0.8503167E-01
         -1   -1    0    0    0  501 -0.00000000000E+00  0.00000000000E+00  0.61950515476E+03  0.61950515476E+03  0.00000000000E+00 0.  1.
          2   -1    0    0  501    0  0.00000000000E+00 -0.00000000000E+00 -0.20194954169E+04  0.20194954169E+04  0.00000000000E+00 0. -1.
         24    2    1    2    0    0 -0.70578246099E+03 -0.36957732932E+03 -0.15406005771E+02  0.80094276453E+03  0.80967168960E+02 0.  0.
        254    2    1    2    0    0  0.70578246099E+03  0.36957732932E+03 -0.13845842564E+04  0.18380578072E+04  0.90921210663E+03 0.  0.
         23    2    4    4    0    0  0.57154457971E+03  0.51057003689E+03 -0.14233037210E+04  0.16191749459E+04  0.92677149747E+02 0.  0.
         23    2    4    4    0    0  0.13423788129E+03 -0.14099270757E+03  0.38719464621E+02  0.21888286124E+03  0.92259187325E+02 0.  0.
          2    1    3    3  502    0 -0.12581770092E+03 -0.10069404894E+03 -0.13018415495E+02  0.16167518207E+03  0.00000000000E+00 0. -1.
         -1    1    3    3    0  502 -0.57996476007E+03 -0.26888328038E+03 -0.23875902758E+01  0.63926758245E+03  0.00000000000E+00 0.  1.
         13    1    5    5    0    0  0.72193480869E+02  0.85177383449E+02 -0.15194698340E+03  0.18856025852E+03  0.00000000000E+00 0. -1.
        -13    1    5    5    0    0  0.49935109884E+03  0.42539265344E+03 -0.12713567376E+04  0.14306146874E+04  0.00000000000E+00 0.  1.
          4    1    6    6  503    0  0.73639903341E+02 -0.59116506682E+02  0.63817195407E+02  0.11397469524E+03  0.00000000000E+00 0.  1.
         -4    1    6    6    0  503  0.60597977944E+02 -0.81876200887E+02 -0.25097730787E+02  0.10490816600E+03  0.00000000000E+00 0. -1.
<mgrwt>
<rscale>  0 0.22370407E+04</rscale>
<asrwt>0</asrwt>
<pdfrwt beam="1">  1        2 0.31069160E+00 0.22370407E+04</pdfrwt>
<pdfrwt beam="2">  1       -1 0.95308488E-01 0.22370407E+04</pdfrwt>
<totfact> 0.71836697E+00</totfact>
</mgrwt>
</event>
<event>
12    7  0.1740517E-007  0.2180861E+04  0.7818608E-02  0.8526437E-01
          2   -1    0    0  501    0  0.00000000000E+00  0.00000000000E+00  0.12772986176E+04  0.12772986176E+04  0.00000000000E+00 0. -1.
         -1   -1    0    0    0  501 -0.00000000000E+00 -0.00000000000E+00 -0.93090107336E+03  0.93090107336E+03  0.00000000000E+00 0.  1.
         24    2    1    2    0    0  0.37317444658E+03  0.82360727758E+03  0.20648802237E+03  0.93086736110E+03  0.79300853157E+02 0.  0.
        254    2    1    2    0    0 -0.37317444658E+03 -0.82360727758E+03  0.13990952187E+03  0.12773323298E+04  0.89129966414E+03 0.  0.
         23    2    4    4    0    0 -0.36325180387E+02 -0.68129624896E+03 -0.25277505163E+03  0.73320448576E+03  0.90606256068E+02 0.  0.
         23    2    4    4    0    0 -0.33684926619E+03 -0.14231102863E+03  0.39268457349E+03  0.54412784409E+03  0.90299941588E+02 0.  0.
          4    1    3    3  502    0  0.31548082383E+03  0.75345334680E+03  0.18445181162E+03  0.83740227300E+03  0.00000000000E+00 0. -1.
         -3    1    3    3    0  502  0.57693622743E+02  0.70153930778E+02  0.22036210747E+02  0.93465088096E+02  0.00000000000E+00 0.  1.
         13    1    5    5    0    0 -0.34240749326E+02 -0.46778356368E+03 -0.12921613120E+03  0.48650868432E+03  0.00000000000E+00 0. -1.
        -13    1    5    5    0    0 -0.20844310613E+01 -0.21351268528E+03 -0.12355892043E+03  0.24669580143E+03  0.00000000000E+00 0.  1.
          2    1    6    6  503    0 -0.28837196852E+02  0.11331890949E+02  0.20360894039E+02  0.37075081670E+02  0.00000000000E+00 0. -1.
         -2    1    6    6    0  503 -0.30801206934E+03 -0.15364291957E+03  0.37232367946E+03  0.50705276242E+03  0.00000000000E+00 0.  1.
<mgrwt>
<rscale>  0 0.21808610E+04</rscale>
<asrwt>0</asrwt>
<pdfrwt beam="1">  1        2 0.19650748E+00 0.21808610E+04</pdfrwt>
<pdfrwt beam="2">  1       -1 0.14321555E+00 0.21808610E+04</pdfrwt>
<totfact> 0.70230519E+00</totfact>
</mgrwt>
</event>
<event>
12    7  0.1740517E-007  0.1901091E+04  0.7818608E-02  0.8654314E-01
         -1   -1    0    0    0  501 -0.00000000000E+00  0.00000000000E+00  0.34952232584E+03  0.34952232584E+03  0.00000000000E+00 0.  1.
          2   -1    0    0  501    0  0.00000000000E+00 -0.00000000000E+00 -0.25850611262E+04  0.25850611262E+04  0.00000000000E+00 0. -1.
         24    2    1    2    0    0  0.10216566789E+03 -0.36502231484E+03 -0.18355592762E+04  0.18758873442E+04  0.77436151013E+02 0.  0.
        254    2    1    2    0    0 -0.10216566789E+03  0.36502231484E+03 -0.39997952415E+03  0.10586961079E+04  0.90397716513E+03 0.  0.
         23    2    4    4    0    0 -0.40019950492E+03  0.13629443475E+03 -0.49708033211E+03  0.65876821382E+03  0.90282258958E+02 0.  0.
         23    2    4    4    0    0  0.29803383702E+03  0.22872788009E+03  0.97100807958E+02  0.39992789407E+03  0.96814990616E+02 0.  0.
          2    1    3    3  502    0  0.60634302011E+02 -0.27286046365E+03 -0.14834830549E+04  0.15095864750E+04  0.00000000000E+00 0. -1.
         -1    1    3    3    0  502  0.41531365883E+02 -0.92161851197E+02 -0.35207622127E+03  0.36630086916E+03  0.00000000000E+00 0.  1.
         13    1    5    5    0    0 -0.39995627938E+03  0.14112222841E+03 -0.49769356787E+03  0.65389555455E+03  0.00000000000E+00 0. -1.
        -13    1    5    5    0    0 -0.24322553733E+00 -0.48277936530E+01  0.61323575645E+00  0.48726592648E+01  0.00000000000E+00 0.  1.
          2    1    6    6  503    0  0.26202323693E+03  0.21861316080E+03  0.11274001954E+03  0.35938586891E+03  0.00000000000E+00 0. -1.
         -2    1    6    6    0  503  0.36010600094E+02  0.10114719290E+02 -0.15639211578E+02  0.40542025162E+02  0.00000000000E+00 0.  1.
<mgrwt>
<rscale>  0 0.19010908E+04</rscale>
<asrwt>0</asrwt>
<pdfrwt beam="1">  1        2 0.39770172E+00 0.19010908E+04</pdfrwt>
<pdfrwt beam="2">  1       -1 0.53772665E-01 0.19010908E+04</pdfrwt>
<totfact> 0.11568844E+01</totfact>
</mgrwt>
</event>
<event>
12    7  0.1740517E-007  0.1795169E+04  0.7818608E-02  0.8708873E-01
         -1   -1    0    0    0  501 -0.00000000000E+00  0.00000000000E+00  0.22432242224E+03  0.22432242224E+03  0.00000000000E+00 0.  1.
          2   -1    0    0  501    0  0.00000000000E+00 -0.00000000000E+00 -0.35915173171E+04  0.35915173171E+04  0.00000000000E+00 0. -1.
         24    2    1    2    0    0  0.18932436941E+03 -0.28654908828E+03 -0.48918008888E+02  0.35950561184E+03  0.94325057673E+02 0.  0.
        254    2    1    2    0    0 -0.18932436941E+03  0.28654908828E+03 -0.33182768860E+04  0.34563341275E+04  0.90406305757E+03 0.  0.
         23    2    4    4    0    0  0.35495492545E+03  0.10670567191E+03 -0.15084032868E+04  0.15557361359E+04  0.87494853686E+02 0.  0.
         23    2    4    4    0    0 -0.54427929486E+03  0.17984341638E+03 -0.18098735992E+04  0.19005979916E+04  0.89703263108E+02 0.  0.
          4    1    3    3  502    0  0.62207209682E+02 -0.61937417782E+02  0.24573834208E+02  0.91158400521E+02  0.00000000000E+00 0. -1.
         -3    1    3    3    0  502  0.12711715972E+03 -0.22461167050E+03 -0.73491843096E+02  0.26834721132E+03  0.00000000000E+00 0.  1.
         13    1    5    5    0    0  0.26594183759E+03  0.84822567075E+02 -0.96134297553E+03  0.10010495719E+04  0.00000000000E+00 0.  1.
        -13    1    5    5    0    0  0.89013087866E+02  0.21883104833E+02 -0.54706031131E+03  0.55468656401E+03  0.00000000000E+00 0. -1.
          3    1    6    6  503    0 -0.24249419192E+03  0.55456715651E+02 -0.66112909335E+03  0.70637848106E+03  0.00000000000E+00 0. -1.
         -3    1    6    6    0  503 -0.30178510294E+03  0.12438670073E+03 -0.11487445058E+04  0.11942195105E+04  0.00000000000E+00 0.  1.
<mgrwt>
<rscale>  0 0.17951689E+04</rscale>
<asrwt>0</asrwt>
<pdfrwt beam="1">  1        2 0.55254108E+00 0.17951689E+04</pdfrwt>
<pdfrwt beam="2">  1       -1 0.34511145E-01 0.17951689E+04</pdfrwt>
<totfact> 0.60469885E+00</totfact>
</mgrwt>
</event>
<event>
12    7  0.1740517E-007  0.2873453E+04  0.7818608E-02  0.8280820E-01
         -1   -1    0    0    0  501 -0.00000000000E+00  0.00000000000E+00  0.35029533611E+04  0.35029533611E+04  0.00000000000E+00 0.  1.
          2   -1    0    0  501    0  0.00000000000E+00 -0.00000000000E+00 -0.58926944993E+03  0.58926944993E+03  0.00000000000E+00 0. -1.
         24    2    1    2    0    0  0.43405492146E+03  0.51637125379E+03  0.28968157129E+04  0.29754046046E+04  0.80301554631E+02 0.  0.
        254    2    1    2    0    0 -0.43405492146E+03 -0.51637125379E+03  0.16868198216E+02  0.11168182064E+04  0.88991877354E+03 0.  0.
         23    2    4    4    0    0 -0.28062042321E+03 -0.67914700564E+03 -0.22621509000E+03  0.77378050091E+03  0.87031715156E+02 0.  0.
         23    2    4    4    0    0 -0.15343449825E+03  0.16277575185E+03  0.24308328821E+03  0.34303770551E+03  0.92451564344E+02 0.  0.
          4    1    3    3  502    0  0.84479575108E+00  0.20690278999E+02  0.73969956625E+02  0.76813773557E+02  0.00000000000E+00 0. -1.
         -3    1    3    3    0  502  0.43321012571E+03  0.49568097479E+03  0.28228457563E+04  0.28985908310E+04  0.00000000000E+00 0.  1.
         13    1    5    5    0    0 -0.14010866907E+03 -0.44300264704E+03 -0.15661709272E+03  0.49031693644E+03  0.00000000000E+00 0. -1.
        -13    1    5    5    0    0 -0.14051175414E+03 -0.23614435861E+03 -0.69597997276E+02  0.28346356447E+03  0.00000000000E+00 0.  1.
          2    1    6    6  503    0 -0.16328332208E+03  0.13897165665E+03  0.20222583743E+03  0.29473692328E+03  0.00000000000E+00 0. -1.
         -2    1    6    6    0  503  0.98488238325E+01  0.23804095207E+02  0.40857450785E+02  0.48300782231E+02  0.00000000000E+00 0.  1.
<mgrwt>
<rscale>  0 0.28734533E+04</rscale>
<asrwt>0</asrwt>
<pdfrwt beam="1">  1        2 0.90656840E-01 0.28734533E+04</pdfrwt>
<pdfrwt beam="2">  1       -1 0.53891589E+00 0.28734533E+04</pdfrwt>
<totfact> 0.42912419E-02</totfact>
</mgrwt>
</event>
<event>
12    7  0.1740517E-007  0.1737078E+04  0.7818608E-02  0.8740495E-01
         -1   -1    0    0    0  501 -0.00000000000E+00  0.00000000000E+00  0.10684948528E+04  0.10684948528E+04  0.00000000000E+00 0.  1.
          2   -1    0    0  501    0  0.00000000000E+00 -0.00000000000E+00 -0.70600241997E+03  0.70600241997E+03  0.00000000000E+00 0. -1.
         24    2    1    2    0    0  0.52931453573E+03  0.27319241065E+03 -0.45454735929E+02  0.60257475162E+03  0.78881095914E+02 0.  0.
        254    2    1    2    0    0 -0.52931453573E+03 -0.27319241065E+03  0.40794716872E+03  0.11719225211E+04  0.92313245638E+03 0.  0.
         23    2    4    4    0    0 -0.39585964226E+03 -0.53736756720E+03  0.51210753142E+03  0.84702485672E+03  0.98631767244E+02 0.  0.
         23    2    4    4    0    0 -0.13345489347E+03  0.26417515655E+03 -0.10416036271E+03  0.32489766438E+03  0.84323123946E+02 0.  0.
          2    1    3    3  502    0  0.42982121082E+03  0.20571217274E+03 -0.64497756373E+02  0.48085728845E+03  0.00000000000E+00 0. -1.
         -1    1    3    3    0  502  0.99493324917E+02  0.67480237912E+02  0.19043020444E+02  0.12171746316E+03  0.00000000000E+00 0.  1.
         13    1    5    5    0    0 -0.16301476855E+03 -0.25442284202E+03  0.28835930640E+03  0.41767916742E+03  0.00000000000E+00 0.  1.
        -13    1    5    5    0    0 -0.23284487371E+03 -0.28294472518E+03  0.22374822502E+03  0.42934568930E+03  0.00000000000E+00 0. -1.
          4    1    6    6  503    0 -0.36071775074E+02  0.16261922411E+03 -0.65436902706E+02  0.17896416749E+03  0.00000000000E+00 0. -1.
         -4    1    6    6    0  503 -0.97383118397E+02  0.10155593244E+03 -0.38723459999E+02  0.14593349690E+03  0.00000000000E+00 0.  1.
<mgrwt>
<rscale>  0 0.17370780E+04</rscale>
<asrwt>0</asrwt>
<pdfrwt beam="1">  1        2 0.10861576E+00 0.17370780E+04</pdfrwt>
<pdfrwt beam="2">  1       -1 0.16438382E+00 0.17370780E+04</pdfrwt>
<totfact> 0.11893119E+01</totfact>
</mgrwt>
</event>
<event>
12    7  0.1740517E-007  0.1847851E+04  0.7818608E-02  0.8681259E-01
         -1   -1    0    0    0  501 -0.00000000000E+00  0.00000000000E+00  0.50051593293E+03  0.50051593293E+03  0.00000000000E+00 0.  1.
          2   -1    0    0  501    0  0.00000000000E+00 -0.00000000000E+00 -0.17055172266E+04  0.17055172266E+04  0.00000000000E+00 0. -1.
         24    2    1    2    0    0  0.46515890972E+03  0.51420910787E+03 -0.53459551594E+03  0.87912168667E+03  0.79238604309E+02 0.  0.
        254    2    1    2    0    0 -0.46515890972E+03 -0.51420910787E+03 -0.67040577769E+03  0.13269114728E+04  0.91129925493E+03 0.  0.
         23    2    4    4    0    0 -0.39457384896E+03 -0.28101072473E+02  0.91481730831E+02  0.41598597939E+03  0.90538585235E+02 0.  0.
         23    2    4    4    0    0 -0.70585060760E+02 -0.48610803540E+03 -0.76188750852E+03  0.91092549343E+03  0.89606953210E+02 0.  0.
          2    1    3    3  502    0  0.90519904943E+02  0.14659857171E+03 -0.14977125183E+03  0.22829021506E+03  0.00000000000E+00 0. -1.
         -1    1    3    3    0  502  0.37463900478E+03  0.36761053616E+03 -0.38482426411E+03  0.65083147162E+03  0.00000000000E+00 0.  1.
         13    1    5    5    0    0 -0.32393014755E+03 -0.58017456489E+02  0.74386341408E+02  0.33738715675E+03  0.00000000000E+00 0. -1.
        -13    1    5    5    0    0 -0.70643701405E+02  0.29916384016E+02  0.17095389423E+02  0.78598822640E+02  0.00000000000E+00 0.  1.
          4    1    6    6  503    0 -0.87356789504E+02 -0.30028043324E+03 -0.47692461517E+03  0.57031275264E+03  0.00000000000E+00 0. -1.
         -4    1    6    6    0  503  0.16771728744E+02 -0.18582760215E+03 -0.28496289335E+03  0.34061274080E+03  0.00000000000E+00 0.  1.
<mgrwt>
<rscale>  0 0.18478512E+04</rscale>
<asrwt>0</asrwt>
<pdfrwt beam="1">  1        2 0.26238726E+00 0.18478512E+04</pdfrwt>
<pdfrwt beam="2">  1       -1 0.77002452E-01 0.18478512E+04</pdfrwt>
<totfact> 0.17644577E+01</totfact>
</mgrwt>
</event>
<event>
12    7  0.1740517E-007  0.1998724E+04  0.7818608E-02  0.8607217E-01
         -1   -1    0    0    0  501 -0.00000000000E+00  0.00000000000E+00  0.50160963394E+03  0.50160963394E+03  0.00000000000E+00 0.  1.
          2   -1    0    0  501    0  0.00000000000E+00 -0.00000000000E+00 -0.19910398635E+04  0.19910398635E+04  0.00000000000E+00 0. -1.
         24    2    1    2    0    0 -0.79950756061E+02  0.72421658049E+03 -0.20988476522E+03  0.76242606252E+03  0.79750280779E+02 0.  0.
        254    2    1    2    0    0  0.79950756061E+02 -0.72421658049E+03 -0.12795454643E+04  0.17302234349E+04  0.90860044055E+03 0.  0.
         23    2    4    4    0    0  0.17382149386E+03 -0.26155699049E+03 -0.11989778562E+04  0.12428016992E+04  0.91554317344E+02 0.  0.
         23    2    4    4    0    0 -0.93870737802E+02 -0.46265959000E+03 -0.80567608140E+02  0.48742173566E+03  0.90681846480E+02 0.  0.
          2    1    3    3  502    0 -0.89362736047E+01  0.26946246533E+03 -0.11153357424E+03  0.29176979863E+03  0.00000000000E+00 0. -1.
         -1    1    3    3    0  502 -0.71014482456E+02  0.45475411516E+03 -0.98351190979E+02  0.47065626389E+03  0.00000000000E+00 0.  1.
         13    1    5    5    0    0  0.13306334472E+03 -0.16019711379E+03 -0.63300704187E+03  0.66638343620E+03  0.00000000000E+00 0.  1.
        -13    1    5    5    0    0  0.40758149145E+02 -0.10135987670E+03 -0.56597081430E+03  0.57641826304E+03  0.00000000000E+00 0. -1.
          1    1    6    6  503    0 -0.84130675383E+02 -0.44879132152E+03 -0.93525367284E+02  0.46608863442E+03  0.00000000000E+00 0. -1.
         -1    1    6    6    0  503 -0.97400624187E+01 -0.13868268483E+02  0.12957759144E+02  0.21333101243E+02  0.00000000000E+00 0.  1.
<mgrwt>
<rscale>  0 0.19987244E+04</rscale>
<asrwt>0</asrwt>
<pdfrwt beam="1">  1        2 0.30631383E+00 0.19987244E+04</pdfrwt>
<pdfrwt beam="2">  1       -1 0.77170713E-01 0.19987244E+04</pdfrwt>
<totfact> 0.12037906E+01</totfact>
</mgrwt>
</event>
<event>
12    7  0.1740517E-007  0.2713719E+04  0.7818608E-02  0.8330567E-01
          2   -1    0    0  501    0  0.00000000000E+00  0.00000000000E+00  0.18275012691E+04  0.18275012691E+04  0.00000000000E+00 0. -1.
         -1   -1    0    0    0  501 -0.00000000000E+00 -0.00000000000E+00 -0.10074233615E+04  0.10074233615E+04  0.00000000000E+00 0.  1.
         24    2    1    2    0    0 -0.53699470492E+02  0.68232489853E+03  0.14044254449E+04  0.15643424517E+04  0.79407654520E+02 0.  0.
        254    2    1    2    0    0  0.53699470492E+02 -0.68232489853E+03 -0.58434753731E+03  0.12705821789E+04  0.89692035806E+03 0.  0.
         23    2    4    4    0    0  0.36365982838E+03 -0.98493280284E+02 -0.44361822653E+03  0.58922420753E+03  0.91862063926E+02 0.  0.
         23    2    4    4    0    0 -0.30996035789E+03 -0.58383161824E+03 -0.14072931078E+03  0.68135797137E+03  0.86655434476E+02 0.  0.
          4    1    3    3  502    0  0.78584133613E+01  0.26324894957E+03  0.59859336877E+03  0.65396925406E+03  0.00000000000E+00 0. -1.
         -3    1    3    3    0  502 -0.61557883853E+02  0.41907594895E+03  0.80583207617E+03  0.91037319767E+03  0.00000000000E+00 0.  1.
         13    1    5    5    0    0  0.21283747204E+03 -0.10037034436E+03 -0.24344410099E+03  0.33858385348E+03  0.00000000000E+00 0. -1.
        -13    1    5    5    0    0  0.15082235634E+03  0.18770640714E+01 -0.20017412554E+03  0.25064035405E+03  0.00000000000E+00 0.  1.
          3    1    6    6  503    0 -0.12561212449E+03 -0.15267517840E+03 -0.38111520194E+02  0.20134697388E+03  0.00000000000E+00 0. -1.
         -3    1    6    6    0  503 -0.18434823339E+03 -0.43115643984E+03 -0.10261779058E+03  0.48001099749E+03  0.00000000000E+00 0.  1.
<mgrwt>
<rscale>  0 0.27137188E+04</rscale>
<asrwt>0</asrwt>
<pdfrwt beam="1">  1        2 0.28115404E+00 0.27137188E+04</pdfrwt>
<pdfrwt beam="2">  1       -1 0.15498821E+00 0.27137188E+04</pdfrwt>
<totfact> 0.26519919E+00</totfact>
</mgrwt>
</event>
<event>
12    7  0.1740517E-007  0.1887122E+04  0.7818608E-02  0.8661293E-01
         -1   -1    0    0    0  501 -0.00000000000E+00  0.00000000000E+00  0.34473010975E+03  0.34473010975E+03  0.00000000000E+00 0.  1.
          2   -1    0    0  501    0  0.00000000000E+00 -0.00000000000E+00 -0.25826215849E+04  0.25826215849E+04  0.00000000000E+00 0. -1.
         24    2    1    2    0    0 -0.38586569874E+03  0.51529543155E+03 -0.13632407774E+04  0.15096457211E+04  0.78632478929E+02 0.  0.
        254    2    1    2    0    0  0.38586569874E+03 -0.51529543155E+03 -0.87465069767E+03  0.14177059735E+04  0.91129285367E+03 0.  0.
         23    2    4    4    0    0 -0.64080915959E+02 -0.61090130830E+02  0.15601756903E+03  0.20139965421E+03  0.91553104782E+02 0.  0.
         23    2    4    4    0    0  0.44994661469E+03 -0.45420530072E+03 -0.10306682667E+04  0.12163063193E+04  0.91485381863E+02 0.  0.
          4    1    3    3  502    0 -0.38173830248E+02  0.90758487703E+02 -0.24418593219E+03  0.26328903108E+03  0.00000000000E+00 0. -1.
         -3    1    3    3    0  502 -0.34769186849E+03  0.42453694385E+03 -0.11190548452E+04  0.12463566900E+04  0.00000000000E+00 0.  1.
         13    1    5    5    0    0 -0.70212263904E+02 -0.25668196165E+02  0.14608837218E+03  0.16410493832E+03  0.00000000000E+00 0. -1.
        -13    1    5    5    0    0  0.61313479452E+01 -0.35421934665E+02  0.99291968551E+01  0.37294715889E+02  0.00000000000E+00 0.  1.
          4    1    6    6  503    0  0.36666843857E+03 -0.39372320787E+03 -0.91517247428E+03  0.10616046185E+04  0.00000000000E+00 0. -1.
         -4    1    6    6    0  503  0.83278176120E+02 -0.60482092854E+02 -0.11549579243E+03  0.15470170084E+03  0.00000000000E+00 0.  1.
<mgrwt>
<rscale>  0 0.18871221E+04</rscale>
<asrwt>0</asrwt>
<pdfrwt beam="1">  1        2 0.39732637E+00 0.18871221E+04</pdfrwt>
<pdfrwt beam="2">  1       -1 0.53035405E-01 0.18871221E+04</pdfrwt>
<totfact> 0.11934751E+01</totfact>
</mgrwt>
</event>
<event>
12    7  0.1740517E-007  0.2035922E+04  0.7818608E-02  0.8590008E-01
         -1   -1    0    0    0  501 -0.00000000000E+00  0.00000000000E+00  0.18683035966E+04  0.18683035966E+04  0.00000000000E+00 0.  1.
          2   -1    0    0  501    0  0.00000000000E+00 -0.00000000000E+00 -0.55464440895E+03  0.55464440895E+03  0.00000000000E+00 0. -1.
         24    2    1    2    0    0  0.38714411556E+03  0.10569266124E+03  0.13674106850E+04  0.14274612675E+04  0.82354014833E+02 0.  0.
        254    2    1    2    0    0 -0.38714411556E+03 -0.10569266124E+03 -0.53751497436E+02  0.99548673801E+03  0.90942460778E+03 0.  0.
         23    2    4    4    0    0  0.60935721482E+01 -0.41093405000E+02  0.38441456271E+03  0.39722160555E+03  0.91020043581E+02 0.  0.
         23    2    4    4    0    0 -0.39323768771E+03 -0.64599256245E+02 -0.43816606015E+03  0.59826513247E+03  0.84396264839E+02 0.  0.
          4    1    3    3  502    0  0.20391650294E+03  0.31254257920E+02  0.81538676311E+03  0.84107927228E+03  0.00000000000E+00 0. -1.
         -3    1    3    3    0  502  0.18322761262E+03  0.74438403324E+02  0.55202392193E+03  0.58638199520E+03  0.00000000000E+00 0.  1.
         13    1    5    5    0    0 -0.20382151770E+01  0.18780146796E+01 -0.48080571056E+01  0.55496552483E+01  0.00000000000E+00 0.  1.
        -13    1    5    5    0    0  0.81317873253E+01 -0.42971419679E+02  0.38922261982E+03  0.39167195030E+03  0.00000000000E+00 0. -1.
          1    1    6    6  503    0 -0.34196748792E+03 -0.33107728721E+02 -0.34160232727E+03  0.48448945756E+03  0.00000000000E+00 0. -1.
         -1    1    6    6    0  503 -0.51270199791E+02 -0.31491527524E+02 -0.96563732881E+02  0.11377567491E+03  0.00000000000E+00 0.  1.
<mgrwt>
<rscale>  0 0.20359216E+04</rscale>
<asrwt>0</asrwt>
<pdfrwt beam="1">  1        2 0.85329910E-01 0.20359216E+04</pdfrwt>
<pdfrwt beam="2">  1       -1 0.28743132E+00 0.20359216E+04</pdfrwt>
<totfact> 0.22982026E+00</totfact>
</mgrwt>
</event>
<event>
12    7  0.1740517E-007  0.2159158E+04  0.7818608E-02  0.8535622E-01
         -1   -1    0    0    0  501 -0.00000000000E+00  0.00000000000E+00  0.38593023590E+03  0.38593023590E+03  0.00000000000E+00 0.  1.
          2   -1    0    0  501    0  0.00000000000E+00 -0.00000000000E+00 -0.30199523489E+04  0.30199523489E+04  0.00000000000E+00 0. -1.
         24    2    1    2    0    0  0.81910949497E+02 -0.51090445618E+03  0.46659017616E+02  0.52581420493E+03  0.81060145502E+02 0.  0.
        254    2    1    2    0    0 -0.81910949497E+02  0.51090445618E+03 -0.26806811307E+04  0.28800683799E+04  0.91706585461E+03 0.  0.
         23    2    4    4    0    0 -0.25161732547E+03 -0.36312880984E+02 -0.18324065484E+04  0.18522464199E+04  0.92049648161E+02 0.  0.
         23    2    4    4    0    0  0.16970637598E+03  0.54721733716E+03 -0.84827458229E+03  0.10278219600E+04  0.92742365574E+02 0.  0.
          4    1    3    3  502    0  0.67442402626E+02 -0.21984095466E+03  0.45381188310E+02  0.23438851352E+03  0.00000000000E+00 0. -1.
         -3    1    3    3    0  502  0.14468546871E+02 -0.29106350152E+03  0.12778293060E+01  0.29142569141E+03  0.00000000000E+00 0.  1.
         13    1    5    5    0    0 -0.29985057527E+02 -0.36419961479E+02 -0.40455290595E+03  0.40729420691E+03  0.00000000000E+00 0.  1.
        -13    1    5    5    0    0 -0.22163226795E+03  0.10708049467E+00 -0.14278536424E+04  0.14449522130E+04  0.00000000000E+00 0. -1.
          3    1    6    6  503    0  0.16848793824E+03  0.41152653623E+03 -0.65218795713E+03  0.78936139175E+03  0.00000000000E+00 0. -1.
         -3    1    6    6    0  503  0.12184377379E+01  0.13569080093E+03 -0.19608662516E+03  0.23846056826E+03  0.00000000000E+00 0.  1.
<mgrwt>
<rscale>  0 0.21591581E+04</rscale>
<asrwt>0</asrwt>
<pdfrwt beam="1">  1        2 0.46460805E+00 0.21591581E+04</pdfrwt>
<pdfrwt beam="2">  1       -1 0.59373883E-01 0.21591581E+04</pdfrwt>
<totfact> 0.50843468E+00</totfact>
</mgrwt>
</event>
<event>
12    7  0.1740517E-007  0.1460699E+04  0.7818608E-02  0.8911016E-01
         -1   -1    0    0    0  501 -0.00000000000E+00  0.00000000000E+00  0.17611405057E+04  0.17611405057E+04  0.00000000000E+00 0.  1.
          2   -1    0    0  501    0  0.00000000000E+00 -0.00000000000E+00 -0.30287794968E+03  0.30287794968E+03  0.00000000000E+00 0. -1.
         24    2    1    2    0    0  0.18074870699E+03  0.23184507678E+01 -0.11901423301E+03  0.23127443182E+03  0.81535298242E+02 0.  0.
        254    2    1    2    0    0 -0.18074870699E+03 -0.23184507678E+01  0.15772767890E+04  0.18327440236E+04  0.91568177683E+03 0.  0.
         23    2    4    4    0    0  0.28436762172E+03 -0.19810109411E+03  0.34118234054E+03  0.49446468986E+03  0.89336175453E+02 0.  0.
         23    2    4    4    0    0 -0.46511632872E+03  0.19578264335E+03  0.12360944485E+04  0.13382793337E+04  0.91640857543E+02 0.  0.
          4    1    3    3  502    0  0.46685015393E+02  0.25696748911E+02 -0.66947288921E+02  0.85567242919E+02  0.00000000000E+00 0. -1.
         -3    1    3    3    0  502  0.13406369160E+03 -0.23378298143E+02 -0.52066944086E+02  0.14570718890E+03  0.00000000000E+00 0.  1.
         13    1    5    5    0    0  0.29077953230E+03 -0.19172967150E+03  0.33643974030E+03  0.48425685559E+03  0.00000000000E+00 0. -1.
        -13    1    5    5    0    0 -0.64119105712E+01 -0.63714226191E+01  0.47426002400E+01  0.10207834266E+02  0.00000000000E+00 0.  1.
          3    1    6    6  503    0 -0.21705679654E+03  0.13976364174E+03  0.59536825960E+03  0.64893057643E+03  0.00000000000E+00 0. -1.
         -3    1    6    6    0  503 -0.24805953218E+03  0.56019001611E+02  0.64072618889E+03  0.68934875729E+03  0.00000000000E+00 0.  1.
<mgrwt>
<rscale>  0 0.14606993E+04</rscale>
<asrwt>0</asrwt>
<pdfrwt beam="1">  1        2 0.46596609E-01 0.14606993E+04</pdfrwt>
<pdfrwt beam="2">  1       -1 0.27094469E+00 0.14606993E+04</pdfrwt>
<totfact> 0.61502860E+00</totfact>
</mgrwt>
</event>
<event>
12    7  0.1740517E-007  0.2262501E+04  0.7818608E-02  0.8492855E-01
          2   -1    0    0  501    0  0.00000000000E+00  0.00000000000E+00  0.16814060233E+04  0.16814060233E+04  0.00000000000E+00 0. -1.
         -1   -1    0    0    0  501 -0.00000000000E+00 -0.00000000000E+00 -0.76110575891E+03  0.76110575891E+03  0.00000000000E+00 0.  1.
         24    2    1    2    0    0  0.36963790060E+03 -0.65149981824E+03 -0.26002163994E+03  0.79672645058E+03  0.77958919261E+02 0.  0.
        254    2    1    2    0    0 -0.36963790060E+03  0.65149981824E+03  0.11803219043E+04  0.16457853316E+04  0.86854209409E+03 0.  0.
         23    2    4    4    0    0  0.59253000568E+02  0.50901181498E+03  0.19165936666E+03  0.55489161710E+03  0.92560510130E+02 0.  0.
         23    2    4    4    0    0 -0.42889090117E+03  0.14248800327E+03  0.98866253763E+03  0.10908937145E+04  0.91352322498E+02 0.  0.
          4    1    3    3  502    0  0.84877303779E+01 -0.48210505708E+02 -0.27513025627E+02  0.56153904644E+02  0.00000000000E+00 0. -1.
         -3    1    3    3    0  502  0.36115017023E+03 -0.60328931253E+03 -0.23250861431E+03  0.74057254594E+03  0.00000000000E+00 0.  1.
         13    1    5    5    0    0  0.21574344499E+02  0.29766942240E+03  0.64359220100E+02  0.30531073775E+03  0.00000000000E+00 0. -1.
        -13    1    5    5    0    0  0.37678656070E+02  0.21134239257E+03  0.12730014656E+03  0.24958087935E+03  0.00000000000E+00 0.  1.
          3    1    6    6  503    0 -0.29582171578E+03  0.92835145400E+02  0.77083321973E+03  0.83085059090E+03  0.00000000000E+00 0. -1.
         -3    1    6    6    0  503 -0.13306918539E+03  0.49652857866E+02  0.21782931790E+03  0.26004312360E+03  0.00000000000E+00 0.  1.
<mgrwt>
<rscale>  0 0.22625011E+04</rscale>
<asrwt>0</asrwt>
<pdfrwt beam="1">  1        2 0.25867785E+00 0.22625011E+04</pdfrwt>
<pdfrwt beam="2">  1       -1 0.11709319E+00 0.22625011E+04</pdfrwt>
<totfact> 0.68353542E+00</totfact>
</mgrwt>
</event>
<event>
12    7  0.1740517E-007  0.2842916E+04  0.7818608E-02  0.8290067E-01
         -1   -1    0    0    0  501 -0.00000000000E+00  0.00000000000E+00  0.20172519042E+04  0.20172519042E+04  0.00000000000E+00 0.  1.
          2   -1    0    0  501    0  0.00000000000E+00 -0.00000000000E+00 -0.10016311436E+04  0.10016311436E+04  0.00000000000E+00 0. -1.
         24    2    1    2    0    0 -0.62430374271E+01  0.82346443927E+03  0.14942214286E+04  0.17079439959E+04  0.79008590642E+02 0.  0.
        254    2    1    2    0    0  0.62430374271E+01 -0.82346443927E+03 -0.47860066790E+03  0.13109390519E+04  0.90076075633E+03 0.  0.
         23    2    4    4    0    0 -0.20172612294E+03 -0.85396349205E+03 -0.12758201532E+03  0.89189463060E+03  0.96186210187E+02 0.  0.
         23    2    4    4    0    0  0.20796916036E+03  0.30499052784E+02 -0.35101865258E+03  0.41904442127E+03  0.90569137430E+02 0.  0.
          4    1    3    3  502    0  0.25141612908E+02  0.12728258418E+03  0.25974052311E+03  0.29034134442E+03  0.00000000000E+00 0. -1.
         -3    1    3    3    0  502 -0.31384650335E+02  0.69618185508E+03  0.12344809054E+04  0.14176026515E+04  0.00000000000E+00 0.  1.
         13    1    5    5    0    0 -0.64499821863E+02 -0.14900086439E+03 -0.47974275512E+02  0.16930155262E+03  0.00000000000E+00 0. -1.
        -13    1    5    5    0    0 -0.13722630107E+03 -0.70496262766E+03 -0.79607739808E+02  0.72259307798E+03  0.00000000000E+00 0.  1.
          4    1    6    6  503    0  0.14241495462E+03 -0.78574551360E+01 -0.16491058192E+03  0.21803499474E+03  0.00000000000E+00 0. -1.
         -4    1    6    6    0  503  0.65554205743E+02  0.38356507920E+02 -0.18610807065E+03  0.20100942653E+03  0.00000000000E+00 0.  1.
<mgrwt>
<rscale>  0 0.28429156E+04</rscale>
<asrwt>0</asrwt>
<pdfrwt beam="1">  1        2 0.15409710E+00 0.28429156E+04</pdfrwt>
<pdfrwt beam="2">  1       -1 0.31034645E+00 0.28429156E+04</pdfrwt>
<totfact> 0.70247181E-01</totfact>
</mgrwt>
</event>
<event>
12    7  0.1740517E-007  0.1979500E+04  0.7818608E-02  0.8616265E-01
          2   -1    0    0  501    0  0.00000000000E+00  0.00000000000E+00  0.43871050710E+04  0.43871050710E+04  0.00000000000E+00 0. -1.
         -1   -1    0    0    0  501 -0.00000000000E+00 -0.00000000000E+00 -0.22329191541E+03  0.22329191541E+03  0.00000000000E+00 0.  1.
         24    2    1    2    0    0  0.27923129907E+03  0.49311393722E+03  0.40262905096E+03  0.69984855401E+03  0.80909655869E+02 0.  0.
        254    2    1    2    0    0 -0.27923129907E+03 -0.49311393722E+03  0.37611841046E+04  0.39105484324E+04  0.90815841119E+03 0.  0.
         23    2    4    4    0    0 -0.11966329981E+03 -0.73656655550E+03  0.29268688789E+04  0.30218212763E+04  0.89402433708E+02 0.  0.
         23    2    4    4    0    0 -0.15956799926E+03  0.24345261828E+03  0.83431522567E+03  0.88872715613E+03  0.94989149484E+02 0.  0.
          2    1    3    3  502    0  0.17284272850E+03  0.29816913033E+03  0.19586222721E+03  0.39641071015E+03  0.00000000000E+00 0. -1.
         -1    1    3    3    0  502  0.10638857057E+03  0.19494480689E+03  0.20676682374E+03  0.30343784385E+03  0.00000000000E+00 0.  1.
         13    1    5    5    0    0 -0.58390135173E+02 -0.58306205056E+03  0.22469248097E+04  0.23220770579E+04  0.00000000000E+00 0. -1.
        -13    1    5    5    0    0 -0.61273164635E+02 -0.15350450493E+03  0.67994406927E+03  0.69974421832E+03  0.00000000000E+00 0.  1.
          1    1    6    6  503    0 -0.16889846847E+03  0.21397397465E+03  0.77951353001E+03  0.82580439448E+03  0.00000000000E+00 0. -1.
         -1    1    6    6    0  503  0.93304692081E+01  0.29478643631E+02  0.54801695666E+02  0.62922761651E+02  0.00000000000E+00 0.  1.
<mgrwt>
<rscale>  0 0.19795000E+04</rscale>
<asrwt>0</asrwt>
<pdfrwt beam="1">  1        2 0.67493918E+00 0.19795000E+04</pdfrwt>
<pdfrwt beam="2">  1       -1 0.34352606E-01 0.19795000E+04</pdfrwt>
<totfact> 0.13623307E+00</totfact>
</mgrwt>
</event>
<event>
12    7  0.1740517E-007  0.2165958E+04  0.7818608E-02  0.8532732E-01
         -1   -1    0    0    0  501 -0.00000000000E+00  0.00000000000E+00  0.10910574376E+04  0.10910574376E+04  0.00000000000E+00 0.  1.
          2   -1    0    0  501    0  0.00000000000E+00 -0.00000000000E+00 -0.10749605101E+04  0.10749605101E+04  0.00000000000E+00 0. -1.
         24    2    1    2    0    0 -0.31574732588E+03 -0.60195955745E+03 -0.56433373554E+03  0.88719954754E+03  0.81232933440E+02 0.  0.
        254    2    1    2    0    0  0.31574732588E+03  0.60195955745E+03  0.58043066306E+03  0.12788184002E+04  0.91456277177E+03 0.  0.
         23    2    4    4    0    0  0.59432651316E+03  0.33257622017E+03  0.17247802458E+03  0.70858114002E+03  0.92236741910E+02 0.  0.
         23    2    4    4    0    0 -0.27857918728E+03  0.26938333728E+03  0.40795263848E+03  0.57023726020E+03  0.92582026806E+02 0.  0.
          4    1    3    3  502    0 -0.13936284988E+03 -0.21507870562E+03 -0.17196081115E+03  0.30862821341E+03  0.00000000000E+00 0. -1.
         -3    1    3    3    0  502 -0.17638447601E+03 -0.38688085183E+03 -0.39237292438E+03  0.57857133413E+03  0.00000000000E+00 0.  1.
         13    1    5    5    0    0  0.46444017108E+03  0.27012787738E+03  0.17303942670E+03  0.56446114644E+03  0.00000000000E+00 0.  1.
        -13    1    5    5    0    0  0.12988634208E+03  0.62448342794E+02 -0.56140211602E+00  0.14411999358E+03  0.00000000000E+00 0. -1.
          3    1    6    6  503    0 -0.17200956641E+03  0.19240869818E+03  0.32411585526E+03  0.41431809725E+03  0.00000000000E+00 0. -1.
         -3    1    6    6    0  503 -0.10656962086E+03  0.76974639102E+02  0.83836783218E+02  0.15591916295E+03  0.00000000000E+00 0.  1.
<mgrwt>
<rscale>  0 0.21659581E+04</rscale>
<asrwt>0</asrwt>
<pdfrwt beam="1">  1        2 0.16537854E+00 0.21659581E+04</pdfrwt>
<pdfrwt beam="2">  1       -1 0.16785499E+00 0.21659581E+04</pdfrwt>
<totfact> 0.60232173E+00</totfact>
</mgrwt>
</event>
<event>
12    7  0.1740517E-007  0.2439468E+04  0.7818608E-02  0.8424874E-01
          2   -1    0    0  501    0  0.00000000000E+00  0.00000000000E+00  0.11431241709E+04  0.11431241709E+04  0.00000000000E+00 0. -1.
         -1   -1    0    0    0  501 -0.00000000000E+00 -0.00000000000E+00 -0.13014777895E+04  0.13014777895E+04  0.00000000000E+00 0.  1.
         24    2    1    2    0    0  0.56019398046E+03 -0.87414507668E+03 -0.29315703357E+03  0.10818315526E+04  0.80445950955E+02 0.  0.
        254    2    1    2    0    0 -0.56019398046E+03  0.87414507668E+03  0.13480341498E+03  0.13627704077E+04  0.87236707449E+03 0.  0.
         23    2    4    4    0    0  0.19133831475E+03  0.41464115090E+03 -0.88679997678E+01  0.46566828212E+03  0.90723055759E+02 0.  0.
         23    2    4    4    0    0 -0.75153229521E+03  0.45950392578E+03  0.14367141475E+03  0.89710212561E+03  0.90587525603E+02 0.  0.
          2    1    3    3  502    0  0.36007096369E+03 -0.53325766547E+03 -0.14414088175E+03  0.65938716280E+03  0.00000000000E+00 0. -1.
         -1    1    3    3    0  502  0.20012301678E+03 -0.34088741121E+03 -0.14901615183E+03  0.42244438980E+03  0.00000000000E+00 0.  1.
         13    1    5    5    0    0  0.13920687382E+03  0.19528571722E+03  0.37236026765E+01  0.23985189240E+03  0.00000000000E+00 0.  1.
        -13    1    5    5    0    0  0.52131440928E+02  0.21935543368E+03 -0.12591602444E+02  0.22581638972E+03  0.00000000000E+00 0. -1.
          3    1    6    6  503    0 -0.28837112645E+02  0.12713622847E+02  0.22792805009E+02  0.38893794257E+02  0.00000000000E+00 0. -1.
         -3    1    6    6    0  503 -0.72269518257E+03  0.44679030293E+03  0.12087860974E+03  0.85820833135E+03  0.00000000000E+00 0.  1.
<mgrwt>
<rscale>  0 0.24394677E+04</rscale>
<asrwt>0</asrwt>
<pdfrwt beam="1">  1        2 0.17586526E+00 0.24394677E+04</pdfrwt>
<pdfrwt beam="2">  1       -1 0.20022735E+00 0.24394677E+04</pdfrwt>
<totfact> 0.31407198E+00</totfact>
</mgrwt>
</event>
<event>
12    7  0.1740517E-007  0.1443827E+04  0.7818608E-02  0.8922691E-01
          2   -1    0    0  501    0  0.00000000000E+00  0.00000000000E+00  0.86577013147E+03  0.86577013147E+03  0.00000000000E+00 0. -1.
         -1   -1    0    0    0  501 -0.00000000000E+00 -0.00000000000E+00 -0.60195997714E+03  0.60195997714E+03  0.00000000000E+00 0.  1.
         24    2    1    2    0    0 -0.43573004362E+03  0.11423264305E+03  0.50360639502E+02  0.46070569470E+03  0.82485001519E+02 0.  0.
        254    2    1    2    0    0  0.43573004362E+03 -0.11423264305E+03  0.21344951483E+03  0.10070244139E+04  0.87500154695E+03 0.  0.
         23    2    4    4    0    0  0.59304961762E+03  0.36482383364E+02 -0.10533766013E+03  0.61025586101E+03  0.90980107778E+02 0.  0.
         23    2    4    4    0    0 -0.15731957400E+03 -0.15071502641E+03  0.31878717496E+03  0.39676855288E+03  0.91299255688E+02 0.  0.
          2    1    3    3  502    0 -0.41804924476E+02  0.76419954725E+01  0.30164724438E+02  0.52114896198E+02  0.00000000000E+00 0. -1.
         -1    1    3    3    0  502 -0.39392511914E+03  0.10659064757E+03  0.20195915063E+02  0.40859079851E+03  0.00000000000E+00 0.  1.
         13    1    5    5    0    0  0.58562378167E+03  0.29939223771E+02 -0.91868546126E+02  0.59354140592E+03  0.00000000000E+00 0.  1.
        -13    1    5    5    0    0  0.74258359444E+01  0.65431595933E+01 -0.13469114004E+02  0.16714455091E+02  0.00000000000E+00 0. -1.
          1    1    6    6  503    0  0.80846996375E+01  0.42077737381E+01  0.17848634109E+02  0.20040994677E+02  0.00000000000E+00 0. -1.
         -1    1    6    6    0  503 -0.16540427364E+03 -0.15492280015E+03  0.30093854085E+03  0.37672755821E+03  0.00000000000E+00 0.  1.
<mgrwt>
<rscale>  0 0.14438268E+04</rscale>
<asrwt>0</asrwt>
<pdfrwt beam="1">  1        2 0.13319541E+00 0.14438268E+04</pdfrwt>
<pdfrwt beam="2">  1       -1 0.92609227E-01 0.14438268E+04</pdfrwt>
<totfact> 0.38867348E+01</totfact>
</mgrwt>
</event>
<event>
12    7  0.1740517E-007  0.1585201E+04  0.7818608E-02  0.8829691E-01
         -1   -1    0    0    0  501 -0.00000000000E+00  0.00000000000E+00  0.32277276147E+03  0.32277276147E+03  0.00000000000E+00 0.  1.
          2   -1    0    0  501    0  0.00000000000E+00 -0.00000000000E+00 -0.19463098938E+04  0.19463098938E+04  0.00000000000E+00 0. -1.
         24    2    1    2    0    0  0.43803771690E+03  0.19798898059E+03 -0.24666771417E+03  0.55116589491E+03  0.10891374859E+03 0.  0.
        254    2    1    2    0    0 -0.43803771690E+03 -0.19798898059E+03 -0.13768694181E+04  0.17179167604E+04  0.90796030916E+03 0.  0.
         23    2    4    4    0    0 -0.64905765381E+03 -0.32454287790E+03 -0.79656231120E+03  0.10813296679E+04  0.90323958210E+02 0.  0.
         23    2    4    4    0    0  0.21101993690E+03  0.12655389731E+03 -0.58030710695E+03  0.63658709248E+03  0.89115011366E+02 0.  0.
          4    1    3    3  502    0  0.27389749405E+03  0.16947724600E+03 -0.19597542397E+03  0.37702618074E+03  0.00000000000E+00 0. -1.
         -3    1    3    3    0  502  0.16414022285E+03  0.28511734589E+02 -0.50692290205E+02  0.17413971418E+03  0.00000000000E+00 0.  1.
         13    1    5    5    0    0 -0.41367766221E+03 -0.15755346719E+03 -0.48505883140E+03  0.65668437864E+03  0.00000000000E+00 0. -1.
        -13    1    5    5    0    0 -0.23537999159E+03 -0.16698941071E+03 -0.31150347981E+03  0.42464528923E+03  0.00000000000E+00 0.  1.
          1    1    6    6  503    0  0.74547356930E+02  0.10011583807E+02 -0.24484324795E+03  0.25613620654E+03  0.00000000000E+00 0. -1.
         -1    1    6    6    0  503  0.13647257997E+03  0.11654231350E+03 -0.33546385900E+03  0.38045088594E+03  0.00000000000E+00 0.  1.
<mgrwt>
<rscale>  0 0.15852013E+04</rscale>
<asrwt>0</asrwt>
<pdfrwt beam="1">  1        2 0.29943229E+00 0.15852013E+04</pdfrwt>
<pdfrwt beam="2">  1       -1 0.49657348E-01 0.15852013E+04</pdfrwt>
<totfact> 0.31832005E+01</totfact>
</mgrwt>
</event>
<event>
12    7  0.1740517E-007  0.1170773E+04  0.7818608E-02  0.9138830E-01
         -1   -1    0    0    0  501 -0.00000000000E+00  0.00000000000E+00  0.27156308421E+03  0.27156308421E+03  0.00000000000E+00 0.  1.
          2   -1    0    0  501    0  0.00000000000E+00 -0.00000000000E+00 -0.12618705022E+04  0.12618705022E+04  0.00000000000E+00 0. -1.
         24    2    1    2    0    0  0.17612506422E+03 -0.17546791648E+02 -0.39221460050E+03  0.43757613486E+03  0.79452204546E+02 0.  0.
        254    2    1    2    0    0 -0.17612506422E+03  0.17546791648E+02 -0.59809281752E+03  0.10958574516E+04  0.90103307802E+03 0.  0.
         23    2    4    4    0    0 -0.36931053103E+03 -0.49335452887E+02 -0.73734156350E+03  0.83112645375E+03  0.90963430121E+02 0.  0.
         23    2    4    4    0    0  0.19318546680E+03  0.66882244535E+02  0.13924874597E+03  0.26473099784E+03  0.94331483321E+02 0.  0.
          2    1    3    3  502    0  0.13762850157E+03  0.55463932161E+01 -0.21962822936E+03  0.25924684386E+03  0.00000000000E+00 0. -1.
         -3    1    3    3    0  502  0.38496562658E+02 -0.23093184865E+02 -0.17258637114E+03  0.17832929100E+03  0.00000000000E+00 0.  1.
         13    1    5    5    0    0 -0.67933496669E+02  0.49236976702E+01 -0.21620565301E+03  0.22668058399E+03  0.00000000000E+00 0. -1.
        -13    1    5    5    0    0 -0.30137703436E+03 -0.54259150557E+02 -0.52113591049E+03  0.60444586975E+03  0.00000000000E+00 0.  1.
          1    1    6    6  503    0  0.87709627380E+01 -0.37122086521E+01 -0.12484295666E+02  0.15702481291E+02  0.00000000000E+00 0. -1.
         -1    1    6    6    0  503  0.18441450407E+03  0.70594453188E+02  0.15173304164E+03  0.24902851655E+03  0.00000000000E+00 0.  1.
<mgrwt>
<rscale>  0 0.11707732E+04</rscale>
<asrwt>0</asrwt>
<pdfrwt beam="1">  1        2 0.19413393E+00 0.11707732E+04</pdfrwt>
<pdfrwt beam="2">  1       -1 0.41778935E-01 0.11707732E+04</pdfrwt>
<totfact> 0.11019638E+02</totfact>
</mgrwt>
</event>
<event>
12    7  0.1740517E-007  0.1463186E+04  0.7818608E-02  0.8909310E-01
          2   -1    0    0  501    0  0.00000000000E+00  0.00000000000E+00  0.22573653667E+04  0.22573653667E+04  0.00000000000E+00 0. -1.
         -1   -1    0    0    0  501 -0.00000000000E+00 -0.00000000000E+00 -0.23710293624E+03  0.23710293624E+03  0.00000000000E+00 0.  1.
         24    2    1    2    0    0  0.32793407603E+03 -0.25823801064E+03  0.91151098119E+03  0.10056620920E+04  0.79223393135E+02 0.  0.
        254    2    1    2    0    0 -0.32793407603E+03  0.25823801064E+03  0.11087514493E+04  0.14888062110E+04  0.90165765631E+03 0.  0.
         23    2    4    4    0    0  0.59239479607E+02  0.37103977819E+03  0.98364124018E+03  0.10569327371E+04  0.91525342747E+02 0.  0.
         23    2    4    4    0    0 -0.38717355564E+03 -0.11280176754E+03  0.12511020908E+03  0.43187347389E+03  0.90744322614E+02 0.  0.
          2    1    3    3  502    0  0.32302003186E+03 -0.25574987672E+03  0.91134695835E+03  0.10001515980E+04  0.00000000000E+00 0. -1.
         -1    1    3    3    0  502  0.49140441675E+01 -0.24881339187E+01  0.16402283203E+00  0.55104939858E+01  0.00000000000E+00 0.  1.
         13    1    5    5    0    0 -0.33987623271E+01  0.12211629691E+02  0.67930716247E+01  0.14381283224E+02  0.00000000000E+00 0. -1.
        -13    1    5    5    0    0  0.62638241934E+02  0.35882814849E+03  0.97684816856E+03  0.10425514538E+04  0.00000000000E+00 0.  1.
          4    1    6    6  503    0 -0.14993041789E+03 -0.58921344844E+02  0.65210254816E+01  0.16122462238E+03  0.00000000000E+00 0. -1.
         -4    1    6    6    0  503 -0.23724313775E+03 -0.53880422701E+02  0.11858918360E+03  0.27064885151E+03  0.00000000000E+00 0.  1.
<mgrwt>
<rscale>  0 0.14631855E+04</rscale>
<asrwt>0</asrwt>
<pdfrwt beam="1">  1        2 0.34728697E+00 0.14631855E+04</pdfrwt>
<pdfrwt beam="2">  1       -1 0.36477376E-01 0.14631855E+04</pdfrwt>
<totfact> 0.38154809E+01</totfact>
</mgrwt>
</event>
<event>
12    7  0.1740517E-007  0.1390652E+04  0.7818608E-02  0.8960613E-01
         -1   -1    0    0    0  501 -0.00000000000E+00  0.00000000000E+00  0.18242248304E+03  0.18242248304E+03  0.00000000000E+00 0.  1.
          2   -1    0    0  501    0  0.00000000000E+00 -0.00000000000E+00 -0.26503226038E+04  0.26503226038E+04  0.00000000000E+00 0. -1.
         24    2    1    2    0    0  0.18460327999E+03 -0.27234989754E+01 -0.26898552962E+01  0.20140973934E+03  0.80454082244E+02 0.  0.
        254    2    1    2    0    0 -0.18460327999E+03  0.27234989754E+01 -0.24652102655E+04  0.26313353475E+04  0.90143123398E+03 0.  0.
         23    2    4    4    0    0  0.20282820154E+03  0.30932880155E+03 -0.71317733364E+03  0.80861718465E+03  0.91740150922E+02 0.  0.
         23    2    4    4    0    0 -0.38743148153E+03 -0.30660530258E+03 -0.17520329319E+04  0.18227181629E+04  0.92585865543E+02 0.  0.
          2    1    3    3  502    0  0.94226622233E+02 -0.29034420429E+02 -0.30587513842E+02  0.10323395716E+03  0.00000000000E+00 0. -1.
         -1    1    3    3    0  502  0.90376657760E+02  0.26310921453E+02  0.27897658546E+02  0.98175782187E+02  0.00000000000E+00 0.  1.
         13    1    5    5    0    0  0.15527551053E+03  0.23092452965E+03 -0.44148152955E+03  0.52186450684E+03  0.00000000000E+00 0. -1.
        -13    1    5    5    0    0  0.47552691015E+02  0.78404271899E+02 -0.27169580408E+03  0.28675267781E+03  0.00000000000E+00 0.  1.
          2    1    6    6  503    0 -0.45670520950E+02 -0.69363656192E+02 -0.38134201303E+03  0.39028046862E+03  0.00000000000E+00 0.  1.
         -2    1    6    6    0  503 -0.34176096058E+03 -0.23724164638E+03 -0.13706909188E+04  0.14324376943E+04  0.00000000000E+00 0. -1.
<mgrwt>
<rscale>  0 0.13906523E+04</rscale>
<asrwt>0</asrwt>
<pdfrwt beam="1">  1        2 0.40774187E+00 0.13906523E+04</pdfrwt>
<pdfrwt beam="2">  1       -1 0.28065002E-01 0.13906523E+04</pdfrwt>
<totfact> 0.36339736E+01</totfact>
</mgrwt>
</event>
<event>
12    7  0.1740517E-007  0.1733895E+04  0.7818608E-02  0.8742265E-01
         -1   -1    0    0    0  501 -0.00000000000E+00  0.00000000000E+00  0.71982074785E+03  0.71982074785E+03  0.00000000000E+00 0.  1.
          2   -1    0    0  501    0  0.00000000000E+00 -0.00000000000E+00 -0.10441462613E+04  0.10441462613E+04  0.00000000000E+00 0. -1.
         24    2    1    2    0    0 -0.45632452376E+03  0.50342755187E+02  0.32603464820E+03  0.56894388979E+03  0.81437668922E+02 0.  0.
        254    2    1    2    0    0  0.45632452376E+03 -0.50342755187E+02 -0.65036016161E+03  0.11950231193E+04  0.89126059708E+03 0.  0.
         23    2    4    4    0    0  0.66511775463E+03 -0.11082910045E+03 -0.23976546296E+03  0.72164962760E+03  0.92876212034E+02 0.  0.
         23    2    4    4    0    0 -0.20879323087E+03  0.60486345262E+02 -0.41059469865E+03  0.47337349172E+03  0.90781302509E+02 0.  0.
          4    1    3    3  502    0 -0.38137613793E+02  0.51471989490E+01  0.30174429146E+01  0.38601505211E+02  0.00000000000E+00 0. -1.
         -3    1    3    3    0  502 -0.41818690997E+03  0.45195556238E+02  0.32301720529E+03  0.53034238458E+03  0.00000000000E+00 0.  1.
         13    1    5    5    0    0  0.34885566113E+03 -0.15950009725E+02 -0.10140528098E+03  0.36364502763E+03  0.00000000000E+00 0. -1.
        -13    1    5    5    0    0  0.31626209350E+03 -0.94879090724E+02 -0.13836018198E+03  0.35800459997E+03  0.00000000000E+00 0.  1.
          1    1    6    6  503    0 -0.26182942961E+02 -0.18108136356E+02 -0.96819656092E+02  0.10191907040E+03  0.00000000000E+00 0. -1.
         -1    1    6    6    0  503 -0.18261028791E+03  0.78594481618E+02 -0.31377504256E+03  0.37145442132E+03  0.00000000000E+00 0.  1.
<mgrwt>
<rscale>  0 0.17338952E+04</rscale>
<asrwt>0</asrwt>
<pdfrwt beam="1">  1        2 0.16063789E+00 0.17338952E+04</pdfrwt>
<pdfrwt beam="2">  1       -1 0.11074165E+00 0.17338952E+04</pdfrwt>
<totfact> 0.19200428E+01</totfact>
</mgrwt>
</event>
<event>
12    7  0.1740517E-007  0.1594909E+04  0.7818608E-02  0.8823682E-01
          2   -1    0    0  501    0  0.00000000000E+00  0.00000000000E+00  0.26802889692E+04  0.26802889692E+04  0.00000000000E+00 0. -1.
         -1   -1    0    0    0  501 -0.00000000000E+00 -0.00000000000E+00 -0.23726312160E+03  0.23726312160E+03  0.00000000000E+00 0.  1.
         24    2    1    2    0    0 -0.13660138246E+02 -0.33641911957E+03  0.64591365709E+02  0.35275785195E+03  0.83076074793E+02 0.  0.
        254    2    1    2    0    0  0.13660138246E+02  0.33641911957E+03  0.23784344819E+04  0.25647942389E+04  0.89880725388E+03 0.  0.
         23    2    4    4    0    0  0.41485160822E+03  0.38608608343E+02  0.79558289979E+03  0.90267082496E+03  0.90939465126E+02 0.  0.
         23    2    4    4    0    0 -0.40119146997E+03  0.29781051122E+03  0.15828515821E+04  0.16621234139E+04  0.87117253570E+02 0.  0.
          2    1    3    3  502    0  0.10254983335E+02 -0.15188763222E+02  0.20724497301E+02  0.27665285102E+02  0.00000000000E+00 0. -1.
         -1    1    3    3    0  502 -0.23915121581E+02 -0.32123035634E+03  0.43866868409E+02  0.32509256685E+03  0.00000000000E+00 0.  1.
         13    1    5    5    0    0  0.31790255375E+03  0.21927061165E+02  0.51794441207E+03  0.60811943209E+03  0.00000000000E+00 0. -1.
        -13    1    5    5    0    0  0.96949054474E+02  0.16681547178E+02  0.27763848772E+03  0.29455139287E+03  0.00000000000E+00 0.  1.
          1    1    6    6  503    0 -0.23154200468E+03  0.13614224054E+03  0.95139484137E+03  0.98858411568E+03  0.00000000000E+00 0. -1.
         -1    1    6    6    0  503 -0.16964946529E+03  0.16166827068E+03  0.63145674077E+03  0.67353929825E+03  0.00000000000E+00 0.  1.
<mgrwt>
<rscale>  0 0.15949091E+04</rscale>
<asrwt>0</asrwt>
<pdfrwt beam="1">  1        2 0.41235213E+00 0.15949091E+04</pdfrwt>
<pdfrwt beam="2">  1       -1 0.36502021E-01 0.15949091E+04</pdfrwt>
<totfact> 0.21513239E+01</totfact>
</mgrwt>
</event>
<event>
12    7  0.1740517E-007  0.1252564E+04  0.7818608E-02  0.9068052E-01
          2   -1    0    0  501    0  0.00000000000E+00  0.00000000000E+00  0.12677659883E+04  0.12677659883E+04  0.00000000000E+00 0. -1.
         -1   -1    0    0    0  501 -0.00000000000E+00 -0.00000000000E+00 -0.30938617829E+03  0.30938617829E+03  0.00000000000E+00 0.  1.
         24    2    1    2    0    0 -0.27313357836E+03 -0.49171346298E+02  0.36514372935E+03  0.46367621353E+03  0.68160949092E+02 0.  0.
        254    2    1    2    0    0  0.27313357836E+03  0.49171346298E+02  0.59323608061E+03  0.11134759530E+04  0.90048868826E+03 0.  0.
         23    2    4    4    0    0  0.43519786936E+03  0.86803262267E+02  0.74313684007E+03  0.87070467773E+03  0.94563634294E+02 0.  0.
         23    2    4    4    0    0 -0.16206429099E+03 -0.37631915969E+02 -0.14990075946E+03  0.24277127528E+03  0.93737179933E+02 0.  0.
          4    1    3    3  502    0 -0.21548355537E+03 -0.66607163419E+02  0.28812248679E+03  0.36590195988E+03  0.00000000000E+00 0. -1.
         -3    1    3    3    0  502 -0.57650022990E+02  0.17435817121E+02  0.77021242566E+02  0.97774253645E+02  0.00000000000E+00 0.  1.
         13    1    5    5    0    0  0.72617483915E+02  0.48505762980E+02  0.11467413812E+03  0.14413974457E+03  0.00000000000E+00 0.  1.
        -13    1    5    5    0    0  0.36258038544E+03  0.38297499287E+02  0.62846270195E+03  0.72656493316E+03  0.00000000000E+00 0. -1.
          4    1    6    6  503    0 -0.15926296531E+03 -0.10095837455E+02 -0.14292096598E+03  0.21422656365E+03  0.00000000000E+00 0. -1.
         -4    1    6    6    0  503 -0.28013256823E+01 -0.27536078515E+02 -0.69797934745E+01  0.28544711638E+02  0.00000000000E+00 0.  1.
<mgrwt>
<rscale>  0 0.12525642E+04</rscale>
<asrwt>0</asrwt>
<pdfrwt beam="1">  1        2 0.19504092E+00 0.12525642E+04</pdfrwt>
<pdfrwt beam="2">  1       -1 0.47597874E-01 0.12525642E+04</pdfrwt>
<totfact> 0.85263704E+01</totfact>
</mgrwt>
</event>
<event>
12    7  0.1740517E-007  0.1612199E+04  0.7818608E-02  0.8813089E-01
          2   -1    0    0  501    0  0.00000000000E+00  0.00000000000E+00  0.21004660383E+04  0.21004660383E+04  0.00000000000E+00 0. -1.
         -1   -1    0    0    0  501 -0.00000000000E+00 -0.00000000000E+00 -0.30935822182E+03  0.30935822182E+03  0.00000000000E+00 0.  1.
         24    2    1    2    0    0  0.43077961597E+03 -0.29530780125E+03  0.89198211739E+03  0.10370805038E+04  0.84416222375E+02 0.  0.
        254    2    1    2    0    0 -0.43077961597E+03  0.29530780125E+03  0.89912569907E+03  0.13727437563E+04  0.89622576550E+03 0.  0.
         23    2    4    4    0    0 -0.69044661388E+03  0.25747357744E+03  0.76467479419E+03  0.10657372221E+04  0.89772578873E+02 0.  0.
         23    2    4    4    0    0  0.25966699792E+03  0.37834223811E+02  0.13445090488E+03  0.30700653424E+03  0.85542901215E+02 0.  0.
          4    1    3    3  502    0  0.78758548361E+02 -0.47271425746E+02  0.10136072006E+03  0.13678995652E+03  0.00000000000E+00 0. -1.
         -3    1    3    3    0  502  0.35202106761E+03 -0.24803637550E+03  0.79062139732E+03  0.90029054728E+03  0.00000000000E+00 0.  1.
         13    1    5    5    0    0 -0.28063771944E+03  0.15200411223E+03  0.33234236341E+03  0.46077567886E+03  0.00000000000E+00 0.  1.
        -13    1    5    5    0    0 -0.40980889444E+03  0.10546946521E+03  0.43233243078E+03  0.60496154320E+03  0.00000000000E+00 0. -1.
          3    1    6    6  503    0  0.20366993567E+02  0.26758335890E+02  0.32141735869E+02  0.46517890658E+02  0.00000000000E+00 0. -1.
         -3    1    6    6    0  503  0.23930000435E+03  0.11075887921E+02  0.10230916901E+03  0.26048864359E+03  0.00000000000E+00 0.  1.
<mgrwt>
<rscale>  0 0.16121990E+04</rscale>
<asrwt>0</asrwt>
<pdfrwt beam="1">  1        2 0.32314861E+00 0.16121990E+04</pdfrwt>
<pdfrwt beam="2">  1       -1 0.47593574E-01 0.16121990E+04</pdfrwt>
<totfact> 0.28256470E+01</totfact>
</mgrwt>
</event>
<event>
12    7  0.1740517E-007  0.1682154E+04  0.7818608E-02  0.8771609E-01
          2   -1    0    0  501    0  0.00000000000E+00  0.00000000000E+00  0.37883583348E+03  0.37883583348E+03  0.00000000000E+00 0. -1.
         -1   -1    0    0    0  501 -0.00000000000E+00 -0.00000000000E+00 -0.18673265672E+04  0.18673265672E+04  0.00000000000E+00 0.  1.
         24    2    1    2    0    0  0.27676742930E+03  0.23654016565E+03  0.10091693005E+03  0.38596390181E+03  0.78945847532E+02 0.  0.
        254    2    1    2    0    0 -0.27676742930E+03 -0.23654016565E+03 -0.15894076638E+04  0.18601984989E+04  0.89530457033E+03 0.  0.
         23    2    4    4    0    0 -0.30531154320E+03 -0.46401697303E+03 -0.14931878179E+04  0.15957225613E+04  0.90519298897E+02 0.  0.
         23    2    4    4    0    0  0.28544113899E+02  0.22747680738E+03 -0.96219845831E+02  0.26447593753E+03  0.90159849530E+02 0.  0.
          2    1    3    3  502    0  0.23145895242E+03  0.15622684401E+03  0.63044078544E+02  0.28627718960E+03  0.00000000000E+00 0. -1.
         -1    1    3    3    0  502  0.45308476875E+02  0.80313321641E+02  0.37872851508E+02  0.99686712209E+02  0.00000000000E+00 0.  1.
         13    1    5    5    0    0 -0.29656723019E+03 -0.40568661210E+03 -0.13007102333E+04  0.13944105781E+04  0.00000000000E+00 0.  1.
        -13    1    5    5    0    0 -0.87443130069E+01 -0.58330360925E+02 -0.19247758461E+03  0.20131198324E+03  0.00000000000E+00 0. -1.
          3    1    6    6  503    0  0.79290607480E+01 -0.54984469356E+01  0.34384283101E+01  0.10243325256E+02  0.00000000000E+00 0. -1.
         -3    1    6    6    0  503  0.20615053151E+02  0.23297525431E+03 -0.99658274141E+02  0.25423261227E+03  0.00000000000E+00 0.  1.
<mgrwt>
<rscale>  0 0.16821536E+04</rscale>
<asrwt>0</asrwt>
<pdfrwt beam="1">  1        2 0.58282438E-01 0.16821536E+04</pdfrwt>
<pdfrwt beam="2">  1       -1 0.28728100E+00 0.16821536E+04</pdfrwt>
<totfact> 0.36836885E+00</totfact>
</mgrwt>
</event>
<event>
12    7  0.1740517E-007  0.1482385E+04  0.7818608E-02  0.8896252E-01
          2   -1    0    0  501    0  0.00000000000E+00  0.00000000000E+00  0.26499343630E+04  0.26499343630E+04  0.00000000000E+00 0. -1.
         -1   -1    0    0    0  501 -0.00000000000E+00 -0.00000000000E+00 -0.20731324229E+03  0.20731324229E+03  0.00000000000E+00 0.  1.
         24    2    1    2    0    0 -0.36484515569E+03 -0.16655036076E+03  0.32174413638E+03  0.52023527330E+03  0.79211362782E+02 0.  0.
        254    2    1    2    0    0  0.36484515569E+03  0.16655036076E+03  0.21208769843E+04  0.23370123320E+04  0.89591095923E+03 0.  0.
         23    2    4    4    0    0  0.61742609908E+03 -0.12325209492E+02  0.10716663572E+04  0.12400564893E+04  0.88906788162E+02 0.  0.
         23    2    4    4    0    0 -0.25258094339E+03  0.17887557025E+03  0.10492106272E+04  0.10969558427E+04  0.81704210586E+02 0.  0.
          4    1    3    3  502    0 -0.28181006972E+02 -0.28908687651E+01  0.28304107735E+01  0.28469940312E+02  0.00000000000E+00 0. -1.
         -3    1    3    3    0  502 -0.33666414871E+03 -0.16365949199E+03  0.31891372561E+03  0.49176533299E+03  0.00000000000E+00 0.  1.
         13    1    5    5    0    0  0.47711223052E+03 -0.46666849036E+02  0.83138252757E+03  0.95969306679E+03  0.00000000000E+00 0.  1.
        -13    1    5    5    0    0  0.14031386856E+03  0.34341639544E+02  0.24028382960E+03  0.28036342251E+03  0.00000000000E+00 0. -1.
          2    1    6    6  503    0 -0.16155523150E+03  0.73754045842E+02  0.50725512991E+03  0.53744536366E+03  0.00000000000E+00 0. -1.
         -2    1    6    6    0  503 -0.91025711886E+02  0.10512152441E+03  0.54195549724E+03  0.55951047900E+03  0.00000000000E+00 0.  1.
<mgrwt>
<rscale>  0 0.14823852E+04</rscale>
<asrwt>0</asrwt>
<pdfrwt beam="1">  1        2 0.40768218E+00 0.14823852E+04</pdfrwt>
<pdfrwt beam="2">  1       -1 0.31894347E-01 0.14823852E+04</pdfrwt>
<totfact> 0.28813355E+01</totfact>
</mgrwt>
</event>
<event>
12    7  0.1740517E-007  0.2728867E+04  0.7818608E-02  0.8325699E-01
         -1   -1    0    0    0  501 -0.00000000000E+00  0.00000000000E+00  0.49660112837E+03  0.49660112837E+03  0.00000000000E+00 0.  1.
          2   -1    0    0  501    0  0.00000000000E+00 -0.00000000000E+00 -0.37488411479E+04  0.37488411479E+04  0.00000000000E+00 0. -1.
         24    2    1    2    0    0 -0.93836668813E+03 -0.73147013658E+03 -0.10734532484E+04  0.16045777047E+04  0.82384050448E+02 0.  0.
        254    2    1    2    0    0  0.93836668813E+03  0.73147013658E+03 -0.21787867712E+04  0.26408645716E+04  0.90081812218E+03 0.  0.
         23    2    4    4    0    0  0.82492327706E+03  0.23951004664E+03 -0.18201488620E+04  0.20146815733E+04  0.90202476108E+02 0.  0.
         23    2    4    4    0    0  0.11344341107E+03  0.49196008994E+03 -0.35863790920E+03  0.62618299828E+03  0.92681496604E+02 0.  0.
          2    1    3    3  502    0 -0.30663289359E+03 -0.25615504664E+03 -0.41021752500E+03  0.57264086229E+03  0.00000000000E+00 0. -1.
         -1    1    3    3    0  502 -0.63173379454E+03 -0.47531508994E+03 -0.66323572336E+03  0.10319368424E+04  0.00000000000E+00 0.  1.
         13    1    5    5    0    0  0.42920682980E+03  0.12216973857E+03 -0.10501689143E+04  0.11410515748E+04  0.00000000000E+00 0.  1.
        -13    1    5    5    0    0  0.39571644727E+03  0.11734030807E+03 -0.76997994768E+03  0.87362999855E+03  0.00000000000E+00 0. -1.
          3    1    6    6  503    0  0.30765096962E+02  0.23763862178E+03 -0.21840959194E+03  0.32422423661E+03  0.00000000000E+00 0. -1.
         -3    1    6    6    0  503  0.82678314107E+02  0.25432146816E+03 -0.14022831727E+03  0.30195876168E+03  0.00000000000E+00 0.  1.
<mgrwt>
<rscale>  0 0.27288670E+04</rscale>
<asrwt>0</asrwt>
<pdfrwt beam="1">  1        2 0.57674477E+00 0.27288670E+04</pdfrwt>
<pdfrwt beam="2">  1       -1 0.76400176E-01 0.27288670E+04</pdfrwt>
<totfact> 0.91901233E-01</totfact>
</mgrwt>
</event>
<event>
12    7  0.1740517E-007  0.2826387E+04  0.7818608E-02  0.8295123E-01
          2   -1    0    0  501    0  0.00000000000E+00  0.00000000000E+00  0.18830106167E+04  0.18830106167E+04  0.00000000000E+00 0. -1.
         -1   -1    0    0    0  501 -0.00000000000E+00 -0.00000000000E+00 -0.10605970254E+04  0.10605970254E+04  0.00000000000E+00 0.  1.
         24    2    1    2    0    0 -0.12254324072E+04  0.28276520989E+03  0.19354126267E+03  0.12750270172E+04  0.81209148076E+02 0.  0.
        254    2    1    2    0    0  0.12254324072E+04 -0.28276520989E+03  0.62887232868E+03  0.16685806249E+04  0.89835413259E+03 0.  0.
         23    2    4    4    0    0  0.53130571459E+03  0.20010990024E+03 -0.54283901673E+02  0.57775600781E+03  0.92333786062E+02 0.  0.
         23    2    4    4    0    0  0.69412669258E+03 -0.48287511013E+03  0.68315623035E+03  0.10908246171E+04  0.90640348877E+02 0.  0.
          2    1    3    3  502    0 -0.11549393787E+04  0.28240078593E+03  0.19302902635E+03  0.12045311857E+04  0.00000000000E+00 0. -1.
         -1    1    3    3    0  502 -0.70493028454E+02  0.36442396106E+00  0.51223631944E+00  0.70495831448E+02  0.00000000000E+00 0.  1.
         13    1    5    5    0    0  0.37570676434E+03  0.16799284833E+03 -0.56259385367E+01  0.41159302842E+03  0.00000000000E+00 0. -1.
        -13    1    5    5    0    0  0.15559895025E+03  0.32117051911E+02 -0.48657963136E+02  0.16616297939E+03  0.00000000000E+00 0.  1.
          2    1    6    6  503    0  0.50192369192E+03 -0.38428555952E+03  0.47366840941E+03  0.78991426486E+03  0.00000000000E+00 0. -1.
         -2    1    6    6    0  503  0.19220300067E+03 -0.98589550613E+02  0.20948782094E+03  0.30091035223E+03  0.00000000000E+00 0.  1.
<mgrwt>
<rscale>  0 0.28263867E+04</rscale>
<asrwt>0</asrwt>
<pdfrwt beam="1">  1        2 0.28969394E+00 0.28263867E+04</pdfrwt>
<pdfrwt beam="2">  1       -1 0.16316877E+00 0.28263867E+04</pdfrwt>
<totfact> 0.21206026E+00</totfact>
</mgrwt>
</event>
<event>
12    7  0.1740517E-007  0.1204260E+04  0.7818608E-02  0.9109136E-01
         -1   -1    0    0    0  501 -0.00000000000E+00  0.00000000000E+00  0.23750101909E+03  0.23750101909E+03  0.00000000000E+00 0.  1.
          2   -1    0    0  501    0  0.00000000000E+00 -0.00000000000E+00 -0.15265635998E+04  0.15265635998E+04  0.00000000000E+00 0. -1.
         24    2    1    2    0    0  0.16681824796E+03 -0.11593412574E+03 -0.55721260984E+02  0.22511016973E+03  0.79376824241E+02 0.  0.
        254    2    1    2    0    0 -0.16681824796E+03  0.11593412574E+03 -0.12333413198E+04  0.15389544492E+04  0.89776441024E+03 0.  0.
         23    2    4    4    0    0  0.34834626671E+03  0.26825569516E+01 -0.32660456101E+03  0.48605726603E+03  0.90712782714E+02 0.  0.
         23    2    4    4    0    0 -0.51516451467E+03  0.11325156879E+03 -0.90673675874E+03  0.10528971832E+04  0.90556797857E+02 0.  0.
          4    1    3    3  502    0  0.53433980460E+02 -0.18738205998E+02  0.16837447306E+02  0.59074616068E+02  0.00000000000E+00 0. -1.
         -3    1    3    3    0  502  0.11338426750E+03 -0.97195919741E+02 -0.72558708290E+02  0.16603555366E+03  0.00000000000E+00 0.  1.
         13    1    5    5    0    0  0.91072994011E+02 -0.32146171604E+02 -0.58822278705E+02  0.11308283273E+03  0.00000000000E+00 0. -1.
        -13    1    5    5    0    0  0.25727327270E+03  0.34828728556E+02 -0.26778228231E+03  0.37297443330E+03  0.00000000000E+00 0.  1.
          4    1    6    6  503    0 -0.39348870425E+03  0.73465865971E+02 -0.75349101158E+03  0.85321702888E+03  0.00000000000E+00 0. -1.
         -4    1    6    6    0  503 -0.12167581041E+03  0.39785702816E+02 -0.15324574716E+03  0.19968015427E+03  0.00000000000E+00 0.  1.
<mgrwt>
<rscale>  0 0.12042598E+04</rscale>
<asrwt>0</asrwt>
<pdfrwt beam="1">  1        2 0.23485594E+00 0.12042598E+04</pdfrwt>
<pdfrwt beam="2">  1       -1 0.36538618E-01 0.12042598E+04</pdfrwt>
<totfact> 0.98937790E+01</totfact>
</mgrwt>
</event>
<event>
12    7  0.1740517E-007  0.1215686E+04  0.7818608E-02  0.9099237E-01
         -1   -1    0    0    0  501 -0.00000000000E+00  0.00000000000E+00  0.35893587875E+03  0.35893587875E+03  0.00000000000E+00 0.  1.
          2   -1    0    0  501    0  0.00000000000E+00 -0.00000000000E+00 -0.10293565229E+04  0.10293565229E+04  0.00000000000E+00 0. -1.
         24    2    1    2    0    0  0.12188896398E+03 -0.23903923662E+03  0.17042868095E+02  0.28018815566E+03  0.78855989212E+02 0.  0.
        254    2    1    2    0    0 -0.12188896398E+03  0.23903923662E+03 -0.68746351227E+03  0.11081042460E+04  0.82661494250E+03 0.  0.
         23    2    4    4    0    0  0.61798550140E+02 -0.21905658368E+03  0.13846929467E+02  0.24566802682E+03  0.91412221787E+02 0.  0.
         23    2    4    4    0    0 -0.18368751412E+03  0.45809582031E+03 -0.70131044174E+03  0.86243621920E+03  0.91471378399E+02 0.  0.
          2    1    3    3  502    0  0.90952500097E+02 -0.12413658164E+03 -0.20871920260E+02  0.15529934073E+03  0.00000000000E+00 0. -1.
         -1    1    3    3    0  502  0.30936463885E+02 -0.11490265498E+03  0.37914788355E+02  0.12488881493E+03  0.00000000000E+00 0.  1.
         13    1    5    5    0    0 -0.24110936388E+02 -0.47212339440E+02  0.64503216017E+01  0.53403641240E+02  0.00000000000E+00 0. -1.
        -13    1    5    5    0    0  0.85909486528E+02 -0.17184424424E+03  0.73966078656E+01  0.19226438558E+03  0.00000000000E+00 0.  1.
          1    1    6    6  503    0 -0.52015518888E+02  0.59313783472E+02 -0.14901865677E+03  0.16861286778E+03  0.00000000000E+00 0. -1.
         -1    1    6    6    0  503 -0.13167199523E+03  0.39878203683E+03 -0.55229178497E+03  0.69382335142E+03  0.00000000000E+00 0.  1.
<mgrwt>
<rscale>  0 0.12156858E+04</rscale>
<asrwt>0</asrwt>
<pdfrwt beam="1">  1        2 0.15836254E+00 0.12156858E+04</pdfrwt>
<pdfrwt beam="2">  1       -1 0.55220905E-01 0.12156858E+04</pdfrwt>
<totfact> 0.89902247E+01</totfact>
</mgrwt>
</event>
<event>
12    7  0.1740517E-007  0.1817065E+04  0.7818608E-02  0.8697277E-01
         -1   -1    0    0    0  501 -0.00000000000E+00  0.00000000000E+00  0.66855515230E+03  0.66855515230E+03  0.00000000000E+00 0.  1.
          2   -1    0    0  501    0  0.00000000000E+00 -0.00000000000E+00 -0.12346495703E+04  0.12346495703E+04  0.00000000000E+00 0. -1.
         24    2    1    2    0    0 -0.21986857189E+03 -0.62324492193E+03 -0.44870338521E+02  0.66719298941E+03  0.79729017486E+02 0.  0.
        254    2    1    2    0    0  0.21986857189E+03  0.62324492193E+03 -0.52122407948E+03  0.12360117332E+04  0.90513758177E+03 0.  0.
         23    2    4    4    0    0 -0.14877958628E+03  0.69358226978E+03 -0.22411937941E+03  0.74876431533E+03  0.85010431312E+02 0.  0.
         23    2    4    4    0    0  0.36864815817E+03 -0.70337347857E+02 -0.29710470006E+03  0.48724741785E+03  0.91049636881E+02 0.  0.
          4    1    3    3  502    0 -0.20504539498E+03 -0.48691756135E+03 -0.42582855533E+02  0.53004304084E+03  0.00000000000E+00 0. -1.
         -3    1    3    3    0  502 -0.14823176905E+02 -0.13632736058E+03 -0.22874829875E+01  0.13714994858E+03  0.00000000000E+00 0.  1.
         13    1    5    5    0    0 -0.70811151246E+02  0.18677176351E+03 -0.87738190636E+02  0.21816484795E+03  0.00000000000E+00 0. -1.
        -13    1    5    5    0    0 -0.77968435036E+02  0.50681050628E+03 -0.13638118878E+03  0.53059946738E+03  0.00000000000E+00 0.  1.
          4    1    6    6  503    0  0.56064024435E+02  0.57833024811E+01 -0.12548845586E+02  0.57741622327E+02  0.00000000000E+00 0. -1.
         -4    1    6    6    0  503  0.31258413374E+03 -0.76120650338E+02 -0.28455585447E+03  0.42950579552E+03  0.00000000000E+00 0.  1.
<mgrwt>
<rscale>  0 0.18170650E+04</rscale>
<asrwt>0</asrwt>
<pdfrwt beam="1">  1        2 0.18994609E+00 0.18170650E+04</pdfrwt>
<pdfrwt beam="2">  1       -1 0.10285464E+00 0.18170650E+04</pdfrwt>
<totfact> 0.17343252E+01</totfact>
</mgrwt>
</event>
<event>
12    7  0.1740517E-007  0.2674917E+04  0.7818608E-02  0.8343190E-01
          2   -1    0    0  501    0  0.00000000000E+00  0.00000000000E+00  0.25982362796E+04  0.25982362796E+04  0.00000000000E+00 0. -1.
         -1   -1    0    0    0  501 -0.00000000000E+00 -0.00000000000E+00 -0.68846529001E+03  0.68846529001E+03  0.00000000000E+00 0.  1.
         24    2    1    2    0    0 -0.11206342958E+04 -0.25662721197E+03  0.11881450338E+04  0.16552646833E+04  0.80831920771E+02 0.  0.
        254    2    1    2    0    0  0.11206342958E+04  0.25662721197E+03  0.72162595576E+03  0.16314368863E+04  0.90507653995E+03 0.  0.
         23    2    4    4    0    0  0.11038798130E+04  0.35955145133E+02  0.81372587827E+03  0.13749135699E+04  0.91619353244E+02 0.  0.
         23    2    4    4    0    0  0.16754482841E+02  0.22067206684E+03 -0.92099922513E+02  0.25652331638E+03  0.91350655950E+02 0.  0.
          2    1    3    3  502    0 -0.74258901134E+03 -0.19413338681E+03  0.74880230527E+03  0.10723017784E+04  0.00000000000E+00 0. -1.
         -1    1    3    3    0  502 -0.37804528448E+03 -0.62493825162E+02  0.43934272856E+03  0.58296290486E+03  0.00000000000E+00 0.  1.
         13    1    5    5    0    0  0.39119843397E+03 -0.23556166974E+02  0.31878158117E+03  0.50518591057E+03  0.00000000000E+00 0. -1.
        -13    1    5    5    0    0  0.71268137901E+03  0.59511312107E+02  0.49494429711E+03  0.86972765938E+03  0.00000000000E+00 0.  1.
          4    1    6    6  503    0 -0.29842010527E+02  0.37661806424E+02 -0.42451196109E+01  0.48238763416E+02  0.00000000000E+00 0.  1.
         -4    1    6    6    0  503  0.46596493368E+02  0.18301026042E+03 -0.87854802902E+02  0.20828455297E+03  0.00000000000E+00 0. -1.
<mgrwt>
<rscale>  0 0.26749172E+04</rscale>
<asrwt>0</asrwt>
<pdfrwt beam="1">  1        2 0.39972865E+00 0.26749172E+04</pdfrwt>
<pdfrwt beam="2">  1       -1 0.10591774E+00 0.26749172E+04</pdfrwt>
<totfact> 0.25428758E+00</totfact>
</mgrwt>
</event>
<event>
12    7  0.1740517E-007  0.2005372E+04  0.7818608E-02  0.8604113E-01
         -1   -1    0    0    0  501 -0.00000000000E+00  0.00000000000E+00  0.11046660700E+04  0.11046660700E+04  0.00000000000E+00 0.  1.
          2   -1    0    0  501    0  0.00000000000E+00 -0.00000000000E+00 -0.91012043959E+03  0.91012043959E+03  0.00000000000E+00 0. -1.
         24    2    1    2    0    0 -0.29072882358E+03  0.66249597029E+03 -0.13610934211E+03  0.74058625164E+03  0.80734649297E+02 0.  0.
        254    2    1    2    0    0  0.29072882358E+03 -0.66249597029E+03  0.33065497256E+03  0.12742002580E+04  0.99540415264E+03 0.  0.
         23    2    4    4    0    0 -0.73329588182E+02 -0.27804177124E+03  0.60086935078E+03  0.67291055953E+03  0.95290027609E+02 0.  0.
         23    2    4    4    0    0  0.36405841176E+03 -0.38445419905E+03 -0.27021437821E+03  0.60128969847E+03  0.90498248367E+02 0.  0.
          2    1    3    3  502    0 -0.28260670998E+03  0.58696585930E+03 -0.13062215607E+03  0.66442277216E+03  0.00000000000E+00 0. -1.
         -1    1    3    3    0  502 -0.81221135983E+01  0.75530110992E+02 -0.54871860364E+01  0.76163479479E+02  0.00000000000E+00 0.  1.
         13    1    5    5    0    0 -0.59091611010E+02 -0.24654849135E+03  0.57882981765E+03  0.63191924712E+03  0.00000000000E+00 0. -1.
        -13    1    5    5    0    0 -0.14237977171E+02 -0.31493279898E+02  0.22039533127E+02  0.40991312410E+02  0.00000000000E+00 0.  1.
          3    1    6    6  503    0  0.35421236324E+03 -0.38563437293E+03 -0.25327259366E+03  0.58165907072E+03  0.00000000000E+00 0. -1.
         -3    1    6    6    0  503  0.98460485212E+01  0.11801738840E+01 -0.16941784555E+02  0.19630627749E+02  0.00000000000E+00 0.  1.
<mgrwt>
<rscale>  0 0.20053720E+04</rscale>
<asrwt>0</asrwt>
<pdfrwt beam="1">  1        2 0.14001853E+00 0.20053720E+04</pdfrwt>
<pdfrwt beam="2">  1       -1 0.16994863E+00 0.20053720E+04</pdfrwt>
<totfact> 0.75316334E+00</totfact>
</mgrwt>
</event>
<event>
12    7  0.1740517E-007  0.1421946E+04  0.7818608E-02  0.8938084E-01
          2   -1    0    0  501    0  0.00000000000E+00  0.00000000000E+00  0.33764030789E+04  0.33764030789E+04  0.00000000000E+00 0. -1.
         -1   -1    0    0    0  501 -0.00000000000E+00 -0.00000000000E+00 -0.14971035007E+03  0.14971035007E+03  0.00000000000E+00 0.  1.
         24    2    1    2    0    0  0.12728125570E+03 -0.34698069067E+03  0.47626680842E+03  0.60852864181E+03  0.82951295046E+02 0.  0.
        254    2    1    2    0    0 -0.12728125570E+03  0.34698069067E+03  0.27504259204E+04  0.29175847871E+04  0.90047883310E+03 0.  0.
         23    2    4    4    0    0 -0.39444633177E+03  0.31604745519E+03  0.24513176744E+04  0.25047269494E+04  0.96046069449E+02 0.  0.
         23    2    4    4    0    0  0.26716507607E+03  0.30933235476E+02  0.29910824595E+03  0.41285783774E+03  0.93015098030E+02 0.  0.
          2    1    3    3  502    0  0.63975222672E+01 -0.56752310726E+02  0.12304518500E+03  0.13565349466E+03  0.00000000000E+00 0. -1.
         -1    1    3    3    0  502  0.12088373343E+03 -0.29022837994E+03  0.35322162342E+03  0.47287514714E+03  0.00000000000E+00 0.  1.
         13    1    5    5    0    0 -0.26518130425E+03  0.16605342793E+03  0.13532831391E+04  0.13889816844E+04  0.00000000000E+00 0. -1.
        -13    1    5    5    0    0 -0.12926502752E+03  0.14999402726E+03  0.10980345354E+04  0.11157452650E+04  0.00000000000E+00 0.  1.
          2    1    6    6  503    0  0.26289335599E+03  0.40318311881E+02  0.30173005505E+03  0.40221823556E+03  0.00000000000E+00 0. -1.
         -2    1    6    6    0  503  0.42717200822E+01 -0.93850764053E+01 -0.26218091037E+01  0.10639602181E+02  0.00000000000E+00 0.  1.
<mgrwt>
<rscale>  0 0.14219458E+04</rscale>
<asrwt>0</asrwt>
<pdfrwt beam="1">  1        2 0.51944657E+00 0.14219458E+04</pdfrwt>
<pdfrwt beam="2">  1       -1 0.23032364E-01 0.14219458E+04</pdfrwt>
<totfact> 0.17898874E+01</totfact>
</mgrwt>
</event>
<event>
12    7  0.1740517E-007  0.2832568E+04  0.7818608E-02  0.8293228E-01
         -1   -1    0    0    0  501 -0.00000000000E+00  0.00000000000E+00  0.11419578032E+04  0.11419578032E+04  0.00000000000E+00 0.  1.
          2   -1    0    0  501    0  0.00000000000E+00 -0.00000000000E+00 -0.17565101855E+04  0.17565101855E+04  0.00000000000E+00 0. -1.
         24    2    1    2    0    0  0.88569392457E+03 -0.52314994359E+02  0.65661191787E+03  0.11067122859E+04  0.80512647326E+02 0.  0.
        254    2    1    2    0    0 -0.88569392457E+03  0.52314994359E+02 -0.12711643002E+04  0.17917557028E+04  0.89852058058E+03 0.  0.
         23    2    4    4    0    0 -0.39463634593E+03  0.33184383962E+03 -0.10576164649E+04  0.11803641092E+04  0.94067337902E+02 0.  0.
         23    2    4    4    0    0 -0.49105757864E+03 -0.27952884526E+03 -0.21354783527E+03  0.61139159356E+03  0.94462065707E+02 0.  0.
          2    1    3    3  502    0  0.29039946526E+03 -0.14279250819E+02  0.26292311674E+03  0.39200039763E+03  0.00000000000E+00 0. -1.
         -1    1    3    3    0  502  0.59529445931E+03 -0.38035743540E+02  0.39368880113E+03  0.71471188825E+03  0.00000000000E+00 0.  1.
         13    1    5    5    0    0 -0.13130185646E+03  0.15134183901E+03 -0.33467609536E+03  0.39006745385E+03  0.00000000000E+00 0. -1.
        -13    1    5    5    0    0 -0.26333448946E+03  0.18050200061E+03 -0.72294036954E+03  0.79029665536E+03  0.00000000000E+00 0.  1.
          3    1    6    6  503    0 -0.24324317525E+03 -0.10995258700E+03 -0.14343294298E+03  0.30303435915E+03  0.00000000000E+00 0. -1.
         -3    1    6    6    0  503 -0.24781440340E+03 -0.16957625826E+03 -0.70114892291E+02  0.30835723442E+03  0.00000000000E+00 0.  1.
<mgrwt>
<rscale>  0 0.28325681E+04</rscale>
<asrwt>0</asrwt>
<pdfrwt beam="1">  1        2 0.27023234E+00 0.28325681E+04</pdfrwt>
<pdfrwt beam="2">  1       -1 0.17568582E+00 0.28325681E+04</pdfrwt>
<totfact> 0.20148671E+00</totfact>
</mgrwt>
</event>
<event>
12    7  0.1740517E-007  0.2215969E+04  0.7818608E-02  0.8511811E-01
         -1   -1    0    0    0  501 -0.00000000000E+00  0.00000000000E+00  0.85287020483E+03  0.85287020483E+03  0.00000000000E+00 0.  1.
          2   -1    0    0  501    0  0.00000000000E+00 -0.00000000000E+00 -0.14394099180E+04  0.14394099180E+04  0.00000000000E+00 0. -1.
         24    2    1    2    0    0  0.47746565597E+02  0.31277626947E+03  0.64813525471E+03  0.72566629285E+03  0.80022065218E+02 0.  0.
        254    2    1    2    0    0 -0.47746565597E+02 -0.31277626947E+03 -0.12346749679E+04  0.15666138300E+04  0.91090498229E+03 0.  0.
         23    2    4    4    0    0 -0.26188730632E+03 -0.40936814673E+03 -0.12179459974E+04  0.13144606683E+04  0.90813848420E+02 0.  0.
         23    2    4    4    0    0  0.21414074072E+03  0.96591877265E+02 -0.16728970512E+02  0.25215316176E+03  0.90083910552E+02 0.  0.
          4    1    3    3  502    0  0.12369518409E+02  0.84982469504E+02  0.26455946812E+03  0.27814876825E+03  0.00000000000E+00 0. -1.
         -3    1    3    3    0  502  0.35377047188E+02  0.22779379996E+03  0.38357578659E+03  0.44751752460E+03  0.00000000000E+00 0.  1.
         13    1    5    5    0    0 -0.25433256937E+03 -0.39552631038E+03 -0.11118909149E+04  0.12072396302E+04  0.00000000000E+00 0. -1.
        -13    1    5    5    0    0 -0.75547369512E+01 -0.13841836351E+02 -0.10605508248E+03  0.10722103806E+03  0.00000000000E+00 0.  1.
          1    1    6    6  503    0  0.18949066398E+03  0.81259701800E+02 -0.45653927443E+02  0.21117322739E+03  0.00000000000E+00 0. -1.
         -1    1    6    6    0  503  0.24650076735E+02  0.15332175465E+02  0.28924956931E+02  0.40979934371E+02  0.00000000000E+00 0.  1.
<mgrwt>
<rscale>  0 0.22159692E+04</rscale>
<asrwt>0</asrwt>
<pdfrwt beam="1">  1        2 0.22144768E+00 0.22159692E+04</pdfrwt>
<pdfrwt beam="2">  1       -1 0.13121080E+00 0.22159692E+04</pdfrwt>
<totfact> 0.70790844E+00</totfact>
</mgrwt>
</event>
<event>
12    7  0.1740517E-007  0.1034997E+04  0.7818608E-02  0.9270972E-01
          2   -1    0    0  501    0  0.00000000000E+00  0.00000000000E+00  0.78114225004E+03  0.78114225004E+03  0.00000000000E+00 0. -1.
         -1   -1    0    0    0  501 -0.00000000000E+00 -0.00000000000E+00 -0.34283714003E+03  0.34283714003E+03  0.00000000000E+00 0.  1.
         24    2    1    2    0    0  0.27456991073E+02 -0.29068720232E+02 -0.48783477797E+02  0.10289951780E+03  0.81299484640E+02 0.  0.
        254    2    1    2    0    0 -0.27456991073E+02  0.29068720232E+02  0.48708858781E+03  0.10210798723E+04  0.89652101835E+03 0.  0.
         23    2    4    4    0    0 -0.14631034828E+03  0.15506264044E+03 -0.19996120578E+03  0.30582531215E+03  0.89963866413E+02 0.  0.
         23    2    4    4    0    0  0.11885335721E+03 -0.12599392021E+03  0.68704979359E+03  0.71525456013E+03  0.97729619176E+02 0.  0.
          4    1    3    3  502    0  0.28824658734E+02 -0.99902808465E+01  0.16631229697E+02  0.34745711444E+02  0.00000000000E+00 0. -1.
         -3    1    3    3    0  502 -0.13676676606E+01 -0.19078439386E+02 -0.65414707494E+02  0.68153806355E+02  0.00000000000E+00 0.  1.
         13    1    5    5    0    0 -0.11142843519E+03  0.14654077624E+03 -0.12445301978E+03  0.22221397211E+03  0.00000000000E+00 0. -1.
        -13    1    5    5    0    0 -0.34881913090E+02  0.85218642057E+01 -0.75508185996E+02  0.83611340037E+02  0.00000000000E+00 0.  1.
          1    1    6    6  503    0  0.13604667606E+03 -0.11357055785E+03  0.59759091627E+03  0.62331522754E+03  0.00000000000E+00 0. -1.
         -1    1    6    6    0  503 -0.17193318849E+02 -0.12423362362E+02  0.89458877313E+02  0.91939332581E+02  0.00000000000E+00 0.  1.
<mgrwt>
<rscale>  0 0.10349968E+04</rscale>
<asrwt>0</asrwt>
<pdfrwt beam="1">  1        2 0.12017573E+00 0.10349968E+04</pdfrwt>
<pdfrwt beam="2">  1       -1 0.52744176E-01 0.10349968E+04</pdfrwt>
<totfact> 0.14649805E+02</totfact>
</mgrwt>
</event>
<event>
12    7  0.1740517E-007  0.2217625E+04  0.7818608E-02  0.8511128E-01
         -1   -1    0    0    0  501 -0.00000000000E+00  0.00000000000E+00  0.17230191406E+04  0.17230191406E+04  0.00000000000E+00 0.  1.
          2   -1    0    0  501    0  0.00000000000E+00 -0.00000000000E+00 -0.71355288846E+03  0.71355288846E+03  0.00000000000E+00 0. -1.
         24    2    1    2    0    0  0.22526878604E+03 -0.90254206892E+03  0.48149791612E+03  0.10504632384E+04  0.79401258290E+02 0.  0.
        254    2    1    2    0    0 -0.22526878604E+03  0.90254206892E+03  0.52796833605E+03  0.13861087907E+04  0.88160013822E+03 0.  0.
         23    2    4    4    0    0  0.13708851277E+03 -0.55406967954E+02  0.27945545442E+03  0.32806992115E+03  0.87586127473E+02 0.  0.
         23    2    4    4    0    0 -0.36235729882E+03  0.95794903687E+03  0.24851288163E+03  0.10580388696E+04  0.93372522355E+02 0.  0.
          2    1    3    3  502    0  0.98247747177E+02 -0.34060909453E+03  0.14286954675E+03  0.38220267201E+03  0.00000000000E+00 0. -1.
         -1    1    3    3    0  502  0.12702103886E+03 -0.56193297439E+03  0.33862836937E+03  0.66826056637E+03  0.00000000000E+00 0.  1.
         13    1    5    5    0    0 -0.24115458609E+01 -0.13568087951E+02  0.98686590455E+00  0.13816022162E+02  0.00000000000E+00 0.  1.
        -13    1    5    5    0    0  0.13950005864E+03 -0.41838880004E+02  0.27846858852E+03  0.31425389899E+03  0.00000000000E+00 0. -1.
          2    1    6    6  503    0 -0.77691299768E+02  0.28291581761E+03  0.10430779083E+03  0.31137985346E+03  0.00000000000E+00 0.  1.
         -2    1    6    6    0  503 -0.28466599905E+03  0.67503321927E+03  0.14420509080E+03  0.74665901611E+03  0.00000000000E+00 0. -1.
<mgrwt>
<rscale>  0 0.22176251E+04</rscale>
<asrwt>0</asrwt>
<pdfrwt beam="1">  1        2 0.10977737E+00 0.22176251E+04</pdfrwt>
<pdfrwt beam="2">  1       -1 0.26507987E+00 0.22176251E+04</pdfrwt>
<totfact> 0.23161806E+00</totfact>
</mgrwt>
</event>
<event>
12    7  0.1740517E-007  0.2699328E+04  0.7818608E-02  0.8335223E-01
          2   -1    0    0  501    0  0.00000000000E+00  0.00000000000E+00  0.27329761930E+04  0.27329761930E+04  0.00000000000E+00 0. -1.
         -1   -1    0    0    0  501 -0.00000000000E+00 -0.00000000000E+00 -0.66652368989E+03  0.66652368989E+03  0.00000000000E+00 0.  1.
         24    2    1    2    0    0 -0.59540052074E+03 -0.67942064305E+03 -0.73663343637E+02  0.91097179367E+03  0.91264069427E+02 0.  0.
        254    2    1    2    0    0  0.59540052074E+03  0.67942064305E+03  0.21401158468E+04  0.24885280892E+04  0.89250323417E+03 0.  0.
         23    2    4    4    0    0  0.28370573659E+03  0.25167586141E+03  0.13629220120E+03  0.41397212018E+03  0.94697771805E+02 0.  0.
         23    2    4    4    0    0  0.31169478414E+03  0.42774478164E+03  0.20038236455E+04  0.20745559690E+04  0.91400380279E+02 0.  0.
          4    1    3    3  502    0 -0.93927145148E+02 -0.62766247210E+02 -0.28601705824E+01  0.11300482715E+03  0.00000000000E+00 0. -1.
         -3    1    3    3    0  502 -0.50147337559E+03 -0.61665439584E+03 -0.70803173055E+02  0.79796696652E+03  0.00000000000E+00 0.  1.
         13    1    5    5    0    0  0.97845172501E+02  0.55578699489E+02  0.26857894403E+01  0.11256057517E+03  0.00000000000E+00 0. -1.
        -13    1    5    5    0    0  0.18586056409E+03  0.19609716193E+03  0.13360641176E+03  0.30141154501E+03  0.00000000000E+00 0.  1.
          4    1    6    6  503    0  0.15872529908E+03  0.29291368150E+03  0.12541077991E+04  0.12976049157E+04  0.00000000000E+00 0. -1.
         -4    1    6    6    0  503  0.15296948507E+03  0.13483110014E+03  0.74971584644E+03  0.77695105337E+03  0.00000000000E+00 0.  1.
<mgrwt>
<rscale>  0 0.26993283E+04</rscale>
<asrwt>0</asrwt>
<pdfrwt beam="1">  1        2 0.42045787E+00 0.26993283E+04</pdfrwt>
<pdfrwt beam="2">  1       -1 0.10254211E+00 0.26993283E+04</pdfrwt>
<totfact> 0.22761411E+00</totfact>
</mgrwt>
</event>
<event>
12    7  0.1740517E-007  0.2056123E+04  0.7818608E-02  0.8580822E-01
         -1   -1    0    0    0  501 -0.00000000000E+00  0.00000000000E+00  0.90284501203E+03  0.90284501203E+03  0.00000000000E+00 0.  1.
          2   -1    0    0  501    0  0.00000000000E+00 -0.00000000000E+00 -0.11706447726E+04  0.11706447726E+04  0.00000000000E+00 0. -1.
         24    2    1    2    0    0 -0.13244216078E+03 -0.38697331929E+03 -0.82709862033E+03  0.92675326089E+03  0.86545959058E+02 0.  0.
        254    2    1    2    0    0  0.13244216078E+03  0.38697331929E+03  0.55929885975E+03  0.11467365237E+04  0.91372871498E+03 0.  0.
         23    2    4    4    0    0  0.16801689491E+02 -0.29126161605E+03  0.19378276196E+03  0.36282744790E+03  0.94743719365E+02 0.  0.
         23    2    4    4    0    0  0.11564047129E+03  0.67823493534E+03  0.36551609779E+03  0.78390907584E+03  0.86810571541E+02 0.  0.
          2    1    3    3  502    0 -0.39564518732E+02 -0.24522480637E+03 -0.50579746003E+03  0.56349944754E+03  0.00000000000E+00 0. -1.
         -1    1    3    3    0  502 -0.92877642048E+02 -0.14174851292E+03 -0.32130116030E+03  0.36325381335E+03  0.00000000000E+00 0.  1.
         13    1    5    5    0    0 -0.98087214078E+01 -0.92291920947E+02  0.11352871544E+03  0.14663825871E+03  0.00000000000E+00 0.  1.
        -13    1    5    5    0    0  0.26610410899E+02 -0.19896969510E+03  0.80254046519E+02  0.21618918919E+03  0.00000000000E+00 0. -1.
          1    1    6    6  503    0  0.12714112346E+03  0.62985812249E+03  0.32681406654E+03  0.72089774159E+03  0.00000000000E+00 0. -1.
         -1    1    6    6    0  503 -0.11500652167E+02  0.48376812851E+02  0.38702031243E+02  0.63011334252E+02  0.00000000000E+00 0.  1.
<mgrwt>
<rscale>  0 0.20561233E+04</rscale>
<asrwt>0</asrwt>
<pdfrwt beam="1">  1        2 0.18009919E+00 0.20561233E+04</pdfrwt>
<pdfrwt beam="2">  1       -1 0.13889923E+00 0.20561233E+04</pdfrwt>
<totfact> 0.89016448E+00</totfact>
</mgrwt>
</event>
<event>
12    7  0.1740517E-007  0.2737401E+04  0.7818608E-02  0.8322971E-01
         -1   -1    0    0    0  501 -0.00000000000E+00  0.00000000000E+00  0.11584656025E+04  0.11584656025E+04  0.00000000000E+00 0.  1.
          2   -1    0    0  501    0  0.00000000000E+00 -0.00000000000E+00 -0.16170880371E+04  0.16170880371E+04  0.00000000000E+00 0. -1.
         24    2    1    2    0    0  0.31199304948E+03  0.71145332027E+03  0.74788825347E+03  0.10812374303E+04  0.78943341474E+02 0.  0.
        254    2    1    2    0    0 -0.31199304948E+03 -0.71145332027E+03 -0.12065106880E+04  0.16943162093E+04  0.90085175631E+03 0.  0.
         23    2    4    4    0    0 -0.33721127242E+03 -0.10610617424E+03 -0.26799364340E+02  0.36528822342E+03  0.88018849013E+02 0.  0.
         23    2    4    4    0    0  0.25218222931E+02 -0.60534714602E+03 -0.11797113237E+04  0.13290279858E+04  0.86691718218E+02 0.  0.
          2    1    3    3  502    0  0.74984029902E+01  0.41341285545E+02  0.63703409127E+02  0.76311547438E+02  0.00000000000E+00 0. -1.
         -1    1    3    3    0  502  0.30449464649E+03  0.67011203472E+03  0.68418484434E+03  0.10049258829E+04  0.00000000000E+00 0.  1.
         13    1    5    5    0    0 -0.95836985647E+01 -0.45317947447E+01 -0.19503814131E+02  0.22198720851E+02  0.00000000000E+00 0. -1.
        -13    1    5    5    0    0 -0.32762757385E+03 -0.10157437950E+03 -0.72955502091E+01  0.34308950257E+03  0.00000000000E+00 0.  1.
          2    1    6    6  503    0 -0.17637469219E+02 -0.14827927763E+03 -0.23065102540E+03  0.27476848439E+03  0.00000000000E+00 0. -1.
         -2    1    6    6    0  503  0.42855692150E+02 -0.45706786839E+03 -0.94906029827E+03  0.10542595015E+04  0.00000000000E+00 0.  1.
<mgrwt>
<rscale>  0 0.27374009E+04</rscale>
<asrwt>0</asrwt>
<pdfrwt beam="1">  1        2 0.24878277E+00 0.27374009E+04</pdfrwt>
<pdfrwt beam="2">  1       -1 0.17822548E+00 0.27374009E+04</pdfrwt>
<totfact> 0.23283909E+00</totfact>
</mgrwt>
</event>
<event>
12    7  0.1740517E-007  0.2188654E+04  0.7818608E-02  0.8523166E-01
         -1   -1    0    0    0  501 -0.00000000000E+00  0.00000000000E+00  0.35229862314E+03  0.35229862314E+03  0.00000000000E+00 0.  1.
          2   -1    0    0  501    0  0.00000000000E+00 -0.00000000000E+00 -0.33992504134E+04  0.33992504134E+04  0.00000000000E+00 0. -1.
         24    2    1    2    0    0  0.74462447839E+03 -0.68913261029E+02 -0.38713751168E+03  0.84581133042E+03  0.79414748978E+02 0.  0.
        254    2    1    2    0    0 -0.74462447839E+03  0.68913261029E+02 -0.26598142786E+04  0.29057377062E+04  0.89971382613E+03 0.  0.
         23    2    4    4    0    0  0.89165385196E+02  0.76671351405E+02 -0.38774973912E+02  0.15370804556E+03  0.91069767894E+02 0.  0.
         23    2    4    4    0    0 -0.83378986358E+03 -0.77580903756E+01 -0.26210393047E+04  0.27520296606E+04  0.92490493912E+02 0.  0.
          2    1    3    3  502    0  0.10645469641E+02  0.55113466196E+01 -0.15947199463E+02  0.19950291631E+02  0.00000000000E+00 0. -1.
         -1    1    3    3    0  502  0.73397900874E+03 -0.74424607648E+02 -0.37119031222E+03  0.82586103879E+03  0.00000000000E+00 0.  1.
         13    1    5    5    0    0  0.66346541212E+02  0.90780032357E+01  0.94045523364E+01  0.67621884610E+02  0.00000000000E+00 0.  1.
        -13    1    5    5    0    0  0.22818843984E+02  0.67593348169E+02 -0.48179526248E+02  0.86086160949E+02  0.00000000000E+00 0. -1.
          3    1    6    6  503    0 -0.44973905042E+03 -0.49911061747E+02 -0.13945798879E+04  0.14661546274E+04  0.00000000000E+00 0. -1.
         -3    1    6    6    0  503 -0.38405081316E+03  0.42152971372E+02 -0.12264594168E+04  0.12858750332E+04  0.00000000000E+00 0.  1.
<mgrwt>
<rscale>  0 0.21886537E+04</rscale>
<asrwt>0</asrwt>
<pdfrwt beam="1">  1        2 0.52296161E+00 0.21886537E+04</pdfrwt>
<pdfrwt beam="2">  1       -1 0.54199787E-01 0.21886537E+04</pdfrwt>
<totfact> 0.34262366E+00</totfact>
</mgrwt>
</event>
<event>
12    7  0.1740517E-007  0.1490170E+04  0.7818608E-02  0.8891016E-01
         -1   -1    0    0    0  501 -0.00000000000E+00  0.00000000000E+00  0.33308165366E+03  0.33308165366E+03  0.00000000000E+00 0.  1.
          2   -1    0    0  501    0  0.00000000000E+00 -0.00000000000E+00 -0.16667143463E+04  0.16667143463E+04  0.00000000000E+00 0. -1.
         24    2    1    2    0    0  0.16495220373E+01  0.50653122265E+02  0.19734403908E+03  0.21904954869E+03  0.80433670211E+02 0.  0.
        254    2    1    2    0    0 -0.16495220373E+01 -0.50653122265E+02 -0.15309767317E+04  0.17807464513E+04  0.90807472760E+03 0.  0.
         23    2    4    4    0    0  0.34926789190E+03 -0.29311119071E+03 -0.66896280588E+03  0.81457959195E+03  0.90146799914E+02 0.  0.
         23    2    4    4    0    0 -0.35091741394E+03  0.24245806845E+03 -0.86201392584E+03  0.96616685932E+03  0.92094762817E+02 0.  0.
          2    1    3    3  502    0 -0.12184566334E+02  0.50074126443E+02  0.52578075730E+02  0.73622930146E+02  0.00000000000E+00 0. -1.
         -1    1    3    3    0  502  0.13834088371E+02  0.57899582203E+00  0.14476596335E+03  0.14542661855E+03  0.00000000000E+00 0.  1.
         13    1    5    5    0    0 -0.11385081143E+01  0.34137026838E+01 -0.42916324707E+00  0.36240513010E+01  0.00000000000E+00 0.  1.
        -13    1    5    5    0    0  0.35040640002E+03 -0.29652489340E+03 -0.66853364263E+03  0.81095554065E+03  0.00000000000E+00 0. -1.
          3    1    6    6  503    0 -0.27656822803E+03  0.21238530728E+03 -0.62162039026E+03  0.71274779066E+03  0.00000000000E+00 0. -1.
         -3    1    6    6    0  503 -0.74349185914E+02  0.30072761164E+02 -0.24039353559E+03  0.25341906866E+03  0.00000000000E+00 0.  1.
<mgrwt>
<rscale>  0 0.14901704E+04</rscale>
<asrwt>0</asrwt>
<pdfrwt beam="1">  1        2 0.25641759E+00 0.14901704E+04</pdfrwt>
<pdfrwt beam="2">  1       -1 0.51243331E-01 0.14901704E+04</pdfrwt>
<totfact> 0.43175714E+01</totfact>
</mgrwt>
</event>
<event>
12    7  0.1740517E-007  0.1913069E+04  0.7818608E-02  0.8648378E-01
         -1   -1    0    0    0  501 -0.00000000000E+00  0.00000000000E+00  0.60220998410E+03  0.60220998410E+03  0.00000000000E+00 0.  1.
          2   -1    0    0  501    0  0.00000000000E+00 -0.00000000000E+00 -0.15193343693E+04  0.15193343693E+04  0.00000000000E+00 0. -1.
         24    2    1    2    0    0 -0.74282927780E+03 -0.22729312262E+02 -0.32911368029E+03  0.81670118550E+03  0.79831411449E+02 0.  0.
        254    2    1    2    0    0  0.74282927780E+03  0.22729312262E+02 -0.58801070490E+03  0.13048431679E+04  0.89696552116E+03 0.  0.
         23    2    4    4    0    0  0.52456737601E+03 -0.12528553634E+03  0.10592677031E+03  0.55720812639E+03  0.91613415268E+02 0.  0.
         23    2    4    4    0    0  0.21826190178E+03  0.14801484860E+03 -0.69393747521E+03  0.74763504150E+03  0.88669513404E+02 0.  0.
          4    1    3    3  502    0 -0.72452985549E+03 -0.15289954546E+02 -0.33129510219E+03  0.79682729556E+03  0.00000000000E+00 0. -1.
         -3    1    3    3    0  502 -0.18299422305E+02 -0.74393577158E+01  0.21814219013E+01  0.19873889943E+02  0.00000000000E+00 0.  1.
         13    1    5    5    0    0  0.47854326891E+03 -0.10402058533E+03  0.12075198385E+03  0.50438574920E+03  0.00000000000E+00 0. -1.
        -13    1    5    5    0    0  0.46024107103E+02 -0.21264951008E+02 -0.14825213537E+02  0.52822377194E+02  0.00000000000E+00 0.  1.
          3    1    6    6  503    0  0.18839484329E+03  0.15180341096E+03 -0.55451372044E+03  0.60499781711E+03  0.00000000000E+00 0. -1.
         -3    1    6    6    0  503  0.29867058497E+02 -0.37885623540E+01 -0.13942375477E+03  0.14263722439E+03  0.00000000000E+00 0.  1.
<mgrwt>
<rscale>  0 0.19130691E+04</rscale>
<asrwt>0</asrwt>
<pdfrwt beam="1">  1        2 0.23374375E+00 0.19130691E+04</pdfrwt>
<pdfrwt beam="2">  1       -1 0.92647691E-01 0.19130691E+04</pdfrwt>
<totfact> 0.14945522E+01</totfact>
</mgrwt>
</event>
<event>
12    7  0.1740517E-007  0.3304593E+04  0.7818608E-02  0.8161728E-01
         -1   -1    0    0    0  501 -0.00000000000E+00  0.00000000000E+00  0.14433224957E+04  0.14433224957E+04  0.00000000000E+00 0.  1.
          2   -1    0    0  501    0  0.00000000000E+00 -0.00000000000E+00 -0.18915268476E+04  0.18915268476E+04  0.00000000000E+00 0. -1.
         24    2    1    2    0    0  0.54112797532E+03 -0.13469217447E+04 -0.67396983988E+03  0.16023617346E+04  0.79436209260E+02 0.  0.
        254    2    1    2    0    0 -0.54112797532E+03  0.13469217447E+04  0.22576548799E+03  0.17324876087E+04  0.91843649031E+03 0.  0.
         23    2    4    4    0    0 -0.32522349602E+03  0.53559061023E+03  0.53901322266E+03  0.83145693445E+03  0.90320294006E+02 0.  0.
         23    2    4    4    0    0 -0.21590447929E+03  0.81133113451E+03 -0.31324773468E+03  0.90103067428E+03  0.94123210276E+02 0.  0.
          2    1    3    3  502    0  0.51424578167E+03 -0.12540460761E+04 -0.60932697665E+03  0.14860550627E+04  0.00000000000E+00 0. -1.
         -1    1    3    3    0  502  0.26882193643E+02 -0.92875668678E+02 -0.64642863224E+02  0.11630667192E+03  0.00000000000E+00 0.  1.
         13    1    5    5    0    0 -0.12334748992E+03  0.18276898678E+03  0.24605207700E+03  0.33039480987E+03  0.00000000000E+00 0.  1.
        -13    1    5    5    0    0 -0.20187600610E+03  0.35282162345E+03  0.29296114567E+03  0.50106212458E+03  0.00000000000E+00 0. -1.
          1    1    6    6  503    0 -0.43038024392E+02  0.22400957822E+03 -0.12708858150E+03  0.26112079624E+03  0.00000000000E+00 0. -1.
         -1    1    6    6    0  503 -0.17286645490E+03  0.58732155629E+03 -0.18615915318E+03  0.63990987805E+03  0.00000000000E+00 0.  1.
<mgrwt>
<rscale>  0 0.33045927E+04</rscale>
<asrwt>0</asrwt>
<pdfrwt beam="1">  1        2 0.29100413E+00 0.33045927E+04</pdfrwt>
<pdfrwt beam="2">  1       -1 0.22204961E+00 0.33045927E+04</pdfrwt>
<totfact> 0.77746394E-01</totfact>
</mgrwt>
</event>
<event>
12    7  0.1740517E-007  0.3181378E+04  0.7818608E-02  0.8193753E-01
          2   -1    0    0  501    0  0.00000000000E+00  0.00000000000E+00  0.47446665950E+04  0.47446665950E+04  0.00000000000E+00 0. -1.
         -1   -1    0    0    0  501 -0.00000000000E+00 -0.00000000000E+00 -0.53329180574E+03  0.53329180574E+03  0.00000000000E+00 0.  1.
         24    2    1    2    0    0  0.74810136662E+03  0.16193096218E+03 -0.12783782822E+03  0.78007938160E+03  0.79397984986E+02 0.  0.
        254    2    1    2    0    0 -0.74810136662E+03 -0.16193096218E+03  0.43392126174E+04  0.44978790191E+04  0.90347785804E+03 0.  0.
         23    2    4    4    0    0 -0.48384826283E+03 -0.48623578904E+03  0.19140892452E+04  0.20352560970E+04  0.89416764867E+02 0.  0.
         23    2    4    4    0    0 -0.26425310379E+03  0.32430482686E+03  0.24251233723E+04  0.24626229221E+04  0.91021768192E+02 0.  0.
          2    1    3    3  502    0  0.23054857079E+03  0.34037959283E+02 -0.72654498096E+02  0.24411043046E+03  0.00000000000E+00 0. -1.
         -1    1    3    3    0  502  0.51755279583E+03  0.12789300290E+03 -0.55183330122E+02  0.53596895114E+03  0.00000000000E+00 0.  1.
         13    1    5    5    0    0 -0.18595036397E+03 -0.13804419771E+03  0.57253911548E+03  0.61760406179E+03  0.00000000000E+00 0. -1.
        -13    1    5    5    0    0 -0.29789789886E+03 -0.34819159133E+03  0.13415501297E+04  0.14176520352E+04  0.00000000000E+00 0.  1.
          1    1    6    6  503    0 -0.10401736102E+03  0.16730625585E+03  0.13543219350E+04  0.13685754997E+04  0.00000000000E+00 0. -1.
         -1    1    6    6    0  503 -0.16023574277E+03  0.15699857101E+03  0.10708014373E+04  0.10940474225E+04  0.00000000000E+00 0.  1.
<mgrwt>
<rscale>  0 0.31813782E+04</rscale>
<asrwt>0</asrwt>
<pdfrwt beam="1">  1        2 0.72994868E+00 0.31813782E+04</pdfrwt>
<pdfrwt beam="2">  1       -1 0.82044896E-01 0.31813782E+04</pdfrwt>
<totfact> 0.96833715E-02</totfact>
</mgrwt>
</event>
<event>
12    7  0.1740517E-007  0.2326735E+04  0.7818608E-02  0.8467454E-01
         -1   -1    0    0    0  501 -0.00000000000E+00  0.00000000000E+00  0.61954442980E+03  0.61954442980E+03  0.00000000000E+00 0.  1.
          2   -1    0    0  501    0  0.00000000000E+00 -0.00000000000E+00 -0.21845474671E+04  0.21845474671E+04  0.00000000000E+00 0. -1.
         24    2    1    2    0    0  0.33177285239E+03  0.71951401920E+03 -0.13854137275E+04  0.15979461507E+04  0.79290951088E+02 0.  0.
        254    2    1    2    0    0 -0.33177285239E+03 -0.71951401920E+03 -0.17958930978E+03  0.12061457461E+04  0.89149402203E+03 0.  0.
         23    2    4    4    0    0 -0.61044396386E+03 -0.56570957250E+03 -0.16508159300E+02  0.83721802427E+03  0.89399929516E+02 0.  0.
         23    2    4    4    0    0  0.27867111147E+03 -0.15380444669E+03 -0.16308115048E+03  0.36892772186E+03  0.90547259069E+02 0.  0.
          2    1    3    3  502    0  0.23728410891E+03  0.55397074459E+03 -0.11092585644E+04  0.12623953014E+04  0.00000000000E+00 0. -1.
         -3    1    3    3    0  502  0.94488743484E+02  0.16554327461E+03 -0.27615516305E+03  0.33555084934E+03  0.00000000000E+00 0.  1.
         13    1    5    5    0    0 -0.36371894747E+03 -0.32122604061E+03 -0.52145511186E+02  0.48805409152E+03  0.00000000000E+00 0.  1.
        -13    1    5    5    0    0 -0.24672501639E+03 -0.24448353190E+03  0.35637351885E+02  0.34916393275E+03  0.00000000000E+00 0. -1.
          4    1    6    6  503    0  0.75701803970E+02 -0.68521441999E+02 -0.92380095650E+02  0.13769543642E+03  0.00000000000E+00 0. -1.
         -4    1    6    6    0  503  0.20296930750E+03 -0.85283004694E+02 -0.70701054826E+02  0.23123228544E+03  0.00000000000E+00 0.  1.
<mgrwt>
<rscale>  0 0.23267352E+04</rscale>
<asrwt>0</asrwt>
<pdfrwt beam="1">  1        2 0.33608422E+00 0.23267352E+04</pdfrwt>
<pdfrwt beam="2">  1       -1 0.95314529E-01 0.23267352E+04</pdfrwt>
<totfact> 0.57629695E+00</totfact>
</mgrwt>
</event>
<event>
12    7  0.1740517E-007  0.1102464E+04  0.7818608E-02  0.9202794E-01
          2   -1    0    0  501    0  0.00000000000E+00  0.00000000000E+00  0.12674295801E+04  0.12674295801E+04  0.00000000000E+00 0. -1.
         -1   -1    0    0    0  501 -0.00000000000E+00 -0.00000000000E+00 -0.23974236067E+03  0.23974236067E+03  0.00000000000E+00 0.  1.
         24    2    1    2    0    0  0.13025791561E+03 -0.10023916192E+03  0.24076970882E+03  0.30193272263E+03  0.78602176481E+02 0.  0.
        254    2    1    2    0    0 -0.13025791561E+03  0.10023916192E+03  0.78691751058E+03  0.12052392181E+04  0.89796847956E+03 0.  0.
         23    2    4    4    0    0 -0.17142854960E+02  0.14727134037E+03 -0.16571035740E+03  0.24020491255E+03  0.90861170423E+02 0.  0.
         23    2    4    4    0    0 -0.11311506065E+03 -0.47032178453E+02  0.95262786798E+03  0.96503430557E+03  0.93724667585E+02 0.  0.
          2    1    3    3  502    0  0.29312099900E+02 -0.35959908008E+02  0.13309575695E+03  0.14094961760E+03  0.00000000000E+00 0. -1.
         -1    1    3    3    0  502  0.10094581571E+03 -0.64279253910E+02  0.10767395188E+03  0.16098310503E+03  0.00000000000E+00 0.  1.
         13    1    5    5    0    0 -0.71601400658E+01  0.89018743304E+02 -0.15678086621E+03  0.18043238144E+03  0.00000000000E+00 0.  1.
        -13    1    5    5    0    0 -0.99827148947E+01  0.58252597066E+02 -0.89294911993E+01  0.59772531105E+02  0.00000000000E+00 0. -1.
          1    1    6    6  503    0 -0.25912678245E+02 -0.22331034938E+02  0.71544688999E+02  0.79301857098E+02  0.00000000000E+00 0. -1.
         -1    1    6    6    0  503 -0.87202382405E+02 -0.24701143514E+02  0.88108317899E+03  0.88573244847E+03  0.00000000000E+00 0.  1.
<mgrwt>
<rscale>  0 0.11024637E+04</rscale>
<asrwt>0</asrwt>
<pdfrwt beam="1">  1        2 0.19498916E+00 0.11024637E+04</pdfrwt>
<pdfrwt beam="2">  1       -1 0.36883441E-01 0.11024637E+04</pdfrwt>
<totfact> 0.13786695E+02</totfact>
</mgrwt>
</event>
<event>
12    7  0.1740517E-007  0.2233847E+04  0.7818608E-02  0.8504471E-01
          2   -1    0    0  501    0  0.00000000000E+00  0.00000000000E+00  0.28012929436E+04  0.28012929436E+04  0.00000000000E+00 0. -1.
         -1   -1    0    0    0  501 -0.00000000000E+00 -0.00000000000E+00 -0.44533672638E+03  0.44533672638E+03  0.00000000000E+00 0.  1.
         24    2    1    2    0    0 -0.74032379322E+02  0.48872163045E+03 -0.16255350061E+03  0.52638304246E+03  0.79535159355E+02 0.  0.
        254    2    1    2    0    0  0.74032379322E+02 -0.48872163045E+03  0.25185097178E+04  0.27202466275E+04  0.90139940671E+03 0.  0.
         23    2    4    4    0    0  0.39103118634E+03 -0.51551970460E+03  0.12627251760E+04  0.14215732522E+04  0.87918637092E+02 0.  0.
         23    2    4    4    0    0 -0.31699880702E+03  0.26798074150E+02  0.12557845419E+04  0.12986733753E+04  0.91385665160E+02 0.  0.
          4    1    3    3  502    0 -0.26008851048E+02  0.19534284956E+03 -0.24417194074E+02  0.19857363514E+03  0.00000000000E+00 0. -1.
         -3    1    3    3    0  502 -0.48023528274E+02  0.29337878089E+03 -0.13813630654E+03  0.32780940732E+03  0.00000000000E+00 0.  1.
         13    1    5    5    0    0  0.27374100493E+03 -0.41158400715E+03  0.10040288446E+04  0.11191110103E+04  0.00000000000E+00 0.  1.
        -13    1    5    5    0    0  0.11729018141E+03 -0.10393569745E+03  0.25869633140E+03  0.30246224184E+03  0.00000000000E+00 0. -1.
          1    1    6    6  503    0 -0.13396450038E+03 -0.19335280740E+02  0.65870198571E+03  0.67246460607E+03  0.00000000000E+00 0. -1.
         -1    1    6    6    0  503 -0.18303430664E+03  0.46133354890E+02  0.59708255615E+03  0.62620876926E+03  0.00000000000E+00 0.  1.
<mgrwt>
<rscale>  0 0.22338475E+04</rscale>
<asrwt>0</asrwt>
<pdfrwt beam="1">  1        2 0.43096813E+00 0.22338475E+04</pdfrwt>
<pdfrwt beam="2">  1       -1 0.68513345E-01 0.22338475E+04</pdfrwt>
<totfact> 0.51645557E+00</totfact>
</mgrwt>
</event>
<event>
12    7  0.1740517E-007  0.2037578E+04  0.7818608E-02  0.8589250E-01
         -1   -1    0    0    0  501 -0.00000000000E+00  0.00000000000E+00  0.64201905220E+03  0.64201905220E+03  0.00000000000E+00 0.  1.
          2   -1    0    0  501    0  0.00000000000E+00 -0.00000000000E+00 -0.16166675681E+04  0.16166675681E+04  0.00000000000E+00 0. -1.
         24    2    1    2    0    0 -0.34907143175E+03  0.14653418700E+03  0.41215306435E+03  0.56523875460E+03  0.79382421383E+02 0.  0.
        254    2    1    2    0    0  0.34907143175E+03 -0.14653418700E+03 -0.13868015803E+04  0.16934478657E+04  0.89511112072E+03 0.  0.
         23    2    4    4    0    0  0.64056769280E+03 -0.63731505486E+02 -0.10127555476E+04  0.12036763257E+04  0.93670827852E+02 0.  0.
         23    2    4    4    0    0 -0.29149626104E+03 -0.82802681510E+02 -0.37404603268E+03  0.48977154003E+03  0.90218471471E+02 0.  0.
          2    1    3    3  502    0 -0.23058827064E+03  0.10076646751E+03  0.32571763885E+03  0.41160273540E+03  0.00000000000E+00 0. -1.
         -1    1    3    3    0  502 -0.11848316111E+03  0.45767719486E+02  0.86435425497E+02  0.15363601920E+03  0.00000000000E+00 0.  1.
         13    1    5    5    0    0  0.13511717880E+03 -0.45109309319E+02 -0.26617410700E+03  0.30189428122E+03  0.00000000000E+00 0.  1.
        -13    1    5    5    0    0  0.50545051399E+03 -0.18622196167E+02 -0.74658144059E+03  0.90178204447E+03  0.00000000000E+00 0. -1.
          3    1    6    6  503    0 -0.12597326885E+03 -0.82253463636E+02 -0.18682537758E+03  0.23987208769E+03  0.00000000000E+00 0. -1.
         -3    1    6    6    0  503 -0.16552299219E+03 -0.54921787348E+00 -0.18722065510E+03  0.24989945234E+03  0.00000000000E+00 0.  1.
<mgrwt>
<rscale>  0 0.20375783E+04</rscale>
<asrwt>0</asrwt>
<pdfrwt beam="1">  1        2 0.24871808E+00 0.20375783E+04</pdfrwt>
<pdfrwt beam="2">  1       -1 0.98772164E-01 0.20375783E+04</pdfrwt>
<totfact> 0.11290200E+01</totfact>
</mgrwt>
</event>
<event>
12    7  0.1740517E-007  0.1412927E+04  0.7818608E-02  0.8944514E-01
         -1   -1    0    0    0  501 -0.00000000000E+00  0.00000000000E+00  0.25883900107E+03  0.25883900107E+03  0.00000000000E+00 0.  1.
          2   -1    0    0  501    0  0.00000000000E+00 -0.00000000000E+00 -0.19281904777E+04  0.19281904777E+04  0.00000000000E+00 0. -1.
         24    2    1    2    0    0  0.14016852899E+03 -0.47043982013E+02  0.10104703887E+03  0.19513525232E+03  0.77504257110E+02 0.  0.
        254    2    1    2    0    0 -0.14016852899E+03  0.47043982013E+02 -0.17703985156E+04  0.19918942265E+04  0.90081704742E+03 0.  0.
         23    2    4    4    0    0 -0.22113816878E+03  0.42323745242E+03 -0.71420081262E+03  0.86413730784E+03  0.92835635570E+02 0.  0.
         23    2    4    4    0    0  0.80969639786E+02 -0.37619347041E+03 -0.10561977029E+04  0.11277569187E+04  0.90578530309E+02 0.  0.
          2    1    3    3  502    0  0.76211647708E+02 -0.63483097941E+02  0.46799362824E+02  0.10967451541E+03  0.00000000000E+00 0. -1.
         -1    1    3    3    0  502  0.63956881281E+02  0.16439115928E+02  0.54247676048E+02  0.85460736905E+02  0.00000000000E+00 0.  1.
         13    1    5    5    0    0 -0.20342040518E+03  0.40848497613E+03 -0.63713656036E+03  0.78369817757E+03  0.00000000000E+00 0. -1.
        -13    1    5    5    0    0 -0.17717763600E+02  0.14752476292E+02 -0.77064252253E+02  0.80439130273E+02  0.00000000000E+00 0.  1.
          4    1    6    6  503    0 -0.14290743187E+02 -0.14208684833E+02 -0.39475833498E+02  0.44322155813E+02  0.00000000000E+00 0.  1.
         -4    1    6    6    0  503  0.95260382973E+02 -0.36198478558E+03 -0.10167218694E+04  0.10834347628E+04  0.00000000000E+00 0. -1.
<mgrwt>
<rscale>  0 0.14129273E+04</rscale>
<asrwt>0</asrwt>
<pdfrwt beam="1">  1        2 0.29664469E+00 0.14129273E+04</pdfrwt>
<pdfrwt beam="2">  1       -1 0.39821384E-01 0.14129273E+04</pdfrwt>
<totfact> 0.49843473E+01</totfact>
</mgrwt>
</event>
<event>
12    7  0.1740517E-007  0.2401277E+04  0.7818608E-02  0.8439026E-01
         -1   -1    0    0    0  501 -0.00000000000E+00  0.00000000000E+00  0.56813439511E+03  0.56813439511E+03  0.00000000000E+00 0.  1.
          2   -1    0    0  501    0  0.00000000000E+00 -0.00000000000E+00 -0.25373086793E+04  0.25373086793E+04  0.00000000000E+00 0. -1.
         24    2    1    2    0    0  0.35769904777E+03 -0.40071943076E+03  0.28980850161E+03  0.61525040463E+03  0.77584933052E+02 0.  0.
        254    2    1    2    0    0 -0.35769904777E+03  0.40071943076E+03 -0.22589827858E+04  0.24901926698E+04  0.89973975965E+03 0.  0.
         23    2    4    4    0    0  0.15958802543E+02  0.20248191761E+03 -0.19354262678E+04  0.19481758875E+04  0.90889163961E+02 0.  0.
         23    2    4    4    0    0 -0.37365785031E+03  0.19823751315E+03 -0.32355651798E+03  0.54201678227E+03  0.10087155805E+03 0.  0.
          4    1    3    3  502    0 -0.33759185845E+00  0.24310758267E+01 -0.98918692539E+00  0.26462404864E+01  0.00000000000E+00 0. -1.
         -3    1    3    3    0  502  0.35803663962E+03 -0.40315050658E+03  0.29079768854E+03  0.61260416415E+03  0.00000000000E+00 0.  1.
         13    1    5    5    0    0 -0.66542573745E+01  0.81847649840E+02 -0.11790641981E+04  0.11819203442E+04  0.00000000000E+00 0. -1.
        -13    1    5    5    0    0  0.22613059918E+02  0.12063426777E+03 -0.75636206975E+03  0.76625554327E+03  0.00000000000E+00 0.  1.
          1    1    6    6  503    0 -0.12816489574E+03  0.98222131612E+02 -0.72817437151E+02  0.17713330232E+03  0.00000000000E+00 0. -1.
         -1    1    6    6    0  503 -0.24549295457E+03  0.10001538154E+03 -0.25073908083E+03  0.36488347995E+03  0.00000000000E+00 0.  1.
<mgrwt>
<rscale>  0 0.24012766E+04</rscale>
<asrwt>0</asrwt>
<pdfrwt beam="1">  1        2 0.39035517E+00 0.24012766E+04</pdfrwt>
<pdfrwt beam="2">  1       -1 0.87405294E-01 0.24012766E+04</pdfrwt>
<totfact> 0.43629622E+00</totfact>
</mgrwt>
</event>
<event>
12    7  0.1740517E-007  0.2677813E+04  0.7818608E-02  0.8342240E-01
         -1   -1    0    0    0  501 -0.00000000000E+00  0.00000000000E+00  0.75786024026E+03  0.75786024026E+03  0.00000000000E+00 0.  1.
          2   -1    0    0  501    0  0.00000000000E+00 -0.00000000000E+00 -0.23654363219E+04  0.23654363219E+04  0.00000000000E+00 0. -1.
         24    2    1    2    0    0  0.62506606454E+03  0.14386184020E+03  0.45055008390E+03  0.78781857636E+03  0.79113317723E+02 0.  0.
        254    2    1    2    0    0 -0.62506606454E+03 -0.14386184020E+03 -0.20581261655E+04  0.23354779858E+04  0.89842656612E+03 0.  0.
         23    2    4    4    0    0 -0.46652571801E+03 -0.49561144960E+03 -0.15107535024E+04  0.16595419358E+04  0.91795080856E+02 0.  0.
         23    2    4    4    0    0 -0.15854034654E+03  0.35174960939E+03 -0.54737266310E+03  0.67593605003E+03  0.91705410051E+02 0.  0.
          4    1    3    3  502    0  0.21738394391E+03  0.88939334665E+02  0.16733901812E+03  0.28838920109E+03  0.00000000000E+00 0. -1.
         -3    1    3    3    0  502  0.40768212063E+03  0.54922505537E+02  0.28321106578E+03  0.49942937527E+03  0.00000000000E+00 0.  1.
         13    1    5    5    0    0 -0.19368937478E+03 -0.17164801913E+03 -0.48373302717E+03  0.54861303115E+03  0.00000000000E+00 0. -1.
        -13    1    5    5    0    0 -0.27283634323E+03 -0.32396343047E+03 -0.10270204753E+04  0.11109289046E+04  0.00000000000E+00 0.  1.
          2    1    6    6  503    0 -0.22196818484E+02  0.39706464743E+02 -0.12725367869E+03  0.13513993057E+03  0.00000000000E+00 0. -1.
         -2    1    6    6    0  503 -0.13634352805E+03  0.31204314465E+03 -0.42011898441E+03  0.54079611946E+03  0.00000000000E+00 0.  1.
<mgrwt>
<rscale>  0 0.26778126E+04</rscale>
<asrwt>0</asrwt>
<pdfrwt beam="1">  1        2 0.36391328E+00 0.26778126E+04</pdfrwt>
<pdfrwt beam="2">  1       -1 0.11659388E+00 0.26778126E+04</pdfrwt>
<totfact> 0.27607807E+00</totfact>
</mgrwt>
</event>
<event>
12    7  0.1740517E-007  0.1525323E+04  0.7818608E-02  0.8867786E-01
         -1   -1    0    0    0  501 -0.00000000000E+00  0.00000000000E+00  0.39281209173E+03  0.39281209173E+03  0.00000000000E+00 0.  1.
          2   -1    0    0  501    0  0.00000000000E+00 -0.00000000000E+00 -0.14807403362E+04  0.14807403362E+04  0.00000000000E+00 0. -1.
         24    2    1    2    0    0  0.75385611554E+02  0.43472568790E+03 -0.82769985062E+02  0.45602437260E+03  0.80236798505E+02 0.  0.
        254    2    1    2    0    0 -0.75385611554E+02 -0.43472568790E+03 -0.10051582594E+04  0.14175280553E+04  0.89686857845E+03 0.  0.
         23    2    4    4    0    0 -0.43598075541E+02  0.26995499050E+03 -0.28227773744E+03  0.40367535835E+03  0.92176921199E+02 0.  0.
         23    2    4    4    0    0 -0.31787536013E+02 -0.70468067839E+03 -0.72288052196E+03  0.10138526970E+04  0.88066657459E+02 0.  0.
          2    1    3    3  502    0  0.24127397563E+02  0.25666417184E+02  0.14301173586E+01  0.35255375759E+02  0.00000000000E+00 0. -1.
         -1    1    3    3    0  502  0.51258213991E+02  0.40905927071E+03 -0.84200102421E+02  0.42076899684E+03  0.00000000000E+00 0.  1.
         13    1    5    5    0    0 -0.60264876711E+02  0.21205436492E+03 -0.17842257871E+03  0.28360804932E+03  0.00000000000E+00 0.  1.
        -13    1    5    5    0    0  0.16666801170E+02  0.57900625580E+02 -0.10385515873E+03  0.12006730903E+03  0.00000000000E+00 0. -1.
          1    1    6    6  503    0 -0.54639936277E+01 -0.11328121319E+03 -0.73551913383E+02  0.13517533965E+03  0.00000000000E+00 0. -1.
         -1    1    6    6    0  503 -0.26323542386E+02 -0.59139946521E+03 -0.64932860858E+03  0.87867735731E+03  0.00000000000E+00 0.  1.
<mgrwt>
<rscale>  0 0.15253232E+04</rscale>
<asrwt>0</asrwt>
<pdfrwt beam="1">  1        2 0.22780620E+00 0.15253232E+04</pdfrwt>
<pdfrwt beam="2">  1       -1 0.60432631E-01 0.15253232E+04</pdfrwt>
<totfact> 0.39715578E+01</totfact>
</mgrwt>
</event>
<event>
12    7  0.1740517E-007  0.1382804E+04  0.7818608E-02  0.8966360E-01
          2   -1    0    0  501    0  0.00000000000E+00  0.00000000000E+00  0.89965606517E+03  0.89965606517E+03  0.00000000000E+00 0. -1.
         -1   -1    0    0    0  501 -0.00000000000E+00 -0.00000000000E+00 -0.53135528335E+03  0.53135528335E+03  0.00000000000E+00 0.  1.
         24    2    1    2    0    0 -0.22786594060E+03  0.30408555792E+03  0.17397972102E+01  0.38823181634E+03  0.79561315348E+02 0.  0.
        254    2    1    2    0    0  0.22786594060E+03 -0.30408555792E+03  0.36656098461E+03  0.10427795322E+04  0.89923928066E+03 0.  0.
         23    2    4    4    0    0  0.52001986456E+03 -0.12200806272E+03  0.41619969813E+03  0.68322068060E+03  0.90893799416E+02 0.  0.
         23    2    4    4    0    0 -0.29215392396E+03 -0.18207749520E+03 -0.49638713519E+02  0.35955885158E+03  0.91172563436E+02 0.  0.
          4    1    3    3  502    0 -0.13230838297E+02  0.19500051628E+01 -0.11124057827E+02  0.17395466786E+02  0.00000000000E+00 0. -1.
         -3    1    3    3    0  502 -0.21463510230E+03  0.30213555276E+03  0.12863855037E+02  0.37083634955E+03  0.00000000000E+00 0.  1.
         13    1    5    5    0    0  0.64120166795E+00  0.66992891326E+01  0.53134539373E+01  0.85746374387E+01  0.00000000000E+00 0. -1.
        -13    1    5    5    0    0  0.51937866289E+03 -0.12870735185E+03  0.41088624419E+03  0.67464604316E+03  0.00000000000E+00 0.  1.
          1    1    6    6  503    0 -0.57218093138E+02 -0.54622162302E+02  0.23371217279E+02  0.82484571854E+02  0.00000000000E+00 0. -1.
         -1    1    6    6    0  503 -0.23493583083E+03 -0.12745533290E+03 -0.73009930798E+02  0.27707427973E+03  0.00000000000E+00 0.  1.
<mgrwt>
<rscale>  0 0.13828044E+04</rscale>
<asrwt>0</asrwt>
<pdfrwt beam="1">  1        2 0.13840863E+00 0.13828044E+04</pdfrwt>
<pdfrwt beam="2">  1       -1 0.81746967E-01 0.13828044E+04</pdfrwt>
<totfact> 0.48614148E+01</totfact>
</mgrwt>
</event>
<event>
12    7  0.1740517E-007  0.2282296E+04  0.7818608E-02  0.8484934E-01
          2   -1    0    0  501    0  0.00000000000E+00  0.00000000000E+00  0.16430280530E+04  0.16430280530E+04  0.00000000000E+00 0. -1.
         -1   -1    0    0    0  501 -0.00000000000E+00 -0.00000000000E+00 -0.79257278876E+03  0.79257278876E+03  0.00000000000E+00 0.  1.
         24    2    1    2    0    0 -0.64884921487E+03  0.20296063527E+03 -0.36921026795E+03  0.77809875523E+03  0.83205335302E+02 0.  0.
        254    2    1    2    0    0  0.64884921487E+03 -0.20296063527E+03  0.12196655322E+04  0.16575020865E+04  0.89304581817E+03 0.  0.
         23    2    4    4    0    0  0.81380690535E+03  0.12900663792E+02  0.77080898681E+03  0.11247233537E+04  0.91695265910E+02 0.  0.
         23    2    4    4    0    0 -0.16495769048E+03 -0.21586129906E+03  0.44885654537E+03  0.53277873287E+03  0.92595031169E+02 0.  0.
          4    1    3    3  502    0 -0.21796983383E+03  0.10830462758E+03 -0.14367769870E+03  0.28263761589E+03  0.00000000000E+00 0. -1.
         -3    1    3    3    0  502 -0.43087938104E+03  0.94656007684E+02 -0.22553256926E+03  0.49546113933E+03  0.00000000000E+00 0.  1.
         13    1    5    5    0    0  0.76369904311E+02 -0.24440486241E+02  0.87464227388E+02  0.11865787258E+03  0.00000000000E+00 0. -1.
        -13    1    5    5    0    0  0.73743700104E+03  0.37341150033E+02  0.68334475942E+03  0.10060654811E+04  0.00000000000E+00 0.  1.
          2    1    6    6  503    0 -0.10483386234E+03 -0.93038132892E+02  0.29706754358E+03  0.32847428867E+03  0.00000000000E+00 0.  1.
         -2    1    6    6    0  503 -0.60123828140E+02 -0.12282316617E+03  0.15178900179E+03  0.20430444420E+03  0.00000000000E+00 0. -1.
<mgrwt>
<rscale>  0 0.22822965E+04</rscale>
<asrwt>0</asrwt>
<pdfrwt beam="1">  1        2 0.25277355E+00 0.22822965E+04</pdfrwt>
<pdfrwt beam="2">  1       -1 0.12193428E+00 0.22822965E+04</pdfrwt>
<totfact> 0.64931012E+00</totfact>
</mgrwt>
</event>
<event>
12    7  0.1740517E-007  0.2138141E+04  0.7818608E-02  0.8544626E-01
         -1   -1    0    0    0  501 -0.00000000000E+00  0.00000000000E+00  0.77216651455E+03  0.77216651455E+03  0.00000000000E+00 0.  1.
          2   -1    0    0  501    0  0.00000000000E+00 -0.00000000000E+00 -0.14801362738E+04  0.14801362738E+04  0.00000000000E+00 0. -1.
         24    2    1    2    0    0  0.82844337747E+03 -0.71661295601E+02 -0.43441193520E+03  0.94194944902E+03  0.84268998505E+02 0.  0.
        254    2    1    2    0    0 -0.82844337747E+03  0.71661295601E+02 -0.27355782403E+03  0.13103533393E+04  0.97505805972E+03 0.  0.
         23    2    4    4    0    0 -0.33509506502E+03  0.42254954991E+03 -0.40927423997E+03  0.68328064491E+03  0.92359143981E+02 0.  0.
         23    2    4    4    0    0 -0.49334831244E+03 -0.35088825430E+03  0.13571641594E+03  0.62707269441E+03  0.91027985357E+02 0.  0.
          2    1    3    3  502    0  0.25340732855E+02 -0.16410526978E+02 -0.22711605451E+02  0.37779295382E+02  0.00000000000E+00 0. -1.
         -1    1    3    3    0  502  0.80310264461E+03 -0.55250768623E+02 -0.41170032974E+03  0.90417015364E+03  0.00000000000E+00 0.  1.
         13    1    5    5    0    0 -0.36219965259E+02  0.10184260591E+03 -0.67779227955E+02  0.12758458372E+03  0.00000000000E+00 0. -1.
        -13    1    5    5    0    0 -0.29887509976E+03  0.32070694400E+03 -0.34149501202E+03  0.55569606119E+03  0.00000000000E+00 0.  1.
          4    1    6    6  503    0 -0.78709804597E+01  0.50113926652E+01  0.65846911146E+01  0.11420356690E+02  0.00000000000E+00 0. -1.
         -4    1    6    6    0  503 -0.48547733198E+03 -0.35589964697E+03  0.12913172483E+03  0.61565233772E+03  0.00000000000E+00 0.  1.
<mgrwt>
<rscale>  0 0.21381409E+04</rscale>
<asrwt>0</asrwt>
<pdfrwt beam="1">  1        2 0.22771327E+00 0.21381409E+04</pdfrwt>
<pdfrwt beam="2">  1       -1 0.11879485E+00 0.21381409E+04</pdfrwt>
<totfact> 0.86526440E+00</totfact>
</mgrwt>
</event>
<event>
12    7  0.1740517E-007  0.2140841E+04  0.7818608E-02  0.8543463E-01
          2   -1    0    0  501    0  0.00000000000E+00  0.00000000000E+00  0.13542460641E+04  0.13542460641E+04  0.00000000000E+00 0. -1.
         -1   -1    0    0    0  501 -0.00000000000E+00 -0.00000000000E+00 -0.84607989195E+03  0.84607989195E+03  0.00000000000E+00 0.  1.
         24    2    1    2    0    0  0.35399387189E+03 -0.39546049351E+03  0.93025535198E+03  0.10741493501E+04  0.81982577792E+02 0.  0.
        254    2    1    2    0    0 -0.35399387189E+03  0.39546049351E+03 -0.42208917986E+03  0.11261766060E+04  0.89911835083E+03 0.  0.
         23    2    4    4    0    0 -0.22946825474E+03 -0.43389949468E+02  0.21992192473E+03  0.33319024762E+03  0.90065090254E+02 0.  0.
         23    2    4    4    0    0 -0.12452561716E+03  0.43885044298E+03 -0.64201110459E+03  0.79298635834E+03  0.92481162777E+02 0.  0.
          2    1    3    3  502    0  0.30103400749E+03 -0.36693531031E+03  0.85398341540E+03  0.97701108970E+03  0.00000000000E+00 0. -1.
         -1    1    3    3    0  502  0.52959864409E+02 -0.28525183204E+02  0.76271936582E+02  0.97138260356E+02  0.00000000000E+00 0.  1.
         13    1    5    5    0    0 -0.13311143976E+03  0.16511475442E+02  0.14330955202E+03  0.19628782926E+03  0.00000000000E+00 0. -1.
        -13    1    5    5    0    0 -0.96356814981E+02 -0.59901424910E+02  0.76612372709E+02  0.13690241836E+03  0.00000000000E+00 0.  1.
          1    1    6    6  503    0 -0.56599379277E+02  0.34300303676E+03 -0.46649477175E+03  0.58178341763E+03  0.00000000000E+00 0. -1.
         -1    1    6    6    0  503 -0.67926237879E+02  0.95847406226E+02 -0.17551633284E+03  0.21120294072E+03  0.00000000000E+00 0.  1.
<mgrwt>
<rscale>  0 0.21408413E+04</rscale>
<asrwt>0</asrwt>
<pdfrwt beam="1">  1        2 0.20834555E+00 0.21408413E+04</pdfrwt>
<pdfrwt beam="2">  1       -1 0.13016614E+00 0.21408413E+04</pdfrwt>
<totfact> 0.81358363E+00</totfact>
</mgrwt>
</event>
<event>
12    7  0.1740517E-007  0.1379153E+04  0.7818608E-02  0.8969049E-01
          2   -1    0    0  501    0  0.00000000000E+00  0.00000000000E+00  0.43194341884E+04  0.43194341884E+04  0.00000000000E+00 0. -1.
         -1   -1    0    0    0  501 -0.00000000000E+00 -0.00000000000E+00 -0.11008743865E+03  0.11008743865E+03  0.00000000000E+00 0.  1.
         24    2    1    2    0    0 -0.96653961065E+01  0.23605830512E+03  0.22786742601E+04  0.22923386366E+04  0.81505200709E+02 0.  0.
        254    2    1    2    0    0  0.96653961065E+01 -0.23605830512E+03  0.19306724896E+04  0.21371829905E+04  0.88557209149E+03 0.  0.
         23    2    4    4    0    0 -0.11430232882E+02 -0.39142914602E+03  0.31330314748E+03  0.50993699105E+03  0.92355000108E+02 0.  0.
         23    2    4    4    0    0  0.21095628989E+02  0.15537084090E+03  0.16173693422E+04  0.16272459994E+04  0.86376095776E+02 0.  0.
          4    1    3    3  502    0  0.11511104355E+02  0.16956043528E+03  0.12806898926E+04  0.12919171211E+04  0.00000000000E+00 0. -1.
         -3    1    3    3    0  502 -0.21176500462E+02  0.66497869836E+02  0.99798436750E+03  0.10004215155E+04  0.00000000000E+00 0.  1.
         13    1    5    5    0    0 -0.71285136150E+01 -0.39067654299E+03  0.31780458553E+03  0.50366529713E+03  0.00000000000E+00 0.  1.
        -13    1    5    5    0    0 -0.43017192671E+01 -0.75260302258E+00 -0.45014380562E+01  0.62716939129E+01  0.00000000000E+00 0. -1.
          1    1    6    6  503    0 -0.12472580507E+02  0.72017749910E+02  0.40433475373E+03  0.41088771537E+03  0.00000000000E+00 0. -1.
         -1    1    6    6    0  503  0.33568209496E+02  0.83353090989E+02  0.12130345884E+04  0.12163582841E+04  0.00000000000E+00 0.  1.
<mgrwt>
<rscale>  0 0.13791526E+04</rscale>
<asrwt>0</asrwt>
<pdfrwt beam="1">  1        2 0.66452821E+00 0.13791526E+04</pdfrwt>
<pdfrwt beam="2">  1       -1 0.16936532E-01 0.13791526E+04</pdfrwt>
<totfact> 0.56626906E+00</totfact>
</mgrwt>
</event>
<event>
12    7  0.1740517E-007  0.1779084E+04  0.7818608E-02  0.8717502E-01
          2   -1    0    0  501    0  0.00000000000E+00  0.00000000000E+00  0.52967442591E+03  0.52967442591E+03  0.00000000000E+00 0. -1.
         -1   -1    0    0    0  501 -0.00000000000E+00 -0.00000000000E+00 -0.14939087137E+04  0.14939087137E+04  0.00000000000E+00 0.  1.
         24    2    1    2    0    0 -0.11110161036E+03 -0.37108596585E+03  0.23652763432E+03  0.46629480708E+03  0.10694467468E+03 0.  0.
        254    2    1    2    0    0  0.11110161036E+03  0.37108596585E+03 -0.12007619221E+04  0.15572883325E+04  0.91283590813E+03 0.  0.
         23    2    4    4    0    0 -0.93433075408E+02  0.54323351262E+03 -0.11356212371E+04  0.12654553798E+04  0.88934442930E+02 0.  0.
         23    2    4    4    0    0  0.20453468577E+03 -0.17214754677E+03 -0.65140684981E+02  0.29183295276E+03  0.97231414352E+02 0.  0.
          2    1    3    3  502    0 -0.12025154594E+03 -0.31391611439E+03  0.23153688352E+03  0.40818266695E+03  0.00000000000E+00 0. -1.
         -1    1    3    3    0  502  0.91499355762E+01 -0.57169851460E+02  0.49907508042E+01  0.58112140131E+02  0.00000000000E+00 0.  1.
         13    1    5    5    0    0 -0.31538646866E+01  0.18478663385E+03 -0.45145416236E+03  0.48781851915E+03  0.00000000000E+00 0.  1.
        -13    1    5    5    0    0 -0.90279210721E+02  0.35844687877E+03 -0.68416707478E+03  0.77763686063E+03  0.00000000000E+00 0. -1.
          1    1    6    6  503    0  0.17595986136E+03 -0.13907829208E+03 -0.89864124470E+02  0.24161995986E+03  0.00000000000E+00 0. -1.
         -1    1    6    6    0  503  0.28574824407E+02 -0.33069254692E+02  0.24723439488E+02  0.50212992900E+02  0.00000000000E+00 0.  1.
<mgrwt>
<rscale>  0 0.17790843E+04</rscale>
<asrwt>0</asrwt>
<pdfrwt beam="1">  1        2 0.81488373E-01 0.17790843E+04</pdfrwt>
<pdfrwt beam="2">  1       -1 0.22983211E+00 0.17790843E+04</pdfrwt>
<totfact> 0.58851880E+00</totfact>
</mgrwt>
</event>
<event>
12    7  0.1740517E-007  0.2060938E+04  0.7818608E-02  0.8578648E-01
         -1   -1    0    0    0  501 -0.00000000000E+00  0.00000000000E+00  0.77144406694E+03  0.77144406694E+03  0.00000000000E+00 0.  1.
          2   -1    0    0  501    0  0.00000000000E+00 -0.00000000000E+00 -0.13764663756E+04  0.13764663756E+04  0.00000000000E+00 0. -1.
         24    2    1    2    0    0 -0.31132258409E+03  0.73174377928E+03  0.15801545465E+02  0.79933187480E+03  0.79442100614E+02 0.  0.
        254    2    1    2    0    0  0.31132258409E+03 -0.73174377928E+03 -0.62082385411E+03  0.13485785677E+04  0.89491406605E+03 0.  0.
         23    2    4    4    0    0  0.62292406419E+02 -0.65277271348E+03  0.61638132445E+01  0.66256248072E+03  0.94649294244E+02 0.  0.
         23    2    4    4    0    0  0.24903017767E+03 -0.78971065799E+02 -0.62698766735E+03  0.68601608700E+03  0.96187722663E+02 0.  0.
          4    1    3    3  502    0 -0.16852405782E+03  0.47599505985E+03 -0.12095729396E+02  0.50509203294E+03  0.00000000000E+00 0. -1.
         -3    1    3    3    0  502 -0.14279852626E+03  0.25574871943E+03  0.27897274861E+02  0.29423984186E+03  0.00000000000E+00 0.  1.
         13    1    5    5    0    0  0.87543975127E+02 -0.51856079012E+03  0.87481027056E+01  0.52597126341E+03  0.00000000000E+00 0. -1.
        -13    1    5    5    0    0 -0.25251568708E+02 -0.13421192336E+03 -0.25842894611E+01  0.13659121731E+03  0.00000000000E+00 0.  1.
          4    1    6    6  503    0  0.58786915870E+02 -0.30598813931E+02 -0.74597367964E+02  0.99784548898E+02  0.00000000000E+00 0. -1.
         -4    1    6    6    0  503  0.19024326180E+03 -0.48372251868E+02 -0.55239029939E+03  0.58623153810E+03  0.00000000000E+00 0.  1.
<mgrwt>
<rscale>  0 0.20609384E+04</rscale>
<asrwt>0</asrwt>
<pdfrwt beam="1">  1        2 0.21176405E+00 0.20609384E+04</pdfrwt>
<pdfrwt beam="2">  1       -1 0.11868370E+00 0.20609384E+04</pdfrwt>
<totfact> 0.10003985E+01</totfact>
</mgrwt>
</event>
<event>
12    7  0.1740517E-007  0.2529327E+04  0.7818608E-02  0.8392611E-01
         -1   -1    0    0    0  501 -0.00000000000E+00  0.00000000000E+00  0.52254544510E+03  0.52254544510E+03  0.00000000000E+00 0.  1.
          2   -1    0    0  501    0  0.00000000000E+00 -0.00000000000E+00 -0.30607372433E+04  0.30607372433E+04  0.00000000000E+00 0. -1.
         24    2    1    2    0    0  0.28093365846E+03 -0.81478463960E+03 -0.21004594413E+04  0.22717866756E+04  0.79291272470E+02 0.  0.
        254    2    1    2    0    0 -0.28093365846E+03  0.81478463960E+03 -0.43773235698E+03  0.13114960128E+04  0.88634894134E+03 0.  0.
         23    2    4    4    0    0  0.19405010395E+03 -0.41911816528E+02 -0.20758971400E+03  0.30114860149E+03  0.90470700300E+02 0.  0.
         23    2    4    4    0    0 -0.47498376241E+03  0.85669645613E+03 -0.23014264298E+03  0.10103474113E+04  0.91092606167E+02 0.  0.
          2    1    3    3  502    0  0.25604659520E+03 -0.78643643353E+03 -0.20260873312E+04  0.21883948448E+04  0.00000000000E+00 0. -1.
         -1    1    3    3    0  502  0.24887063257E+02 -0.28348206066E+02 -0.74372110048E+02  0.83391830881E+02  0.00000000000E+00 0.  1.
         13    1    5    5    0    0  0.13929573738E+03 -0.55786749977E+02 -0.10211676720E+03  0.18150288722E+03  0.00000000000E+00 0.  1.
        -13    1    5    5    0    0  0.54754366566E+02  0.13874933450E+02 -0.10547294680E+03  0.11964571427E+03  0.00000000000E+00 0. -1.
          1    1    6    6  503    0 -0.27770535124E+03  0.48549321358E+03 -0.85585753555E+02  0.56581697019E+03  0.00000000000E+00 0. -1.
         -1    1    6    6    0  503 -0.19727841117E+03  0.37120324255E+03 -0.14455688943E+03  0.44453044111E+03  0.00000000000E+00 0.  1.
<mgrwt>
<rscale>  0 0.25293274E+04</rscale>
<asrwt>0</asrwt>
<pdfrwt beam="1">  1        2 0.47088265E+00 0.25293274E+04</pdfrwt>
<pdfrwt beam="2">  1       -1 0.80391607E-01 0.25293274E+04</pdfrwt>
<totfact> 0.24902011E+00</totfact>
</mgrwt>
</event>
<event>
12    7  0.1740517E-007  0.1331641E+04  0.7818608E-02  0.9004844E-01
          2   -1    0    0  501    0  0.00000000000E+00  0.00000000000E+00  0.86628473180E+03  0.86628473180E+03  0.00000000000E+00 0. -1.
         -1   -1    0    0    0  501 -0.00000000000E+00 -0.00000000000E+00 -0.51174470474E+03  0.51174470474E+03  0.00000000000E+00 0.  1.
         24    2    1    2    0    0  0.19772163229E+03 -0.17442699099E+03 -0.15196863415E+03  0.31427483073E+03  0.78457532516E+02 0.  0.
        254    2    1    2    0    0 -0.19772163229E+03  0.17442699099E+03  0.50650866121E+03  0.10637546058E+04  0.89749886821E+03 0.  0.
         23    2    4    4    0    0 -0.25209566411E+03  0.22399880867E+03 -0.16224385790E+03  0.38503681031E+03  0.90568127512E+02 0.  0.
         23    2    4    4    0    0  0.54374031823E+02 -0.49571817679E+02  0.66875251911E+03  0.67871779550E+03  0.89521023556E+02 0.  0.
          4    1    3    3  502    0  0.11917216056E+03 -0.52994889538E+02 -0.74818566305E+02  0.15036050025E+03  0.00000000000E+00 0. -1.
         -3    1    3    3    0  502  0.78549471721E+02 -0.12143210145E+03 -0.77150067842E+02  0.16391433048E+03  0.00000000000E+00 0.  1.
         13    1    5    5    0    0 -0.75910313195E+02  0.12217043235E+03 -0.47799553162E+02  0.15156776528E+03  0.00000000000E+00 0.  1.
        -13    1    5    5    0    0 -0.17618535091E+03  0.10182837632E+03 -0.11444430474E+03  0.23346904503E+03  0.00000000000E+00 0. -1.
          3    1    6    6  503    0  0.49950514541E+02  0.58135250746E+00  0.16344884897E+03  0.17091201860E+03  0.00000000000E+00 0. -1.
         -3    1    6    6    0  503  0.44235172819E+01 -0.50153170186E+02  0.50530367015E+03  0.50780577690E+03  0.00000000000E+00 0.  1.
<mgrwt>
<rscale>  0 0.13316405E+04</rscale>
<asrwt>0</asrwt>
<pdfrwt beam="1">  1        2 0.13327457E+00 0.13316405E+04</pdfrwt>
<pdfrwt beam="2">  1       -1 0.78729955E-01 0.13316405E+04</pdfrwt>
<totfact> 0.55730992E+01</totfact>
</mgrwt>
</event>
<event>
12    7  0.1740517E-007  0.2586542E+04  0.7818608E-02  0.8372787E-01
          2   -1    0    0  501    0  0.00000000000E+00  0.00000000000E+00  0.12610751919E+04  0.12610751919E+04  0.00000000000E+00 0. -1.
         -1   -1    0    0    0  501 -0.00000000000E+00 -0.00000000000E+00 -0.13262886000E+04  0.13262886000E+04  0.00000000000E+00 0.  1.
         24    2    1    2    0    0  0.58697317668E+02 -0.87364030197E+03  0.69093885649E+03  0.11184661967E+04  0.82929955474E+02 0.  0.
        254    2    1    2    0    0 -0.58697317668E+02  0.87364030197E+03 -0.75615226453E+03  0.14688975952E+04  0.90509731284E+03 0.  0.
         23    2    4    4    0    0 -0.24234463522E+03 -0.19307713252E+02  0.30458226210E+02  0.26150020439E+03  0.91383496018E+02 0.  0.
         23    2    4    4    0    0  0.18364731755E+03  0.89294801522E+03 -0.78661049074E+03  0.12073973908E+04  0.89274296744E+02 0.  0.
          2    1    3    3  502    0  0.66502639210E+02 -0.57182799442E+03  0.48798239402E+03  0.75467653541E+03  0.00000000000E+00 0. -1.
         -1    1    3    3    0  502 -0.78053215427E+01 -0.30181230754E+03  0.20295646247E+03  0.36378966133E+03  0.00000000000E+00 0.  1.
         13    1    5    5    0    0 -0.11842286226E+03 -0.24137722171E+02 -0.28515704472E+02  0.12417628332E+03  0.00000000000E+00 0. -1.
        -13    1    5    5    0    0 -0.12392177295E+03  0.48300089191E+01  0.58973930683E+02  0.13732392107E+03  0.00000000000E+00 0.  1.
          3    1    6    6  503    0  0.34134165786E+02  0.57607328207E+02 -0.67388203793E+02  0.94999555513E+02  0.00000000000E+00 0. -1.
         -3    1    6    6    0  503  0.14951315176E+03  0.83534068701E+03 -0.71922228694E+03  0.11123978353E+04  0.00000000000E+00 0.  1.
<mgrwt>
<rscale>  0 0.25865418E+04</rscale>
<asrwt>0</asrwt>
<pdfrwt beam="1">  1        2 0.19401157E+00 0.25865418E+04</pdfrwt>
<pdfrwt beam="2">  1       -1 0.20404440E+00 0.25865418E+04</pdfrwt>
<totfact> 0.24818856E+00</totfact>
</mgrwt>
</event>
<event>
12    7  0.1740517E-007  0.1462798E+04  0.7818608E-02  0.8909576E-01
         -1   -1    0    0    0  501 -0.00000000000E+00  0.00000000000E+00  0.76717774662E+03  0.76717774662E+03  0.00000000000E+00 0.  1.
          2   -1    0    0  501    0  0.00000000000E+00 -0.00000000000E+00 -0.69728913292E+03  0.69728913292E+03  0.00000000000E+00 0. -1.
         24    2    1    2    0    0  0.29139427246E+02  0.12606752001E+03  0.46266452183E+03  0.48919379832E+03  0.92249589354E+02 0.  0.
        254    2    1    2    0    0 -0.29139427246E+02 -0.12606752001E+03 -0.39277590813E+03  0.97527308121E+03  0.88325678209E+03 0.  0.
         23    2    4    4    0    0  0.38169098657E+03 -0.23296803006E+03 -0.17934813326E+03  0.49029562781E+03  0.90895200570E+02 0.  0.
         23    2    4    4    0    0 -0.41083041382E+03  0.10690051006E+03 -0.21342777487E+03  0.48497745340E+03  0.97171843923E+02 0.  0.
          2    1    3    3  502    0  0.49037449314E+02  0.75038963949E+02  0.17788179306E+03  0.19919199243E+03  0.00000000000E+00 0. -1.
         -1    1    3    3    0  502 -0.19898022068E+02  0.51028556056E+02  0.28478272877E+03  0.29000180589E+03  0.00000000000E+00 0.  1.
         13    1    5    5    0    0  0.36826662123E+03 -0.23522299928E+03 -0.18627186042E+03  0.47502354646E+03  0.00000000000E+00 0. -1.
        -13    1    5    5    0    0  0.13424365338E+02  0.22549692172E+01  0.69237271684E+01  0.15272081351E+02  0.00000000000E+00 0.  1.
          3    1    6    6  503    0 -0.25677686720E+03  0.75710593909E+02 -0.18458466657E+03  0.32517372694E+03  0.00000000000E+00 0. -1.
         -3    1    6    6    0  503 -0.15405354662E+03  0.31189916147E+02 -0.28843108308E+02  0.15980372646E+03  0.00000000000E+00 0.  1.
<mgrwt>
<rscale>  0 0.14627983E+04</rscale>
<asrwt>0</asrwt>
<pdfrwt beam="1">  1        2 0.10727525E+00 0.14627983E+04</pdfrwt>
<pdfrwt beam="2">  1       -1 0.11802735E+00 0.14627983E+04</pdfrwt>
<totfact> 0.29385047E+01</totfact>
</mgrwt>
</event>
<event>
12    7  0.1740517E-007  0.1878438E+04  0.7818608E-02  0.8665664E-01
         -1   -1    0    0    0  501 -0.00000000000E+00  0.00000000000E+00  0.39319798256E+03  0.39319798256E+03  0.00000000000E+00 0.  1.
          2   -1    0    0  501    0  0.00000000000E+00 -0.00000000000E+00 -0.22434807092E+04  0.22434807092E+04  0.00000000000E+00 0. -1.
         24    2    1    2    0    0 -0.48882958083E+03  0.40878216108E+03 -0.24111029715E+03  0.68599708178E+03  0.80003790570E+02 0.  0.
        254    2    1    2    0    0  0.48882958083E+03 -0.40878216108E+03 -0.16091724295E+04  0.19506816100E+04  0.89981421491E+03 0.  0.
         23    2    4    4    0    0  0.61587987747E+02 -0.24767255333E+03 -0.14247548740E+04  0.14503331836E+04  0.91679433766E+02 0.  0.
         23    2    4    4    0    0  0.42724159309E+03 -0.16110960775E+03 -0.18441755549E+03  0.50034842637E+03  0.88583454592E+02 0.  0.
          2    1    3    3  502    0 -0.85073356823E+02  0.38533371391E+02 -0.49035441454E+02  0.10548351184E+03  0.00000000000E+00 0. -1.
         -1    1    3    3    0  502 -0.40375622401E+03  0.37024878969E+03 -0.19207485570E+03  0.58051356994E+03  0.00000000000E+00 0.  1.
         13    1    5    5    0    0  0.28365676950E+02 -0.11499807011E+02 -0.22795708081E+03  0.23000279973E+03  0.00000000000E+00 0.  1.
        -13    1    5    5    0    0  0.33222310796E+02 -0.23617274632E+03 -0.11967977932E+04  0.12203303839E+04  0.00000000000E+00 0. -1.
          3    1    6    6  503    0  0.37584595375E+03 -0.12018997191E+03 -0.18216354688E+03  0.43461404499E+03  0.00000000000E+00 0. -1.
         -3    1    6    6    0  503  0.51395639342E+02 -0.40919635835E+02 -0.22540086117E+01  0.65734381378E+02  0.00000000000E+00 0.  1.
<mgrwt>
<rscale>  0 0.18784377E+04</rscale>
<asrwt>0</asrwt>
<pdfrwt beam="1">  1        2 0.34515088E+00 0.18784377E+04</pdfrwt>
<pdfrwt beam="2">  1       -1 0.60491997E-01 0.18784377E+04</pdfrwt>
<totfact> 0.14450745E+01</totfact>
</mgrwt>
</event>
<event>
12    7  0.1740517E-007  0.3426918E+04  0.7818608E-02  0.8131331E-01
         -1   -1    0    0    0  501 -0.00000000000E+00  0.00000000000E+00  0.10691765209E+04  0.10691765209E+04  0.00000000000E+00 0.  1.
          2   -1    0    0  501    0  0.00000000000E+00 -0.00000000000E+00 -0.27459847771E+04  0.27459847771E+04  0.00000000000E+00 0. -1.
         24    2    1    2    0    0 -0.15809331392E+04  0.12202324710E+03 -0.95620448231E+03  0.18533966333E+04  0.80701949736E+02 0.  0.
        254    2    1    2    0    0  0.15809331392E+04 -0.12202324710E+03 -0.72060377394E+03  0.19617646647E+04  0.90277989403E+03 0.  0.
         23    2    4    4    0    0  0.75836735953E+03 -0.48484029354E+03 -0.22959779710E+03  0.93312040120E+03  0.88359337113E+02 0.  0.
         23    2    4    4    0    0  0.82256577969E+03  0.36281704644E+03 -0.49100597685E+03  0.10286442635E+04  0.93656181887E+02 0.  0.
          4    1    3    3  502    0 -0.12158115260E+04  0.89191661445E+02 -0.69511867755E+03  0.14033327457E+04  0.00000000000E+00 0. -1.
         -3    1    3    3    0  502 -0.36512161320E+03  0.32831585656E+02 -0.26108580477E+03  0.45006388756E+03  0.00000000000E+00 0.  1.
         13    1    5    5    0    0  0.21438413883E+03 -0.10307989326E+03 -0.33548798751E+02  0.24023227359E+03  0.00000000000E+00 0. -1.
        -13    1    5    5    0    0  0.54398322070E+03 -0.38176040028E+03 -0.19604899834E+03  0.69288812760E+03  0.00000000000E+00 0.  1.
          2    1    6    6  503    0  0.79533160252E+03  0.36509501438E+03 -0.46535115397E+03  0.99116014043E+03  0.00000000000E+00 0.  1.
         -2    1    6    6    0  503  0.27234177179E+02 -0.22779679404E+01 -0.25654822880E+02  0.37484123059E+02  0.00000000000E+00 0. -1.
<mgrwt>
<rscale>  0 0.34269184E+04</rscale>
<asrwt>0</asrwt>
<pdfrwt beam="1">  1        2 0.42245919E+00 0.34269184E+04</pdfrwt>
<pdfrwt beam="2">  1       -1 0.16448870E+00 0.34269184E+04</pdfrwt>
<totfact> 0.63254199E-01</totfact>
</mgrwt>
</event>
<event>
12    7  0.1740517E-007  0.1570629E+04  0.7818608E-02  0.8838798E-01
         -1   -1    0    0    0  501 -0.00000000000E+00  0.00000000000E+00  0.25007694323E+04  0.25007694323E+04  0.00000000000E+00 0.  1.
          2   -1    0    0  501    0  0.00000000000E+00 -0.00000000000E+00 -0.24661162791E+03  0.24661162791E+03  0.00000000000E+00 0. -1.
         24    2    1    2    0    0 -0.15565382202E+03  0.36020639689E+03  0.17668961288E+03  0.43776095760E+03  0.80241361082E+02 0.  0.
        254    2    1    2    0    0  0.15565382202E+03 -0.36020639689E+03  0.20774681915E+04  0.23096201026E+04  0.92978178676E+03 0.  0.
         23    2    4    4    0    0  0.47446112325E+03 -0.28578184868E+03  0.73288223389E+03  0.92313003940E+03  0.90928974344E+02 0.  0.
         23    2    4    4    0    0 -0.31880730123E+03 -0.74424548212E+02  0.13445859576E+04  0.13864900632E+04  0.85241945445E+02 0.  0.
          4    1    3    3  502    0 -0.15608588933E+03  0.28267365041E+03  0.13898423319E+03  0.35154489693E+03  0.00000000000E+00 0. -1.
         -3    1    3    3    0  502  0.43206731372E+00  0.77532746482E+02  0.37705379687E+02  0.86216060664E+02  0.00000000000E+00 0.  1.
         13    1    5    5    0    0  0.38639742729E+03 -0.19583844046E+03  0.60064067947E+03  0.74055714999E+03  0.00000000000E+00 0. -1.
        -13    1    5    5    0    0  0.88063695965E+02 -0.89943408224E+02  0.13224155443E+03  0.18257288941E+03  0.00000000000E+00 0.  1.
          3    1    6    6  503    0 -0.12579497885E+03 -0.72282360410E+02  0.55423697459E+03  0.57291163396E+03  0.00000000000E+00 0. -1.
         -3    1    6    6    0  503 -0.19301232238E+03 -0.21421878021E+01  0.79034898306E+03  0.81357842928E+03  0.00000000000E+00 0.  1.
<mgrwt>
<rscale>  0 0.15706289E+04</rscale>
<asrwt>0</asrwt>
<pdfrwt beam="1">  1        2 0.37940252E-01 0.15706289E+04</pdfrwt>
<pdfrwt beam="2">  1       -1 0.38473374E+00 0.15706289E+04</pdfrwt>
<totfact> 0.13748031E+00</totfact>
</mgrwt>
</event>
<event>
12    7  0.1740517E-007  0.2306878E+04  0.7818608E-02  0.8475214E-01
          2   -1    0    0  501    0  0.00000000000E+00  0.00000000000E+00  0.22388158970E+04  0.22388158970E+04  0.00000000000E+00 0. -1.
         -1   -1    0    0    0  501 -0.00000000000E+00 -0.00000000000E+00 -0.59425227585E+03  0.59425227585E+03  0.00000000000E+00 0.  1.
         24    2    1    2    0    0 -0.32446060299E+03  0.73048451659E+03 -0.56300700569E+01  0.80319492826E+03  0.78791390582E+02 0.  0.
        254    2    1    2    0    0  0.32446060299E+03 -0.73048451659E+03  0.16501936912E+04  0.20298732446E+04  0.87084089175E+03 0.  0.
         23    2    4    4    0    0 -0.17886535650E+03 -0.31131885548E+03  0.11280892952E+04  0.11873961463E+04  0.91716436963E+02 0.  0.
         23    2    4    4    0    0  0.50332595950E+03 -0.41916566111E+03  0.52210439603E+03  0.84247709830E+03  0.90209688203E+02 0.  0.
          4    1    3    3  502    0 -0.72314987625E+02  0.10470662521E+03  0.15534583446E+02  0.12819617030E+03  0.00000000000E+00 0. -1.
         -3    1    3    3    0  502 -0.25214561537E+03  0.62577789138E+03 -0.21164653503E+02  0.67499875796E+03  0.00000000000E+00 0.  1.
         13    1    5    5    0    0 -0.17550946938E+03 -0.31791670926E+03  0.11074130472E+04  0.11654347965E+04  0.00000000000E+00 0. -1.
        -13    1    5    5    0    0 -0.33558871212E+01  0.65978537781E+01  0.20676248013E+02  0.21961349793E+02  0.00000000000E+00 0.  1.
          3    1    6    6  503    0  0.38019089467E+03 -0.32963548435E+03  0.44540710909E+03  0.67200607271E+03  0.00000000000E+00 0. -1.
         -3    1    6    6    0  503  0.12313506483E+03 -0.89530176759E+02  0.76697286941E+02  0.17047102559E+03  0.00000000000E+00 0.  1.
<mgrwt>
<rscale>  0 0.23068779E+04</rscale>
<asrwt>0</asrwt>
<pdfrwt beam="1">  1        2 0.34443321E+00 0.23068779E+04</pdfrwt>
<pdfrwt beam="2">  1       -1 0.91423428E-01 0.23068779E+04</pdfrwt>
<totfact> 0.59054254E+00</totfact>
</mgrwt>
</event>
<event>
12    7  0.1740517E-007  0.1260223E+04  0.7818608E-02  0.9061718E-01
         -1   -1    0    0    0  501 -0.00000000000E+00  0.00000000000E+00  0.51401309915E+03  0.51401309915E+03  0.00000000000E+00 0.  1.
          2   -1    0    0  501    0  0.00000000000E+00 -0.00000000000E+00 -0.77243217542E+03  0.77243217542E+03  0.00000000000E+00 0. -1.
         24    2    1    2    0    0 -0.11666586364E+03 -0.15290330188E+03 -0.37943837232E+03  0.43302921734E+03  0.80935043176E+02 0.  0.
        254    2    1    2    0    0  0.11666586364E+03  0.15290330188E+03  0.12101929605E+03  0.85341605724E+03  0.82260741139E+03 0.  0.
         23    2    4    4    0    0 -0.21143063246E+03  0.16954032661E+03 -0.22770587123E+03  0.36589614530E+03  0.92645510757E+02 0.  0.
         23    2    4    4    0    0  0.32809649610E+03 -0.16637024735E+02  0.34872516727E+03  0.48751991194E+03  0.90234809822E+02 0.  0.
          2    1    3    3  502    0 -0.10613613979E+03 -0.11239828023E+03 -0.34765774970E+03  0.38047886208E+03  0.00000000000E+00 0. -1.
         -1    1    3    3    0  502 -0.10529723850E+02 -0.40505021644E+02 -0.31780622624E+02  0.52550355252E+02  0.00000000000E+00 0.  1.
         13    1    5    5    0    0 -0.57450939774E+01  0.29094197338E+02 -0.56046175743E+02  0.63408613287E+02  0.00000000000E+00 0.  1.
        -13    1    5    5    0    0 -0.20568553849E+03  0.14044612927E+03 -0.17165969548E+03  0.30248753201E+03  0.00000000000E+00 0. -1.
          1    1    6    6  503    0  0.95529187162E+02  0.35454764049E+02  0.11622118000E+03  0.15456464206E+03  0.00000000000E+00 0. -1.
         -1    1    6    6    0  503  0.23256730894E+03 -0.52091788784E+02  0.23250398727E+03  0.33295526989E+03  0.00000000000E+00 0.  1.
<mgrwt>
<rscale>  0 0.12602226E+04</rscale>
<asrwt>0</asrwt>
<pdfrwt beam="1">  1        2 0.11883572E+00 0.12602226E+04</pdfrwt>
<pdfrwt beam="2">  1       -1 0.79078938E-01 0.12602226E+04</pdfrwt>
<totfact> 0.64768818E+01</totfact>
</mgrwt>
</event>
<event>
12    7  0.1740517E-007  0.1966890E+04  0.7818608E-02  0.8622259E-01
          2   -1    0    0  501    0  0.00000000000E+00  0.00000000000E+00  0.96348763582E+03  0.96348763582E+03  0.00000000000E+00 0. -1.
         -1   -1    0    0    0  501 -0.00000000000E+00 -0.00000000000E+00 -0.10038155119E+04  0.10038155119E+04  0.00000000000E+00 0.  1.
         24    2    1    2    0    0 -0.51493542113E+03 -0.29972708234E+02 -0.59326924367E+03  0.79034144150E+03  0.81328638873E+02 0.  0.
        254    2    1    2    0    0  0.51493542113E+03  0.29972708234E+02  0.55294136762E+03  0.11769617062E+04  0.90190789474E+03 0.  0.
         23    2    4    4    0    0  0.71594043816E+03 -0.16857845891E+03  0.39770498199E+03  0.84119840195E+03  0.91957005935E+02 0.  0.
         23    2    4    4    0    0 -0.20100501703E+03  0.19855116714E+03  0.15523638563E+03  0.33576330423E+03  0.93877996339E+02 0.  0.
          2    1    3    3  502    0 -0.12965471394E+03 -0.12576855428E+02 -0.10014099115E+03  0.16430684784E+03  0.00000000000E+00 0. -1.
         -1    1    3    3    0  502 -0.38528070719E+03 -0.17395852806E+02 -0.49312825252E+03  0.62603459366E+03  0.00000000000E+00 0.  1.
         13    1    5    5    0    0  0.12948392825E+03 -0.49539663789E+02  0.11124713149E+03  0.17775317220E+03  0.00000000000E+00 0. -1.
        -13    1    5    5    0    0  0.58645650991E+03 -0.11903879512E+03  0.28645785050E+03  0.66344522975E+03  0.00000000000E+00 0.  1.
          1    1    6    6  503    0 -0.98076186730E+02  0.38465891893E+02  0.36756260228E+02  0.11157771242E+03  0.00000000000E+00 0. -1.
         -1    1    6    6    0  503 -0.10292883030E+03  0.16008527525E+03  0.11848012540E+03  0.22418559181E+03  0.00000000000E+00 0.  1.
<mgrwt>
<rscale>  0 0.19668898E+04</rscale>
<asrwt>0</asrwt>
<pdfrwt beam="1">  1        2 0.14822887E+00 0.19668898E+04</pdfrwt>
<pdfrwt beam="2">  1       -1 0.15443316E+00 0.19668898E+04</pdfrwt>
<totfact> 0.91132208E+00</totfact>
</mgrwt>
</event>
<event>
12    7  0.1740517E-007  0.1166699E+04  0.7818608E-02  0.9142515E-01
          2   -1    0    0  501    0  0.00000000000E+00  0.00000000000E+00  0.13512594809E+04  0.13512594809E+04  0.00000000000E+00 0. -1.
         -1   -1    0    0    0  501 -0.00000000000E+00 -0.00000000000E+00 -0.25183671536E+03  0.25183671536E+03  0.00000000000E+00 0.  1.
         24    2    1    2    0    0 -0.23788446738E+02  0.17659285491E+03  0.23496832105E+02  0.19534722514E+03  0.76534375606E+02 0.  0.
        254    2    1    2    0    0  0.23788446738E+02 -0.17659285491E+03  0.10759259335E+04  0.14077489711E+04  0.89016269572E+03 0.  0.
         23    2    4    4    0    0 -0.89856130853E+02 -0.11274030863E+02  0.11639630969E+04  0.11709603760E+04  0.90204673881E+02 0.  0.
         23    2    4    4    0    0  0.11364457759E+03 -0.16531882405E+03 -0.88037163476E+02  0.23678859510E+03  0.89849279455E+02 0.  0.
          4    1    3    3  502    0 -0.29145248794E+02  0.20652900332E+02 -0.69019678161E+01  0.36381657179E+02  0.00000000000E+00 0. -1.
         -3    1    3    3    0  502  0.53568020556E+01  0.15593995458E+03  0.30398799921E+02  0.15896556797E+03  0.00000000000E+00 0.  1.
         13    1    5    5    0    0 -0.91225849279E+02 -0.13593501407E+02  0.11645555528E+04  0.11682022832E+04  0.00000000000E+00 0. -1.
        -13    1    5    5    0    0  0.13697184255E+01  0.23194705438E+01 -0.59245587943E+00  0.27580928443E+01  0.00000000000E+00 0.  1.
          2    1    6    6  503    0  0.11531956632E+03 -0.14062379056E+03 -0.10185396954E+03  0.20844156006E+03  0.00000000000E+00 0. -1.
         -2    1    6    6    0  503 -0.16749887248E+01 -0.24695033482E+02  0.13816806068E+02  0.28347035045E+02  0.00000000000E+00 0.  1.
<mgrwt>
<rscale>  0 0.11666992E+04</rscale>
<asrwt>0</asrwt>
<pdfrwt beam="1">  1        2 0.20788607E+00 0.11666992E+04</pdfrwt>
<pdfrwt beam="2">  1       -1 0.38744111E-01 0.11666992E+04</pdfrwt>
<totfact> 0.11224039E+02</totfact>
</mgrwt>
</event>
<event>
12    7  0.1740517E-007  0.2851049E+04  0.7818608E-02  0.8287593E-01
          2   -1    0    0  501    0  0.00000000000E+00  0.00000000000E+00  0.26894023451E+04  0.26894023451E+04  0.00000000000E+00 0. -1.
         -1   -1    0    0    0  501 -0.00000000000E+00 -0.00000000000E+00 -0.75560259406E+03  0.75560259406E+03  0.00000000000E+00 0.  1.
         24    2    1    2    0    0  0.24939069378E+03  0.98740558803E+03 -0.64571323980E+02  0.10238174966E+04  0.82869156319E+02 0.  0.
        254    2    1    2    0    0 -0.24939069378E+03 -0.98740558803E+03  0.19983710750E+04  0.24211874425E+04  0.91186411546E+03 0.  0.
         23    2    4    4    0    0 -0.24791111084E+03 -0.36764328986E+03  0.16194519265E+03  0.48072215508E+03  0.90807695173E+02 0.  0.
         23    2    4    4    0    0 -0.14795829466E+01 -0.61976229816E+03  0.18364258823E+04  0.19404652874E+04  0.94010717859E+02 0.  0.
          4    1    3    3  502    0  0.99874500367E+02  0.42756996770E+03 -0.68224373933E+02  0.44434846494E+03  0.00000000000E+00 0. -1.
         -3    1    3    3    0  502  0.14951619342E+03  0.55983562033E+03  0.36530499526E+01  0.57946903166E+03  0.00000000000E+00 0.  1.
         13    1    5    5    0    0 -0.16563313975E+03 -0.16535770457E+03  0.90889819898E+02  0.25107462397E+03  0.00000000000E+00 0.  1.
        -13    1    5    5    0    0 -0.82277971088E+02 -0.20228558530E+03  0.71055372753E+02  0.22964753111E+03  0.00000000000E+00 0. -1.
          1    1    6    6  503    0 -0.29281445578E+02 -0.99391442350E+02  0.36828792357E+03  0.38258601192E+03  0.00000000000E+00 0. -1.
         -1    1    6    6    0  503  0.27801862631E+02 -0.52037085581E+03  0.14681379588E+04  0.15578792755E+04  0.00000000000E+00 0.  1.
<mgrwt>
<rscale>  0 0.28510485E+04</rscale>
<asrwt>0</asrwt>
<pdfrwt beam="1">  1        2 0.41375420E+00 0.28510485E+04</pdfrwt>
<pdfrwt beam="2">  1       -1 0.11624655E+00 0.28510485E+04</pdfrwt>
<totfact> 0.17742627E+00</totfact>
</mgrwt>
</event>
<event>
12    7  0.1740517E-007  0.2486616E+04  0.7818608E-02  0.8407769E-01
         -1   -1    0    0    0  501 -0.00000000000E+00  0.00000000000E+00  0.13598560019E+04  0.13598560019E+04  0.00000000000E+00 0.  1.
          2   -1    0    0  501    0  0.00000000000E+00 -0.00000000000E+00 -0.11367487093E+04  0.11367487093E+04  0.00000000000E+00 0. -1.
         24    2    1    2    0    0  0.54973894535E+03  0.71375394406E+03 -0.51781844344E+03  0.10424394602E+04  0.82984860227E+02 0.  0.
        254    2    1    2    0    0 -0.54973894535E+03 -0.71375394406E+03  0.74092573596E+03  0.14541652511E+04  0.86831332508E+03 0.  0.
         23    2    4    4    0    0 -0.44016616936E+03 -0.58466065372E+03  0.92798620274E+03  0.11853643712E+04  0.91410958431E+02 0.  0.
         23    2    4    4    0    0 -0.10957277599E+03 -0.12909329034E+03 -0.18706046677E+03  0.26880087989E+03  0.92687776714E+02 0.  0.
          4    1    3    3  502    0  0.30423443126E+03  0.35592185610E+03 -0.22960929448E+03  0.52149725304E+03  0.00000000000E+00 0. -1.
         -3    1    3    3    0  502  0.24550451409E+03  0.35783208796E+03 -0.28820914896E+03  0.52094220712E+03  0.00000000000E+00 0.  1.
         13    1    5    5    0    0 -0.33779003316E+03 -0.45559578507E+03  0.77643276679E+03  0.96151831351E+03  0.00000000000E+00 0. -1.
        -13    1    5    5    0    0 -0.10237613620E+03 -0.12906486865E+03  0.15155343594E+03  0.22384605766E+03  0.00000000000E+00 0.  1.
          3    1    6    6  503    0 -0.52083728117E+02 -0.67311504217E+02 -0.29524905082E+02  0.90084812009E+02  0.00000000000E+00 0. -1.
         -3    1    6    6    0  503 -0.57489047873E+02 -0.61781786120E+02 -0.15753556169E+03  0.17871606788E+03  0.00000000000E+00 0.  1.
<mgrwt>
<rscale>  0 0.24866158E+04</rscale>
<asrwt>0</asrwt>
<pdfrwt beam="1">  1        2 0.17488442E+00 0.24866158E+04</pdfrwt>
<pdfrwt beam="2">  1       -1 0.20920862E+00 0.24866158E+04</pdfrwt>
<totfact> 0.27397924E+00</totfact>
</mgrwt>
</event>
<event>
12    7  0.1740517E-007  0.1470269E+04  0.7818608E-02  0.8904468E-01
         -1   -1    0    0    0  501 -0.00000000000E+00  0.00000000000E+00  0.11526511901E+04  0.11526511901E+04  0.00000000000E+00 0.  1.
          2   -1    0    0  501    0  0.00000000000E+00 -0.00000000000E+00 -0.46885215144E+03  0.46885215144E+03  0.00000000000E+00 0. -1.
         24    2    1    2    0    0  0.35032820763E+03  0.27520402377E+03  0.14250169756E+03  0.47405176799E+03  0.77144262008E+02 0.  0.
        254    2    1    2    0    0 -0.35032820763E+03 -0.27520402377E+03  0.54129734112E+03  0.11474515736E+04  0.90839154248E+03 0.  0.
         23    2    4    4    0    0  0.26308079595E+03 -0.16242366035E+03  0.37721494526E+03  0.49615834682E+03  0.91044162646E+02 0.  0.
         23    2    4    4    0    0 -0.61340900359E+03 -0.11278036342E+03  0.16408239586E+03  0.65129322676E+03  0.90938542640E+02 0.  0.
          4    1    3    3  502    0  0.26414603349E+03  0.17112747532E+03  0.77667099588E+02  0.32417575199E+03  0.00000000000E+00 0. -1.
         -3    1    3    3    0  502  0.86182174143E+02  0.10407654845E+03  0.64834597973E+02  0.14987601600E+03  0.00000000000E+00 0.  1.
         13    1    5    5    0    0  0.11582195695E+03 -0.85681288371E+02  0.24362976789E+03  0.28303970162E+03  0.00000000000E+00 0.  1.
        -13    1    5    5    0    0  0.14725883900E+03 -0.76742371977E+02  0.13358517737E+03  0.21311864520E+03  0.00000000000E+00 0. -1.
          1    1    6    6  503    0 -0.37914775574E+02 -0.31307537060E+01 -0.11424272263E+02  0.39722107476E+02  0.00000000000E+00 0. -1.
         -1    1    6    6    0  503 -0.57549422801E+03 -0.10964960972E+03  0.17550666813E+03  0.61157111928E+03  0.00000000000E+00 0.  1.
<mgrwt>
<rscale>  0 0.14702693E+04</rscale>
<asrwt>0</asrwt>
<pdfrwt beam="1">  1        2 0.72131101E-01 0.14702693E+04</pdfrwt>
<pdfrwt beam="2">  1       -1 0.17733095E+00 0.14702693E+04</pdfrwt>
<totfact> 0.15980016E+01</totfact>
</mgrwt>
</event>
<event>
12    7  0.1740517E-007  0.1265811E+04  0.7818608E-02  0.9057126E-01
         -1   -1    0    0    0  501 -0.00000000000E+00  0.00000000000E+00  0.12038223573E+04  0.12038223573E+04  0.00000000000E+00 0.  1.
          2   -1    0    0  501    0  0.00000000000E+00 -0.00000000000E+00 -0.33274769454E+03  0.33274769454E+03  0.00000000000E+00 0. -1.
         24    2    1    2    0    0 -0.26146379731E+03  0.16125796801E+02  0.40373770918E+03  0.49003215640E+03  0.92217231917E+02 0.  0.
        254    2    1    2    0    0  0.26146379731E+03 -0.16125796801E+02  0.46733695360E+03  0.10465378955E+04  0.89900744145E+03 0.  0.
         23    2    4    4    0    0 -0.12010526391E+03 -0.32379455188E+03 -0.83444410425E+01  0.35741317650E+03  0.91686219237E+02 0.  0.
         23    2    4    4    0    0  0.38156906122E+03  0.30766875508E+03  0.47568139464E+03  0.68912471895E+03  0.91460798856E+02 0.  0.
          4    1    3    3  502    0 -0.50414381223E+02  0.39619067926E+02  0.11420768167E+03  0.13097585629E+03  0.00000000000E+00 0. -1.
         -3    1    3    3    0  502 -0.21104941609E+03 -0.23493271125E+02  0.28953002751E+03  0.35905630011E+03  0.00000000000E+00 0.  1.
         13    1    5    5    0    0 -0.94753836434E+01 -0.83319665849E+02 -0.36025696828E+02  0.91267740436E+02  0.00000000000E+00 0.  1.
        -13    1    5    5    0    0 -0.11062988026E+03 -0.24047488603E+03  0.27681255785E+02  0.26614543607E+03  0.00000000000E+00 0. -1.
          4    1    6    6  503    0  0.14212478759E+03  0.85574021025E+02  0.21313065309E+03  0.27008710374E+03  0.00000000000E+00 0.  1.
         -4    1    6    6    0  503  0.23944427363E+03  0.22209473405E+03  0.26255074155E+03  0.41903761521E+03  0.00000000000E+00 0. -1.
<mgrwt>
<rscale>  0 0.12658106E+04</rscale>
<asrwt>0</asrwt>
<pdfrwt beam="1">  1        2 0.51191953E-01 0.12658106E+04</pdfrwt>
<pdfrwt beam="2">  1       -1 0.18520344E+00 0.12658106E+04</pdfrwt>
<totfact> 0.21018572E+01</totfact>
</mgrwt>
</event>
<event>
12    7  0.1740517E-007  0.2589051E+04  0.7818608E-02  0.8371930E-01
          2   -1    0    0  501    0  0.00000000000E+00  0.00000000000E+00  0.21707606163E+04  0.21707606163E+04  0.00000000000E+00 0. -1.
         -1   -1    0    0    0  501 -0.00000000000E+00 -0.00000000000E+00 -0.77198545997E+03  0.77198545997E+03  0.00000000000E+00 0.  1.
         24    2    1    2    0    0  0.22985066430E+03 -0.27706938583E+03  0.18218321685E+04  0.18587911765E+04  0.80208573194E+02 0.  0.
        254    2    1    2    0    0 -0.22985066430E+03  0.27706938583E+03 -0.42305701219E+03  0.10839548997E+04  0.93079654956E+03 0.  0.
         23    2    4    4    0    0 -0.13029246687E+03 -0.31233684660E+03 -0.31149857205E+03  0.46920850129E+03  0.92708277013E+02 0.  0.
         23    2    4    4    0    0 -0.99558197429E+02  0.58940623244E+03 -0.11155844014E+03  0.61474639846E+03  0.90312276786E+02 0.  0.
          2    1    3    3  502    0  0.22037957141E+03 -0.27784867021E+03  0.18045638925E+04  0.18390807163E+04  0.00000000000E+00 0. -1.
         -1    1    3    3    0  502  0.94710928885E+01  0.77928437910E+00  0.17268276044E+02  0.19710460223E+02  0.00000000000E+00 0.  1.
         13    1    5    5    0    0 -0.37095460918E+02 -0.17045762707E+03 -0.11219256465E+03  0.20741033583E+03  0.00000000000E+00 0. -1.
        -13    1    5    5    0    0 -0.93197005951E+02 -0.14187921954E+03 -0.19930600739E+03  0.26179816546E+03  0.00000000000E+00 0.  1.
          3    1    6    6  503    0 -0.54473472631E+02  0.42588195523E+03 -0.11708792123E+03  0.44503076333E+03  0.00000000000E+00 0. -1.
         -3    1    6    6    0  503 -0.45084724798E+02  0.16352427720E+03  0.55294810859E+01  0.16971563512E+03  0.00000000000E+00 0.  1.
<mgrwt>
<rscale>  0 0.25890505E+04</rscale>
<asrwt>0</asrwt>
<pdfrwt beam="1">  1        2 0.33396317E+00 0.25890505E+04</pdfrwt>
<pdfrwt beam="2">  1       -1 0.11876699E+00 0.25890505E+04</pdfrwt>
<totfact> 0.34290989E+00</totfact>
</mgrwt>
</event>
<event>
12    7  0.1740517E-007  0.1165503E+04  0.7818608E-02  0.9143599E-01
         -1   -1    0    0    0  501 -0.00000000000E+00  0.00000000000E+00  0.10477203280E+04  0.10477203280E+04  0.00000000000E+00 0.  1.
          2   -1    0    0  501    0  0.00000000000E+00 -0.00000000000E+00 -0.32413183347E+03  0.32413183347E+03  0.00000000000E+00 0. -1.
         24    2    1    2    0    0 -0.11156082559E+03  0.11231575573E+03 -0.39564979911E+02  0.18127548258E+03  0.78960535458E+02 0.  0.
        254    2    1    2    0    0  0.11156082559E+03 -0.11231575573E+03  0.76315347446E+03  0.11905766789E+04  0.90000497554E+03 0.  0.
         23    2    4    4    0    0  0.22502940937E+03 -0.38809952624E+03  0.74767503012E+03  0.87678900660E+03  0.92095244606E+02 0.  0.
         23    2    4    4    0    0 -0.11346858379E+03  0.27578377051E+03  0.15478444342E+02  0.31378767231E+03  0.96391459530E+02 0.  0.
          2    1    3    3  502    0 -0.10020415813E+03  0.53758774739E+02 -0.42892771744E+02  0.12153464130E+03  0.00000000000E+00 0. -1.
         -1    1    3    3    0  502 -0.11356667452E+02  0.58556980991E+02  0.33277918333E+01  0.59740841281E+02  0.00000000000E+00 0.  1.
         13    1    5    5    0    0  0.21991518108E+02 -0.84548051884E+02  0.20317703771E+03  0.22116262930E+03  0.00000000000E+00 0. -1.
        -13    1    5    5    0    0  0.20303789127E+03 -0.30355147436E+03  0.54449799241E+03  0.65562637730E+03  0.00000000000E+00 0.  1.
          3    1    6    6  503    0  0.82793034580E+01  0.54512669523E+02 -0.20209468910E+02  0.58724787253E+02  0.00000000000E+00 0. -1.
         -3    1    6    6    0  503 -0.12174788725E+03  0.22127110099E+03  0.35687913252E+02  0.25506288506E+03  0.00000000000E+00 0.  1.
<mgrwt>
<rscale>  0 0.11655033E+04</rscale>
<asrwt>0</asrwt>
<pdfrwt beam="1">  1        2 0.49866436E-01 0.11655033E+04</pdfrwt>
<pdfrwt beam="2">  1       -1 0.16118774E+00 0.11655033E+04</pdfrwt>
<totfact> 0.32656373E+01</totfact>
</mgrwt>
</event>
<event>
12    7  0.1740517E-007  0.1308643E+04  0.7818608E-02  0.9022739E-01
          2   -1    0    0  501    0  0.00000000000E+00  0.00000000000E+00  0.83295008432E+03  0.83295008432E+03  0.00000000000E+00 0. -1.
         -1   -1    0    0    0  501 -0.00000000000E+00 -0.00000000000E+00 -0.51400070089E+03  0.51400070089E+03  0.00000000000E+00 0.  1.
         24    2    1    2    0    0  0.46746508660E+02  0.12690263201E+03 -0.23541871099E+03  0.28333401721E+03  0.81035064893E+02 0.  0.
        254    2    1    2    0    0 -0.46746508660E+02 -0.12690263201E+03  0.55436809442E+03  0.10636167680E+04  0.89758962281E+03 0.  0.
         23    2    4    4    0    0 -0.27236230678E+03 -0.35072052877E+03  0.45141729910E+02  0.45590058773E+03  0.92851788664E+02 0.  0.
         23    2    4    4    0    0  0.22561579812E+03  0.22381789676E+03  0.50922636451E+03  0.60771618027E+03  0.94923791384E+02 0.  0.
          4    1    3    3  502    0  0.27729423938E+02  0.18348178221E+02 -0.11671052750E+03  0.12135453772E+03  0.00000000000E+00 0. -1.
         -3    1    3    3    0  502  0.19017084723E+02  0.10855445379E+03 -0.11870818349E+03  0.16197947949E+03  0.00000000000E+00 0.  1.
         13    1    5    5    0    0 -0.25916671015E+03 -0.28006748323E+03  0.32990472958E+02  0.38300594006E+03  0.00000000000E+00 0.  1.
        -13    1    5    5    0    0 -0.13195596637E+02 -0.70653045536E+02  0.12151256951E+02  0.72894647675E+02  0.00000000000E+00 0. -1.
          2    1    6    6  503    0  0.10305635703E+03  0.15992920215E+03  0.33579202907E+03  0.38594591488E+03  0.00000000000E+00 0. -1.
         -2    1    6    6    0  503  0.12255944109E+03  0.63888694605E+02  0.17343433544E+03  0.22177026538E+03  0.00000000000E+00 0.  1.
<mgrwt>
<rscale>  0 0.13086435E+04</rscale>
<asrwt>0</asrwt>
<pdfrwt beam="1">  1        2 0.12814617E+00 0.13086435E+04</pdfrwt>
<pdfrwt beam="2">  1       -1 0.79077031E-01 0.13086435E+04</pdfrwt>
<totfact> 0.58358453E+01</totfact>
</mgrwt>
</event>
<event>
12    7  0.1740517E-007  0.1626915E+04  0.7818608E-02  0.8804181E-01
         -1   -1    0    0    0  501 -0.00000000000E+00  0.00000000000E+00  0.37675364058E+03  0.37675364058E+03  0.00000000000E+00 0.  1.
          2   -1    0    0  501    0  0.00000000000E+00 -0.00000000000E+00 -0.17563553511E+04  0.17563553511E+04  0.00000000000E+00 0. -1.
         24    2    1    2    0    0 -0.86614645799E+02 -0.35697850151E+03  0.74804197737E+02  0.38340665998E+03  0.80431657386E+02 0.  0.
        254    2    1    2    0    0  0.86614645799E+02  0.35697850151E+03 -0.14544059082E+04  0.17497023317E+04  0.90068082924E+03 0.  0.
         23    2    4    4    0    0 -0.20625644236E+03  0.43431392471E+03 -0.34858537199E+03  0.59957452993E+03  0.82507879426E+02 0.  0.
         23    2    4    4    0    0  0.29287108816E+03 -0.77335423201E+02 -0.11058205362E+04  0.11501278017E+04  0.90557495606E+02 0.  0.
          2    1    3    3  502    0 -0.55144795624E+02 -0.11915330754E+03 -0.26277103317E+01  0.13132160539E+03  0.00000000000E+00 0. -1.
         -1    1    3    3    0  502 -0.31469850174E+02 -0.23782519397E+03  0.77431908068E+02  0.25208505458E+03  0.00000000000E+00 0.  1.
         13    1    5    5    0    0 -0.12200336205E+03  0.16367543065E+03 -0.13675792647E+03  0.24571771894E+03  0.00000000000E+00 0. -1.
        -13    1    5    5    0    0 -0.84253080308E+02  0.27063849406E+03 -0.21182744552E+03  0.35385681099E+03  0.00000000000E+00 0.  1.
          3    1    6    6  503    0  0.12033286633E+03  0.13507752125E+02 -0.41145936662E+03  0.42890706274E+03  0.00000000000E+00 0. -1.
         -3    1    6    6    0  503  0.17253822182E+03 -0.90843175326E+02 -0.69436116960E+03  0.72122073899E+03  0.00000000000E+00 0.  1.
<mgrwt>
<rscale>  0 0.16269152E+04</rscale>
<asrwt>0</asrwt>
<pdfrwt beam="1">  1        2 0.27020851E+00 0.16269152E+04</pdfrwt>
<pdfrwt beam="2">  1       -1 0.57962099E-01 0.16269152E+04</pdfrwt>
<totfact> 0.29992034E+01</totfact>
</mgrwt>
</event>
<event>
12    7  0.1740517E-007  0.1955274E+04  0.7818608E-02  0.8627822E-01
         -3   -1    0    0    0  501 -0.00000000000E+00  0.00000000000E+00  0.54150765996E+03  0.54150765996E+03  0.00000000000E+00 0.  1.
          2   -1    0    0  501    0  0.00000000000E+00 -0.00000000000E+00 -0.17650240160E+04  0.17650240160E+04  0.00000000000E+00 0. -1.
         24    2    1    2    0    0  0.26041841077E+03 -0.24915316467E+03  0.31850177016E+03  0.48781782177E+03  0.81411310689E+02 0.  0.
        254    2    1    2    0    0 -0.26041841077E+03  0.24915316467E+03 -0.15420181262E+04  0.18187138541E+04  0.89443006085E+03 0.  0.
         23    2    4    4    0    0  0.70115647359E+02 -0.14618395536E+03 -0.11499005094E+04  0.11648467976E+04  0.91164288981E+02 0.  0.
         23    2    4    4    0    0 -0.33053405813E+03  0.39533712003E+03 -0.39211761674E+03  0.65386705652E+03  0.90783810161E+02 0.  0.
          4    1    3    3  502    0  0.76961244119E+02 -0.90583125842E+02  0.59165797311E+02  0.13277397092E+03  0.00000000000E+00 0. -1.
         -3    1    3    3    0  502  0.18345716665E+03 -0.15857003883E+03  0.25933597285E+03  0.35504385084E+03  0.00000000000E+00 0.  1.
         13    1    5    5    0    0 -0.81038275738E+00  0.69722409886E+01 -0.19625231623E+03  0.19637780040E+03  0.00000000000E+00 0.  1.
        -13    1    5    5    0    0  0.70926030117E+02 -0.15315619635E+03 -0.95364819318E+03  0.96846899722E+03  0.00000000000E+00 0. -1.
          1    1    6    6  503    0 -0.33136959238E+03  0.37265060704E+03 -0.36229178727E+03  0.61638431259E+03  0.00000000000E+00 0. -1.
         -1    1    6    6    0  503  0.83553424969E+00  0.22686512985E+02 -0.29825829471E+02  0.37482743930E+02  0.00000000000E+00 0.  1.
<mgrwt>
<rscale>  0 0.19552739E+04</rscale>
<asrwt>0</asrwt>
<pdfrwt beam="1">  1        2 0.27154215E+00 0.19552739E+04</pdfrwt>
<pdfrwt beam="2">  1       -3 0.83308873E-01 0.19552739E+04</pdfrwt>
<totfact> 0.71318373E+00</totfact>
</mgrwt>
</event>
<event>
12    7  0.1740517E-007  0.1390689E+04  0.7818608E-02  0.8960586E-01
          2   -1    0    0  501    0  0.00000000000E+00  0.00000000000E+00  0.18710648849E+04  0.18710648849E+04  0.00000000000E+00 0. -1.
         -1   -1    0    0    0  501 -0.00000000000E+00 -0.00000000000E+00 -0.25841114460E+03  0.25841114460E+03  0.00000000000E+00 0.  1.
         24    2    1    2    0    0  0.31181778724E+02  0.33582855878E+03  0.14936293432E+03  0.37761597711E+03  0.80817175153E+02 0.  0.
        254    2    1    2    0    0 -0.31181778724E+02 -0.33582855878E+03  0.14632908060E+04  0.17518600524E+04  0.90224194988E+03 0.  0.
         23    2    4    4    0    0  0.53501614755E+02  0.26863432859E+03  0.21769438230E+03  0.36167541385E+03  0.91604779445E+02 0.  0.
         23    2    4    4    0    0 -0.84683393480E+02 -0.60446288737E+03  0.12455964237E+04  0.13901846386E+04  0.92499833793E+02 0.  0.
          2    1    3    3  502    0 -0.18676433646E+02  0.77041285146E+02  0.11231880412E+02  0.80064498552E+02  0.00000000000E+00 0. -1.
         -1    1    3    3    0  502  0.49858212371E+02  0.25878727364E+03  0.13813105391E+03  0.29755147856E+03  0.00000000000E+00 0.  1.
         13    1    5    5    0    0  0.38890102646E+02  0.12620943624E+03  0.15962530120E+03  0.20717504354E+03  0.00000000000E+00 0. -1.
        -13    1    5    5    0    0  0.14611512110E+02  0.14242489235E+03  0.58069081101E+02  0.15450037031E+03  0.00000000000E+00 0.  1.
          4    1    6    6  503    0 -0.28854183265E+02 -0.36163583440E+02  0.97377017864E+02  0.10780840536E+03  0.00000000000E+00 0. -1.
         -4    1    6    6    0  503 -0.55829210215E+02 -0.56829930393E+03  0.11482194058E+04  0.12823762332E+04  0.00000000000E+00 0.  1.
<mgrwt>
<rscale>  0 0.13906891E+04</rscale>
<asrwt>0</asrwt>
<pdfrwt beam="1">  1        2 0.28785613E+00 0.13906891E+04</pdfrwt>
<pdfrwt beam="2">  1       -1 0.39755562E-01 0.13906891E+04</pdfrwt>
<totfact> 0.53864140E+01</totfact>
</mgrwt>
</event>
<event>
12    7  0.1740517E-007  0.3115929E+04  0.7818608E-02  0.8211380E-01
         -1   -1    0    0    0  501 -0.00000000000E+00  0.00000000000E+00  0.14446591256E+04  0.14446591256E+04  0.00000000000E+00 0.  1.
          2   -1    0    0  501    0  0.00000000000E+00 -0.00000000000E+00 -0.16801563812E+04  0.16801563812E+04  0.00000000000E+00 0. -1.
         24    2    1    2    0    0  0.66317786263E+03 -0.73308045129E+03  0.92146781633E+03  0.13534610466E+04  0.74444895803E+02 0.  0.
        254    2    1    2    0    0 -0.66317786263E+03  0.73308045129E+03 -0.11569650719E+04  0.17713544602E+04  0.90659617272E+03 0.  0.
         23    2    4    4    0    0  0.61818353411E+01  0.25224612381E+03 -0.84233202280E+03  0.88441706479E+03  0.94889334462E+02 0.  0.
         23    2    4    4    0    0 -0.66935969797E+03  0.48083432748E+03 -0.31463304914E+03  0.88693739540E+03  0.91760187405E+02 0.  0.
          4    1    3    3  502    0  0.17909832058E+03 -0.16173426236E+03  0.19682385320E+03  0.31140618049E+03  0.00000000000E+00 0. -1.
         -3    1    3    3    0  502  0.48407954205E+03 -0.57134618893E+03  0.72464396313E+03  0.10420548661E+04  0.00000000000E+00 0.  1.
         13    1    5    5    0    0  0.46079828371E+02  0.92716255377E+02 -0.37336401092E+03  0.38745366077E+03  0.00000000000E+00 0.  1.
        -13    1    5    5    0    0 -0.39897993029E+02  0.15952986843E+03 -0.46896801188E+03  0.49696340402E+03  0.00000000000E+00 0. -1.
          2    1    6    6  503    0 -0.15593637973E+03  0.94797075084E+02 -0.10851830999E+03  0.21231783620E+03  0.00000000000E+00 0. -1.
         -2    1    6    6    0  503 -0.51342331824E+03  0.38603725240E+03 -0.20611473915E+03  0.67461955919E+03  0.00000000000E+00 0.  1.
<mgrwt>
<rscale>  0 0.31159289E+04</rscale>
<asrwt>0</asrwt>
<pdfrwt beam="1">  1        2 0.25848560E+00 0.31159289E+04</pdfrwt>
<pdfrwt beam="2">  1       -1 0.22225525E+00 0.31159289E+04</pdfrwt>
<totfact> 0.10319384E+00</totfact>
</mgrwt>
</event>
<event>
12    7  0.1740517E-007  0.2092282E+04  0.7818608E-02  0.8564651E-01
          2   -1    0    0  501    0  0.00000000000E+00  0.00000000000E+00  0.12145507279E+04  0.12145507279E+04  0.00000000000E+00 0. -1.
         -1   -1    0    0    0  501 -0.00000000000E+00 -0.00000000000E+00 -0.90108336233E+03  0.90108336233E+03  0.00000000000E+00 0.  1.
         24    2    1    2    0    0 -0.78411445445E+03 -0.32661610880E+03  0.20690024917E+03  0.87800473544E+03  0.81061964886E+02 0.  0.
        254    2    1    2    0    0  0.78411445445E+03  0.32661610880E+03  0.10656711640E+03  0.12376293548E+04  0.89378761983E+03 0.  0.
         23    2    4    4    0    0  0.29318383476E+03 -0.26115606157E+02 -0.35586325645E+03  0.47082802988E+03  0.91660190796E+02 0.  0.
         23    2    4    4    0    0  0.49093061969E+03  0.35273171495E+03  0.46243037286E+03  0.76680132492E+03  0.93326770412E+02 0.  0.
          4    1    3    3  502    0 -0.14853194084E+03 -0.34563666277E+02  0.18593924561E+02  0.15362980995E+03  0.00000000000E+00 0. -1.
         -3    1    3    3    0  502 -0.63558251361E+03 -0.29205244252E+03  0.18830632461E+03  0.72437492549E+03  0.00000000000E+00 0.  1.
         13    1    5    5    0    0 -0.25591477826E+00 -0.90716153695E+01 -0.32918545878E+02  0.34146601010E+02  0.00000000000E+00 0. -1.
        -13    1    5    5    0    0  0.29343974954E+03 -0.17043990787E+02 -0.32294471057E+03  0.43668142887E+03  0.00000000000E+00 0.  1.
          2    1    6    6  503    0  0.67542515981E+02  0.48703724428E+02  0.10843502314E+03  0.13671941516E+03  0.00000000000E+00 0. -1.
         -2    1    6    6    0  503  0.42338810371E+03  0.30402799053E+03  0.35399534971E+03  0.63008190976E+03  0.00000000000E+00 0.  1.
<mgrwt>
<rscale>  0 0.20922824E+04</rscale>
<asrwt>0</asrwt>
<pdfrwt beam="1">  1        2 0.18685396E+00 0.20922824E+04</pdfrwt>
<pdfrwt beam="2">  1       -1 0.13862821E+00 0.20922824E+04</pdfrwt>
<totfact> 0.83948230E+00</totfact>
</mgrwt>
</event>
<event>
12    7  0.1740517E-007  0.1799097E+04  0.7818608E-02  0.8706780E-01
          2   -1    0    0  501    0  0.00000000000E+00  0.00000000000E+00  0.16027445449E+04  0.16027445449E+04  0.00000000000E+00 0. -1.
         -1   -1    0    0    0  501 -0.00000000000E+00 -0.00000000000E+00 -0.50487630997E+03  0.50487630997E+03  0.00000000000E+00 0.  1.
         24    2    1    2    0    0  0.54559930581E+03 -0.26458317485E+03  0.75080227973E+03  0.96836415974E+03  0.79638079500E+02 0.  0.
        254    2    1    2    0    0 -0.54559930581E+03  0.26458317485E+03  0.34706595518E+03  0.11392566951E+04  0.89987120255E+03 0.  0.
         23    2    4    4    0    0 -0.78197943909E+03  0.13672153942E+03  0.23178874614E+03  0.83234433112E+03  0.94267917210E+02 0.  0.
         23    2    4    4    0    0  0.23638013328E+03  0.12786163543E+03  0.11527720904E+03  0.30691236399E+03  0.93178318405E+02 0.  0.
          2    1    3    3  502    0  0.20333397451E+03 -0.10361483062E+03  0.34479505917E+03  0.41347838050E+03  0.00000000000E+00 0. -1.
         -1    1    3    3    0  502  0.34226533130E+03 -0.16096834422E+03  0.40600722056E+03  0.55488577924E+03  0.00000000000E+00 0.  1.
         13    1    5    5    0    0 -0.50228024166E+03  0.42140937813E+02  0.13929954282E+03  0.52293944433E+03  0.00000000000E+00 0.  1.
        -13    1    5    5    0    0 -0.27969919742E+03  0.94580601607E+02  0.92489203318E+02  0.30940488679E+03  0.00000000000E+00 0. -1.
          1    1    6    6  503    0  0.17365868813E+02  0.49315607418E+01 -0.15459382415E+02  0.23767334635E+02  0.00000000000E+00 0. -1.
         -1    1    6    6    0  503  0.21901426446E+03  0.12293007469E+03  0.13073659145E+03  0.28314502935E+03  0.00000000000E+00 0.  1.
<mgrwt>
<rscale>  0 0.17990973E+04</rscale>
<asrwt>0</asrwt>
<pdfrwt beam="1">  1        2 0.24657608E+00 0.17990973E+04</pdfrwt>
<pdfrwt beam="2">  1       -1 0.77673279E-01 0.17990973E+04</pdfrwt>
<totfact> 0.19850952E+01</totfact>
</mgrwt>
</event>
<event>
12    7  0.1740517E-007  0.1499761E+04  0.7818608E-02  0.8884612E-01
          2   -1    0    0  501    0  0.00000000000E+00  0.00000000000E+00  0.31931829467E+04  0.31931829467E+04  0.00000000000E+00 0. -1.
         -1   -1    0    0    0  501 -0.00000000000E+00 -0.00000000000E+00 -0.17610028176E+03  0.17610028176E+03  0.00000000000E+00 0.  1.
         24    2    1    2    0    0 -0.96122373810E+02  0.10257516490E+03  0.19813903379E+04  0.19879545186E+04  0.79336761717E+02 0.  0.
        254    2    1    2    0    0  0.96122373810E+02 -0.10257516490E+03  0.10356923270E+04  0.13813287098E+04  0.90313300965E+03 0.  0.
         23    2    4    4    0    0  0.11196109371E+03 -0.19910270426E+03  0.11679940088E+04  0.11928373299E+04  0.80459416575E+02 0.  0.
         23    2    4    4    0    0 -0.15838719904E+02  0.96527539363E+02 -0.13230168174E+03  0.18849137993E+03  0.91961048357E+02 0.  0.
          2    1    3    3  502    0 -0.10763653217E+03  0.97129740043E+02  0.16624515155E+04  0.16687614721E+04  0.00000000000E+00 0. -1.
         -3    1    3    3    0  502  0.11514158358E+02  0.54454248550E+01  0.31893882236E+03  0.31919304645E+03  0.00000000000E+00 0.  1.
         13    1    5    5    0    0  0.45768876881E+02 -0.34692793179E+02  0.43217391289E+03  0.43597324570E+03  0.00000000000E+00 0. -1.
        -13    1    5    5    0    0  0.66192216833E+02 -0.16440991108E+03  0.73582009588E+03  0.75686408419E+03  0.00000000000E+00 0.  1.
          2    1    6    6  503    0  0.25040249335E+02  0.27567269705E+02 -0.90969020395E+02  0.98297157219E+02  0.00000000000E+00 0. -1.
         -2    1    6    6    0  503 -0.40878969240E+02  0.68960269658E+02 -0.41332661343E+02  0.90194222715E+02  0.00000000000E+00 0.  1.
<mgrwt>
<rscale>  0 0.14997605E+04</rscale>
<asrwt>0</asrwt>
<pdfrwt beam="1">  1        2 0.49125887E+00 0.14997605E+04</pdfrwt>
<pdfrwt beam="2">  1       -1 0.27092353E-01 0.14997605E+04</pdfrwt>
<totfact> 0.17746700E+01</totfact>
</mgrwt>
</event>
<event>
12    7  0.1740517E-007  0.1776481E+04  0.7818608E-02  0.8718908E-01
          2   -1    0    0  501    0  0.00000000000E+00  0.00000000000E+00  0.22895174987E+04  0.22895174987E+04  0.00000000000E+00 0. -1.
         -1   -1    0    0    0  501 -0.00000000000E+00 -0.00000000000E+00 -0.34460146550E+03  0.34460146550E+03  0.00000000000E+00 0.  1.
         24    2    1    2    0    0 -0.21013070130E+03 -0.68633248190E+02  0.16559915558E+04  0.16727593030E+04  0.83367970809E+02 0.  0.
        254    2    1    2    0    0  0.21013070130E+03  0.68633248190E+02  0.28892447747E+03  0.96135966125E+03  0.88987055812E+03 0.  0.
         23    2    4    4    0    0  0.17724619121E+03 -0.36149079990E+03 -0.34438535360E+02  0.41442833812E+03  0.92049030467E+02 0.  0.
         23    2    4    4    0    0  0.32884510093E+02  0.43012404809E+03  0.32336301283E+03  0.54693132313E+03  0.92098568998E+02 0.  0.
          2    1    3    3  502    0 -0.74423131217E+02 -0.15946265365E+00  0.79287325693E+03  0.79635848049E+03  0.00000000000E+00 0. -1.
         -1    1    3    3    0  502 -0.13570757009E+03 -0.68473785536E+02  0.86311829882E+03  0.87640082248E+03  0.00000000000E+00 0.  1.
         13    1    5    5    0    0  0.74739299304E+02 -0.11084420097E+03  0.27853426369E+02  0.13655846041E+03  0.00000000000E+00 0. -1.
        -13    1    5    5    0    0  0.10250689191E+03 -0.25064659893E+03 -0.62291961730E+02  0.27786987771E+03  0.00000000000E+00 0.  1.
          1    1    6    6  503    0  0.44100691668E+02  0.11535115835E+03  0.11880111792E+03  0.17136063246E+03  0.00000000000E+00 0. -1.
         -1    1    6    6    0  503 -0.11216181576E+02  0.31477288974E+03  0.20456189491E+03  0.37557069067E+03  0.00000000000E+00 0.  1.
<mgrwt>
<rscale>  0 0.17764809E+04</rscale>
<asrwt>0</asrwt>
<pdfrwt beam="1">  1        2 0.35223345E+00 0.17764809E+04</pdfrwt>
<pdfrwt beam="2">  1       -1 0.53015612E-01 0.17764809E+04</pdfrwt>
<totfact> 0.17768629E+01</totfact>
</mgrwt>
</event>
<event>
12    7  0.1740517E-007  0.1761473E+04  0.7818608E-02  0.8727060E-01
         -1   -1    0    0    0  501 -0.00000000000E+00  0.00000000000E+00  0.39124261969E+03  0.39124261969E+03  0.00000000000E+00 0.  1.
          2   -1    0    0  501    0  0.00000000000E+00 -0.00000000000E+00 -0.19826492169E+04  0.19826492169E+04  0.00000000000E+00 0. -1.
         24    2    1    2    0    0 -0.15992934592E+03  0.22486259966E+03  0.19959043075E+03  0.34984624053E+03  0.80096613850E+02 0.  0.
        254    2    1    2    0    0  0.15992934592E+03 -0.22486259966E+03 -0.17909970279E+04  0.20240455960E+04  0.90163719772E+03 0.  0.
         23    2    4    4    0    0  0.26074920815E+03  0.86653968030E+02 -0.10967260994E+03  0.30872991015E+03  0.88244072474E+02 0.  0.
         23    2    4    4    0    0 -0.10081986222E+03 -0.31151656769E+03 -0.16813244180E+04  0.17153156859E+04  0.90823384036E+02 0.  0.
          2    1    3    3  502    0 -0.76503501234E+02  0.49571105523E+02  0.83684039046E+02  0.12374610537E+03  0.00000000000E+00 0. -1.
         -1    1    3    3    0  502 -0.83425844690E+02  0.17529149414E+03  0.11590639171E+03  0.22610013516E+03  0.00000000000E+00 0.  1.
         13    1    5    5    0    0  0.19853450833E+03  0.45850624287E+02 -0.11529224406E+03  0.23411649299E+03  0.00000000000E+00 0. -1.
        -13    1    5    5    0    0  0.62214699814E+02  0.40803343743E+02  0.56196341253E+01  0.74613417166E+02  0.00000000000E+00 0.  1.
          1    1    6    6  503    0 -0.34961601163E+02 -0.18322165538E+03 -0.74747778494E+03  0.77039958952E+03  0.00000000000E+00 0. -1.
         -1    1    6    6    0  503 -0.65858261062E+02 -0.12829491231E+03 -0.93384663305E+03  0.94491609635E+03  0.00000000000E+00 0.  1.
<mgrwt>
<rscale>  0 0.17614731E+04</rscale>
<asrwt>0</asrwt>
<pdfrwt beam="1">  1        2 0.30502296E+00 0.17614731E+04</pdfrwt>
<pdfrwt beam="2">  1       -1 0.60191172E-01 0.17614731E+04</pdfrwt>
<totfact> 0.20621228E+01</totfact>
</mgrwt>
</event>
<event>
12    7  0.1740517E-007  0.1410887E+04  0.7818608E-02  0.8945975E-01
          2   -1    0    0  501    0  0.00000000000E+00  0.00000000000E+00  0.12303632432E+04  0.12303632432E+04  0.00000000000E+00 0. -1.
         -1   -1    0    0    0  501 -0.00000000000E+00 -0.00000000000E+00 -0.40447447436E+03  0.40447447436E+03  0.00000000000E+00 0.  1.
         24    2    1    2    0    0 -0.70737996435E+02 -0.75876200912E+01 -0.22530907402E+03  0.24953769014E+03  0.80271064801E+02 0.  0.
        254    2    1    2    0    0  0.70737996435E+02  0.75876200912E+01  0.10511978428E+04  0.13853000274E+04  0.89943194574E+03 0.  0.
         23    2    4    4    0    0 -0.31465217231E+03  0.26250306594E+03  0.60618737203E+03  0.73737436952E+03  0.91345397480E+02 0.  0.
         23    2    4    4    0    0  0.38539016874E+03 -0.25491544585E+03  0.44501047080E+03  0.64792565788E+03  0.90916842915E+02 0.  0.
          4    1    3    3  502    0  0.36908365252E+01 -0.90074904704E+01 -0.12099024054E+03  0.12138119898E+03  0.00000000000E+00 0. -1.
         -3    1    3    3    0  502 -0.74428832960E+02  0.14198703792E+01 -0.10431883348E+03  0.12815649116E+03  0.00000000000E+00 0.  1.
         13    1    5    5    0    0 -0.39900127809E+02  0.88318317151E+01  0.10008880507E+03  0.10811008441E+03  0.00000000000E+00 0. -1.
        -13    1    5    5    0    0 -0.27475204450E+03  0.25367123422E+03  0.50609856697E+03  0.62926428511E+03  0.00000000000E+00 0.  1.
          4    1    6    6  503    0  0.23981200470E+03 -0.20917280001E+03  0.30741514272E+03  0.44245579196E+03  0.00000000000E+00 0.  1.
         -4    1    6    6    0  503  0.14557816405E+03 -0.45742645840E+02  0.13759532808E+03  0.20546986593E+03  0.00000000000E+00 0. -1.
<mgrwt>
<rscale>  0 0.14108870E+04</rscale>
<asrwt>0</asrwt>
<pdfrwt beam="1">  1        2 0.18928665E+00 0.14108870E+04</pdfrwt>
<pdfrwt beam="2">  1       -1 0.62226843E-01 0.14108870E+04</pdfrwt>
<totfact> 0.52767184E+01</totfact>
</mgrwt>
</event>
<event>
12    7  0.1740517E-007  0.2062130E+04  0.7818608E-02  0.8578111E-01
         -1   -1    0    0    0  501 -0.00000000000E+00  0.00000000000E+00  0.22433763299E+04  0.22433763299E+04  0.00000000000E+00 0.  1.
          2   -1    0    0  501    0  0.00000000000E+00 -0.00000000000E+00 -0.47388168456E+03  0.47388168456E+03  0.00000000000E+00 0. -1.
         24    2    1    2    0    0 -0.15978369456E+03 -0.36400803431E+03 -0.24744537099E+03  0.47490208603E+03  0.79183973120E+02 0.  0.
        254    2    1    2    0    0  0.15978369456E+03  0.36400803431E+03  0.20169400163E+04  0.22423559285E+04  0.89558941612E+03 0.  0.
         23    2    4    4    0    0  0.39856216005E+03 -0.83171890360E+02  0.56040790880E+03  0.69737400238E+03  0.80648100910E+02 0.  0.
         23    2    4    4    0    0 -0.23877846549E+03  0.44717992467E+03  0.14565321075E+04  0.15449819261E+04  0.92186392651E+02 0.  0.
          4    1    3    3  502    0 -0.77783891014E+02 -0.26718006156E+03 -0.17658380315E+03  0.32957147712E+03  0.00000000000E+00 0. -1.
         -1    1    3    3    0  502 -0.81999803547E+02 -0.96827972749E+02 -0.70861567846E+02  0.14533060891E+03  0.00000000000E+00 0.  1.
         13    1    5    5    0    0  0.35213153383E+02  0.99772411174E+01  0.79157716318E+02  0.87209263064E+02  0.00000000000E+00 0.  1.
        -13    1    5    5    0    0  0.36334900666E+03 -0.93149131478E+02  0.48125019248E+03  0.61016473931E+03  0.00000000000E+00 0. -1.
          4    1    6    6  503    0 -0.22259083564E+03  0.41227013535E+03  0.12505378138E+04  0.13354243402E+04  0.00000000000E+00 0. -1.
         -4    1    6    6    0  503 -0.16187629847E+02  0.34909789316E+02  0.20599429372E+03  0.20955758587E+03  0.00000000000E+00 0.  1.
<mgrwt>
<rscale>  0 0.20621299E+04</rscale>
<asrwt>0</asrwt>
<pdfrwt beam="1">  1        2 0.72904876E-01 0.20621299E+04</pdfrwt>
<pdfrwt beam="2">  1       -1 0.34513481E+00 0.20621299E+04</pdfrwt>
<totfact> 0.11595529E+00</totfact>
</mgrwt>
</event>
<event>
12    7  0.1740517E-007  0.1225246E+04  0.7818608E-02  0.9091041E-01
         -1   -1    0    0    0  501 -0.00000000000E+00  0.00000000000E+00  0.12610890043E+03  0.12610890043E+03  0.00000000000E+00 0.  1.
          2   -1    0    0  501    0  0.00000000000E+00 -0.00000000000E+00 -0.29760539861E+04  0.29760539861E+04  0.00000000000E+00 0. -1.
         24    2    1    2    0    0 -0.13121262548E+03  0.15589598323E+03 -0.21424594973E+03  0.30608804174E+03  0.79172290913E+02 0.  0.
        254    2    1    2    0    0  0.13121262548E+03 -0.15589598323E+03 -0.26356991359E+04  0.27960748448E+04  0.91082615896E+03 0.  0.
         23    2    4    4    0    0  0.34673902437E+03  0.10438198507E+03 -0.46139663464E+03  0.59372741231E+03  0.92205400302E+02 0.  0.
         23    2    4    4    0    0 -0.21552639889E+03 -0.26027796830E+03 -0.21743025013E+04  0.22023474325E+04  0.92447805964E+02 0.  0.
          4    1    3    3  502    0 -0.17591954168E+02  0.31685526059E+02 -0.35693301795E+01  0.36416885246E+02  0.00000000000E+00 0. -1.
         -3    1    3    3    0  502 -0.11362067131E+03  0.12421045717E+03 -0.21067661955E+03  0.26967115649E+03  0.00000000000E+00 0.  1.
         13    1    5    5    0    0  0.12840280619E+02  0.25125174107E+02 -0.19836829979E+02  0.34491259819E+02  0.00000000000E+00 0. -1.
        -13    1    5    5    0    0  0.33389874375E+03  0.79256810962E+02 -0.44155980466E+03  0.55923615249E+03  0.00000000000E+00 0.  1.
          4    1    6    6  503    0 -0.21463141514E+03 -0.23805829188E+03 -0.21122365384E+04  0.21364179340E+04  0.00000000000E+00 0.  1.
         -4    1    6    6    0  503 -0.89498375012E+00 -0.22219676422E+02 -0.62065962912E+02  0.65929498470E+02  0.00000000000E+00 0. -1.
<mgrwt>
<rscale>  0 0.12252459E+04</rscale>
<asrwt>0</asrwt>
<pdfrwt beam="1">  1        2 0.45785438E+00 0.12252459E+04</pdfrwt>
<pdfrwt beam="2">  1       -1 0.19401373E-01 0.12252459E+04</pdfrwt>
<totfact> 0.44100702E+01</totfact>
</mgrwt>
</event>
<event>
12    7  0.1740517E-007  0.2992893E+04  0.7818608E-02  0.8245763E-01
         -1   -1    0    0    0  501 -0.00000000000E+00  0.00000000000E+00  0.96755093142E+03  0.96755093142E+03  0.00000000000E+00 0.  1.
          2   -1    0    0  501    0  0.00000000000E+00 -0.00000000000E+00 -0.23144539262E+04  0.23144539262E+04  0.00000000000E+00 0. -1.
         24    2    1    2    0    0  0.12233150541E+04 -0.36582648378E+03 -0.11235301372E+04  0.17026837532E+04  0.80518670845E+02 0.  0.
        254    2    1    2    0    0 -0.12233150541E+04  0.36582648378E+03 -0.22337285759E+03  0.15793211045E+04  0.90223665401E+03 0.  0.
         23    2    4    4    0    0  0.28585179654E+01  0.27194167820E+03  0.10234672990E+03  0.30387767301E+03  0.88917599884E+02 0.  0.
         23    2    4    4    0    0 -0.12261735720E+04  0.93884805582E+02 -0.32571958749E+03  0.12754434315E+04  0.91360340199E+02 0.  0.
          4    1    3    3  502    0  0.70043859413E+02 -0.16412387482E+02 -0.89349634347E+02  0.11471209989E+03  0.00000000000E+00 0. -1.
         -3    1    3    3    0  502  0.11532711946E+04 -0.34941409630E+03 -0.10341805029E+04  0.15879716533E+04  0.00000000000E+00 0.  1.
         13    1    5    5    0    0  0.19243557424E+02  0.68413449781E+01  0.93445795333E+01  0.22459734417E+02  0.00000000000E+00 0.  1.
        -13    1    5    5    0    0 -0.16385039459E+02  0.26510033322E+03  0.93002150371E+02  0.28141793860E+03  0.00000000000E+00 0. -1.
          1    1    6    6  503    0 -0.11844826977E+04  0.10731403936E+03 -0.31290391210E+03  0.12298066606E+04  0.00000000000E+00 0. -1.
         -1    1    6    6    0  503 -0.41690874274E+02 -0.13429233776E+02 -0.12815675399E+02  0.45636770849E+02  0.00000000000E+00 0.  1.
<mgrwt>
<rscale>  0 0.29928929E+04</rscale>
<asrwt>0</asrwt>
<pdfrwt beam="1">  1        2 0.35606984E+00 0.29928929E+04</pdfrwt>
<pdfrwt beam="2">  1       -1 0.14885399E+00 0.29928929E+04</pdfrwt>
<totfact> 0.15428308E+00</totfact>
</mgrwt>
</event>
<event>
12    7  0.1740517E-007  0.1498622E+04  0.7818608E-02  0.8885370E-01
         -1   -1    0    0    0  501 -0.00000000000E+00  0.00000000000E+00  0.31703158789E+03  0.31703158789E+03  0.00000000000E+00 0.  1.
          2   -1    0    0  501    0  0.00000000000E+00 -0.00000000000E+00 -0.17710128289E+04  0.17710128289E+04  0.00000000000E+00 0. -1.
         24    2    1    2    0    0  0.11146542078E+03  0.18127561776E+03  0.12310202757E+03  0.25796229351E+03  0.78134794139E+02 0.  0.
        254    2    1    2    0    0 -0.11146542078E+03 -0.18127561776E+03 -0.15770832685E+04  0.18300821233E+04  0.90372758745E+03 0.  0.
         23    2    4    4    0    0 -0.13643580044E+03 -0.16278920226E+03  0.16563685444E+02  0.23347434802E+03  0.95503211968E+02 0.  0.
         23    2    4    4    0    0  0.24970379656E+02 -0.18486415504E+02 -0.15936469540E+04  0.15966077752E+04  0.92089665877E+02 0.  0.
          2    1    3    3  502    0  0.35047603632E+02  0.15057476285E+02  0.12742216459E+01  0.38166552808E+02  0.00000000000E+00 0. -1.
         -1    1    3    3    0  502  0.76417817148E+02  0.16621814148E+03  0.12182780592E+03  0.21979574070E+03  0.00000000000E+00 0.  1.
         13    1    5    5    0    0 -0.44446863949E+01 -0.61999229167E+02  0.25443064855E+02  0.67164046957E+02  0.00000000000E+00 0. -1.
        -13    1    5    5    0    0 -0.13199111404E+03 -0.10078997309E+03 -0.88793794104E+01  0.16631030107E+03  0.00000000000E+00 0.  1.
          3    1    6    6  503    0  0.65778837699E+01 -0.20182734401E+02 -0.77677569662E+02  0.80525872559E+02  0.00000000000E+00 0. -1.
         -3    1    6    6    0  503  0.18392495886E+02  0.16963188970E+01 -0.15159693843E+04  0.15160819027E+04  0.00000000000E+00 0.  1.
<mgrwt>
<rscale>  0 0.14986220E+04</rscale>
<asrwt>0</asrwt>
<pdfrwt beam="1">  1        2 0.27246352E+00 0.14986220E+04</pdfrwt>
<pdfrwt beam="2">  1       -1 0.48774090E-01 0.14986220E+04</pdfrwt>
<totfact> 0.41479162E+01</totfact>
</mgrwt>
</event>
<event>
12    7  0.1740517E-007  0.1518976E+04  0.7818608E-02  0.8871931E-01
          2   -1    0    0  501    0  0.00000000000E+00  0.00000000000E+00  0.27963819752E+04  0.27963819752E+04  0.00000000000E+00 0. -1.
         -1   -1    0    0    0  501 -0.00000000000E+00 -0.00000000000E+00 -0.20627453637E+03  0.20627453637E+03  0.00000000000E+00 0.  1.
         24    2    1    2    0    0  0.41315077579E+02 -0.64741014443E+02  0.17828725770E+04  0.17864438953E+04  0.82757662343E+02 0.  0.
        254    2    1    2    0    0 -0.41315077579E+02  0.64741014443E+02  0.80723486177E+03  0.12162126162E+04  0.90644727987E+03 0.  0.
         23    2    4    4    0    0 -0.80585944048E+02 -0.36792372178E+03  0.13618108676E+03  0.41134370029E+03  0.93789082271E+02 0.  0.
         23    2    4    4    0    0  0.39270866470E+02  0.43266473622E+03  0.67105377501E+03  0.80486891592E+03  0.93593952393E+02 0.  0.
          2    1    3    3  502    0  0.54675865867E+02 -0.64816832845E+02  0.17235741148E+04  0.17256588311E+04  0.00000000000E+00 0. -1.
         -1    1    3    3    0  502 -0.13360788289E+02  0.75818402771E-01  0.59298462242E+02  0.60785064254E+02  0.00000000000E+00 0.  1.
         13    1    5    5    0    0 -0.84040292790E+02 -0.32567321455E+03  0.89004058839E+02  0.34791886407E+03  0.00000000000E+00 0. -1.
        -13    1    5    5    0    0  0.34543487412E+01 -0.42250507234E+02  0.47177027920E+02  0.63424836224E+02  0.00000000000E+00 0.  1.
          4    1    6    6  503    0 -0.15714475781E+02  0.29824639354E+03  0.43295077356E+03  0.52596979794E+03  0.00000000000E+00 0. -1.
         -4    1    6    6    0  503  0.54985342251E+02  0.13441834268E+03  0.23810300145E+03  0.27889911798E+03  0.00000000000E+00 0.  1.
<mgrwt>
<rscale>  0 0.15189765E+04</rscale>
<asrwt>0</asrwt>
<pdfrwt beam="1">  1        2 0.43021258E+00 0.15189765E+04</pdfrwt>
<pdfrwt beam="2">  1       -1 0.31734546E-01 0.15189765E+04</pdfrwt>
<totfact> 0.23713682E+01</totfact>
</mgrwt>
</event>
<event>
12    7  0.1740517E-007  0.1751212E+04  0.7818608E-02  0.8732683E-01
         -1   -1    0    0    0  501 -0.00000000000E+00  0.00000000000E+00  0.49592007146E+03  0.49592007146E+03  0.00000000000E+00 0.  1.
          2   -1    0    0  501    0  0.00000000000E+00 -0.00000000000E+00 -0.15459866995E+04  0.15459866995E+04  0.00000000000E+00 0. -1.
         24    2    1    2    0    0 -0.13782184745E+03 -0.52051602556E+03  0.15885476169E+02  0.54448211425E+03  0.79225184682E+02 0.  0.
        254    2    1    2    0    0  0.13782184745E+03  0.52051602556E+03 -0.10659521042E+04  0.14974246567E+04  0.90337972056E+03 0.  0.
         23    2    4    4    0    0  0.30906143312E+03  0.24541418728E+02 -0.19955348091E+02  0.32370844259E+03  0.90926834371E+02 0.  0.
         23    2    4    4    0    0 -0.17123958567E+03  0.49597460683E+03 -0.10459967561E+04  0.11737162141E+04  0.90480556717E+02 0.  0.
          4    1    3    3  502    0 -0.10140112127E+03 -0.24110514966E+03 -0.81230462152E+01  0.26168657678E+03  0.00000000000E+00 0. -1.
         -3    1    3    3    0  502 -0.36420726181E+02 -0.27941087590E+03  0.24008522384E+02  0.28279553747E+03  0.00000000000E+00 0.  1.
         13    1    5    5    0    0  0.25429665781E+03  0.33398290889E+02  0.17011172068E+02  0.25704399620E+03  0.00000000000E+00 0. -1.
        -13    1    5    5    0    0  0.54764775311E+02 -0.88568721617E+01 -0.36966520159E+02  0.66664446386E+02  0.00000000000E+00 0.  1.
          2    1    6    6  503    0 -0.17235345599E+03  0.45572733590E+03 -0.10013544467E+04  0.11135995000E+04  0.00000000000E+00 0. -1.
         -2    1    6    6    0  503  0.11138703199E+01  0.40247270935E+02 -0.44642309370E+02  0.60116714071E+02  0.00000000000E+00 0.  1.
<mgrwt>
<rscale>  0 0.17512120E+04</rscale>
<asrwt>0</asrwt>
<pdfrwt beam="1">  1        2 0.23784411E+00 0.17512120E+04</pdfrwt>
<pdfrwt beam="2">  1       -1 0.76295396E-01 0.17512120E+04</pdfrwt>
<totfact> 0.22270921E+01</totfact>
</mgrwt>
</event>
<event>
12    7  0.1740517E-007  0.1185396E+04  0.7818608E-02  0.9125737E-01
         -3   -1    0    0    0  501 -0.00000000000E+00  0.00000000000E+00  0.20532084750E+03  0.20532084750E+03  0.00000000000E+00 0.  1.
          2   -1    0    0  501    0  0.00000000000E+00 -0.00000000000E+00 -0.17109352037E+04  0.17109352037E+04  0.00000000000E+00 0. -1.
         24    2    1    2    0    0 -0.39921109996E+02 -0.18296747520E+03 -0.59470458690E+03  0.62853801526E+03  0.79471371844E+02 0.  0.
        254    2    1    2    0    0  0.39921109996E+02  0.18296747520E+03 -0.91090976928E+03  0.12877180359E+04  0.89072461526E+03 0.  0.
         23    2    4    4    0    0  0.18314034125E+03  0.47575493304E+03 -0.32608725225E+03  0.61191076859E+03  0.90657331422E+02 0.  0.
         23    2    4    4    0    0 -0.14321923125E+03 -0.29278745783E+03 -0.58482251703E+03  0.67580726732E+03  0.91988273524E+02 0.  0.
          2    1    3    3  502    0 -0.18375657930E+02 -0.16735080421E+03 -0.56027942659E+03  0.58502734324E+03  0.00000000000E+00 0. -1.
         -3    1    3    3    0  502 -0.21545452066E+02 -0.15616670989E+02 -0.34425160307E+02  0.43510672020E+02  0.00000000000E+00 0.  1.
         13    1    5    5    0    0  0.58205601554E+02  0.74742647398E+02 -0.86924570356E+02  0.12856996665E+03  0.00000000000E+00 0.  1.
        -13    1    5    5    0    0  0.12493473970E+03  0.40101228564E+03 -0.23916268189E+03  0.48334080195E+03  0.00000000000E+00 0. -1.
          3    1    6    6  503    0 -0.11680927105E+03 -0.25233881845E+03 -0.41728141319E+03  0.50144098646E+03  0.00000000000E+00 0. -1.
         -3    1    6    6    0  503 -0.26409960201E+02 -0.40448639378E+02 -0.16754110384E+03  0.17436628086E+03  0.00000000000E+00 0.  1.
<mgrwt>
<rscale>  0 0.11853956E+04</rscale>
<asrwt>0</asrwt>
<pdfrwt beam="1">  1        2 0.26322080E+00 0.11853956E+04</pdfrwt>
<pdfrwt beam="2">  1       -3 0.31587823E-01 0.11853956E+04</pdfrwt>
<totfact> 0.60568886E+01</totfact>
</mgrwt>
</event>
<event>
12    7  0.1740517E-007  0.3226071E+04  0.7818608E-02  0.8181966E-01
          2   -1    0    0  501    0  0.00000000000E+00  0.00000000000E+00  0.21427540688E+04  0.21427540688E+04  0.00000000000E+00 0. -1.
         -1   -1    0    0    0  501 -0.00000000000E+00 -0.00000000000E+00 -0.12142708208E+04  0.12142708208E+04  0.00000000000E+00 0.  1.
         24    2    1    2    0    0  0.51388361800E+03 -0.38479533947E+03 -0.96751401617E+03  0.11639185617E+04  0.80493607042E+02 0.  0.
        254    2    1    2    0    0 -0.51388361800E+03  0.38479533947E+03  0.18959972642E+04  0.21931063279E+04  0.89597204943E+03 0.  0.
         23    2    4    4    0    0 -0.23511838521E+03 -0.15724575019E+03  0.13079110117E+04  0.13412932114E+04  0.91811672983E+02 0.  0.
         23    2    4    4    0    0 -0.27876523279E+03  0.54204108965E+03  0.58808625249E+03  0.85181311650E+03  0.90672747764E+02 0.  0.
          4    1    3    3  502    0 -0.28053789786E+00 -0.11709083115E+02 -0.15925695747E+02  0.19768892583E+02  0.00000000000E+00 0. -1.
         -3    1    3    3    0  502  0.51416415590E+03 -0.37308625635E+03 -0.95158832042E+03  0.11441496692E+04  0.00000000000E+00 0.  1.
         13    1    5    5    0    0 -0.16826322742E+02 -0.33009920087E+02  0.82973541121E+02  0.90870173805E+02  0.00000000000E+00 0. -1.
        -13    1    5    5    0    0 -0.21829206246E+03 -0.12423583010E+03  0.12249374706E+04  0.12504230376E+04  0.00000000000E+00 0.  1.
          4    1    6    6  503    0 -0.35690068566E+02  0.56418952525E+02  0.10801173146E+03  0.12697800334E+03  0.00000000000E+00 0. -1.
         -4    1    6    6    0  503 -0.24307516423E+03  0.48562213713E+03  0.48007452103E+03  0.72483511317E+03  0.00000000000E+00 0.  1.
<mgrwt>
<rscale>  0 0.32260711E+04</rscale>
<asrwt>0</asrwt>
<pdfrwt beam="1">  1        2 0.32965447E+00 0.32260711E+04</pdfrwt>
<pdfrwt beam="2">  1       -1 0.18681090E+00 0.32260711E+04</pdfrwt>
<totfact> 0.98870929E-01</totfact>
</mgrwt>
</event>
<event>
12    7  0.1740517E-007  0.1361395E+04  0.7818608E-02  0.8982247E-01
          2   -1    0    0  501    0  0.00000000000E+00  0.00000000000E+00  0.33809683864E+04  0.33809683864E+04  0.00000000000E+00 0. -1.
         -1   -1    0    0    0  501 -0.00000000000E+00 -0.00000000000E+00 -0.13704623330E+03  0.13704623330E+03  0.00000000000E+00 0.  1.
         24    2    1    2    0    0  0.10087806583E+03  0.12098123164E+03  0.18289502679E+04  0.18374674773E+04  0.80092479573E+02 0.  0.
        254    2    1    2    0    0 -0.10087806583E+03 -0.12098123164E+03  0.14149718852E+04  0.16805471424E+04  0.89290560486E+03 0.  0.
         23    2    4    4    0    0 -0.26057042348E+03 -0.35892935456E+03  0.34677007059E+03  0.57043449414E+03  0.91754035828E+02 0.  0.
         23    2    4    4    0    0  0.15969235766E+03  0.23794812292E+03  0.10682018146E+04  0.11101126482E+04  0.95781087257E+02 0.  0.
          2    1    3    3  502    0  0.38728321599E+02  0.91479488036E+02  0.13433622498E+04  0.13470302572E+04  0.00000000000E+00 0. -1.
         -1    1    3    3    0  502  0.62149744229E+02  0.29501743606E+02  0.48558801807E+03  0.49043722012E+03  0.00000000000E+00 0.  1.
         13    1    5    5    0    0 -0.17373427174E+03 -0.23466643434E+03  0.28083980501E+03  0.40512088154E+03  0.00000000000E+00 0.  1.
        -13    1    5    5    0    0 -0.86836151741E+02 -0.12426292022E+03  0.65930265577E+02  0.16531361260E+03  0.00000000000E+00 0. -1.
          4    1    6    6  503    0  0.99061557558E+02  0.15429714276E+03  0.83745459198E+03  0.85729282866E+03  0.00000000000E+00 0. -1.
         -4    1    6    6    0  503  0.60630800098E+02  0.83650980165E+02  0.23074722266E+03  0.25281981957E+03  0.00000000000E+00 0.  1.
<mgrwt>
<rscale>  0 0.13613948E+04</rscale>
<asrwt>0</asrwt>
<pdfrwt beam="1">  1        2 0.52014892E+00 0.13613948E+04</pdfrwt>
<pdfrwt beam="2">  1       -1 0.21084038E-01 0.13613948E+04</pdfrwt>
<totfact> 0.20772008E+01</totfact>
</mgrwt>
</event>
<event>
12    7  0.1740517E-007  0.1537737E+04  0.7818608E-02  0.8859739E-01
         -1   -1    0    0    0  501 -0.00000000000E+00  0.00000000000E+00  0.28295538415E+03  0.28295538415E+03  0.00000000000E+00 0.  1.
          2   -1    0    0  501    0  0.00000000000E+00 -0.00000000000E+00 -0.20892286258E+04  0.20892286258E+04  0.00000000000E+00 0. -1.
         24    2    1    2    0    0 -0.80832502128E+02  0.35950123579E+03 -0.10670561563E+04  0.11319771786E+04  0.83597011434E+02 0.  0.
        254    2    1    2    0    0  0.80832502128E+02 -0.35950123579E+03 -0.73921708532E+03  0.12402068313E+04  0.92514650364E+03 0.  0.
         23    2    4    4    0    0 -0.37602134172E+03 -0.47926719702E+02 -0.48877756020E+03  0.62541680574E+03  0.92485986282E+02 0.  0.
         23    2    4    4    0    0  0.45685384385E+03 -0.31157451609E+03 -0.25043952512E+03  0.61479002554E+03  0.97225027886E+02 0.  0.
          4    1    3    3  502    0 -0.27953299149E+02  0.24996474506E+03 -0.79810489051E+03  0.83680055985E+03  0.00000000000E+00 0. -1.
         -3    1    3    3    0  502 -0.52879202979E+02  0.10953649073E+03 -0.26895126579E+03  0.29517661878E+03  0.00000000000E+00 0.  1.
         13    1    5    5    0    0 -0.16518917283E+03 -0.50368006927E+02 -0.16373529707E+03  0.23797824785E+03  0.00000000000E+00 0.  1.
        -13    1    5    5    0    0 -0.21083216889E+03  0.24412872251E+01 -0.32504226313E+03  0.38743855790E+03  0.00000000000E+00 0. -1.
          1    1    6    6  503    0  0.18766984682E+03 -0.91310832517E+02 -0.55019809683E+02  0.21583516626E+03  0.00000000000E+00 0. -1.
         -1    1    6    6    0  503  0.26918399703E+03 -0.22026368357E+03 -0.19541971544E+03  0.39895485928E+03  0.00000000000E+00 0.  1.
<mgrwt>
<rscale>  0 0.15377366E+04</rscale>
<asrwt>0</asrwt>
<pdfrwt beam="1">  1        2 0.32141979E+00 0.15377366E+04</pdfrwt>
<pdfrwt beam="2">  1       -1 0.43531597E-01 0.15377366E+04</pdfrwt>
<totfact> 0.34082819E+01</totfact>
</mgrwt>
</event>
<event>
12    7  0.1740517E-007  0.1784230E+04  0.7818608E-02  0.8714731E-01
          2   -1    0    0  501    0  0.00000000000E+00  0.00000000000E+00  0.10375409539E+04  0.10375409539E+04  0.00000000000E+00 0. -1.
         -1   -1    0    0    0  501 -0.00000000000E+00 -0.00000000000E+00 -0.76707247674E+03  0.76707247674E+03  0.00000000000E+00 0.  1.
         24    2    1    2    0    0 -0.20818584569E+02 -0.19085937339E+03  0.74912265253E+03  0.77725289661E+03  0.77952568088E+02 0.  0.
        254    2    1    2    0    0  0.20818584569E+02  0.19085937339E+03 -0.47865417535E+03  0.10273605341E+04  0.88853763763E+03 0.  0.
         23    2    4    4    0    0  0.36567647427E+03  0.85618167122E+02  0.41230409156E+02  0.38856453408E+03  0.90734205946E+02 0.  0.
         23    2    4    4    0    0 -0.34485788970E+03  0.10524120627E+03 -0.51988458451E+03  0.63879599998E+03  0.88191115159E+02 0.  0.
          2    1    3    3  502    0 -0.50459908528E+02 -0.10801802429E+03  0.43387359290E+03  0.44995598735E+03  0.00000000000E+00 0. -1.
         -1    1    3    3    0  502  0.29641323958E+02 -0.82841349106E+02  0.31524905963E+03  0.32729690925E+03  0.00000000000E+00 0.  1.
         13    1    5    5    0    0  0.89110672919E+02  0.20617674256E+02 -0.28924413826E+02  0.95929256408E+02  0.00000000000E+00 0.  1.
        -13    1    5    5    0    0  0.27656580135E+03  0.65000492866E+02  0.70154822982E+02  0.29263527767E+03  0.00000000000E+00 0. -1.
          3    1    6    6  503    0 -0.23055387864E+03  0.11155364397E+03 -0.37556184744E+03  0.45458333415E+03  0.00000000000E+00 0. -1.
         -3    1    6    6    0  503 -0.11430401106E+03 -0.63124377053E+01 -0.14432273707E+03  0.18421266582E+03  0.00000000000E+00 0.  1.
<mgrwt>
<rscale>  0 0.17842299E+04</rscale>
<asrwt>0</asrwt>
<pdfrwt beam="1">  1        2 0.15962169E+00 0.17842299E+04</pdfrwt>
<pdfrwt beam="2">  1       -1 0.11801115E+00 0.17842299E+04</pdfrwt>
<totfact> 0.16577790E+01</totfact>
</mgrwt>
</event>
<event>
12    7  0.1740517E-007  0.1229877E+04  0.7818608E-02  0.9087099E-01
         -1   -1    0    0    0  501 -0.00000000000E+00  0.00000000000E+00  0.31767026624E+03  0.31767026624E+03  0.00000000000E+00 0.  1.
          2   -1    0    0  501    0  0.00000000000E+00 -0.00000000000E+00 -0.11903841706E+04  0.11903841706E+04  0.00000000000E+00 0. -1.
         24    2    1    2    0    0  0.22423006794E+03 -0.10248644289E+03 -0.57633530743E+02  0.26575690189E+03  0.80762074589E+02 0.  0.
        254    2    1    2    0    0 -0.22423006794E+03  0.10248644289E+03 -0.81508037365E+03  0.12422975350E+04  0.90452449142E+03 0.  0.
         23    2    4    4    0    0  0.42989089230E+02 -0.68024496943E+02 -0.89521549889E+03  0.90344997522E+03  0.91299913967E+02 0.  0.
         23    2    4    4    0    0 -0.26721915717E+03  0.17051093984E+03  0.80135125239E+02  0.33884755977E+03  0.88971747779E+02 0.  0.
          2    1    3    3  502    0  0.42672388020E+02 -0.57759650914E+02 -0.24370718402E+02  0.75835624139E+02  0.00000000000E+00 0. -1.
         -1    1    3    3    0  502  0.18155767992E+03 -0.44726791978E+02 -0.33262812341E+02  0.18992127775E+03  0.00000000000E+00 0.  1.
         13    1    5    5    0    0 -0.22445979868E+01  0.19410784299E+02 -0.81915797046E+02  0.84214099609E+02  0.00000000000E+00 0. -1.
        -13    1    5    5    0    0  0.45233687217E+02 -0.87435281242E+02 -0.81329970184E+03  0.81923587561E+03  0.00000000000E+00 0.  1.
          2    1    6    6  503    0 -0.21127912574E+03  0.17143377208E+03  0.55344139600E+02  0.27765334677E+03  0.00000000000E+00 0.  1.
         -2    1    6    6    0  503 -0.55940031433E+02 -0.92283224844E+00  0.24790985639E+02  0.61194213002E+02  0.00000000000E+00 0. -1.
<mgrwt>
<rscale>  0 0.12298775E+04</rscale>
<asrwt>0</asrwt>
<pdfrwt beam="1">  1        2 0.18313603E+00 0.12298775E+04</pdfrwt>
<pdfrwt beam="2">  1       -1 0.48872349E-01 0.12298775E+04</pdfrwt>
<totfact> 0.90307771E+01</totfact>
</mgrwt>
</event>
<event>
12    7  0.1740517E-007  0.2528730E+04  0.7818608E-02  0.8392821E-01
          2   -1    0    0  501    0  0.00000000000E+00  0.00000000000E+00  0.38346699979E+04  0.38346699979E+04  0.00000000000E+00 0. -1.
         -1   -1    0    0    0  501 -0.00000000000E+00 -0.00000000000E+00 -0.41688562594E+03  0.41688562594E+03  0.00000000000E+00 0.  1.
         24    2    1    2    0    0 -0.52082846588E+03 -0.21468140700E+03  0.30578712581E+04  0.31103365535E+04  0.79160894446E+02 0.  0.
        254    2    1    2    0    0  0.52082846588E+03  0.21468140700E+03  0.35991311386E+03  0.11412190704E+04  0.92492871061E+03 0.  0.
         23    2    4    4    0    0 -0.25332853874E+03  0.25449591404E+02  0.16259643481E+03  0.31520210285E+03  0.89954070430E+02 0.  0.
         23    2    4    4    0    0  0.77415700462E+03  0.18923181560E+03  0.19731667905E+03  0.82601696754E+03  0.90787724948E+02 0.  0.
          4    1    3    3  502    0 -0.40264239199E+03 -0.19964721479E+03  0.24581388798E+04  0.24988850831E+04  0.00000000000E+00 0. -1.
         -3    1    3    3    0  502 -0.11818607389E+03 -0.15034192217E+02  0.59973237833E+03  0.61145147037E+03  0.00000000000E+00 0.  1.
         13    1    5    5    0    0 -0.15941549642E+03  0.22208432358E+02  0.49992987950E+02  0.16854024389E+03  0.00000000000E+00 0. -1.
        -13    1    5    5    0    0 -0.93913042320E+02  0.32411590458E+01  0.11260344686E+03  0.14666185896E+03  0.00000000000E+00 0.  1.
          3    1    6    6  503    0  0.29524830252E+03  0.93106185906E+02  0.11723551557E+03  0.33103547862E+03  0.00000000000E+00 0. -1.
         -3    1    6    6    0  503  0.47890870210E+03  0.96125629694E+02  0.80081163478E+02  0.49498148892E+03  0.00000000000E+00 0.  1.
<mgrwt>
<rscale>  0 0.25287300E+04</rscale>
<asrwt>0</asrwt>
<pdfrwt beam="1">  1        2 0.58994920E+00 0.25287300E+04</pdfrwt>
<pdfrwt beam="2">  1       -1 0.64136253E-01 0.25287300E+04</pdfrwt>
<totfact> 0.11552640E+00</totfact>
</mgrwt>
</event>
<event>
12    7  0.1740517E-007  0.1934912E+04  0.7818608E-02  0.8637671E-01
          2   -1    0    0  501    0  0.00000000000E+00  0.00000000000E+00  0.13560011642E+04  0.13560011642E+04  0.00000000000E+00 0. -1.
         -1   -1    0    0    0  501 -0.00000000000E+00 -0.00000000000E+00 -0.69024361641E+03  0.69024361641E+03  0.00000000000E+00 0.  1.
         24    2    1    2    0    0  0.11331602686E+03  0.39296475517E+03  0.95076206349E+03  0.10380365587E+04  0.79432833557E+02 0.  0.
        254    2    1    2    0    0 -0.11331602686E+03 -0.39296475517E+03 -0.28500451573E+03  0.10082082219E+04  0.87635291063E+03 0.  0.
         23    2    4    4    0    0  0.30630288610E+03  0.76877299548E+02 -0.12493852021E+03  0.35178265485E+03  0.91705099083E+02 0.  0.
         23    2    4    4    0    0 -0.41961891296E+03 -0.46984205472E+03 -0.16006599552E+03  0.65642556706E+03  0.91879342997E+02 0.  0.
          2    1    3    3  502    0  0.92638624135E+02  0.19278126960E+03  0.53352587286E+03  0.57480117397E+03  0.00000000000E+00 0. -1.
         -1    1    3    3    0  502  0.20677402723E+02  0.20018348556E+03  0.41723619064E+03  0.46323538472E+03  0.00000000000E+00 0.  1.
         13    1    5    5    0    0  0.12836715858E+03 -0.94556798691E+01 -0.28880009260E+02  0.13191509473E+03  0.00000000000E+00 0.  1.
        -13    1    5    5    0    0  0.17793572752E+03  0.86332979417E+02 -0.96058510952E+02  0.21986756011E+03  0.00000000000E+00 0. -1.
          1    1    6    6  503    0 -0.36473005499E+03 -0.41428179895E+03 -0.17035755668E+03  0.57764965080E+03  0.00000000000E+00 0. -1.
         -1    1    6    6    0  503 -0.54888857975E+02 -0.55560255768E+02  0.10291561166E+02  0.78775916257E+02  0.00000000000E+00 0.  1.
<mgrwt>
<rscale>  0 0.19349120E+04</rscale>
<asrwt>0</asrwt>
<pdfrwt beam="1">  1        2 0.20861556E+00 0.19349120E+04</pdfrwt>
<pdfrwt beam="2">  1       -1 0.10619133E+00 0.19349120E+04</pdfrwt>
<totfact> 0.13540096E+01</totfact>
</mgrwt>
</event>
<event>
12    7  0.1740517E-007  0.2240188E+04  0.7818608E-02  0.8501885E-01
          2   -1    0    0  501    0  0.00000000000E+00  0.00000000000E+00  0.16108793626E+04  0.16108793626E+04  0.00000000000E+00 0. -1.
         -1   -1    0    0    0  501 -0.00000000000E+00 -0.00000000000E+00 -0.77883574532E+03  0.77883574532E+03  0.00000000000E+00 0.  1.
         24    2    1    2    0    0 -0.67645084124E+02 -0.34358368689E+03 -0.56892276370E+03  0.67269295315E+03  0.78848531070E+02 0.  0.
        254    2    1    2    0    0  0.67645084124E+02  0.34358368689E+03  0.14009663810E+04  0.17170221548E+04  0.92888786838E+03 0.  0.
         23    2    4    4    0    0 -0.15315635553E+03  0.23652623632E+03  0.42394467069E+01  0.29597905611E+03  0.90466010439E+02 0.  0.
         23    2    4    4    0    0  0.22080143965E+03  0.10705745057E+03  0.13967269343E+04  0.14210430986E+04  0.91119623769E+02 0.  0.
          4    1    3    3  502    0 -0.13204056425E+02 -0.23616586759E+03 -0.34253432878E+03  0.41626725851E+03  0.00000000000E+00 0. -1.
         -3    1    3    3    0  502 -0.54441027700E+02 -0.10741781930E+03 -0.22638843492E+03  0.25642569463E+03  0.00000000000E+00 0.  1.
         13    1    5    5    0    0 -0.13061679731E+03  0.19828216885E+03 -0.30797060415E+02  0.23942645041E+03  0.00000000000E+00 0. -1.
        -13    1    5    5    0    0 -0.22539558214E+02  0.38244067466E+02  0.35036507122E+02  0.56552605706E+02  0.00000000000E+00 0.  1.
          1    1    6    6  503    0  0.89941621626E+02 -0.23920330451E+01  0.54854915165E+03  0.55587893367E+03  0.00000000000E+00 0. -1.
         -1    1    6    6    0  503  0.13085981802E+03  0.10944948362E+03  0.84817778261E+03  0.86516416497E+03  0.00000000000E+00 0.  1.
<mgrwt>
<rscale>  0 0.22401879E+04</rscale>
<asrwt>0</asrwt>
<pdfrwt beam="1">  1        2 0.24782759E+00 0.22401879E+04</pdfrwt>
<pdfrwt beam="2">  1       -1 0.11982088E+00 0.22401879E+04</pdfrwt>
<totfact> 0.70898657E+00</totfact>
</mgrwt>
</event>
<event>
12    7  0.1740517E-007  0.1749386E+04  0.7818608E-02  0.8733688E-01
         -1   -1    0    0    0  501 -0.00000000000E+00  0.00000000000E+00  0.20520916086E+04  0.20520916086E+04  0.00000000000E+00 0.  1.
          2   -1    0    0  501    0  0.00000000000E+00 -0.00000000000E+00 -0.37283306123E+03  0.37283306123E+03  0.00000000000E+00 0. -1.
         24    2    1    2    0    0  0.21480857972E+02 -0.44413011392E+03 -0.22291766729E+02  0.45253891124E+03  0.81126801819E+02 0.  0.
        254    2    1    2    0    0 -0.21480857972E+02  0.44413011392E+03  0.17015503141E+04  0.19723857586E+04  0.89292727807E+03 0.  0.
         23    2    4    4    0    0  0.41136658252E+03  0.23863475926E+03  0.63347759385E+03  0.79811382705E+03  0.97584862948E+02 0.  0.
         23    2    4    4    0    0 -0.43284744049E+03  0.20549535466E+03  0.10680727203E+04  0.11742719316E+04  0.92466133990E+02 0.  0.
          4    1    3    3  502    0  0.34018268697E+02 -0.39505913130E+03  0.16346399118E+01  0.39652444045E+03  0.00000000000E+00 0. -1.
         -3    1    3    3    0  502 -0.12537410725E+02 -0.49070982622E+02 -0.23926406641E+02  0.56014470790E+02  0.00000000000E+00 0.  1.
         13    1    5    5    0    0  0.79776446162E+02  0.20769034030E+02  0.65538450786E+02  0.10531344961E+03  0.00000000000E+00 0.  1.
        -13    1    5    5    0    0  0.33159013636E+03  0.21786572523E+03  0.56793914306E+03  0.69280037744E+03  0.00000000000E+00 0. -1.
          3    1    6    6  503    0 -0.22098224150E+03  0.15059115864E+03  0.63587910436E+03  0.68982105178E+03  0.00000000000E+00 0. -1.
         -3    1    6    6    0  503 -0.21186519899E+03  0.54904196020E+02  0.43219361590E+03  0.48445087977E+03  0.00000000000E+00 0.  1.
<mgrwt>
<rscale>  0 0.17493857E+04</rscale>
<asrwt>0</asrwt>
<pdfrwt beam="1">  1        2 0.57358934E-01 0.17493857E+04</pdfrwt>
<pdfrwt beam="2">  1       -1 0.31570639E+00 0.17493857E+04</pdfrwt>
<totfact> 0.24404465E+00</totfact>
</mgrwt>
</event>
<event>
12    7  0.1740517E-007  0.1041713E+04  0.7818608E-02  0.9263942E-01
         -1   -1    0    0    0  501 -0.00000000000E+00  0.00000000000E+00  0.39158915253E+03  0.39158915253E+03  0.00000000000E+00 0.  1.
          2   -1    0    0  501    0  0.00000000000E+00 -0.00000000000E+00 -0.69279626513E+03  0.69279626513E+03  0.00000000000E+00 0. -1.
         24    2    1    2    0    0  0.54952456562E+02  0.60102294687E+02  0.16398167212E+02  0.11658992357E+03  0.81806186087E+02 0.  0.
        254    2    1    2    0    0 -0.54952456562E+02 -0.60102294687E+02 -0.31760527981E+03  0.96779549408E+03  0.91056188493E+03 0.  0.
         23    2    4    4    0    0  0.96337095692E+01 -0.18387174199E+03  0.28065618226E+03  0.34688203197E+03  0.87507860201E+02 0.  0.
         23    2    4    4    0    0 -0.64586166131E+02  0.12376944730E+03 -0.59826146208E+03  0.62091346212E+03  0.90147110273E+02 0.  0.
          4    1    3    3  502    0 -0.48714181948E+01 -0.42612167793E+01  0.27288269841E+02  0.28045291130E+02  0.00000000000E+00 0. -1.
         -1    1    3    3    0  502  0.59823874757E+02  0.64363511466E+02 -0.10890102629E+02  0.88544632443E+02  0.00000000000E+00 0.  1.
         13    1    5    5    0    0 -0.21077937042E+02 -0.43736149994E+01  0.34961960992E+02  0.41057845225E+02  0.00000000000E+00 0. -1.
        -13    1    5    5    0    0  0.30711646611E+02 -0.17949812699E+03  0.24569422127E+03  0.30582418674E+03  0.00000000000E+00 0.  1.
          4    1    6    6  503    0  0.61258616235E+01  0.64378351721E+02 -0.35234237295E+03  0.35822792483E+03  0.00000000000E+00 0. -1.
         -4    1    6    6    0  503 -0.70712027755E+02  0.59391095583E+02 -0.24591908913E+03  0.26268553729E+03  0.00000000000E+00 0.  1.
<mgrwt>
<rscale>  0 0.10417130E+04</rscale>
<asrwt>0</asrwt>
<pdfrwt beam="1">  1        2 0.10658404E+00 0.10417130E+04</pdfrwt>
<pdfrwt beam="2">  1       -1 0.60244485E-01 0.10417130E+04</pdfrwt>
<totfact> 0.13196826E+02</totfact>
</mgrwt>
</event>
<event>
12    7  0.1740517E-007  0.1473494E+04  0.7818608E-02  0.8902273E-01
          2   -1    0    0  501    0  0.00000000000E+00  0.00000000000E+00  0.18514693305E+04  0.18514693305E+04  0.00000000000E+00 0. -1.
         -1   -1    0    0    0  501 -0.00000000000E+00 -0.00000000000E+00 -0.29317052454E+03  0.29317052454E+03  0.00000000000E+00 0.  1.
         24    2    1    2    0    0 -0.42426329684E+03 -0.64817211561E+02  0.73010180654E+03  0.85064052316E+03  0.79624341628E+02 0.  0.
        254    2    1    2    0    0  0.42426329684E+03  0.64817211561E+02  0.82819699940E+03  0.12939993318E+04  0.89684078021E+03 0.  0.
         23    2    4    4    0    0  0.60152322192E+03 -0.60210651207E+02  0.23323024500E+03  0.65439568180E+03  0.91552455739E+02 0.  0.
         23    2    4    4    0    0 -0.17725992508E+03  0.12502786277E+03  0.59496675440E+03  0.63960365004E+03  0.89745990468E+02 0.  0.
          2    1    3    3  502    0 -0.97558604867E+02 -0.28103571523E+02  0.11662497349E+03  0.15462495451E+03  0.00000000000E+00 0. -1.
         -3    1    3    3    0  502 -0.32670469197E+03 -0.36713640037E+02  0.61347683305E+03  0.69601556865E+03  0.00000000000E+00 0.  1.
         13    1    5    5    0    0  0.58516588233E+03 -0.67385166354E+02  0.21056383918E+03  0.62553736967E+03  0.00000000000E+00 0. -1.
        -13    1    5    5    0    0  0.16357339589E+02  0.71745151466E+01  0.22666405824E+02  0.28858312130E+02  0.00000000000E+00 0.  1.
          1    1    6    6  503    0 -0.16602887505E+03  0.93756928048E+02  0.41649826585E+03  0.45806850401E+03  0.00000000000E+00 0. -1.
         -1    1    6    6    0  503 -0.11231050033E+02  0.31270934720E+02  0.17846848854E+03  0.18153514603E+03  0.00000000000E+00 0.  1.
<mgrwt>
<rscale>  0 0.14734941E+04</rscale>
<asrwt>0</asrwt>
<pdfrwt beam="1">  1        2 0.28484143E+00 0.14734941E+04</pdfrwt>
<pdfrwt beam="2">  1       -1 0.45103159E-01 0.14734941E+04</pdfrwt>
<totfact> 0.43455294E+01</totfact>
</mgrwt>
</event>
<event>
12    7  0.1740517E-007  0.2674711E+04  0.7818608E-02  0.8343257E-01
          2   -1    0    0  501    0  0.00000000000E+00  0.00000000000E+00  0.18820990781E+04  0.18820990781E+04  0.00000000000E+00 0. -1.
         -1   -1    0    0    0  501 -0.00000000000E+00 -0.00000000000E+00 -0.95027907671E+03  0.95027907671E+03  0.00000000000E+00 0.  1.
         24    2    1    2    0    0  0.11004921570E+04  0.41276455139E+03  0.25477018712E+03  0.12053584515E+04  0.80768717917E+02 0.  0.
        254    2    1    2    0    0 -0.11004921570E+04 -0.41276455139E+03  0.67704981425E+03  0.16270197033E+04  0.89852050687E+03 0.  0.
         23    2    4    4    0    0 -0.53288191999E+03 -0.32632439347E+02  0.75938890745E+03  0.93350055212E+03  0.98609083301E+02 0.  0.
         23    2    4    4    0    0 -0.56761023705E+03 -0.38013211204E+03 -0.82339093198E+02  0.69351915115E+03  0.86644578200E+02 0.  0.
          4    1    3    3  502    0  0.49273291338E+03  0.22652132155E+03  0.10730024100E+03  0.55282092468E+03  0.00000000000E+00 0. -1.
         -3    1    3    3    0  502  0.60775924366E+03  0.18624322984E+03  0.14746994612E+03  0.65253752683E+03  0.00000000000E+00 0.  1.
         13    1    5    5    0    0 -0.40358871939E+03 -0.60227799424E+02  0.61132788155E+03  0.73500545644E+03  0.00000000000E+00 0. -1.
        -13    1    5    5    0    0 -0.12929320059E+03  0.27595360077E+02  0.14806102591E+03  0.19849509568E+03  0.00000000000E+00 0.  1.
          3    1    6    6  503    0 -0.29308058454E+03 -0.14607705170E+03 -0.27584730763E+02  0.32862691831E+03  0.00000000000E+00 0. -1.
         -3    1    6    6    0  503 -0.27452965251E+03 -0.23405506034E+03 -0.54754362435E+02  0.36489223283E+03  0.00000000000E+00 0.  1.
<mgrwt>
<rscale>  0 0.26747107E+04</rscale>
<asrwt>0</asrwt>
<pdfrwt beam="1">  1        2 0.28955370E+00 0.26747107E+04</pdfrwt>
<pdfrwt beam="2">  1       -1 0.14619678E+00 0.26747107E+04</pdfrwt>
<totfact> 0.29053469E+00</totfact>
</mgrwt>
</event>
<event>
12    7  0.1740517E-007  0.2079576E+04  0.7818608E-02  0.8570294E-01
          2   -1    0    0  501    0  0.00000000000E+00  0.00000000000E+00  0.10940546282E+04  0.10940546282E+04  0.00000000000E+00 0. -1.
         -1   -1    0    0    0  501 -0.00000000000E+00 -0.00000000000E+00 -0.98821262987E+03  0.98821262987E+03  0.00000000000E+00 0.  1.
         24    2    1    2    0    0  0.79271431079E+02 -0.83639350000E+03  0.78014673229E+02  0.84748123681E+03  0.79373237719E+02 0.  0.
        254    2    1    2    0    0 -0.79271431079E+02  0.83639350000E+03  0.27827325140E+02  0.12347860213E+04  0.90448002285E+03 0.  0.
         23    2    4    4    0    0  0.80666169580E+02  0.22121881622E+03 -0.39228995321E+03  0.46732552272E+03  0.95167963269E+02 0.  0.
         23    2    4    4    0    0 -0.15993760066E+03  0.61517468378E+03  0.42011727835E+03  0.76746049858E+03  0.92071502867E+02 0.  0.
          4    1    3    3  502    0  0.71211056327E+02 -0.77575045882E+03  0.92866540261E+02  0.78452787280E+03  0.00000000000E+00 0. -1.
         -3    1    3    3    0  502  0.80603747525E+01 -0.60643041184E+02 -0.14851867032E+02  0.62953364005E+02  0.00000000000E+00 0.  1.
         13    1    5    5    0    0 -0.15813166547E+02  0.85386268671E+02 -0.14890926122E+03  0.17237992688E+03  0.00000000000E+00 0. -1.
        -13    1    5    5    0    0  0.96479336127E+02  0.13583254755E+03 -0.24338069199E+03  0.29494559584E+03  0.00000000000E+00 0.  1.
          2    1    6    6  503    0 -0.12922343159E+03  0.58120752348E+03  0.40094573898E+03  0.71781499443E+03  0.00000000000E+00 0.  1.
         -2    1    6    6    0  503 -0.30714169065E+02  0.33967160306E+02  0.19171539366E+02  0.49645504150E+02  0.00000000000E+00 0. -1.
<mgrwt>
<rscale>  0 0.20795755E+04</rscale>
<asrwt>0</asrwt>
<pdfrwt beam="1">  1        2 0.16831610E+00 0.20795755E+04</pdfrwt>
<pdfrwt beam="2">  1       -1 0.15203271E+00 0.20795755E+04</pdfrwt>
<totfact> 0.77811274E+00</totfact>
</mgrwt>
</event>
<event>
12    7  0.1740517E-007  0.2302600E+04  0.7818608E-02  0.8476897E-01
          2   -1    0    0  501    0  0.00000000000E+00  0.00000000000E+00  0.12034831974E+04  0.12034831974E+04  0.00000000000E+00 0. -1.
         -1   -1    0    0    0  501 -0.00000000000E+00 -0.00000000000E+00 -0.11013798700E+04  0.11013798700E+04  0.00000000000E+00 0.  1.
         24    2    1    2    0    0 -0.15209580945E+03 -0.94337392573E+03 -0.12112258402E+03  0.96647632958E+03  0.79487837258E+02 0.  0.
        254    2    1    2    0    0  0.15209580945E+03  0.94337392573E+03  0.22322591144E+03  0.13383867378E+04  0.91014380916E+03 0.  0.
         23    2    4    4    0    0  0.13643823758E+02  0.27745028496E+03  0.51547519430E+03  0.59239250490E+03  0.89718389247E+02 0.  0.
         23    2    4    4    0    0  0.13845198569E+03  0.66592364077E+03 -0.29224928286E+03  0.74599423289E+03  0.92057071950E+02 0.  0.
          4    1    3    3  502    0 -0.11288125916E+03 -0.55011714532E+03 -0.39789803644E+02  0.56298692766E+03  0.00000000000E+00 0. -1.
         -3    1    3    3    0  502 -0.39214550284E+02 -0.39325678041E+03 -0.81332780375E+02  0.40348940192E+03  0.00000000000E+00 0.  1.
         13    1    5    5    0    0 -0.24997668042E+02  0.16077676705E+03  0.23148776224E+03  0.28294988302E+03  0.00000000000E+00 0.  1.
        -13    1    5    5    0    0  0.38641491800E+02  0.11667351791E+03  0.28398743206E+03  0.30944262188E+03  0.00000000000E+00 0. -1.
          2    1    6    6  503    0  0.10299580725E+03  0.61844446066E+03 -0.26263505262E+03  0.67974911409E+03  0.00000000000E+00 0. -1.
         -2    1    6    6    0  503  0.35456178433E+02  0.47479180111E+02 -0.29614230239E+02  0.66245118807E+02  0.00000000000E+00 0.  1.
<mgrwt>
<rscale>  0 0.23026004E+04</rscale>
<asrwt>0</asrwt>
<pdfrwt beam="1">  1        2 0.18515126E+00 0.23026004E+04</pdfrwt>
<pdfrwt beam="2">  1       -1 0.16944306E+00 0.23026004E+04</pdfrwt>
<totfact> 0.48380488E+00</totfact>
</mgrwt>
</event>
<event>
12    7  0.1740517E-007  0.1375930E+04  0.7818608E-02  0.8971429E-01
         -3   -1    0    0    0  501 -0.00000000000E+00  0.00000000000E+00  0.86057022306E+03  0.86057022306E+03  0.00000000000E+00 0.  1.
          4   -1    0    0  501    0  0.00000000000E+00 -0.00000000000E+00 -0.54997908823E+03  0.54997908823E+03  0.00000000000E+00 0. -1.
         24    2    1    2    0    0  0.25261067980E+03 -0.23853255599E+03  0.26273509186E+03  0.44275601746E+03  0.79329859991E+02 0.  0.
        254    2    1    2    0    0 -0.25261067980E+03  0.23853255599E+03  0.47856042970E+02  0.96779329383E+03  0.90201093282E+03 0.  0.
         23    2    4    4    0    0 -0.40850992310E+03  0.11089289366E+03 -0.31962131322E+03  0.53817137441E+03  0.91066202511E+02 0.  0.
         23    2    4    4    0    0  0.15589924330E+03  0.12763966233E+03  0.36747735619E+03  0.42962191942E+03  0.94545908815E+02 0.  0.
          2    1    3    3  502    0  0.10650743317E+03 -0.49679560053E+02  0.82273243924E+02  0.14346002465E+03  0.00000000000E+00 0. -1.
         -1    1    3    3    0  502  0.14610324663E+03 -0.18885299593E+03  0.18046184794E+03  0.29929599280E+03  0.00000000000E+00 0.  1.
         13    1    5    5    0    0 -0.10268839225E+02  0.22681369372E+02 -0.22202767236E+02  0.33359503122E+02  0.00000000000E+00 0. -1.
        -13    1    5    5    0    0 -0.39824108387E+03  0.88211524284E+02 -0.29741854598E+03  0.50481187129E+03  0.00000000000E+00 0.  1.
          2    1    6    6  503    0  0.16167342478E+03  0.13050712083E+03  0.31887499163E+03  0.38059383226E+03  0.00000000000E+00 0.  1.
         -2    1    6    6    0  503 -0.57741814774E+01 -0.28674585004E+01  0.48602364558E+02  0.49028087160E+02  0.00000000000E+00 0. -1.
<mgrwt>
<rscale>  0 0.13759297E+04</rscale>
<asrwt>0</asrwt>
<pdfrwt beam="1">  1        4 0.84612167E-01 0.13759297E+04</pdfrwt>
<pdfrwt beam="2">  1       -3 0.13239542E+00 0.13759297E+04</pdfrwt>
<totfact> 0.12073844E+00</totfact>
</mgrwt>
</event>
<event>
12    7  0.1740517E-007  0.2623171E+04  0.7818608E-02  0.8360373E-01
         -1   -1    0    0    0  501 -0.00000000000E+00  0.00000000000E+00  0.10894274226E+04  0.10894274226E+04  0.00000000000E+00 0.  1.
          2   -1    0    0  501    0  0.00000000000E+00 -0.00000000000E+00 -0.15790465055E+04  0.15790465055E+04  0.00000000000E+00 0. -1.
         24    2    1    2    0    0  0.57946159424E+03  0.31562259537E+03  0.75813797628E+03  0.10081954344E+04  0.79318856463E+02 0.  0.
        254    2    1    2    0    0 -0.57946159424E+03 -0.31562259537E+03 -0.12477570592E+04  0.16602784937E+04  0.87420457326E+03 0.  0.
         23    2    4    4    0    0 -0.43924308741E+03  0.12127363636E+03 -0.10580997797E+04  0.11556589397E+04  0.91272429254E+02 0.  0.
         23    2    4    4    0    0 -0.14021850683E+03 -0.43689623173E+03 -0.18965727945E+03  0.50461955398E+03  0.90174628622E+02 0.  0.
          2    1    3    3  502    0  0.24519187720E+03  0.90774630278E+02  0.31280323232E+03  0.40768241597E+03  0.00000000000E+00 0. -1.
         -1    1    3    3    0  502  0.33426971704E+03  0.22484796509E+03  0.44533474396E+03  0.60051301844E+03  0.00000000000E+00 0.  1.
         13    1    5    5    0    0 -0.34962307260E+02 -0.15059487889E+02 -0.84488229533E+02  0.92668290337E+02  0.00000000000E+00 0.  1.
        -13    1    5    5    0    0 -0.40428078015E+03  0.13633312425E+03 -0.97361155017E+03  0.10629906493E+04  0.00000000000E+00 0. -1.
          4    1    6    6  503    0 -0.11213201014E+03 -0.41961062589E+03 -0.18086798406E+03  0.47048899320E+03  0.00000000000E+00 0. -1.
         -4    1    6    6    0  503 -0.28086496694E+02 -0.17285605836E+02 -0.87892953948E+01  0.34130560780E+02  0.00000000000E+00 0.  1.
<mgrwt>
<rscale>  0 0.26231710E+04</rscale>
<asrwt>0</asrwt>
<pdfrwt beam="1">  1        2 0.24293023E+00 0.26231710E+04</pdfrwt>
<pdfrwt beam="2">  1       -1 0.16760422E+00 0.26231710E+04</pdfrwt>
<totfact> 0.29523022E+00</totfact>
</mgrwt>
</event>
<event>
12    7  0.1740517E-007  0.1965609E+04  0.7818608E-02  0.8622871E-01
         -1   -1    0    0    0  501 -0.00000000000E+00  0.00000000000E+00  0.34681914993E+03  0.34681914993E+03  0.00000000000E+00 0.  1.
          2   -1    0    0  501    0  0.00000000000E+00 -0.00000000000E+00 -0.27850377126E+04  0.27850377126E+04  0.00000000000E+00 0. -1.
         24    2    1    2    0    0  0.35527703827E+03 -0.51160300601E+03 -0.24391232550E+03  0.67360056419E+03  0.79278546068E+02 0.  0.
        254    2    1    2    0    0 -0.35527703827E+03  0.51160300601E+03 -0.21943062372E+04  0.24582562984E+04  0.91656137612E+03 0.  0.
         23    2    4    4    0    0 -0.78056653541E+02  0.22299207311E+03 -0.19780205550E+04  0.19942181507E+04  0.92316903881E+02 0.  0.
         23    2    4    4    0    0 -0.27722038473E+03  0.28861093290E+03 -0.21628568216E+03  0.46403814763E+03  0.91676026604E+02 0.  0.
          2    1    3    3  502    0  0.41385615209E+02 -0.27496623804E+02 -0.31222531357E+02  0.58682875962E+02  0.00000000000E+00 0. -1.
         -1    1    3    3    0  502  0.31389142306E+03 -0.48410638221E+03 -0.21268979414E+03  0.61491768823E+03  0.00000000000E+00 0.  1.
         13    1    5    5    0    0 -0.36983385845E+02  0.27586410209E+02 -0.60467590013E+03  0.60643361141E+03  0.00000000000E+00 0.  1.
        -13    1    5    5    0    0 -0.41073267697E+02  0.19540566290E+03 -0.13733446549E+04  0.13877845393E+04  0.00000000000E+00 0. -1.
          1    1    6    6  503    0 -0.20350238971E+03  0.15317758651E+03 -0.11439190054E+03  0.27921694529E+03  0.00000000000E+00 0. -1.
         -1    1    6    6    0  503 -0.73717995018E+02  0.13543334639E+03 -0.10189378162E+03  0.18482120234E+03  0.00000000000E+00 0.  1.
<mgrwt>
<rscale>  0 0.19656087E+04</rscale>
<asrwt>0</asrwt>
<pdfrwt beam="1">  1        2 0.42846736E+00 0.19656087E+04</pdfrwt>
<pdfrwt beam="2">  1       -1 0.53356790E-01 0.19656087E+04</pdfrwt>
<totfact> 0.88865095E+00</totfact>
</mgrwt>
</event>
<event>
12    7  0.1740517E-007  0.2063174E+04  0.7818608E-02  0.8577641E-01
         -1   -1    0    0    0  501 -0.00000000000E+00  0.00000000000E+00  0.20582044949E+04  0.20582044949E+04  0.00000000000E+00 0.  1.
          2   -1    0    0  501    0  0.00000000000E+00 -0.00000000000E+00 -0.51703883928E+03  0.51703883928E+03  0.00000000000E+00 0. -1.
         24    2    1    2    0    0  0.59314344434E+03 -0.46747312555E+03  0.10626224156E+04  0.13061568042E+04  0.80801796742E+02 0.  0.
        254    2    1    2    0    0 -0.59314344434E+03  0.46747312555E+03  0.47854323999E+03  0.12690865300E+04  0.90068125289E+03 0.  0.
         23    2    4    4    0    0 -0.70745573454E+03  0.47208354611E+03  0.97474718162E+02  0.86098777286E+03  0.91881083409E+02 0.  0.
         23    2    4    4    0    0  0.11431229020E+03 -0.46104205603E+01  0.38106852183E+03  0.40809875710E+03  0.90789985935E+02 0.  0.
          2    1    3    3  502    0 -0.55512781930E+00 -0.59780861242E+01  0.18409634627E+02  0.19363892370E+02  0.00000000000E+00 0. -1.
         -1    1    3    3    0  502  0.59369857216E+03 -0.46149503942E+03  0.10442127810E+04  0.12867929118E+04  0.00000000000E+00 0.  1.
         13    1    5    5    0    0 -0.26456618020E+03  0.12518072289E+03  0.41945976073E+02  0.29567709076E+03  0.00000000000E+00 0.  1.
        -13    1    5    5    0    0 -0.44288955434E+03  0.34690282321E+03  0.55528742089E+02  0.56531068210E+03  0.00000000000E+00 0. -1.
          2    1    6    6  503    0  0.12603429994E+03 -0.18583008046E+02  0.34277238654E+03  0.36568139401E+03  0.00000000000E+00 0.  1.
         -2    1    6    6    0  503 -0.11722009737E+02  0.13972587486E+02  0.38296135291E+02  0.42417363091E+02  0.00000000000E+00 0. -1.
<mgrwt>
<rscale>  0 0.20631739E+04</rscale>
<asrwt>0</asrwt>
<pdfrwt beam="1">  1        2 0.79544438E-01 0.20631739E+04</pdfrwt>
<pdfrwt beam="2">  1       -1 0.31664684E+00 0.20631739E+04</pdfrwt>
<totfact> 0.16104507E+00</totfact>
</mgrwt>
</event>
<event>
12    7  0.1740517E-007  0.1714168E+04  0.7818608E-02  0.8753325E-01
         -1   -1    0    0    0  501 -0.00000000000E+00  0.00000000000E+00  0.18562839573E+03  0.18562839573E+03  0.00000000000E+00 0.  1.
          2   -1    0    0  501    0  0.00000000000E+00 -0.00000000000E+00 -0.39573296439E+04  0.39573296439E+04  0.00000000000E+00 0. -1.
         24    2    1    2    0    0 -0.41551823132E+03 -0.57293998140E+02 -0.29754840018E+03  0.52010566920E+03  0.77697193619E+02 0.  0.
        254    2    1    2    0    0  0.41551823132E+03  0.57293998140E+02 -0.34741528480E+04  0.36228523705E+04  0.93775438361E+03 0.  0.
         23    2    4    4    0    0  0.39764357948E+03 -0.39413060344E+03 -0.18638488979E+04  0.19480867145E+04  0.87463045319E+02 0.  0.
         23    2    4    4    0    0  0.17874651844E+02  0.45142460158E+03 -0.16103039501E+04  0.16747656559E+04  0.87507236289E+02 0.  0.
          2    1    3    3  502    0 -0.12744624879E+03  0.52864329775E+00 -0.53775228773E+02  0.13832787508E+03  0.00000000000E+00 0. -1.
         -1    1    3    3    0  502 -0.28807198253E+03 -0.57822641438E+02 -0.24377317141E+03  0.38177779412E+03  0.00000000000E+00 0.  1.
         13    1    5    5    0    0  0.96324194838E+01 -0.34893523110E+02 -0.87093581125E+02  0.94316665194E+02  0.00000000000E+00 0. -1.
        -13    1    5    5    0    0  0.38801116000E+03 -0.35923708033E+03 -0.17767553168E+04  0.18537700493E+04  0.00000000000E+00 0.  1.
          3    1    6    6  503    0  0.48960518728E+01  0.41082285111E+02 -0.26506976071E+03  0.26827915222E+03  0.00000000000E+00 0. -1.
         -3    1    6    6    0  503  0.12978599971E+02  0.41034231647E+03 -0.13452341894E+04  0.14064865037E+04  0.00000000000E+00 0.  1.
<mgrwt>
<rscale>  0 0.17141677E+04</rscale>
<asrwt>0</asrwt>
<pdfrwt beam="1">  1        2 0.60881991E+00 0.17141677E+04</pdfrwt>
<pdfrwt beam="2">  1       -1 0.28558216E-01 0.17141677E+04</pdfrwt>
<totfact> 0.45298499E+00</totfact>
</mgrwt>
</event>
<event>
12    7  0.1740517E-007  0.1022030E+04  0.7818608E-02  0.9284707E-01
         -1   -1    0    0    0  501 -0.00000000000E+00  0.00000000000E+00  0.47336573885E+03  0.47336573885E+03  0.00000000000E+00 0.  1.
          2   -1    0    0  501    0  0.00000000000E+00 -0.00000000000E+00 -0.55165909047E+03  0.55165909047E+03  0.00000000000E+00 0. -1.
         24    2    1    2    0    0 -0.36037698562E+02 -0.79424554549E+02  0.95208713950E+01  0.11856590125E+03  0.79751177819E+02 0.  0.
        254    2    1    2    0    0  0.36037698562E+02  0.79424554549E+02 -0.87814223018E+02  0.90645892807E+03  0.89796964032E+03 0.  0.
         23    2    4    4    0    0  0.24138955322E+03  0.92943038188E+02 -0.42282408327E+03  0.50345998527E+03  0.88229397764E+02 0.  0.
         23    2    4    4    0    0 -0.20535185466E+03 -0.13518483638E+02  0.33500986025E+03  0.40299894280E+03  0.88455682804E+02 0.  0.
          2    1    3    3  502    0 -0.22695788330E+02 -0.47588766817E+02 -0.34212406504E+02  0.62851239398E+02  0.00000000000E+00 0. -1.
         -1    1    3    3    0  502 -0.13341910232E+02 -0.31835787733E+02  0.43733277899E+02  0.55714661849E+02  0.00000000000E+00 0.  1.
         13    1    5    5    0    0  0.17930569186E+03  0.10061376509E+03 -0.27860039994E+03  0.34625401616E+03  0.00000000000E+00 0.  1.
        -13    1    5    5    0    0  0.62083861357E+02 -0.76707269052E+01 -0.14422368333E+03  0.15720596911E+03  0.00000000000E+00 0. -1.
          1    1    6    6  503    0 -0.76815563614E+02  0.37063012436E+02  0.11399825132E+03  0.14237239553E+03  0.00000000000E+00 0. -1.
         -1    1    6    6    0  503 -0.12853629104E+03 -0.50581496074E+02  0.22101160893E+03  0.26062654727E+03  0.00000000000E+00 0.  1.
<mgrwt>
<rscale>  0 0.10220304E+04</rscale>
<asrwt>0</asrwt>
<pdfrwt beam="1">  1        2 0.84870629E-01 0.10220304E+04</pdfrwt>
<pdfrwt beam="2">  1       -1 0.72825498E-01 0.10220304E+04</pdfrwt>
<totfact> 0.11893721E+02</totfact>
</mgrwt>
</event>
<event>
12    7  0.1740517E-007  0.1774628E+04  0.7818608E-02  0.8719910E-01
         -3   -1    0    0    0  501 -0.00000000000E+00  0.00000000000E+00  0.91291861303E+03  0.91291861303E+03  0.00000000000E+00 0.  1.
          2   -1    0    0  501    0  0.00000000000E+00 -0.00000000000E+00 -0.86242711256E+03  0.86242711256E+03  0.00000000000E+00 0. -1.
         24    2    1    2    0    0 -0.36879723940E+02  0.65406765467E+03 -0.41591471432E+02  0.66120669975E+03  0.79371521169E+02 0.  0.
        254    2    1    2    0    0  0.36879723940E+02 -0.65406765467E+03  0.92082971901E+02  0.11141390258E+04  0.89647190934E+03 0.  0.
         23    2    4    4    0    0  0.69584509494E+02 -0.20630634176E+03 -0.38644916732E+03  0.45169560013E+03  0.85332559069E+02 0.  0.
         23    2    4    4    0    0 -0.32704785554E+02 -0.44776131291E+03  0.47853213923E+03  0.66244342570E+03  0.90986194797E+02 0.  0.
          4    1    3    3  502    0 -0.43428758772E+02  0.64302274004E+03 -0.32187602628E+02  0.64529089801E+03  0.00000000000E+00 0. -1.
         -3    1    3    3    0  502  0.65490348320E+01  0.11044914636E+02 -0.94038688038E+01  0.15915801740E+02  0.00000000000E+00 0.  1.
         13    1    5    5    0    0 -0.13994911374E+02 -0.66530616182E+02 -0.82852848840E+02  0.10717637331E+03  0.00000000000E+00 0. -1.
        -13    1    5    5    0    0  0.83579420868E+02 -0.13977572558E+03 -0.30359631848E+03  0.34451922682E+03  0.00000000000E+00 0.  1.
          3    1    6    6  503    0 -0.41854379354E+02 -0.88973244922E+02  0.12000237103E+03  0.15514056992E+03  0.00000000000E+00 0. -1.
         -3    1    6    6    0  503  0.91495937995E+01 -0.35878806799E+03  0.35852976820E+03  0.50730285578E+03  0.00000000000E+00 0.  1.
<mgrwt>
<rscale>  0 0.17746276E+04</rscale>
<asrwt>0</asrwt>
<pdfrwt beam="1">  1        2 0.13268109E+00 0.17746276E+04</pdfrwt>
<pdfrwt beam="2">  1       -3 0.14044902E+00 0.17746276E+04</pdfrwt>
<totfact> 0.70952276E+00</totfact>
</mgrwt>
</event>
<event>
12    7  0.1740517E-007  0.3281551E+04  0.7818608E-02  0.8167606E-01
          2   -1    0    0  501    0  0.00000000000E+00  0.00000000000E+00  0.24687874128E+04  0.24687874128E+04  0.00000000000E+00 0. -1.
         -1   -1    0    0    0  501 -0.00000000000E+00 -0.00000000000E+00 -0.10904719842E+04  0.10904719842E+04  0.00000000000E+00 0.  1.
         24    2    1    2    0    0  0.15543959647E+03 -0.99915616432E+03  0.18698743083E+04  0.21272645118E+04  0.79686043101E+02 0.  0.
        254    2    1    2    0    0 -0.15543959647E+03  0.99915616432E+03 -0.49155887965E+03  0.14319948852E+04  0.88685100791E+03 0.  0.
         23    2    4    4    0    0 -0.27522268600E+02  0.59231177258E+03  0.18317208273E+03  0.62784400660E+03  0.95107168671E+02 0.  0.
         23    2    4    4    0    0 -0.12791732787E+03  0.40684439174E+03 -0.67473096238E+03  0.80415087859E+03  0.97527237653E+02 0.  0.
          2    1    3    3  502    0  0.53253515175E+02 -0.43869057485E+03  0.89430686286E+03  0.99753201567E+03  0.00000000000E+00 0. -1.
         -1    1    3    3    0  502  0.10218608129E+03 -0.56046558946E+03  0.97556744540E+03  0.11297324961E+04  0.00000000000E+00 0.  1.
         13    1    5    5    0    0 -0.27827981145E+02  0.55129999966E+03  0.14253313078E+03  0.57010681414E+03  0.00000000000E+00 0.  1.
        -13    1    5    5    0    0  0.30571254567E+00  0.41011772924E+02  0.40638951950E+02  0.57737192468E+02  0.00000000000E+00 0. -1.
          3    1    6    6  503    0  0.82822230800E+01  0.65931377788E+02 -0.68548398382E+02  0.95469496264E+02  0.00000000000E+00 0. -1.
         -3    1    6    6    0  503 -0.13619955095E+03  0.34091301395E+03 -0.60618256400E+03  0.70868138233E+03  0.00000000000E+00 0.  1.
<mgrwt>
<rscale>  0 0.32815506E+04</rscale>
<asrwt>0</asrwt>
<pdfrwt beam="1">  1        2 0.37981345E+00 0.32815506E+04</pdfrwt>
<pdfrwt beam="2">  1       -1 0.16776492E+00 0.32815506E+04</pdfrwt>
<totfact> 0.88161641E-01</totfact>
</mgrwt>
</event>
<event>
12    7  0.1740517E-007  0.1447583E+04  0.7818608E-02  0.8920078E-01
          2   -1    0    0  501    0  0.00000000000E+00  0.00000000000E+00  0.15176024119E+04  0.15176024119E+04  0.00000000000E+00 0. -1.
         -1   -1    0    0    0  501 -0.00000000000E+00 -0.00000000000E+00 -0.34519871213E+03  0.34519871213E+03  0.00000000000E+00 0.  1.
         24    2    1    2    0    0 -0.43850791984E+03  0.38249906885E+02  0.19631476719E+03  0.48933035398E+03  0.84572196149E+02 0.  0.
        254    2    1    2    0    0  0.43850791984E+03 -0.38249906885E+02  0.97608893260E+03  0.13734707701E+04  0.86018608496E+03 0.  0.
         23    2    4    4    0    0  0.64316237714E+03  0.11599307394E+03  0.84003715614E+03  0.10682514591E+04  0.91577942658E+02 0.  0.
         23    2    4    4    0    0 -0.20465445730E+03 -0.15424298083E+03  0.13605177646E+03  0.30521931097E+03  0.94733298724E+02 0.  0.
          2    1    3    3  502    0 -0.40741126502E+03  0.57356817854E+02  0.18509332178E+03  0.45114662937E+03  0.00000000000E+00 0. -1.
         -1    1    3    3    0  502 -0.31096654818E+02 -0.19106910969E+02  0.11221445418E+02  0.38183724608E+02  0.00000000000E+00 0.  1.
         13    1    5    5    0    0  0.68188150027E+02 -0.26464349376E+01  0.13098154630E+03  0.14769154645E+03  0.00000000000E+00 0. -1.
        -13    1    5    5    0    0  0.57497422712E+03  0.11863950888E+03  0.70905560984E+03  0.92055991264E+03  0.00000000000E+00 0.  1.
          1    1    6    6  503    0 -0.13356684493E+02 -0.55313843087E+02  0.39074771449E+02  0.69027965503E+02  0.00000000000E+00 0. -1.
         -1    1    6    6    0  503 -0.19129777281E+03 -0.98929137740E+02  0.96977005006E+02  0.23619134547E+03  0.00000000000E+00 0.  1.
<mgrwt>
<rscale>  0 0.14475834E+04</rscale>
<asrwt>0</asrwt>
<pdfrwt beam="1">  1        2 0.23347729E+00 0.14475834E+04</pdfrwt>
<pdfrwt beam="2">  1       -1 0.53107495E-01 0.14475834E+04</pdfrwt>
<totfact> 0.49022998E+01</totfact>
</mgrwt>
</event>
<event>
12    7  0.1740517E-007  0.3114599E+04  0.7818608E-02  0.8211743E-01
          2   -1    0    0  501    0  0.00000000000E+00  0.00000000000E+00  0.11492986059E+04  0.11492986059E+04  0.00000000000E+00 0. -1.
         -1   -1    0    0    0  501 -0.00000000000E+00 -0.00000000000E+00 -0.21101412802E+04  0.21101412802E+04  0.00000000000E+00 0.  1.
         24    2    1    2    0    0  0.20446316666E+03 -0.77514005356E+03 -0.16863082371E+04  0.18689103299E+04  0.80889192370E+02 0.  0.
        254    2    1    2    0    0 -0.20446316666E+03  0.77514005356E+03  0.72546556282E+03  0.13905295561E+04  0.87442831298E+03 0.  0.
         23    2    4    4    0    0 -0.41627221828E+03  0.81300228152E+02  0.14353704636E+03  0.45697614036E+03  0.91279912203E+02 0.  0.
         23    2    4    4    0    0  0.21180905161E+03  0.69383982541E+03  0.58192851646E+03  0.93355341579E+03  0.81267485495E+02 0.  0.
          4    1    3    3  502    0  0.64983766630E+02 -0.32263331418E+03 -0.61211667569E+03  0.69498343146E+03  0.00000000000E+00 0. -1.
         -3    1    3    3    0  502  0.13947940003E+03 -0.45250673938E+03 -0.10741915614E+04  0.11739268984E+04  0.00000000000E+00 0.  1.
         13    1    5    5    0    0 -0.19936062894E+03 -0.16116863963E+01  0.89605174053E+02  0.21857800695E+03  0.00000000000E+00 0.  1.
        -13    1    5    5    0    0 -0.21691158934E+03  0.82911914549E+02  0.53931872309E+02  0.23839813341E+03  0.00000000000E+00 0. -1.
          2    1    6    6  503    0  0.95970475317E+02  0.20655851612E+03  0.20874054601E+03  0.30894881172E+03  0.00000000000E+00 0. -1.
         -2    1    6    6    0  503  0.11583857630E+03  0.48728130928E+03  0.37318797045E+03  0.62460460407E+03  0.00000000000E+00 0.  1.
<mgrwt>
<rscale>  0 0.31145994E+04</rscale>
<asrwt>0</asrwt>
<pdfrwt beam="1">  1        2 0.17681517E+00 0.31145994E+04</pdfrwt>
<pdfrwt beam="2">  1       -1 0.32463712E+00 0.31145994E+04</pdfrwt>
<totfact> 0.44805102E-01</totfact>
</mgrwt>
</event>
<event>
12    7  0.1740517E-007  0.1617534E+04  0.7818608E-02  0.8809848E-01
          2   -1    0    0  501    0  0.00000000000E+00  0.00000000000E+00  0.23749013244E+04  0.23749013244E+04  0.00000000000E+00 0. -1.
         -1   -1    0    0    0  501 -0.00000000000E+00 -0.00000000000E+00 -0.27542376979E+03  0.27542376979E+03  0.00000000000E+00 0.  1.
         24    2    1    2    0    0  0.32491026953E+03 -0.22237578413E+03  0.85090436263E+02  0.41052738379E+03  0.79212864382E+02 0.  0.
        254    2    1    2    0    0 -0.32491026953E+03  0.22237578413E+03  0.20143871184E+04  0.22397977104E+04  0.89661622135E+03 0.  0.
         23    2    4    4    0    0  0.22583897485E+03  0.10921220549E+03  0.18786262223E+03  0.32652689546E+03  0.91634601768E+02 0.  0.
         23    2    4    4    0    0 -0.55074924437E+03  0.11316357864E+03  0.18265244961E+04  0.19132708150E+04  0.91009618777E+02 0.  0.
          2    1    3    3  502    0  0.10847705668E+02 -0.74897478270E+01  0.20753734963E+02  0.24586308297E+02  0.00000000000E+00 0. -1.
         -1    1    3    3    0  502  0.31406256386E+03 -0.21488603630E+03  0.64336701299E+02  0.38594107549E+03  0.00000000000E+00 0.  1.
         13    1    5    5    0    0  0.77443600957E+02 -0.11042343417E+01  0.84759461118E+02  0.11481679717E+03  0.00000000000E+00 0.  1.
        -13    1    5    5    0    0  0.14839537389E+03  0.11031643983E+03  0.10310316111E+03  0.21171009830E+03  0.00000000000E+00 0. -1.
          4    1    6    6  503    0 -0.22154921721E+02  0.20217561352E+02  0.61049080018E+02  0.68018971725E+02  0.00000000000E+00 0.  1.
         -4    1    6    6    0  503 -0.52859432265E+03  0.92946017289E+02  0.17654754161E+04  0.18452518433E+04  0.00000000000E+00 0. -1.
<mgrwt>
<rscale>  0 0.16175343E+04</rscale>
<asrwt>0</asrwt>
<pdfrwt beam="1">  1        2 0.36536942E+00 0.16175343E+04</pdfrwt>
<pdfrwt beam="2">  1       -1 0.42372889E-01 0.16175343E+04</pdfrwt>
<totfact> 0.24582136E+01</totfact>
</mgrwt>
</event>
<event>
12    7  0.1740517E-007  0.1147688E+04  0.7818608E-02  0.9159919E-01
         -1   -1    0    0    0  501 -0.00000000000E+00  0.00000000000E+00  0.73761546705E+03  0.73761546705E+03  0.00000000000E+00 0.  1.
          2   -1    0    0  501    0  0.00000000000E+00 -0.00000000000E+00 -0.44643410745E+03  0.44643410745E+03  0.00000000000E+00 0. -1.
         24    2    1    2    0    0  0.19361677157E+03  0.15713904341E+01 -0.80135072587E+02  0.22196005582E+03  0.73175904637E+02 0.  0.
        254    2    1    2    0    0 -0.19361677157E+03 -0.15713904341E+01  0.37131643219E+03  0.96208951868E+03  0.86616997503E+03 0.  0.
         23    2    4    4    0    0 -0.39096798866E+03 -0.13397588737E+03 -0.91729733190E+02  0.43375330417E+03  0.94456753993E+02 0.  0.
         23    2    4    4    0    0  0.19735121709E+03  0.13240449694E+03  0.46304616538E+03  0.52833621451E+03  0.90823733658E+02 0.  0.
          2    1    3    3  502    0  0.18309568891E+03 -0.77645939247E+01 -0.90595718243E+02  0.20443068356E+03  0.00000000000E+00 0. -1.
         -1    1    3    3    0  502  0.10521082660E+02  0.93359843588E+01  0.10460645656E+02  0.17529372260E+02  0.00000000000E+00 0.  1.
         13    1    5    5    0    0 -0.87355160968E+02 -0.41111501777E+02  0.17247069865E+02  0.98074161455E+02  0.00000000000E+00 0. -1.
        -13    1    5    5    0    0 -0.30361282769E+03 -0.92864385595E+02 -0.10897680306E+03  0.33567914272E+03  0.00000000000E+00 0.  1.
          3    1    6    6  503    0  0.50899610661E+02  0.29539829527E+02  0.46610739101E+02  0.75072850575E+02  0.00000000000E+00 0. -1.
         -3    1    6    6    0  503  0.14645160643E+03  0.10286466741E+03  0.41643542628E+03  0.45326336394E+03  0.00000000000E+00 0.  1.
<mgrwt>
<rscale>  0 0.11476876E+04</rscale>
<asrwt>0</asrwt>
<pdfrwt beam="1">  1        2 0.68682170E-01 0.11476876E+04</pdfrwt>
<pdfrwt beam="2">  1       -1 0.11347930E+00 0.11476876E+04</pdfrwt>
<totfact> 0.56363309E+01</totfact>
</mgrwt>
</event>
<event>
12    7  0.1740517E-007  0.2626803E+04  0.7818608E-02  0.8359154E-01
         -1   -1    0    0    0  501 -0.00000000000E+00  0.00000000000E+00  0.11116301873E+04  0.11116301873E+04  0.00000000000E+00 0.  1.
          2   -1    0    0  501    0  0.00000000000E+00 -0.00000000000E+00 -0.15517957513E+04  0.15517957513E+04  0.00000000000E+00 0. -1.
         24    2    1    2    0    0  0.21238576876E+03  0.95275245558E+03  0.43185284831E+03  0.10703640298E+04  0.79607269505E+02 0.  0.
        254    2    1    2    0    0 -0.21238576876E+03 -0.95275245558E+03 -0.87201841227E+03  0.15930619087E+04  0.90806672517E+03 0.  0.
         23    2    4    4    0    0 -0.14366541802E+03 -0.11106738737E+04 -0.81821698795E+03  0.13899239891E+04  0.90407134435E+02 0.  0.
         23    2    4    4    0    0 -0.68720350736E+02  0.15792141814E+03 -0.53801424320E+02  0.20313791966E+03  0.93320738503E+02 0.  0.
          2    1    3    3  502    0  0.62617288085E+01  0.11372453869E+03  0.69881271677E+02  0.13362586606E+03  0.00000000000E+00 0. -1.
         -1    1    3    3    0  502  0.20612403995E+03  0.83902791689E+03  0.36197157664E+03  0.93673816377E+03  0.00000000000E+00 0.  1.
         13    1    5    5    0    0 -0.92765774001E+02 -0.90918028130E+03 -0.69675806294E+03  0.11492110646E+04  0.00000000000E+00 0.  1.
        -13    1    5    5    0    0 -0.50899644019E+02 -0.20149359241E+03 -0.12145892501E+03  0.24071292448E+03  0.00000000000E+00 0. -1.
          3    1    6    6  503    0 -0.15094197588E+02  0.13777279840E+03 -0.37966951412E+02  0.14370340350E+03  0.00000000000E+00 0. -1.
         -3    1    6    6    0  503 -0.53626153148E+02  0.20148619740E+02 -0.15834472908E+02  0.59434516160E+02  0.00000000000E+00 0.  1.
<mgrwt>
<rscale>  0 0.26268026E+04</rscale>
<asrwt>0</asrwt>
<pdfrwt beam="1">  1        2 0.23873781E+00 0.26268026E+04</pdfrwt>
<pdfrwt beam="2">  1       -1 0.17102003E+00 0.26268026E+04</pdfrwt>
<totfact> 0.28851547E+00</totfact>
</mgrwt>
</event>
<event>
12    7  0.1740517E-007  0.3072690E+04  0.7818608E-02  0.8223273E-01
         -1   -1    0    0    0  501 -0.00000000000E+00  0.00000000000E+00  0.99025941511E+03  0.99025941511E+03  0.00000000000E+00 0.  1.
          2   -1    0    0  501    0  0.00000000000E+00 -0.00000000000E+00 -0.23835737090E+04  0.23835737090E+04  0.00000000000E+00 0. -1.
         24    2    1    2    0    0 -0.44518789390E+03  0.10287704068E+04  0.29323211904E+03  0.11613384380E+04  0.78492555098E+02 0.  0.
        254    2    1    2    0    0  0.44518789390E+03 -0.10287704068E+04 -0.16865464129E+04  0.22124946861E+04  0.89114147148E+03 0.  0.
         23    2    4    4    0    0 -0.14057625157E+03 -0.75408463686E+03 -0.10196502362E+04  0.12790937192E+04  0.89380178067E+02 0.  0.
         23    2    4    4    0    0  0.58576414546E+03 -0.27468576996E+03 -0.66689617670E+03  0.93340096688E+03  0.88965994285E+02 0.  0.
          4    1    3    3  502    0 -0.83335729830E+02  0.24317005028E+03  0.40375942766E+02  0.26020517669E+03  0.00000000000E+00 0. -1.
         -3    1    3    3    0  502 -0.36185216407E+03  0.78560035654E+03  0.25285617627E+03  0.90113326135E+03  0.00000000000E+00 0.  1.
         13    1    5    5    0    0 -0.17514608577E+02 -0.31278947089E+03 -0.38477851079E+03  0.49618395478E+03  0.00000000000E+00 0.  1.
        -13    1    5    5    0    0 -0.12306164299E+03 -0.44129516597E+03 -0.63487172544E+03  0.78290976444E+03  0.00000000000E+00 0. -1.
          3    1    6    6  503    0  0.40425017471E+03 -0.23006112148E+03 -0.45180462832E+03  0.64843946945E+03  0.00000000000E+00 0. -1.
         -3    1    6    6    0  503  0.18151397076E+03 -0.44624648480E+02 -0.21509154838E+03  0.28496149743E+03  0.00000000000E+00 0.  1.
<mgrwt>
<rscale>  0 0.30726902E+04</rscale>
<asrwt>0</asrwt>
<pdfrwt beam="1">  1        2 0.36670365E+00 0.30726902E+04</pdfrwt>
<pdfrwt beam="2">  1       -1 0.15234760E+00 0.30726902E+04</pdfrwt>
<totfact> 0.13143707E+00</totfact>
</mgrwt>
</event>
<event>
12    7  0.1740517E-007  0.1339981E+04  0.7818608E-02  0.8998447E-01
         -1   -1    0    0    0  501 -0.00000000000E+00  0.00000000000E+00  0.54509808845E+03  0.54509808845E+03  0.00000000000E+00 0.  1.
          2   -1    0    0  501    0  0.00000000000E+00 -0.00000000000E+00 -0.82349781375E+03  0.82349781375E+03  0.00000000000E+00 0. -1.
         24    2    1    2    0    0 -0.31947158240E+02  0.31222031620E+03  0.10123003948E+03  0.34482047583E+03  0.10075461725E+03 0.  0.
        254    2    1    2    0    0  0.31947158240E+02 -0.31222031620E+03 -0.37962976478E+03  0.10237754264E+04  0.89749385433E+03 0.  0.
         23    2    4    4    0    0  0.20724367175E+03 -0.56280281097E+03 -0.35490665114E+03  0.70430484404E+03  0.10192957761E+03 0.  0.
         23    2    4    4    0    0 -0.17529651351E+03  0.25058249478E+03 -0.24723113640E+02  0.31947058233E+03  0.89049235198E+02 0.  0.
          4    1    3    3  502    0  0.32200043678E+01  0.11555097504E+03 -0.10222865476E+02  0.11604698721E+03  0.00000000000E+00 0. -1.
         -3    1    3    3    0  502 -0.35167162608E+02  0.19666934115E+03  0.11145290495E+03  0.22877348862E+03  0.00000000000E+00 0.  1.
         13    1    5    5    0    0  0.22276700815E+02 -0.88227057280E+02 -0.98362941987E+02  0.13399825891E+03  0.00000000000E+00 0. -1.
        -13    1    5    5    0    0  0.18496697093E+03 -0.47457575369E+03 -0.25654370915E+03  0.57030658512E+03  0.00000000000E+00 0.  1.
          2    1    6    6  503    0 -0.13220764126E+03  0.12227088448E+03  0.78550099792E+01  0.18025185375E+03  0.00000000000E+00 0. -1.
         -2    1    6    6    0  503 -0.43088872253E+02  0.12831161030E+03 -0.32578123619E+02  0.13921872858E+03  0.00000000000E+00 0.  1.
<mgrwt>
<rscale>  0 0.13399807E+04</rscale>
<asrwt>0</asrwt>
<pdfrwt beam="1">  1        2 0.12669197E+00 0.13399807E+04</pdfrwt>
<pdfrwt beam="2">  1       -1 0.83861245E-01 0.13399807E+04</pdfrwt>
<totfact> 0.52142993E+01</totfact>
</mgrwt>
</event>
<event>
12    7  0.1740517E-007  0.3203267E+04  0.7818608E-02  0.8187955E-01
         -1   -1    0    0    0  501 -0.00000000000E+00  0.00000000000E+00  0.60620355268E+03  0.60620355268E+03  0.00000000000E+00 0.  1.
          2   -1    0    0  501    0  0.00000000000E+00 -0.00000000000E+00 -0.42316316815E+04  0.42316316815E+04  0.00000000000E+00 0. -1.
         24    2    1    2    0    0  0.27325641333E+03  0.12259006465E+04 -0.50459130169E+03  0.13560479299E+04  0.82171430446E+02 0.  0.
        254    2    1    2    0    0 -0.27325641333E+03 -0.12259006465E+04 -0.31208368271E+04  0.34817873043E+04  0.89761844243E+03 0.  0.
         23    2    4    4    0    0 -0.30973607587E+03 -0.27077263074E+03 -0.34106683055E+03  0.54091427556E+03  0.83710312098E+02 0.  0.
         23    2    4    4    0    0  0.36479662543E+02 -0.95512801575E+03 -0.27797699966E+04  0.29408730287E+04  0.89513378394E+02 0.  0.
          4    1    3    3  502    0  0.12100836407E+02  0.69856676737E+02 -0.91501634705E+01  0.71485040519E+02  0.00000000000E+00 0. -1.
         -3    1    3    3    0  502  0.26115557692E+03  0.11560439697E+04 -0.49544113821E+03  0.12845628894E+04  0.00000000000E+00 0.  1.
         13    1    5    5    0    0 -0.43223934124E+02 -0.50005372081E+02 -0.97219376750E+02  0.11756042248E+03  0.00000000000E+00 0.  1.
        -13    1    5    5    0    0 -0.26651214175E+03 -0.22076725866E+03 -0.24384745380E+03  0.42335385308E+03  0.00000000000E+00 0. -1.
          4    1    6    6  503    0  0.50008397123E+02 -0.33293918053E+03 -0.10406964984E+04  0.10938000455E+04  0.00000000000E+00 0.  1.
         -4    1    6    6    0  503 -0.13528734580E+02 -0.62218883522E+03 -0.17390734982E+04  0.18470729833E+04  0.00000000000E+00 0. -1.
<mgrwt>
<rscale>  0 0.32032672E+04</rscale>
<asrwt>0</asrwt>
<pdfrwt beam="1">  1        2 0.65102023E+00 0.32032672E+04</pdfrwt>
<pdfrwt beam="2">  1       -1 0.93262089E-01 0.32032672E+04</pdfrwt>
<totfact> 0.23230894E-01</totfact>
</mgrwt>
</event>
<event>
12    7  0.1740517E-007  0.1865122E+04  0.7818608E-02  0.8672415E-01
          2   -1    0    0  501    0  0.00000000000E+00  0.00000000000E+00  0.20297897224E+04  0.20297897224E+04  0.00000000000E+00 0. -1.
         -1   -1    0    0    0  501 -0.00000000000E+00 -0.00000000000E+00 -0.42845337865E+03  0.42845337865E+03  0.00000000000E+00 0.  1.
         24    2    1    2    0    0  0.78359314810E+02  0.39731773306E+03 -0.15991438831E+03  0.44261092351E+03  0.79562898360E+02 0.  0.
        254    2    1    2    0    0 -0.78359314810E+02 -0.39731773306E+03  0.17612507321E+04  0.20156321776E+04  0.89261826708E+03 0.  0.
         23    2    4    4    0    0 -0.37604662745E+03 -0.25201435616E+03  0.39703990677E+03  0.60873270045E+03  0.89400846167E+02 0.  0.
         23    2    4    4    0    0  0.29768731264E+03 -0.14530337690E+03  0.13642108253E+04  0.14068994771E+04  0.92542721866E+02 0.  0.
          2    1    3    3  502    0  0.38002869124E+02  0.17787860979E+03 -0.11445767899E+03  0.21490830175E+03  0.00000000000E+00 0. -1.
         -1    1    3    3    0  502  0.40356445685E+02  0.21943912328E+03 -0.45456709321E+02  0.22770262176E+03  0.00000000000E+00 0.  1.
         13    1    5    5    0    0 -0.76120954613E+02 -0.20422837864E+02  0.41284908514E+02  0.88971544375E+02  0.00000000000E+00 0. -1.
        -13    1    5    5    0    0 -0.29992567283E+03 -0.23159151830E+03  0.35575499826E+03  0.51976115607E+03  0.00000000000E+00 0.  1.
          3    1    6    6  503    0  0.11247746910E+03 -0.27592093089E+02  0.63147118396E+03  0.64200339628E+03  0.00000000000E+00 0. -1.
         -3    1    6    6    0  503  0.18520984354E+03 -0.11771128381E+03  0.73273964135E+03  0.76489608084E+03  0.00000000000E+00 0.  1.
<mgrwt>
<rscale>  0 0.18651223E+04</rscale>
<asrwt>0</asrwt>
<pdfrwt beam="1">  1        2 0.31227534E+00 0.18651223E+04</pdfrwt>
<pdfrwt beam="2">  1       -1 0.65915906E-01 0.18651223E+04</pdfrwt>
<totfact> 0.16043149E+01</totfact>
</mgrwt>
</event>
<event>
12    7  0.3014473E-007  0.1058925E+04  0.7818608E-02  0.9246178E-01
          2   -1    0    0  501    0  0.00000000000E+00  0.00000000000E+00  0.14226108053E+04  0.14226108053E+04  0.00000000000E+00 0. -1.
         -1   -1    0    0    0  501 -0.00000000000E+00 -0.00000000000E+00 -0.19705341607E+03  0.19705341607E+03  0.00000000000E+00 0.  1.
         24    2    1    2    0    0 -0.10353121988E+03  0.97370217893E+02  0.48198689466E+03  0.51391910620E+03  0.10771169050E+03 0.  0.
        254    2    1    2    0    0  0.10353121988E+03 -0.97370217893E+02  0.74357049455E+03  0.11057451151E+04  0.80596247213E+03 0.  0.
         23    2    4    4    0    0 -0.14191726087E+03  0.11090144222E+03  0.74464890546E+03  0.77154033516E+03  0.91284486892E+02 0.  0.
         23    2    4    4    0    0  0.24544848075E+03 -0.20827166011E+03 -0.10784109193E+01  0.33420477998E+03  0.89831124254E+02 0.  0.
          2    1    3    3  502    0 -0.62338745018E+02  0.50476297372E+02  0.41370025929E+03  0.42140465145E+03  0.00000000000E+00 0. -1.
         -1    1    3    3    0  502 -0.41192474862E+02  0.46893920521E+02  0.68286635365E+02  0.92514454744E+02  0.00000000000E+00 0.  1.
         13    1    5    5    0    0 -0.44223703632E+01  0.14381135939E+02  0.10329675456E+02  0.18250386997E+02  0.00000000000E+00 0.  1.
        -13    1    5    5    0    0 -0.13749489051E+03  0.96520306280E+02  0.73431923001E+03  0.75328994816E+03  0.00000000000E+00 0. -1.
          1    1    6    6  503    0  0.24149286781E+03 -0.19925394609E+03 -0.19103571336E+02  0.31366524620E+03  0.00000000000E+00 0. -1.
         -1    1    6    6    0  503  0.39556129364E+01 -0.90177140263E+01  0.18025160417E+02  0.20539533783E+02  0.00000000000E+00 0.  1.
<mgrwt>
<rscale>  0 0.10589246E+04</rscale>
<asrwt>0</asrwt>
<pdfrwt beam="1">  1        2 0.21886319E+00 0.10589246E+04</pdfrwt>
<pdfrwt beam="2">  1       -1 0.30315911E-01 0.10589246E+04</pdfrwt>
<totfact> 0.15940479E+02</totfact>
</mgrwt>
</event>
<event>
12    7  0.1740517E-007  0.2853856E+04  0.7818608E-02  0.8286740E-01
         -1   -1    0    0    0  501 -0.00000000000E+00  0.00000000000E+00  0.18000687152E+04  0.18000687152E+04  0.00000000000E+00 0.  1.
          2   -1    0    0  501    0  0.00000000000E+00 -0.00000000000E+00 -0.11311367653E+04  0.11311367653E+04  0.00000000000E+00 0. -1.
         24    2    1    2    0    0  0.84856266042E+03  0.53199273599E+03  0.11205240306E+04  0.15049889442E+04  0.79641442291E+02 0.  0.
        254    2    1    2    0    0 -0.84856266042E+03 -0.53199273599E+03 -0.45159208073E+03  0.14262165363E+04  0.90944122470E+03 0.  0.
         23    2    4    4    0    0 -0.31236827996E+03 -0.22532412074E+03 -0.65826966665E+03  0.76810109574E+03  0.91189020967E+02 0.  0.
         23    2    4    4    0    0 -0.53619438046E+03 -0.30666861526E+03  0.20667758592E+03  0.65811544054E+03  0.94075795713E+02 0.  0.
          4    1    3    3  502    0  0.17835780974E+03  0.96221050587E+02  0.18465194351E+03  0.27416480283E+03  0.00000000000E+00 0. -1.
         -3    1    3    3    0  502  0.67020485068E+03  0.43577168541E+03  0.93587208709E+03  0.12308241414E+04  0.00000000000E+00 0.  1.
         13    1    5    5    0    0 -0.43610103764E+02 -0.17957892349E+02 -0.36256581291E+02  0.59488374788E+02  0.00000000000E+00 0. -1.
        -13    1    5    5    0    0 -0.26875817620E+03 -0.20736622839E+03 -0.62201308535E+03  0.70861272096E+03  0.00000000000E+00 0.  1.
          4    1    6    6  503    0 -0.17787275730E+02 -0.43750745236E+01  0.25229604173E+02  0.31177898930E+02  0.00000000000E+00 0. -1.
         -4    1    6    6    0  503 -0.51840710473E+03 -0.30229354073E+03  0.18144798175E+03  0.62693754161E+03  0.00000000000E+00 0.  1.
<mgrwt>
<rscale>  0 0.28538563E+04</rscale>
<asrwt>0</asrwt>
<pdfrwt beam="1">  1        2 0.17402104E+00 0.28538563E+04</pdfrwt>
<pdfrwt beam="2">  1       -1 0.27693365E+00 0.28538563E+04</pdfrwt>
<totfact> 0.95873990E-01</totfact>
</mgrwt>
</event>
<event>
12    7  0.1740517E-007  0.2397391E+04  0.7818608E-02  0.8440481E-01
          2   -1    0    0  501    0  0.00000000000E+00  0.00000000000E+00  0.13002528510E+04  0.13002528510E+04  0.00000000000E+00 0. -1.
         -1   -1    0    0    0  501 -0.00000000000E+00 -0.00000000000E+00 -0.11050706082E+04  0.11050706082E+04  0.00000000000E+00 0.  1.
         24    2    1    2    0    0  0.22876101758E+03  0.40376107638E+03  0.10060179388E+04  0.11107417081E+04  0.79501188321E+02 0.  0.
        254    2    1    2    0    0 -0.22876101758E+03 -0.40376107638E+03 -0.81083569598E+03  0.12945817511E+04  0.89617675405E+03 0.  0.
         23    2    4    4    0    0 -0.27527232286E+03 -0.20204820962E+03  0.91565919190E+02  0.36415176779E+03  0.87314727754E+02 0.  0.
         23    2    4    4    0    0  0.46511305272E+02 -0.20171286675E+03 -0.90240161517E+03  0.93042998334E+03  0.92303286457E+02 0.  0.
          2    1    3    3  502    0  0.18856943251E+03  0.36940962028E+03  0.92833824649E+03  0.10167761791E+04  0.00000000000E+00 0. -1.
         -1    1    3    3    0  502  0.40191585078E+02  0.34351456094E+02  0.77679692332E+02  0.93965529040E+02  0.00000000000E+00 0.  1.
         13    1    5    5    0    0 -0.25599651638E+03 -0.20998105796E+03  0.90666453561E+02  0.34328802325E+03  0.00000000000E+00 0. -1.
        -13    1    5    5    0    0 -0.19275806472E+02  0.79328483362E+01  0.89946562872E+00  0.20863744541E+02  0.00000000000E+00 0.  1.
          2    1    6    6  503    0  0.26596988162E+02 -0.49786253170E+02 -0.11321235182E+03  0.12650338884E+03  0.00000000000E+00 0.  1.
         -2    1    6    6    0  503  0.19914317110E+02 -0.15192661358E+03 -0.78918926336E+03  0.80392659450E+03  0.00000000000E+00 0. -1.
<mgrwt>
<rscale>  0 0.23973913E+04</rscale>
<asrwt>0</asrwt>
<pdfrwt beam="1">  1        2 0.20003890E+00 0.23973913E+04</pdfrwt>
<pdfrwt beam="2">  1       -1 0.17001086E+00 0.23973913E+04</pdfrwt>
<totfact> 0.41672542E+00</totfact>
</mgrwt>
</event>
<event>
12    7  0.1740517E-007  0.1478508E+04  0.7818608E-02  0.8898872E-01
          2   -1    0    0  501    0  0.00000000000E+00  0.00000000000E+00  0.14718569377E+04  0.14718569377E+04  0.00000000000E+00 0. -1.
         -1   -1    0    0    0  501 -0.00000000000E+00 -0.00000000000E+00 -0.37129705912E+03  0.37129705912E+03  0.00000000000E+00 0.  1.
         24    2    1    2    0    0  0.25666015579E+03  0.38387418588E+03  0.38344024023E+03  0.60550683674E+03  0.79864168208E+02 0.  0.
        254    2    1    2    0    0 -0.25666015579E+03 -0.38387418588E+03  0.71711963834E+03  0.12376471601E+04  0.89681441277E+03 0.  0.
         23    2    4    4    0    0 -0.44662252040E+03 -0.15027407321E+03  0.78141844867E+03  0.91692320062E+03  0.89885433292E+02 0.  0.
         23    2    4    4    0    0  0.18996236461E+03 -0.23360011267E+03 -0.64298810325E+02  0.32072395944E+03  0.89859938477E+02 0.  0.
          4    1    3    3  502    0  0.20549183114E+03  0.32065715762E+03  0.27408420361E+03  0.46922282134E+03  0.00000000000E+00 0. -1.
         -3    1    3    3    0  502  0.51168324646E+02  0.63217028253E+02  0.10935603662E+03  0.13628401540E+03  0.00000000000E+00 0.  1.
         13    1    5    5    0    0 -0.32383765938E+03 -0.14243931470E+03  0.62169197553E+03  0.71530462073E+03  0.00000000000E+00 0.  1.
        -13    1    5    5    0    0 -0.12278486101E+03 -0.78347585090E+01  0.15972647314E+03  0.20161857989E+03  0.00000000000E+00 0. -1.
          1    1    6    6  503    0  0.10303490379E+03 -0.11024992812E+03  0.12470867220E+02  0.15141585312E+03  0.00000000000E+00 0. -1.
         -1    1    6    6    0  503  0.86927460821E+02 -0.12335018455E+03 -0.76769677545E+02  0.16930810632E+03  0.00000000000E+00 0.  1.
<mgrwt>
<rscale>  0 0.14785076E+04</rscale>
<asrwt>0</asrwt>
<pdfrwt beam="1">  1        2 0.22643953E+00 0.14785076E+04</pdfrwt>
<pdfrwt beam="2">  1       -1 0.57122625E-01 0.14785076E+04</pdfrwt>
<totfact> 0.45059642E+01</totfact>
</mgrwt>
</event>
<event>
12    7  0.1740517E-007  0.1546648E+04  0.7818608E-02  0.8854012E-01
         -1   -1    0    0    0  501 -0.00000000000E+00  0.00000000000E+00  0.52459801167E+03  0.52459801167E+03  0.00000000000E+00 0.  1.
          2   -1    0    0  501    0  0.00000000000E+00 -0.00000000000E+00 -0.11399779678E+04  0.11399779678E+04  0.00000000000E+00 0. -1.
         24    2    1    2    0    0  0.17702899745E+03 -0.41519385715E+03  0.35200667806E+02  0.45970277309E+03  0.79764325437E+02 0.  0.
        254    2    1    2    0    0 -0.17702899745E+03  0.41519385715E+03 -0.65058062399E+03  0.12048732064E+04  0.90815146881E+03 0.  0.
         23    2    4    4    0    0 -0.22971342308E+03 -0.22055293794E+03 -0.38182263630E+03  0.50545173230E+03  0.91000400657E+02 0.  0.
         23    2    4    4    0    0  0.52684425627E+02  0.63574679510E+03 -0.26875798768E+03  0.69942147412E+03  0.10004951943E+03 0.  0.
          4    1    3    3  502    0  0.65740050352E+02 -0.96646116813E+02 -0.17484874725E+02  0.11818606923E+03  0.00000000000E+00 0. -1.
         -3    1    3    3    0  502  0.11128894710E+03 -0.31854774034E+03  0.52685542531E+02  0.34151670386E+03  0.00000000000E+00 0.  1.
         13    1    5    5    0    0 -0.84235328108E+02 -0.44974833515E+02 -0.66665187920E+02  0.11645846226E+03  0.00000000000E+00 0.  1.
        -13    1    5    5    0    0 -0.14547809497E+03 -0.17557810443E+03 -0.31515744838E+03  0.38899327005E+03  0.00000000000E+00 0. -1.
          3    1    6    6  503    0  0.69688710038E+02  0.59563090975E+03 -0.23417463764E+03  0.64379380074E+03  0.00000000000E+00 0. -1.
         -3    1    6    6    0  503 -0.17004284411E+02  0.40115885344E+02 -0.34583350046E+02  0.55627673380E+02  0.00000000000E+00 0.  1.
<mgrwt>
<rscale>  0 0.15466482E+04</rscale>
<asrwt>0</asrwt>
<pdfrwt beam="1">  1        2 0.17538123E+00 0.15466482E+04</pdfrwt>
<pdfrwt beam="2">  1       -1 0.80707386E-01 0.15466482E+04</pdfrwt>
<totfact> 0.34614730E+01</totfact>
</mgrwt>
</event>
<event>
12    7  0.1740517E-007  0.1608872E+04  0.7818608E-02  0.8815116E-01
          2   -1    0    0  501    0  0.00000000000E+00  0.00000000000E+00  0.24082779066E+04  0.24082779066E+04  0.00000000000E+00 0. -1.
         -1   -1    0    0    0  501 -0.00000000000E+00 -0.00000000000E+00 -0.26870554031E+03  0.26870554031E+03  0.00000000000E+00 0.  1.
         24    2    1    2    0    0 -0.32280500089E+03 -0.98555301190E+01 -0.30742237528E+01  0.33208173117E+03  0.77256878340E+02 0.  0.
        254    2    1    2    0    0  0.32280500089E+03  0.98555301190E+01  0.21426465901E+04  0.23449017158E+04  0.89628647577E+03 0.  0.
         23    2    4    4    0    0  0.26018714161E+02  0.27512714634E+03  0.17643257548E+04  0.17882294338E+04  0.92451170035E+02 0.  0.
         23    2    4    4    0    0  0.29678628673E+03 -0.26527161622E+03  0.37832083530E+03  0.55667228197E+03  0.91138601750E+02 0.  0.
          4    1    3    3  502    0 -0.16566223887E+03 -0.73377422696E+00  0.36801210055E+02  0.16970222413E+03  0.00000000000E+00 0. -1.
         -3    1    3    3    0  502 -0.15714276202E+03 -0.91217558921E+01 -0.39875433808E+02  0.16237950704E+03  0.00000000000E+00 0.  1.
         13    1    5    5    0    0  0.41124402359E+02  0.67864985690E+02  0.63542359752E+03  0.64035929059E+03  0.00000000000E+00 0.  1.
        -13    1    5    5    0    0 -0.15105688197E+02  0.20726216065E+03  0.11289021572E+04  0.11478701432E+04  0.00000000000E+00 0. -1.
          1    1    6    6  503    0  0.29863499588E+03 -0.26478043009E+03  0.35765618615E+03  0.53591928909E+03  0.00000000000E+00 0. -1.
         -1    1    6    6    0  503 -0.18487091476E+01 -0.49118613160E+00  0.20664649145E+02  0.20752992883E+02  0.00000000000E+00 0.  1.
<mgrwt>
<rscale>  0 0.16088724E+04</rscale>
<asrwt>0</asrwt>
<pdfrwt beam="1">  1        2 0.37050428E+00 0.16088724E+04</pdfrwt>
<pdfrwt beam="2">  1       -1 0.41339316E-01 0.16088724E+04</pdfrwt>
<totfact> 0.24642184E+01</totfact>
</mgrwt>
</event>
<event>
12    7  0.1740517E-007  0.2442573E+04  0.7818608E-02  0.8423735E-01
         -1   -1    0    0    0  501 -0.00000000000E+00  0.00000000000E+00  0.47439990099E+03  0.47439990099E+03  0.00000000000E+00 0.  1.
          2   -1    0    0  501    0  0.00000000000E+00 -0.00000000000E+00 -0.31440575559E+04  0.31440575559E+04  0.00000000000E+00 0. -1.
         24    2    1    2    0    0  0.33564748113E+03  0.71402763555E+03 -0.12965393151E+03  0.80355576128E+03  0.79981395432E+02 0.  0.
        254    2    1    2    0    0 -0.33564748113E+03 -0.71402763555E+03 -0.25400037234E+04  0.28149016956E+04  0.92171467663E+03 0.  0.
         23    2    4    4    0    0  0.29854137413E+03 -0.32198936771E+03 -0.74938186922E+03  0.87303100497E+03  0.88350691796E+02 0.  0.
         23    2    4    4    0    0 -0.63418885526E+03 -0.39203826784E+03 -0.17906218542E+04  0.19418706906E+04  0.92981970707E+02 0.  0.
          2    1    3    3  502    0  0.98553796065E+02  0.23936230306E+03 -0.68676456453E+01  0.25894850337E+03  0.00000000000E+00 0. -1.
         -1    1    3    3    0  502  0.23709368507E+03  0.47466533249E+03 -0.12278628586E+03  0.54460725790E+03  0.00000000000E+00 0.  1.
         13    1    5    5    0    0  0.23574541845E+03 -0.29328289671E+03 -0.59631167243E+03  0.70510876502E+03  0.00000000000E+00 0.  1.
        -13    1    5    5    0    0  0.62795955680E+02 -0.28706470996E+02 -0.15307019679E+03  0.16792223995E+03  0.00000000000E+00 0. -1.
          1    1    6    6  503    0 -0.57535471854E+03 -0.38246105778E+03 -0.16720015355E+04  0.18091154324E+04  0.00000000000E+00 0. -1.
         -1    1    6    6    0  503 -0.58834136727E+02 -0.95772100586E+01 -0.11862031866E+03  0.13275525826E+03  0.00000000000E+00 0.  1.
<mgrwt>
<rscale>  0 0.24425729E+04</rscale>
<asrwt>0</asrwt>
<pdfrwt beam="1">  1        2 0.48370117E+00 0.24425729E+04</pdfrwt>
<pdfrwt beam="2">  1       -1 0.72984599E-01 0.24425729E+04</pdfrwt>
<totfact> 0.27210847E+00</totfact>
</mgrwt>
</event>
<event>
12    7  0.1740517E-007  0.1034426E+04  0.7818608E-02  0.9271572E-01
         -1   -1    0    0    0  501 -0.00000000000E+00  0.00000000000E+00  0.71038074340E+03  0.71038074340E+03  0.00000000000E+00 0.  1.
          2   -1    0    0  501    0  0.00000000000E+00 -0.00000000000E+00 -0.37657201639E+03  0.37657201639E+03  0.00000000000E+00 0. -1.
         24    2    1    2    0    0  0.28702966398E+02  0.12178067736E+02 -0.59586706639E+02  0.10392542376E+03  0.79232269196E+02 0.  0.
        254    2    1    2    0    0 -0.28702966398E+02 -0.12178067736E+02  0.39339543364E+03  0.98302733603E+03  0.90033916418E+03 0.  0.
         23    2    4    4    0    0 -0.24828898954E+03 -0.36563164106E+03  0.30866749432E+03  0.54629832608E+03  0.88500394080E+02 0.  0.
         23    2    4    4    0    0  0.21958602314E+03  0.35345357333E+03  0.84727939326E+02  0.43672900995E+03  0.10200957981E+03 0.  0.
          4    1    3    3  502    0  0.12463554651E+02  0.52111081601E+01 -0.77555670353E+02  0.78723426289E+02  0.00000000000E+00 0. -1.
         -3    1    3    3    0  502  0.16239411747E+02  0.69669595758E+01  0.17968963714E+02  0.25201997472E+02  0.00000000000E+00 0.  1.
         13    1    5    5    0    0 -0.45196172450E+01 -0.56218131955E+02  0.46847961477E+02  0.73318734271E+02  0.00000000000E+00 0. -1.
        -13    1    5    5    0    0 -0.24376937229E+03 -0.30941350911E+03  0.26181953284E+03  0.47297959181E+03  0.00000000000E+00 0.  1.
          1    1    6    6  503    0 -0.41333992588E+01  0.44426186498E+02  0.23207179588E+02  0.50292586140E+02  0.00000000000E+00 0. -1.
         -1    1    6    6    0  503  0.22371942240E+03  0.30902738683E+03  0.61520759737E+02  0.38643642381E+03  0.00000000000E+00 0.  1.
<mgrwt>
<rscale>  0 0.10344264E+04</rscale>
<asrwt>0</asrwt>
<pdfrwt beam="1">  1        2 0.57934156E-01 0.10344264E+04</pdfrwt>
<pdfrwt beam="2">  1       -1 0.10928935E+00 0.10344264E+04</pdfrwt>
<totfact> 0.75304092E+01</totfact>
</mgrwt>
</event>
<event>
12    7  0.1740517E-007  0.1518819E+04  0.7818608E-02  0.8872034E-01
          2   -1    0    0  501    0  0.00000000000E+00  0.00000000000E+00  0.30162539192E+04  0.30162539192E+04  0.00000000000E+00 0. -1.
         -1   -1    0    0    0  501 -0.00000000000E+00 -0.00000000000E+00 -0.19119845121E+03  0.19119845121E+03  0.00000000000E+00 0.  1.
         24    2    1    2    0    0 -0.54673461080E+02  0.47540777360E+03  0.11464527110E+04  0.12456552217E+04  0.91111877565E+02 0.  0.
        254    2    1    2    0    0  0.54673461080E+02 -0.47540777360E+03  0.16786027569E+04  0.19617971487E+04  0.89551052388E+03 0.  0.
         23    2    4    4    0    0 -0.26358853234E+03 -0.59519911158E+03  0.99662573139E+03  0.11940340865E+04  0.93346957050E+02 0.  0.
         23    2    4    4    0    0  0.31826199342E+03  0.11979133797E+03  0.68197702554E+03  0.76776306218E+03  0.93417317374E+02 0.  0.
          2    1    3    3  502    0 -0.20951226203E+02  0.21372099025E+03  0.40092606291E+03  0.45481570275E+03  0.00000000000E+00 0. -1.
         -1    1    3    3    0  502 -0.33722234877E+02  0.26168678336E+03  0.74552664811E+03  0.79083951896E+03  0.00000000000E+00 0.  1.
         13    1    5    5    0    0  0.58075836964E+01 -0.31433922875E+01  0.15765610984E+02  0.17092788923E+02  0.00000000000E+00 0. -1.
        -13    1    5    5    0    0 -0.26939611603E+03 -0.59205571929E+03  0.98086012040E+03  0.11769412976E+04  0.00000000000E+00 0.  1.
          1    1    6    6  503    0  0.11345648724E+03 -0.68605536343E+00  0.18744577789E+03  0.21910902495E+03  0.00000000000E+00 0. -1.
         -1    1    6    6    0  503  0.20480550618E+03  0.12047739334E+03  0.49453124765E+03  0.54865403723E+03  0.00000000000E+00 0.  1.
<mgrwt>
<rscale>  0 0.15188194E+04</rscale>
<asrwt>0</asrwt>
<pdfrwt beam="1">  1        2 0.46403903E+00 0.15188194E+04</pdfrwt>
<pdfrwt beam="2">  1       -1 0.29415149E-01 0.15188194E+04</pdfrwt>
<totfact> 0.19879790E+01</totfact>
</mgrwt>
</event>
<event>
12    7  0.1740517E-007  0.1897055E+04  0.7818608E-02  0.8656324E-01
          2   -1    0    0  501    0  0.00000000000E+00  0.00000000000E+00  0.22870795992E+04  0.22870795992E+04  0.00000000000E+00 0. -1.
         -1   -1    0    0    0  501 -0.00000000000E+00 -0.00000000000E+00 -0.39338566423E+03  0.39338566423E+03  0.00000000000E+00 0.  1.
         24    2    1    2    0    0  0.49553176183E+03 -0.63769236726E+02 -0.20592026740E+02  0.50662458848E+03  0.81401471444E+02 0.  0.
        254    2    1    2    0    0 -0.49553176183E+03  0.63769236726E+02  0.19142859618E+04  0.21738406750E+04  0.90081868005E+03 0.  0.
         23    2    4    4    0    0  0.15428550886E+03  0.28427603044E+03  0.55699736223E+03  0.65019292710E+03  0.88813856978E+02 0.  0.
         23    2    4    4    0    0 -0.64981727069E+03 -0.22050679372E+03  0.13572885995E+04  0.15236477479E+04  0.91566292370E+02 0.  0.
          4    1    3    3  502    0  0.12150777055E+02 -0.72849135835E+01  0.12414051416E+02  0.18836666943E+02  0.00000000000E+00 0. -1.
         -3    1    3    3    0  502  0.48338098478E+03 -0.56484323142E+02 -0.33006078156E+02  0.48778792154E+03  0.00000000000E+00 0.  1.
         13    1    5    5    0    0  0.16563378538E+03  0.25577550440E+03  0.50798575286E+03  0.59237250494E+03  0.00000000000E+00 0.  1.
        -13    1    5    5    0    0 -0.11348276521E+02  0.28500526044E+02  0.49011609373E+02  0.57820422154E+02  0.00000000000E+00 0. -1.
          3    1    6    6  503    0 -0.12721360161E+03 -0.94222029317E+01  0.21840171851E+03  0.25292565902E+03  0.00000000000E+00 0. -1.
         -3    1    6    6    0  503 -0.52260366908E+03 -0.21108459078E+03  0.11388868810E+04  0.12707220889E+04  0.00000000000E+00 0.  1.
<mgrwt>
<rscale>  0 0.18970549E+04</rscale>
<asrwt>0</asrwt>
<pdfrwt beam="1">  1        2 0.35185839E+00 0.18970549E+04</pdfrwt>
<pdfrwt beam="2">  1       -1 0.60520873E-01 0.18970549E+04</pdfrwt>
<totfact> 0.13619548E+01</totfact>
</mgrwt>
</event>
<event>
12    7  0.1740517E-007  0.1475347E+04  0.7818608E-02  0.8901014E-01
         -1   -1    0    0    0  501 -0.00000000000E+00  0.00000000000E+00  0.12843098658E+04  0.12843098658E+04  0.00000000000E+00 0.  1.
          2   -1    0    0  501    0  0.00000000000E+00 -0.00000000000E+00 -0.42370023647E+03  0.42370023647E+03  0.00000000000E+00 0. -1.
         24    2    1    2    0    0  0.39227485584E+03  0.38869500141E+02  0.33499791839E+03  0.52351335483E+03  0.80325754232E+02 0.  0.
        254    2    1    2    0    0 -0.39227485584E+03 -0.38869500141E+02  0.52561171095E+03  0.11844967474E+04  0.98558331635E+03 0.  0.
         23    2    4    4    0    0 -0.68525571001E+03 -0.15474304213E+03  0.23537091482E+03  0.74643888382E+03  0.90833598120E+02 0.  0.
         23    2    4    4    0    0  0.29298085416E+03  0.11587354199E+03  0.29024079613E+03  0.43805786363E+03  0.91599746256E+02 0.  0.
          4    1    3    3  502    0  0.76164512384E+02 -0.10585734743E+01  0.10858865383E+03  0.13264105422E+03  0.00000000000E+00 0. -1.
         -3    1    3    3    0  502  0.31611034346E+03  0.39928073615E+02  0.22640926455E+03  0.39087230061E+03  0.00000000000E+00 0.  1.
         13    1    5    5    0    0 -0.61679663772E+03 -0.16361308735E+03  0.22499887434E+03  0.67663271286E+03  0.00000000000E+00 0. -1.
        -13    1    5    5    0    0 -0.68459072284E+02  0.88700452167E+01  0.10372040480E+02  0.69806170958E+02  0.00000000000E+00 0.  1.
          2    1    6    6  503    0  0.19173268506E+03  0.62639950897E+02  0.23893248071E+03  0.31268820942E+03  0.00000000000E+00 0. -1.
         -2    1    6    6    0  503  0.10124816910E+03  0.53233591095E+02  0.51308315413E+02  0.12536965422E+03  0.00000000000E+00 0.  1.
<mgrwt>
<rscale>  0 0.14753473E+04</rscale>
<asrwt>0</asrwt>
<pdfrwt beam="1">  1        2 0.65184652E-01 0.14753473E+04</pdfrwt>
<pdfrwt beam="2">  1       -1 0.19758613E+00 0.14753473E+04</pdfrwt>
<totfact> 0.12899461E+01</totfact>
</mgrwt>
</event>
<event>
12    7  0.1740517E-007  0.1413978E+04  0.7818608E-02  0.8943762E-01
         -1   -1    0    0    0  501 -0.00000000000E+00  0.00000000000E+00  0.28204889432E+03  0.28204889432E+03  0.00000000000E+00 0.  1.
          2   -1    0    0  501    0  0.00000000000E+00 -0.00000000000E+00 -0.17721524314E+04  0.17721524314E+04  0.00000000000E+00 0. -1.
         24    2    1    2    0    0  0.29445218228E+02  0.41592276698E+03 -0.36791954079E+03  0.56119139630E+03  0.75579268400E+02 0.  0.
        254    2    1    2    0    0 -0.29445218228E+02 -0.41592276698E+03 -0.11221839963E+04  0.14930099294E+04  0.89214514450E+03 0.  0.
         23    2    4    4    0    0 -0.11153383265E+03  0.14518435603E+03 -0.81833367108E+03  0.84318087521E+03  0.88123198009E+02 0.  0.
         23    2    4    4    0    0  0.82088614419E+02 -0.56110712301E+03 -0.30385032521E+03  0.64982905422E+03  0.91504292057E+02 0.  0.
          2    1    3    3  502    0  0.37509043395E+02  0.41369345577E+03 -0.36045027798E+03  0.54997600546E+03  0.00000000000E+00 0. -1.
         -1    1    3    3    0  502 -0.80638251673E+01  0.22293112170E+01 -0.74692628099E+01  0.11215390843E+02  0.00000000000E+00 0.  1.
         13    1    5    5    0    0 -0.60307322371E+02  0.40745798006E+02 -0.47816741315E+03  0.48367475454E+03  0.00000000000E+00 0. -1.
        -13    1    5    5    0    0 -0.51226510276E+02  0.10443855802E+03 -0.34016625793E+03  0.35950612066E+03  0.00000000000E+00 0.  1.
          2    1    6    6  503    0  0.89945820776E+01 -0.15562818542E+03 -0.41280821865E+02  0.16126109530E+03  0.00000000000E+00 0. -1.
         -2    1    6    6    0  503  0.73094032342E+02 -0.40547893760E+03 -0.26256950335E+03  0.48856795893E+03  0.00000000000E+00 0.  1.
<mgrwt>
<rscale>  0 0.14139783E+04</rscale>
<asrwt>0</asrwt>
<pdfrwt beam="1">  1        2 0.27263884E+00 0.14139783E+04</pdfrwt>
<pdfrwt beam="2">  1       -1 0.43392137E-01 0.14139783E+04</pdfrwt>
<totfact> 0.51913298E+01</totfact>
</mgrwt>
</event>
<event>
12    7  0.1740517E-007  0.2096300E+04  0.7818608E-02  0.8562875E-01
          2   -1    0    0  501    0  0.00000000000E+00  0.00000000000E+00  0.14214802786E+04  0.14214802786E+04  0.00000000000E+00 0. -1.
         -1   -1    0    0    0  501 -0.00000000000E+00 -0.00000000000E+00 -0.77286938330E+03  0.77286938330E+03  0.00000000000E+00 0.  1.
         24    2    1    2    0    0  0.10300719638E+02 -0.84687736770E+03  0.17047036283E+03  0.86765500294E+03  0.80359683772E+02 0.  0.
        254    2    1    2    0    0 -0.10300719638E+02  0.84687736770E+03  0.47814053244E+03  0.13266946589E+04  0.90232642017E+03 0.  0.
         23    2    4    4    0    0  0.16011215973E+02 -0.17963122989E+03  0.32144147809E+02  0.20329094821E+03  0.88148883120E+02 0.  0.
         23    2    4    4    0    0 -0.26311935611E+02  0.10265085976E+04  0.44599638463E+03  0.11234037107E+04  0.93332219969E+02 0.  0.
          2    1    3    3  502    0 -0.12649365776E+02 -0.75757314904E+03  0.13969805077E+03  0.77044962716E+03  0.00000000000E+00 0. -1.
         -3    1    3    3    0  502  0.22950085414E+02 -0.89304218654E+02  0.30772312065E+02  0.97205375775E+02  0.00000000000E+00 0.  1.
         13    1    5    5    0    0 -0.16536955464E+02  0.15864461507E+01  0.23419546005E+01  0.16777140959E+02  0.00000000000E+00 0. -1.
        -13    1    5    5    0    0  0.32548171437E+02 -0.18121767604E+03  0.29802193209E+02  0.18651380725E+03  0.00000000000E+00 0.  1.
          2    1    6    6  503    0 -0.48355796361E+02  0.53296500107E+03  0.26583159355E+03  0.59754197471E+03  0.00000000000E+00 0. -1.
         -2    1    6    6    0  503  0.22043860750E+02  0.49354359652E+03  0.18016479108E+03  0.52586173602E+03  0.00000000000E+00 0.  1.
<mgrwt>
<rscale>  0 0.20963002E+04</rscale>
<asrwt>0</asrwt>
<pdfrwt beam="1">  1        2 0.21868927E+00 0.20963002E+04</pdfrwt>
<pdfrwt beam="2">  1       -1 0.11890298E+00 0.20963002E+04</pdfrwt>
<totfact> 0.93563010E+00</totfact>
</mgrwt>
</event>
<event>
12    7  0.1740517E-007  0.1684407E+04  0.7818608E-02  0.8770308E-01
         -1   -1    0    0    0  501 -0.00000000000E+00  0.00000000000E+00  0.16117037541E+04  0.16117037541E+04  0.00000000000E+00 0.  1.
          2   -1    0    0  501    0  0.00000000000E+00 -0.00000000000E+00 -0.44009753977E+03  0.44009753977E+03  0.00000000000E+00 0. -1.
         24    2    1    2    0    0 -0.25406364127E+03 -0.39540512193E+03  0.87363457195E+03  0.99540117316E+03  0.81808226756E+02 0.  0.
        254    2    1    2    0    0  0.25406364127E+03  0.39540512193E+03  0.29797164235E+03  0.10564001207E+04  0.89794240964E+03 0.  0.
         23    2    4    4    0    0 -0.22805608208E+03  0.35595238831E+03 -0.72880654866E+02  0.44016853513E+03  0.98615770285E+02 0.  0.
         23    2    4    4    0    0  0.48211972335E+03  0.39452733629E+02  0.37085229722E+03  0.61623158554E+03  0.90631091990E+02 0.  0.
          4    1    3    3  502    0 -0.16019375108E+03 -0.30026893369E+03  0.57394127364E+03  0.66725711387E+03  0.00000000000E+00 0. -1.
         -3    1    3    3    0  502 -0.93869890191E+02 -0.95136188245E+02  0.29969329831E+03  0.32814405929E+03  0.00000000000E+00 0.  1.
         13    1    5    5    0    0 -0.77501450797E+02  0.98500623071E+02 -0.66442946956E+02  0.14185736788E+03  0.00000000000E+00 0. -1.
        -13    1    5    5    0    0 -0.15055463128E+03  0.25745176523E+03 -0.64377079105E+01  0.29831116725E+03  0.00000000000E+00 0.  1.
          1    1    6    6  503    0  0.78032231596E+02  0.21908549502E+02  0.27219221271E+02  0.85497951529E+02  0.00000000000E+00 0. -1.
         -1    1    6    6    0  503  0.40408749175E+03  0.17544184127E+02  0.34363307595E+03  0.53073363401E+03  0.00000000000E+00 0.  1.
<mgrwt>
<rscale>  0 0.16844071E+04</rscale>
<asrwt>0</asrwt>
<pdfrwt beam="1">  1        2 0.67707315E-01 0.16844071E+04</pdfrwt>
<pdfrwt beam="2">  1       -1 0.24795442E+00 0.16844071E+04</pdfrwt>
<totfact> 0.55887301E+00</totfact>
</mgrwt>
</event>
<event>
12    7  0.1740517E-007  0.1284958E+04  0.7818608E-02  0.9041580E-01
          2   -1    0    0  501    0  0.00000000000E+00  0.00000000000E+00  0.69569058868E+03  0.69569058868E+03  0.00000000000E+00 0. -1.
         -1   -1    0    0    0  501 -0.00000000000E+00 -0.00000000000E+00 -0.59333720015E+03  0.59333720015E+03  0.00000000000E+00 0.  1.
         24    2    1    2    0    0  0.75697925547E+02 -0.31156753568E+03  0.19876629935E+02  0.33129723070E+03  0.80983142876E+02 0.  0.
        254    2    1    2    0    0 -0.75697925547E+02  0.31156753568E+03  0.82476758593E+02  0.95773055813E+03  0.89868843380E+03 0.  0.
         23    2    4    4    0    0  0.15756370507E+03 -0.27325022406E+01 -0.33380544154E+03  0.37919477283E+03  0.86768745639E+02 0.  0.
         23    2    4    4    0    0 -0.23326163061E+03  0.31430003792E+03  0.41628220013E+03  0.57853578530E+03  0.90649228207E+02 0.  0.
          4    1    3    3  502    0  0.60098441327E+02 -0.29800892068E+03  0.34527530570E+02  0.30596288962E+03  0.00000000000E+00 0. -1.
         -3    1    3    3    0  502  0.15599484219E+02 -0.13558614995E+02 -0.14650900635E+02  0.25334341079E+02  0.00000000000E+00 0.  1.
         13    1    5    5    0    0  0.59699911726E+02 -0.22896638876E+02 -0.21316759128E+03  0.22255057291E+03  0.00000000000E+00 0.  1.
        -13    1    5    5    0    0  0.97863793341E+02  0.20164136636E+02 -0.12063785026E+03  0.15664419992E+03  0.00000000000E+00 0. -1.
          3    1    6    6  503    0 -0.20367321968E+03  0.27999544070E+03  0.40303714926E+03  0.53133715371E+03  0.00000000000E+00 0. -1.
         -3    1    6    6    0  503 -0.29588410931E+02  0.34304597212E+02  0.13245050876E+02  0.47198631590E+02  0.00000000000E+00 0.  1.
<mgrwt>
<rscale>  0 0.12849578E+04</rscale>
<asrwt>0</asrwt>
<pdfrwt beam="1">  1        2 0.10702932E+00 0.12849578E+04</pdfrwt>
<pdfrwt beam="2">  1       -1 0.91282646E-01 0.12849578E+04</pdfrwt>
<totfact> 0.54207362E+01</totfact>
</mgrwt>
</event>
<event>
12    7  0.1740517E-007  0.1931598E+04  0.7818608E-02  0.8639286E-01
          2   -1    0    0  501    0  0.00000000000E+00  0.00000000000E+00  0.18640882998E+04  0.18640882998E+04  0.00000000000E+00 0. -1.
         -1   -1    0    0    0  501 -0.00000000000E+00 -0.00000000000E+00 -0.50038825078E+03  0.50038825078E+03  0.00000000000E+00 0.  1.
         24    2    1    2    0    0  0.34380585007E+03 -0.35921999689E+03  0.12372775289E+04  0.13357392794E+04  0.78117029546E+02 0.  0.
        254    2    1    2    0    0 -0.34380585007E+03  0.35921999689E+03  0.12642252018E+03  0.10287372712E+04  0.89167048336E+03 0.  0.
         23    2    4    4    0    0 -0.38235749123E+03  0.47842382536E+03  0.38338522693E+03  0.72909550573E+03  0.97516237003E+02 0.  0.
         23    2    4    4    0    0  0.38551641160E+02 -0.11920382846E+03 -0.25696270676E+03  0.29964176550E+03  0.89775125789E+02 0.  0.
          2    1    3    3  502    0  0.34708565659E+03 -0.34976244754E+03  0.12203102168E+04  0.13160392274E+04  0.00000000000E+00 0. -1.
         -1    1    3    3    0  502 -0.32798065170E+01 -0.94575493493E+01  0.16967312057E+02  0.19700052003E+02  0.00000000000E+00 0.  1.
         13    1    5    5    0    0 -0.35429398016E+03  0.40840801668E+03  0.30702028270E+03  0.62175781978E+03  0.00000000000E+00 0. -1.
        -13    1    5    5    0    0 -0.28063511073E+02  0.70015808676E+02  0.76364944235E+02  0.10733768596E+03  0.00000000000E+00 0.  1.
          3    1    6    6  503    0  0.53321268242E+02 -0.10982468150E+03 -0.16076684506E+03  0.20186777054E+03  0.00000000000E+00 0. -1.
         -3    1    6    6    0  503 -0.14769627081E+02 -0.93791469652E+01 -0.96195861699E+02  0.97773994957E+02  0.00000000000E+00 0.  1.
<mgrwt>
<rscale>  0 0.19315982E+04</rscale>
<asrwt>0</asrwt>
<pdfrwt beam="1">  1        2 0.28678281E+00 0.19315982E+04</pdfrwt>
<pdfrwt beam="2">  1       -1 0.76982809E-01 0.19315982E+04</pdfrwt>
<totfact> 0.14313454E+01</totfact>
</mgrwt>
</event>
<event>
12    7  0.1740517E-007  0.2658753E+04  0.7818608E-02  0.8348514E-01
          2   -1    0    0  501    0  0.00000000000E+00  0.00000000000E+00  0.81480861486E+03  0.81480861486E+03  0.00000000000E+00 0. -1.
         -1   -1    0    0    0  501 -0.00000000000E+00 -0.00000000000E+00 -0.21689044655E+04  0.21689044655E+04  0.00000000000E+00 0.  1.
         24    2    1    2    0    0  0.32532311020E+03 -0.65182255742E+03 -0.16355790914E+04  0.17922684254E+04  0.79996075514E+02 0.  0.
        254    2    1    2    0    0 -0.32532311020E+03  0.65182255742E+03  0.28148324080E+03  0.11914446549E+04  0.89977762722E+03 0.  0.
         23    2    4    4    0    0 -0.46654733605E+03  0.75743242295E+03  0.65358289955E+02  0.89664882445E+03  0.91307810273E+02 0.  0.
         23    2    4    4    0    0  0.14122422585E+03 -0.10560986552E+03  0.21612495085E+03  0.29479583046E+03  0.95377469108E+02 0.  0.
          4    1    3    3  502    0  0.44902026818E+02 -0.14614481193E+03 -0.39488638681E+03  0.42344982767E+03  0.00000000000E+00 0. -1.
         -3    1    3    3    0  502  0.28042108338E+03 -0.50567774550E+03 -0.12406927046E+04  0.13688185978E+04  0.00000000000E+00 0.  1.
         13    1    5    5    0    0 -0.18165123623E+03  0.28731642920E+03  0.69371638018E+02  0.34692985786E+03  0.00000000000E+00 0.  1.
        -13    1    5    5    0    0 -0.28489609981E+03  0.47011599375E+03 -0.40133480628E+01  0.54971896659E+03  0.00000000000E+00 0. -1.
          4    1    6    6  503    0  0.11970407044E+03 -0.97480539147E+02  0.22260538078E+03  0.27089606041E+03  0.00000000000E+00 0. -1.
         -4    1    6    6    0  503  0.21520155405E+02 -0.81293263750E+01 -0.64804299369E+01  0.23899770043E+02  0.00000000000E+00 0.  1.
<mgrwt>
<rscale>  0 0.26587531E+04</rscale>
<asrwt>0</asrwt>
<pdfrwt beam="1">  1        2 0.12535517E+00 0.26587531E+04</pdfrwt>
<pdfrwt beam="2">  1       -1 0.33367760E+00 0.26587531E+04</pdfrwt>
<totfact> 0.67186572E-01</totfact>
</mgrwt>
</event>
<event>
12    7  0.1740517E-007  0.1397464E+04  0.7818608E-02  0.8955656E-01
         -3   -1    0    0    0  501 -0.00000000000E+00  0.00000000000E+00  0.22737944175E+03  0.22737944175E+03  0.00000000000E+00 0.  1.
          2   -1    0    0  501    0  0.00000000000E+00 -0.00000000000E+00 -0.21471883148E+04  0.21471883148E+04  0.00000000000E+00 0. -1.
         24    2    1    2    0    0 -0.35099685104E+03 -0.58517988971E+02 -0.87766877924E+03  0.95064473689E+03  0.82460810354E+02 0.  0.
        254    2    1    2    0    0  0.35099685104E+03  0.58517988971E+02 -0.10421400938E+04  0.14239230196E+04  0.90270573627E+03 0.  0.
         23    2    4    4    0    0 -0.17596483884E+03 -0.26261949085E+03 -0.49296129532E+03  0.59265691323E+03  0.91097511656E+02 0.  0.
         23    2    4    4    0    0  0.52696168988E+03  0.32113747983E+03 -0.54917879847E+03  0.83126610641E+03  0.92671912786E+02 0.  0.
          2    1    3    3  502    0 -0.18429535707E+03 -0.54582739821E+02 -0.55668066313E+03  0.58892904057E+03  0.00000000000E+00 0. -1.
         -1    1    3    3    0  502 -0.16670149397E+03 -0.39352491502E+01 -0.32098811611E+03  0.36171569631E+03  0.00000000000E+00 0.  1.
         13    1    5    5    0    0 -0.77384653371E+02 -0.15217271775E+03 -0.18981493054E+03  0.25529322055E+03  0.00000000000E+00 0. -1.
        -13    1    5    5    0    0 -0.98580185471E+02 -0.11044677311E+03 -0.30314636478E+03  0.33736369268E+03  0.00000000000E+00 0.  1.
          2    1    6    6  503    0  0.17518781713E+03  0.11127819053E+03 -0.12847720776E+03  0.24409014702E+03  0.00000000000E+00 0.  1.
         -2    1    6    6    0  503  0.35177387275E+03  0.20985928929E+03 -0.42070159072E+03  0.58717595939E+03  0.00000000000E+00 0. -1.
<mgrwt>
<rscale>  0 0.13974641E+04</rscale>
<asrwt>0</asrwt>
<pdfrwt beam="1">  1        2 0.33033667E+00 0.13974641E+04</pdfrwt>
<pdfrwt beam="2">  1       -3 0.34981452E-01 0.13974641E+04</pdfrwt>
<totfact> 0.28125133E+01</totfact>
</mgrwt>
</event>
<event>
12    7  0.1740517E-007  0.1909614E+04  0.7818608E-02  0.8650086E-01
         -1   -1    0    0    0  501 -0.00000000000E+00  0.00000000000E+00  0.34550498722E+03  0.34550498722E+03  0.00000000000E+00 0.  1.
          2   -1    0    0  501    0  0.00000000000E+00 -0.00000000000E+00 -0.26386202109E+04  0.26386202109E+04  0.00000000000E+00 0. -1.
         24    2    1    2    0    0  0.54150398816E+03 -0.29503397451E+03 -0.15362381974E+04  0.16573398514E+04  0.80473402369E+02 0.  0.
        254    2    1    2    0    0 -0.54150398816E+03  0.29503397451E+03 -0.75687702626E+03  0.13267853467E+04  0.89845695953E+03 0.  0.
         23    2    4    4    0    0  0.69657376303E+02  0.32363678490E+03 -0.59502199403E+03  0.68721276109E+03  0.92829343440E+02 0.  0.
         23    2    4    4    0    0 -0.61116136446E+03 -0.28602810393E+02 -0.16185503223E+03  0.63957258565E+03  0.92302257169E+02 0.  0.
          2    1    3    3  502    0  0.48151047095E+03 -0.27016392546E+03 -0.13011708721E+04  0.14134661364E+04  0.00000000000E+00 0. -1.
         -1    1    3    3    0  502  0.59993517209E+02 -0.24870049055E+02 -0.23506732531E+03  0.24387371502E+03  0.00000000000E+00 0.  1.
         13    1    5    5    0    0  0.25994425091E+02  0.27736029481E+03 -0.45665335625E+03  0.53491749929E+03  0.00000000000E+00 0.  1.
        -13    1    5    5    0    0  0.43662951212E+02  0.46276490090E+02 -0.13836863778E+03  0.15229526180E+03  0.00000000000E+00 0. -1.
          3    1    6    6  503    0 -0.74727633204E+02 -0.14263348088E+02 -0.51076368483E+02  0.91632186924E+02  0.00000000000E+00 0. -1.
         -3    1    6    6    0  503 -0.53643373126E+03 -0.14339462305E+02 -0.11077866374E+03  0.54794039872E+03  0.00000000000E+00 0.  1.
<mgrwt>
<rscale>  0 0.19096140E+04</rscale>
<asrwt>0</asrwt>
<pdfrwt beam="1">  1        2 0.40594157E+00 0.19096140E+04</pdfrwt>
<pdfrwt beam="2">  1       -1 0.53154614E-01 0.19096140E+04</pdfrwt>
<totfact> 0.10995819E+01</totfact>
</mgrwt>
</event>
<event>
12    7  0.1740517E-007  0.1988575E+04  0.7818608E-02  0.8611981E-01
          2   -1    0    0  501    0  0.00000000000E+00  0.00000000000E+00  0.25840235381E+04  0.25840235381E+04  0.00000000000E+00 0. -1.
         -1   -1    0    0    0  501 -0.00000000000E+00 -0.00000000000E+00 -0.38258446730E+03  0.38258446730E+03  0.00000000000E+00 0.  1.
         24    2    1    2    0    0 -0.33834844553E+03 -0.59582001876E+02 -0.17878950088E+03  0.39529686453E+03  0.79146951547E+02 0.  0.
        254    2    1    2    0    0  0.33834844553E+03  0.59582001876E+02  0.23802285717E+04  0.25713111409E+04  0.91001277146E+03 0.  0.
         23    2    4    4    0    0  0.53847125482E+03 -0.22847834431E+03  0.17014211952E+04  0.18016723345E+04  0.95055097124E+02 0.  0.
         23    2    4    4    0    0 -0.20012280929E+03  0.28806034618E+03  0.67880737651E+03  0.76963880637E+03  0.92393376484E+02 0.  0.
          2    1    3    3  502    0 -0.63629085428E+02  0.65777380662E+01 -0.63957036617E+01  0.64287107384E+02  0.00000000000E+00 0. -1.
         -1    1    3    3    0  502 -0.27471936011E+03 -0.66159739943E+02 -0.17239379722E+03  0.33100975714E+03  0.00000000000E+00 0.  1.
         13    1    5    5    0    0  0.34009316281E+03 -0.13186021707E+03  0.11908190299E+04  0.12454318280E+04  0.00000000000E+00 0. -1.
        -13    1    5    5    0    0  0.19837809202E+03 -0.96618127231E+02  0.51060216525E+03  0.55624050649E+03  0.00000000000E+00 0.  1.
          4    1    6    6  503    0 -0.16606922373E+03  0.24783274073E+03  0.49054657639E+03  0.57413935421E+03  0.00000000000E+00 0. -1.
         -4    1    6    6    0  503 -0.34053585560E+02  0.40227605453E+02  0.18826080012E+03  0.19549945216E+03  0.00000000000E+00 0.  1.
<mgrwt>
<rscale>  0 0.19885746E+04</rscale>
<asrwt>0</asrwt>
<pdfrwt beam="1">  1        2 0.39754207E+00 0.19885746E+04</pdfrwt>
<pdfrwt beam="2">  1       -1 0.58859151E-01 0.19885746E+04</pdfrwt>
<totfact> 0.96379013E+00</totfact>
</mgrwt>
</event>
<event>
12    7  0.1740517E-007  0.1518420E+04  0.7818608E-02  0.8872296E-01
          2   -1    0    0  501    0  0.00000000000E+00  0.00000000000E+00  0.12897687843E+04  0.12897687843E+04  0.00000000000E+00 0. -1.
         -3   -1    0    0    0  501 -0.00000000000E+00 -0.00000000000E+00 -0.44690138999E+03  0.44690138999E+03  0.00000000000E+00 0.  1.
         24    2    1    2    0    0  0.49490809736E+03  0.50142503771E+02  0.23981039410E+03  0.55750595923E+03  0.76521722029E+02 0.  0.
        254    2    1    2    0    0 -0.49490809736E+03 -0.50142503771E+02  0.60305700019E+03  0.11791642150E+04  0.88278094962E+03 0.  0.
         23    2    4    4    0    0 -0.11083154033E+02 -0.24462428109E+03 -0.11548268090E+03  0.28638590583E+03  0.93363602501E+02 0.  0.
         23    2    4    4    0    0 -0.48382494333E+03  0.19448177731E+03  0.71853968109E+03  0.89277830920E+03  0.94043067717E+02 0.  0.
          4    1    3    3  502    0  0.21246615107E+02 -0.10731304517E+02  0.16580497210E+01  0.23860609360E+02  0.00000000000E+00 0. -1.
         -3    1    3    3    0  502  0.47366148226E+03  0.60873808288E+02  0.23815234438E+03  0.53364534987E+03  0.00000000000E+00 0.  1.
         13    1    5    5    0    0  0.79621180498E+01 -0.21202932668E+03 -0.12654215677E+03  0.24704806848E+03  0.00000000000E+00 0.  1.
        -13    1    5    5    0    0 -0.19045272083E+02 -0.32594954404E+02  0.11059475874E+02  0.39337837357E+02  0.00000000000E+00 0. -1.
          4    1    6    6  503    0 -0.10552569374E+03  0.23745670742E+02  0.96314917367E+02  0.14483125431E+03  0.00000000000E+00 0. -1.
         -4    1    6    6    0  503 -0.37829924959E+03  0.17073610657E+03  0.62222476372E+03  0.74794705489E+03  0.00000000000E+00 0.  1.
<mgrwt>
<rscale>  0 0.15184195E+04</rscale>
<asrwt>0</asrwt>
<pdfrwt beam="1">  1        2 0.19842596E+00 0.15184195E+04</pdfrwt>
<pdfrwt beam="2">  1       -3 0.68754061E-01 0.15184195E+04</pdfrwt>
<totfact> 0.20916146E+01</totfact>
</mgrwt>
</event>
<event>
12    7  0.1740517E-007  0.1976262E+04  0.7818608E-02  0.8617800E-01
          2   -1    0    0  501    0  0.00000000000E+00  0.00000000000E+00  0.10837298101E+04  0.10837298101E+04  0.00000000000E+00 0. -1.
         -1   -1    0    0    0  501 -0.00000000000E+00 -0.00000000000E+00 -0.90096568107E+03  0.90096568107E+03  0.00000000000E+00 0.  1.
         24    2    1    2    0    0  0.60226555179E+03  0.51270390148E+03  0.17850110916E+03  0.81476299538E+03  0.79918753729E+02 0.  0.
        254    2    1    2    0    0 -0.60226555179E+03 -0.51270390148E+03  0.42630198563E+01  0.11699324958E+04  0.86205265840E+03 0.  0.
         23    2    4    4    0    0 -0.58315877831E+03 -0.70477853251E+03 -0.11401491118E+03  0.92616102758E+03  0.89375099621E+02 0.  0.
         23    2    4    4    0    0 -0.19106773484E+02  0.19207463103E+03  0.11827793104E+03  0.24377146819E+03  0.90427468453E+02 0.  0.
          4    1    3    3  502    0  0.28399292899E+03  0.26953544298E+03  0.53499121726E+02  0.39517527094E+03  0.00000000000E+00 0. -1.
         -3    1    3    3    0  502  0.31827262281E+03  0.24316845850E+03  0.12500198744E+03  0.41958772444E+03  0.00000000000E+00 0.  1.
         13    1    5    5    0    0 -0.17192255842E+03 -0.26949145198E+03 -0.56058982161E+02  0.32453908589E+03  0.00000000000E+00 0. -1.
        -13    1    5    5    0    0 -0.41123621989E+03 -0.43528708053E+03 -0.57955929024E+02  0.60162194170E+03  0.00000000000E+00 0.  1.
          4    1    6    6  503    0  0.19271915512E+02  0.16357829085E+03  0.99390823954E+02  0.19237411429E+03  0.00000000000E+00 0.  1.
         -4    1    6    6    0  503 -0.38378688996E+02  0.28496340185E+02  0.18887107086E+02  0.51397353892E+02  0.00000000000E+00 0. -1.
<mgrwt>
<rscale>  0 0.19762625E+04</rscale>
<asrwt>0</asrwt>
<pdfrwt beam="1">  1        2 0.16672766E+00 0.19762625E+04</pdfrwt>
<pdfrwt beam="2">  1       -1 0.13861010E+00 0.19762625E+04</pdfrwt>
<totfact> 0.10185362E+01</totfact>
</mgrwt>
</event>
<event>
12    7  0.1740517E-007  0.1441050E+04  0.7818608E-02  0.8924629E-01
         -1   -1    0    0    0  501 -0.00000000000E+00  0.00000000000E+00  0.59759573176E+03  0.59759573176E+03  0.00000000000E+00 0.  1.
          2   -1    0    0  501    0  0.00000000000E+00 -0.00000000000E+00 -0.86874132113E+03  0.86874132113E+03  0.00000000000E+00 0. -1.
         24    2    1    2    0    0  0.14348098792E+03 -0.86529869285E+02  0.32406683981E+03  0.37355766020E+03  0.80323076738E+02 0.  0.
        254    2    1    2    0    0 -0.14348098792E+03  0.86529869285E+02 -0.59521242918E+03  0.10927793927E+04  0.90100763208E+03 0.  0.
         23    2    4    4    0    0 -0.35286185553E+03  0.39338955187E+03 -0.34288541181E+03  0.63551038781E+03  0.83882171946E+02 0.  0.
         23    2    4    4    0    0  0.20938086761E+03 -0.30685968259E+03 -0.25232701737E+03  0.45726900489E+03  0.86155711449E+02 0.  0.
          2    1    3    3  502    0 -0.93656961713E+01 -0.13182744676E+02  0.24804753222E+02  0.29610417160E+02  0.00000000000E+00 0. -1.
         -1    1    3    3    0  502  0.15284668409E+03 -0.73347124610E+02  0.29926208659E+03  0.34394724304E+03  0.00000000000E+00 0.  1.
         13    1    5    5    0    0  0.15405384222E+01 -0.26700827908E+01 -0.45036499918E+01  0.54576060676E+01  0.00000000000E+00 0. -1.
        -13    1    5    5    0    0 -0.35440239395E+03  0.39605963466E+03 -0.33838176182E+03  0.63005278174E+03  0.00000000000E+00 0.  1.
          1    1    6    6  503    0  0.29165856238E+02 -0.31427929907E+02 -0.57685619444E+00  0.42880003631E+02  0.00000000000E+00 0. -1.
         -1    1    6    6    0  503  0.18021501137E+03 -0.27543175268E+03 -0.25175016118E+03  0.41438900125E+03  0.00000000000E+00 0.  1.
<mgrwt>
<rscale>  0 0.14410498E+04</rscale>
<asrwt>0</asrwt>
<pdfrwt beam="1">  1        2 0.13365251E+00 0.14410498E+04</pdfrwt>
<pdfrwt beam="2">  1       -1 0.91937805E-01 0.14410498E+04</pdfrwt>
<totfact> 0.39323754E+01</totfact>
</mgrwt>
</event>
<event>
12    7  0.1740517E-007  0.1986959E+04  0.7818608E-02  0.8612742E-01
         -1   -1    0    0    0  501 -0.00000000000E+00  0.00000000000E+00  0.69688956020E+03  0.69688956020E+03  0.00000000000E+00 0.  1.
          2   -1    0    0  501    0  0.00000000000E+00 -0.00000000000E+00 -0.14162960871E+04  0.14162960871E+04  0.00000000000E+00 0. -1.
         24    2    1    2    0    0 -0.62847725388E+02  0.50035597706E+03 -0.92050356403E+03  0.10526087087E+04  0.79701579863E+02 0.  0.
        254    2    1    2    0    0  0.62847725388E+02 -0.50035597706E+03  0.20109703710E+03  0.10605769386E+04  0.91108588184E+03 0.  0.
         23    2    4    4    0    0  0.14811124348E+03 -0.59019350216E+03 -0.18757028781E+03  0.64306247637E+03  0.89896747514E+02 0.  0.
         23    2    4    4    0    0 -0.85263518095E+02  0.89837525100E+02  0.38866732491E+03  0.41751446227E+03  0.88968468124E+02 0.  0.
          2    1    3    3  502    0 -0.73929929383E+02  0.47268998196E+03 -0.88671862181E+03  0.10075571288E+04  0.00000000000E+00 0. -1.
         -1    1    3    3    0  502  0.11082203994E+02  0.27665995095E+02 -0.33784942222E+02  0.45051579894E+02  0.00000000000E+00 0.  1.
         13    1    5    5    0    0  0.13328968423E+03 -0.51140376778E+03 -0.19319489711E+03  0.56269371943E+03  0.00000000000E+00 0.  1.
        -13    1    5    5    0    0  0.14821559248E+02 -0.78789734382E+02  0.56246092974E+01  0.80368756941E+02  0.00000000000E+00 0. -1.
          2    1    6    6  503    0 -0.27736059166E+02  0.29595798723E+02  0.33194480006E+02  0.52412534598E+02  0.00000000000E+00 0. -1.
         -2    1    6    6    0  503 -0.57527458928E+02  0.60241726377E+02  0.35547284490E+03  0.36510192768E+03  0.00000000000E+00 0.  1.
<mgrwt>
<rscale>  0 0.19869594E+04</rscale>
<asrwt>0</asrwt>
<pdfrwt beam="1">  1        2 0.21789170E+00 0.19869594E+04</pdfrwt>
<pdfrwt beam="2">  1       -1 0.10721378E+00 0.19869594E+04</pdfrwt>
<totfact> 0.12171134E+01</totfact>
</mgrwt>
</event>
<event>
12    7  0.1740517E-007  0.3386028E+04  0.7818608E-02  0.8141344E-01
          2   -1    0    0  501    0  0.00000000000E+00  0.00000000000E+00  0.18196408314E+04  0.18196408314E+04  0.00000000000E+00 0. -1.
         -1   -1    0    0    0  501 -0.00000000000E+00 -0.00000000000E+00 -0.15751992078E+04  0.15751992078E+04  0.00000000000E+00 0.  1.
         24    2    1    2    0    0 -0.11756299292E+04  0.35371316434E+03  0.10955888452E+04  0.16474095167E+04  0.80152760090E+02 0.  0.
        254    2    1    2    0    0  0.11756299292E+04 -0.35371316434E+03 -0.85114722156E+03  0.17474305226E+04  0.90655562731E+03 0.  0.
         23    2    4    4    0    0  0.14120037675E+01 -0.32961636549E+03 -0.24411647716E+03  0.42220994866E+03  0.10009717367E+03 0.  0.
         23    2    4    4    0    0  0.11742179254E+04 -0.24096798853E+02 -0.60703074440E+03  0.13252205739E+04  0.91404883739E+02 0.  0.
          4    1    3    3  502    0 -0.82750696770E+03  0.24219175235E+03  0.81680257990E+03  0.11876830726E+04  0.00000000000E+00 0. -1.
         -3    1    3    3    0  502 -0.34812296147E+03  0.11152141199E+03  0.27878626527E+03  0.45972644403E+03  0.00000000000E+00 0.  1.
         13    1    5    5    0    0  0.50655742721E+02 -0.16297335549E+03 -0.12462036652E+03  0.21132097535E+03  0.00000000000E+00 0.  1.
        -13    1    5    5    0    0 -0.49243738954E+02 -0.16664301000E+03 -0.11949611064E+03  0.21088897332E+03  0.00000000000E+00 0. -1.
          1    1    6    6  503    0  0.69415163216E+03 -0.47527395167E+02 -0.39283547348E+03  0.79901505051E+03  0.00000000000E+00 0. -1.
         -1    1    6    6    0  503  0.48006629325E+03  0.23430596314E+02 -0.21419527092E+03  0.52620552339E+03  0.00000000000E+00 0.  1.
<mgrwt>
<rscale>  0 0.33860282E+04</rscale>
<asrwt>0</asrwt>
<pdfrwt beam="1">  1        2 0.27994474E+00 0.33860282E+04</pdfrwt>
<pdfrwt beam="2">  1       -1 0.24233834E+00 0.33860282E+04</pdfrwt>
<totfact> 0.62146009E-01</totfact>
</mgrwt>
</event>
<event>
12    7  0.1740517E-007  0.1510036E+04  0.7818608E-02  0.8877807E-01
         -1   -1    0    0    0  501 -0.00000000000E+00  0.00000000000E+00  0.34532612983E+03  0.34532612983E+03  0.00000000000E+00 0.  1.
          2   -1    0    0  501    0  0.00000000000E+00 -0.00000000000E+00 -0.16507638642E+04  0.16507638642E+04  0.00000000000E+00 0. -1.
         24    2    1    2    0    0 -0.16694532046E+03 -0.10501170548E+02 -0.10017477780E+04  0.10186539581E+04  0.78589191048E+02 0.  0.
        254    2    1    2    0    0  0.16694532046E+03  0.10501170548E+02 -0.30368995634E+03  0.97743603593E+03  0.91387778184E+03 0.  0.
         23    2    4    4    0    0  0.23948754210E+03 -0.37566892585E+03  0.25517568529E+02  0.45684663683E+03  0.97858462110E+02 0.  0.
         23    2    4    4    0    0 -0.72542221636E+02  0.38617009640E+03 -0.32920752487E+03  0.52058939910E+03  0.90807547884E+02 0.  0.
          2    1    3    3  502    0 -0.15716147354E+03  0.13465719934E+02 -0.81541622687E+03  0.83053276722E+03  0.00000000000E+00 0. -1.
         -1    1    3    3    0  502 -0.97838469202E+01 -0.23966890483E+02 -0.18633155111E+03  0.18812119083E+03  0.00000000000E+00 0.  1.
         13    1    5    5    0    0  0.14808907263E+03 -0.28761590190E+03  0.50724468756E+02  0.32745419861E+03  0.00000000000E+00 0.  1.
        -13    1    5    5    0    0  0.91398469470E+02 -0.88053023951E+02 -0.25206900227E+02  0.12939243822E+03  0.00000000000E+00 0. -1.
          2    1    6    6  503    0 -0.86712818647E+02  0.32343456481E+03 -0.30138652965E+03  0.45051400742E+03  0.00000000000E+00 0. -1.
         -2    1    6    6    0  503  0.14170597011E+02  0.62735531592E+02 -0.27820995217E+02  0.70075391677E+02  0.00000000000E+00 0.  1.
<mgrwt>
<rscale>  0 0.15100356E+04</rscale>
<asrwt>0</asrwt>
<pdfrwt beam="1">  1        2 0.25396368E+00 0.15100356E+04</pdfrwt>
<pdfrwt beam="2">  1       -1 0.53127096E-01 0.15100356E+04</pdfrwt>
<totfact> 0.41053202E+01</totfact>
</mgrwt>
</event>
<event>
12    7  0.1740517E-007  0.1561782E+04  0.7818608E-02  0.8844377E-01
          2   -1    0    0  501    0  0.00000000000E+00  0.00000000000E+00  0.38168499577E+03  0.38168499577E+03  0.00000000000E+00 0. -1.
         -3   -1    0    0    0  501 -0.00000000000E+00 -0.00000000000E+00 -0.15976275813E+04  0.15976275813E+04  0.00000000000E+00 0.  1.
         24    2    1    2    0    0  0.36261464034E+03  0.76633122309E+02  0.50003358496E+02  0.38240884841E+03  0.79838453505E+02 0.  0.
        254    2    1    2    0    0 -0.36261464034E+03 -0.76633122309E+02 -0.12659459440E+04  0.15969037287E+04  0.90006687116E+03 0.  0.
         23    2    4    4    0    0 -0.43568822347E+03 -0.29530369372E+03 -0.12370084596E+04  0.13471087518E+04  0.86507573692E+02 0.  0.
         23    2    4    4    0    0  0.73073583128E+02  0.21867057141E+03 -0.28937484394E+02  0.24979497688E+03  0.91671070242E+02 0.  0.
          2    1    3    3  502    0  0.23778280341E+03  0.87005139342E+02  0.22784502099E+02  0.25422369953E+03  0.00000000000E+00 0. -1.
         -1    1    3    3    0  502  0.12483183693E+03 -0.10372017033E+02  0.27218856396E+02  0.12818514888E+03  0.00000000000E+00 0.  1.
         13    1    5    5    0    0 -0.35365908970E+02 -0.38107665947E+01 -0.54302992219E+02  0.64915979722E+02  0.00000000000E+00 0.  1.
        -13    1    5    5    0    0 -0.40032231450E+03 -0.29149292712E+03 -0.11827054674E+04  0.12821927721E+04  0.00000000000E+00 0. -1.
          3    1    6    6  503    0  0.50447388877E+02  0.21963174918E+03 -0.24085166199E+02  0.22663437410E+03  0.00000000000E+00 0. -1.
         -3    1    6    6    0  503  0.22626194251E+02 -0.96117777687E+00 -0.48523181947E+01  0.23160602774E+02  0.00000000000E+00 0.  1.
<mgrwt>
<rscale>  0 0.15617816E+04</rscale>
<asrwt>0</asrwt>
<pdfrwt beam="1">  1        2 0.58720768E-01 0.15617816E+04</pdfrwt>
<pdfrwt beam="2">  1       -3 0.24578886E+00 0.15617816E+04</pdfrwt>
<totfact> 0.38909677E+00</totfact>
</mgrwt>
</event>
<event>
12    7  0.1740517E-007  0.2804486E+04  0.7818608E-02  0.8301877E-01
          2   -1    0    0  501    0  0.00000000000E+00  0.00000000000E+00  0.18673346677E+04  0.18673346677E+04  0.00000000000E+00 0. -1.
         -1   -1    0    0    0  501 -0.00000000000E+00 -0.00000000000E+00 -0.10529903743E+04  0.10529903743E+04  0.00000000000E+00 0.  1.
         24    2    1    2    0    0 -0.36678446001E+03  0.11565245371E+04  0.70948421244E+03  0.14077989706E+04  0.80313442783E+02 0.  0.
        254    2    1    2    0    0  0.36678446001E+03 -0.11565245371E+04  0.10486008097E+03  0.15125260713E+04  0.89702822416E+03 0.  0.
         23    2    4    4    0    0  0.53375242888E+03 -0.39886555352E+03 -0.15467999055E+03  0.68950038648E+03  0.86599644137E+02 0.  0.
         23    2    4    4    0    0 -0.16696796887E+03 -0.75765898355E+03  0.25954007152E+03  0.82302568485E+03  0.89915467083E+02 0.  0.
          4    1    3    3  502    0 -0.30190921724E+03  0.83463887730E+03  0.52190232744E+03  0.10296374461E+04  0.00000000000E+00 0. -1.
         -3    1    3    3    0  502 -0.64875242770E+02  0.32188565976E+03  0.18758188499E+03  0.37816152457E+03  0.00000000000E+00 0.  1.
         13    1    5    5    0    0  0.49385277526E+03 -0.39375396443E+03 -0.14273284163E+03  0.64753796199E+03  0.00000000000E+00 0.  1.
        -13    1    5    5    0    0  0.39899653619E+02 -0.51115890844E+01 -0.11947148918E+02  0.41962424491E+02  0.00000000000E+00 0. -1.
          4    1    6    6  503    0  0.10028297943E+02 -0.23133730773E+02  0.46430351836E+01  0.25637746290E+02  0.00000000000E+00 0. -1.
         -4    1    6    6    0  503 -0.17699626681E+03 -0.73452525278E+03  0.25489703633E+03  0.79738793856E+03  0.00000000000E+00 0.  1.
<mgrwt>
<rscale>  0 0.28044860E+04</rscale>
<asrwt>0</asrwt>
<pdfrwt beam="1">  1        2 0.28728226E+00 0.28044860E+04</pdfrwt>
<pdfrwt beam="2">  1       -1 0.16199852E+00 0.28044860E+04</pdfrwt>
<totfact> 0.22118820E+00</totfact>
</mgrwt>
</event>
<event>
12    7  0.1740517E-007  0.1571992E+04  0.7818608E-02  0.8837941E-01
         -1   -1    0    0    0  501 -0.00000000000E+00  0.00000000000E+00  0.26730261144E+03  0.26730261144E+03  0.00000000000E+00 0.  1.
          2   -1    0    0  501    0  0.00000000000E+00 -0.00000000000E+00 -0.23112002461E+04  0.23112002461E+04  0.00000000000E+00 0. -1.
         24    2    1    2    0    0  0.43673568422E+03 -0.58974631938E+02 -0.22137361801E+03  0.49958602087E+03  0.79773732568E+02 0.  0.
        254    2    1    2    0    0 -0.43673568422E+03  0.58974631938E+02 -0.18225240167E+04  0.20789168367E+04  0.89782256455E+03 0.  0.
         23    2    4    4    0    0 -0.15519253362E+03  0.38331037580E+03 -0.37243521023E+03  0.56388299695E+03  0.90799128547E+02 0.  0.
         23    2    4    4    0    0 -0.28154315061E+03 -0.32433574386E+03 -0.14500888064E+04  0.15150338397E+04  0.90054253566E+02 0.  0.
          4    1    3    3  502    0  0.83255593738E+02  0.14310315239E+02 -0.62974593194E+02  0.10536640071E+03  0.00000000000E+00 0. -1.
         -3    1    3    3    0  502  0.35348009049E+03 -0.73284947176E+02 -0.15839902481E+03  0.39421962015E+03  0.00000000000E+00 0.  1.
         13    1    5    5    0    0 -0.14013578987E+03  0.23295034140E+03 -0.22721246959E+03  0.35430129480E+03  0.00000000000E+00 0. -1.
        -13    1    5    5    0    0 -0.15056743750E+02  0.15036003440E+03 -0.14522274065E+03  0.20958170215E+03  0.00000000000E+00 0.  1.
          3    1    6    6  503    0 -0.25699840637E+03 -0.31767721924E+03 -0.12969123293E+04  0.13597604886E+04  0.00000000000E+00 0. -1.
         -3    1    6    6    0  503 -0.24544744235E+02 -0.66585246151E+01 -0.15317647716E+03  0.15527335115E+03  0.00000000000E+00 0.  1.
<mgrwt>
<rscale>  0 0.15719922E+04</rscale>
<asrwt>0</asrwt>
<pdfrwt beam="1">  1        2 0.35556927E+00 0.15719922E+04</pdfrwt>
<pdfrwt beam="2">  1       -1 0.41123479E-01 0.15719922E+04</pdfrwt>
<totfact> 0.28341148E+01</totfact>
</mgrwt>
</event>
<event>
12    7  0.1740517E-007  0.1811500E+04  0.7818608E-02  0.8700207E-01
          2   -1    0    0  501    0  0.00000000000E+00  0.00000000000E+00  0.11099407321E+04  0.11099407321E+04  0.00000000000E+00 0. -1.
         -1   -1    0    0    0  501 -0.00000000000E+00 -0.00000000000E+00 -0.73912369583E+03  0.73912369583E+03  0.00000000000E+00 0.  1.
         24    2    1    2    0    0 -0.98727262239E+01 -0.60404456377E+03  0.42717441175E+03  0.74410837027E+03  0.79069481590E+02 0.  0.
        254    2    1    2    0    0  0.98727262239E+01  0.60404456377E+03 -0.56357375464E+02  0.11049560577E+04  0.92346328019E+03 0.  0.
         23    2    4    4    0    0 -0.82854606130E+01 -0.72697088497E+02  0.30942552244E+03  0.33140317076E+03  0.93436567351E+02 0.  0.
         23    2    4    4    0    0  0.18158186837E+02  0.67674165227E+03 -0.36578289790E+03  0.77355288690E+03  0.79233558382E+02 0.  0.
          4    1    3    3  502    0  0.80465690033E+00 -0.39488477744E+03  0.32319895840E+03  0.51028639178E+03  0.00000000000E+00 0. -1.
         -3    1    3    3    0  502 -0.10677383124E+02 -0.20915978633E+03  0.10397545335E+03  0.23382197850E+03  0.00000000000E+00 0.  1.
         13    1    5    5    0    0 -0.36585389880E+02 -0.35451819657E+02  0.65222745857E+02  0.82760672102E+02  0.00000000000E+00 0.  1.
        -13    1    5    5    0    0  0.28299929267E+02 -0.37245268840E+02  0.24420277658E+03  0.24864249866E+03  0.00000000000E+00 0. -1.
          4    1    6    6  503    0  0.38200796643E+02  0.56992630863E+03 -0.32686394219E+03  0.65811498603E+03  0.00000000000E+00 0. -1.
         -4    1    6    6    0  503 -0.20042609806E+02  0.10681534364E+03 -0.38918955717E+02  0.11543790088E+03  0.00000000000E+00 0.  1.
<mgrwt>
<rscale>  0 0.18115005E+04</rscale>
<asrwt>0</asrwt>
<pdfrwt beam="1">  1        2 0.17076011E+00 0.18115005E+04</pdfrwt>
<pdfrwt beam="2">  1       -1 0.11371134E+00 0.18115005E+04</pdfrwt>
<totfact> 0.16297755E+01</totfact>
</mgrwt>
</event>
<event>
12    7  0.1740517E-007  0.1941739E+04  0.7818608E-02  0.8634355E-01
         -1   -1    0    0    0  501 -0.00000000000E+00  0.00000000000E+00  0.55791998802E+03  0.55791998802E+03  0.00000000000E+00 0.  1.
          2   -1    0    0  501    0  0.00000000000E+00 -0.00000000000E+00 -0.16894669298E+04  0.16894669298E+04  0.00000000000E+00 0. -1.
         24    2    1    2    0    0 -0.29759909429E+03  0.59480032472E+03 -0.81116848531E+03  0.10520498275E+04  0.80385824205E+02 0.  0.
        254    2    1    2    0    0  0.29759909429E+03 -0.59480032472E+03 -0.32037845642E+03  0.11953370903E+04  0.94012539423E+03 0.  0.
         23    2    4    4    0    0 -0.31114997803E+03 -0.35051672916E+03 -0.51938807566E+02  0.48026457876E+03  0.90995272593E+02 0.  0.
         23    2    4    4    0    0  0.60874907232E+03 -0.24428359557E+03 -0.26843964886E+03  0.71507251153E+03  0.94968118582E+02 0.  0.
          4    1    3    3  502    0 -0.12327745169E+03  0.23931257124E+03 -0.26763326011E+03  0.37959899732E+03  0.00000000000E+00 0. -1.
         -3    1    3    3    0  502 -0.17432164261E+03  0.35548775348E+03 -0.54353522520E+03  0.67245083016E+03  0.00000000000E+00 0.  1.
         13    1    5    5    0    0 -0.29524677942E+03 -0.30052354439E+03 -0.64813350832E+02  0.42624621047E+03  0.00000000000E+00 0. -1.
        -13    1    5    5    0    0 -0.15903198614E+02 -0.49993184766E+02  0.12874543265E+02  0.54018368297E+02  0.00000000000E+00 0.  1.
          1    1    6    6  503    0  0.55604369213E+03 -0.23114642305E+03 -0.27175331436E+03  0.66065355543E+03  0.00000000000E+00 0. -1.
         -1    1    6    6    0  503  0.52705380200E+02 -0.13137172517E+02  0.33136654990E+01  0.54418956098E+02  0.00000000000E+00 0.  1.
<mgrwt>
<rscale>  0 0.19417388E+04</rscale>
<asrwt>0</asrwt>
<pdfrwt beam="1">  1        2 0.25991798E+00 0.19417388E+04</pdfrwt>
<pdfrwt beam="2">  1       -1 0.85833847E-01 0.19417388E+04</pdfrwt>
<totfact> 0.14164670E+01</totfact>
</mgrwt>
</event>
<event>
12    7  0.1740517E-007  0.1242430E+04  0.7818608E-02  0.9076508E-01
         -1   -1    0    0    0  501 -0.00000000000E+00  0.00000000000E+00  0.89235153134E+03  0.89235153134E+03  0.00000000000E+00 0.  1.
          2   -1    0    0  501    0  0.00000000000E+00 -0.00000000000E+00 -0.43246175645E+03  0.43246175645E+03  0.00000000000E+00 0. -1.
         24    2    1    2    0    0  0.52900301539E+01  0.19670052355E+03  0.30722905522E+03  0.37276968834E+03  0.76475275710E+02 0.  0.
        254    2    1    2    0    0 -0.52900301539E+01 -0.19670052355E+03  0.15266071967E+03  0.95204359945E+03  0.91889207176E+03 0.  0.
         23    2    4    4    0    0 -0.16661177069E+03 -0.50442782576E+03  0.22817526805E+03  0.58558258025E+03  0.92930575175E+02 0.  0.
         23    2    4    4    0    0  0.16132174054E+03  0.30772730221E+03 -0.75514548381E+02  0.36646101921E+03  0.88715472626E+02 0.  0.
          4    1    3    3  502    0  0.16224965573E+02  0.27420290914E+02  0.15793802648E+02  0.35560737671E+02  0.00000000000E+00 0. -1.
         -3    1    3    3    0  502 -0.10934935419E+02  0.16928023263E+03  0.29143525257E+03  0.33720895067E+03  0.00000000000E+00 0.  1.
         13    1    5    5    0    0 -0.15108053164E+03 -0.47938480662E+03  0.23573062164E+03  0.55516127912E+03  0.00000000000E+00 0.  1.
        -13    1    5    5    0    0 -0.15531239054E+02 -0.25043019139E+02 -0.75553535875E+01  0.30421301123E+02  0.00000000000E+00 0. -1.
          4    1    6    6  503    0  0.11534481771E+03  0.26038344290E+03 -0.90432820325E+02  0.29880103631E+03  0.00000000000E+00 0.  1.
         -4    1    6    6    0  503  0.45976922832E+02  0.47343859315E+02  0.14918271944E+02  0.67659982898E+02  0.00000000000E+00 0. -1.
<mgrwt>
<rscale>  0 0.12424297E+04</rscale>
<asrwt>0</asrwt>
<pdfrwt beam="1">  1        2 0.66532578E-01 0.12424297E+04</pdfrwt>
<pdfrwt beam="2">  1       -1 0.13728485E+00 0.12424297E+04</pdfrwt>
<totfact> 0.36153295E+01</totfact>
</mgrwt>
</event>
<event>
12    7  0.1740517E-007  0.1267355E+04  0.7818608E-02  0.9055861E-01
         -1   -1    0    0    0  501 -0.00000000000E+00  0.00000000000E+00  0.16720535497E+03  0.16720535497E+03  0.00000000000E+00 0.  1.
          2   -1    0    0  501    0  0.00000000000E+00 -0.00000000000E+00 -0.24015196709E+04  0.24015196709E+04  0.00000000000E+00 0. -1.
         24    2    1    2    0    0  0.21742783464E+03 -0.55778770908E+02 -0.97659058055E+03  0.10051685474E+04  0.79047530601E+02 0.  0.
        254    2    1    2    0    0 -0.21742783464E+03  0.55778770908E+02 -0.12577237354E+04  0.15635564785E+04  0.90136215381E+03 0.  0.
         23    2    4    4    0    0  0.20083877350E+03  0.34580279136E+03 -0.50336973545E+03  0.64909414751E+03  0.89589833771E+02 0.  0.
         23    2    4    4    0    0 -0.41826660814E+03 -0.29002402045E+03 -0.75435399996E+03  0.91446233100E+03  0.90169338707E+02 0.  0.
          2    1    3    3  502    0  0.20931662825E+03 -0.68567885836E+02 -0.94199255953E+03  0.96740115156E+03  0.00000000000E+00 0. -1.
         -1    1    3    3    0  502  0.81112063953E+01  0.12789114927E+02 -0.34598021028E+02  0.37767395844E+02  0.00000000000E+00 0.  1.
         13    1    5    5    0    0  0.11267085148E+03  0.27283323281E+03 -0.35405565788E+03  0.46096431812E+03  0.00000000000E+00 0. -1.
        -13    1    5    5    0    0  0.88167922018E+02  0.72969558544E+02 -0.14931407756E+03  0.18812982939E+03  0.00000000000E+00 0.  1.
          1    1    6    6  503    0 -0.38332093837E+03 -0.24602184344E+03 -0.70680245718E+03  0.84085159376E+03  0.00000000000E+00 0. -1.
         -1    1    6    6    0  503 -0.34945669769E+02 -0.44002177011E+02 -0.47551542775E+02  0.73610737244E+02  0.00000000000E+00 0.  1.
<mgrwt>
<rscale>  0 0.12673546E+04</rscale>
<asrwt>0</asrwt>
<pdfrwt beam="1">  1        2 0.36946455E+00 0.12673546E+04</pdfrwt>
<pdfrwt beam="2">  1       -1 0.25723902E-01 0.12673546E+04</pdfrwt>
<totfact> 0.59447451E+01</totfact>
</mgrwt>
</event>
<event>
12    7  0.1740517E-007  0.1627366E+04  0.7818608E-02  0.8803910E-01
         -1   -1    0    0    0  501 -0.00000000000E+00  0.00000000000E+00  0.36683174808E+03  0.36683174808E+03  0.00000000000E+00 0.  1.
          2   -1    0    0  501    0  0.00000000000E+00 -0.00000000000E+00 -0.18048601164E+04  0.18048601164E+04  0.00000000000E+00 0. -1.
         24    2    1    2    0    0  0.49132599106E+03  0.13940639500E+03 -0.78882557482E+03  0.94307613236E+03  0.79444518267E+02 0.  0.
        254    2    1    2    0    0 -0.49132599106E+03 -0.13940639500E+03 -0.64920279351E+03  0.12286157321E+04  0.90950369855E+03 0.  0.
         23    2    4    4    0    0 -0.32548890506E+03  0.27923673775E+03 -0.47983214967E+01  0.43835585163E+03  0.90645715493E+02 0.  0.
         23    2    4    4    0    0 -0.16583708599E+03 -0.41864313275E+03 -0.64440447202E+03  0.79025988051E+03  0.80557702843E+02 0.  0.
          2    1    3    3  502    0  0.42678701113E+03  0.14222697179E+03 -0.71729462128E+03  0.84669193813E+03  0.00000000000E+00 0. -1.
         -1    1    3    3    0  502  0.64538979929E+02 -0.28205767898E+01 -0.71530953543E+02  0.96384194236E+02  0.00000000000E+00 0.  1.
         13    1    5    5    0    0 -0.31563010867E+03  0.25901162857E+03  0.14725521007E+02  0.40856606590E+03  0.00000000000E+00 0.  1.
        -13    1    5    5    0    0 -0.98587963910E+01  0.20225109175E+02 -0.19523842503E+02  0.29789785725E+02  0.00000000000E+00 0. -1.
          1    1    6    6  503    0  0.48536916316E+01 -0.52454776114E+01 -0.18630597771E+01  0.73854146505E+01  0.00000000000E+00 0. -1.
         -1    1    6    6    0  503 -0.17069077763E+03 -0.41339765514E+03 -0.64254141224E+03  0.78287446586E+03  0.00000000000E+00 0.  1.
<mgrwt>
<rscale>  0 0.16273660E+04</rscale>
<asrwt>0</asrwt>
<pdfrwt beam="1">  1        2 0.27767079E+00 0.16273660E+04</pdfrwt>
<pdfrwt beam="2">  1       -1 0.56435653E-01 0.16273660E+04</pdfrwt>
<totfact> 0.29701038E+01</totfact>
</mgrwt>
</event>
<event>
12    7  0.1740517E-007  0.1222249E+04  0.7818608E-02  0.9093602E-01
         -3   -1    0    0    0  501 -0.00000000000E+00  0.00000000000E+00  0.23536189383E+03  0.23536189383E+03  0.00000000000E+00 0.  1.
          4   -1    0    0  501    0  0.00000000000E+00 -0.00000000000E+00 -0.15868035092E+04  0.15868035092E+04  0.00000000000E+00 0. -1.
         24    2    1    2    0    0  0.15042436262E+03  0.28350039899E+02  0.13876434742E+02  0.17329140219E+03  0.80038372052E+02 0.  0.
        254    2    1    2    0    0 -0.15042436262E+03 -0.28350039899E+02 -0.13653180501E+04  0.16488740008E+04  0.91173509258E+03 0.  0.
         23    2    4    4    0    0  0.18586187678E+03 -0.24656496392E+03 -0.13178486175E+03  0.34872253079E+03  0.94346356715E+02 0.  0.
         23    2    4    4    0    0 -0.33628623939E+03  0.21821492402E+03 -0.12335331883E+04  0.13001514700E+04  0.89908455726E+02 0.  0.
          2    1    3    3  502    0  0.55427321400E+02  0.52614682572E+01 -0.33158735729E+02  0.64802567549E+02  0.00000000000E+00 0. -1.
         -1    1    3    3    0  502  0.94997041215E+02  0.23088571642E+02  0.47035170471E+02  0.10848883464E+03  0.00000000000E+00 0.  1.
         13    1    5    5    0    0  0.82690502934E+01 -0.39308163918E+01  0.12272298716E+02  0.15311362645E+02  0.00000000000E+00 0. -1.
        -13    1    5    5    0    0  0.17759282649E+03 -0.24263414752E+03 -0.14405716047E+03  0.33341116815E+03  0.00000000000E+00 0.  1.
          4    1    6    6  503    0 -0.77690812792E+02  0.13847737174E+02 -0.29724555274E+03  0.30754274637E+03  0.00000000000E+00 0. -1.
         -4    1    6    6    0  503 -0.25859542660E+03  0.20436718684E+03 -0.93628763558E+03  0.99260872365E+03  0.00000000000E+00 0.  1.
<mgrwt>
<rscale>  0 0.12222489E+04</rscale>
<asrwt>0</asrwt>
<pdfrwt beam="1">  1        4 0.24412362E+00 0.12222489E+04</pdfrwt>
<pdfrwt beam="2">  1       -3 0.36209522E-01 0.12222489E+04</pdfrwt>
<totfact> 0.11743802E+00</totfact>
</mgrwt>
</event>
<event>
12    7  0.1740517E-007  0.1265106E+04  0.7818608E-02  0.9057704E-01
         -1   -1    0    0    0  501 -0.00000000000E+00  0.00000000000E+00  0.13728052795E+04  0.13728052795E+04  0.00000000000E+00 0.  1.
          2   -1    0    0  501    0  0.00000000000E+00 -0.00000000000E+00 -0.29146394367E+03  0.29146394367E+03  0.00000000000E+00 0. -1.
         24    2    1    2    0    0  0.12913527860E+03  0.54266777164E+02  0.61397661134E+03  0.63491444251E+03  0.80797690241E+02 0.  0.
        254    2    1    2    0    0 -0.12913527860E+03 -0.54266777164E+02  0.46736472445E+03  0.10293547806E+04  0.90637777745E+03 0.  0.
         23    2    4    4    0    0 -0.49556689999E+03 -0.11066118495E+03  0.16159021103E+03  0.54051804748E+03  0.90641674323E+02 0.  0.
         23    2    4    4    0    0  0.36643162140E+03  0.56394407784E+02  0.30577451342E+03  0.48883673315E+03  0.89503274982E+02 0.  0.
          4    1    3    3  502    0  0.19944511822E+02  0.55828352478E+01  0.26925622029E+03  0.27005159464E+03  0.00000000000E+00 0. -1.
         -3    1    3    3    0  502  0.10919076677E+03  0.48683941916E+02  0.34472039105E+03  0.36486284787E+03  0.00000000000E+00 0.  1.
         13    1    5    5    0    0 -0.19020586640E+03 -0.20215245258E+02  0.21115462199E+02  0.19243905658E+03  0.00000000000E+00 0. -1.
        -13    1    5    5    0    0 -0.30536103359E+03 -0.90445939690E+02  0.14047474883E+03  0.34807899089E+03  0.00000000000E+00 0.  1.
          1    1    6    6  503    0  0.33733462598E+03  0.76656571474E+02  0.27662933487E+03  0.44293867380E+03  0.00000000000E+00 0. -1.
         -1    1    6    6    0  503  0.29096995411E+02 -0.20262163690E+02  0.29145178547E+02  0.45898059348E+02  0.00000000000E+00 0.  1.
<mgrwt>
<rscale>  0 0.12651059E+04</rscale>
<asrwt>0</asrwt>
<pdfrwt beam="1">  1        2 0.44840607E-01 0.12651059E+04</pdfrwt>
<pdfrwt beam="2">  1       -1 0.21120081E+00 0.12651059E+04</pdfrwt>
<totfact> 0.16109602E+01</totfact>
</mgrwt>
</event>
<event>
12    7  0.1740517E-007  0.4117341E+04  0.7818608E-02  0.7981285E-01
          2   -1    0    0  501    0  0.00000000000E+00  0.00000000000E+00  0.10624136046E+04  0.10624136046E+04  0.00000000000E+00 0. -1.
         -1   -1    0    0    0  501 -0.00000000000E+00 -0.00000000000E+00 -0.39891468908E+04  0.39891468908E+04  0.00000000000E+00 0.  1.
         24    2    1    2    0    0  0.62481036221E+03 -0.14867615482E+03 -0.36432692111E+04  0.37002908788E+04  0.79053493986E+02 0.  0.
        254    2    1    2    0    0 -0.62481036221E+03  0.14867615482E+03  0.71653592489E+03  0.13512696167E+04  0.94869028534E+03 0.  0.
         23    2    4    4    0    0 -0.60602702961E+03 -0.13430875959E+03  0.59738244740E+02  0.62994610194E+03  0.89195459240E+02 0.  0.
         23    2    4    4    0    0 -0.18783332603E+02  0.28298491441E+03  0.65679768015E+03  0.72132351471E+03  0.92147408286E+02 0.  0.
          4    1    3    3  502    0  0.16834496761E+03 -0.29743726228E+02 -0.11725040929E+04  0.11849010782E+04  0.00000000000E+00 0. -1.
         -1    1    3    3    0  502  0.45646539460E+03 -0.11893242859E+03 -0.24707651182E+04  0.25153898005E+04  0.00000000000E+00 0.  1.
         13    1    5    5    0    0 -0.19913958675E+03 -0.52659425725E+02  0.61410934603E+02  0.21494392994E+03  0.00000000000E+00 0. -1.
        -13    1    5    5    0    0 -0.40688744285E+03 -0.81649333867E+02 -0.16726898635E+01  0.41500217200E+03  0.00000000000E+00 0.  1.
          2    1    6    6  503    0 -0.21749192517E+02  0.17506253968E+03  0.29461417232E+03  0.34339107546E+03  0.00000000000E+00 0. -1.
         -2    1    6    6    0  503  0.29658599140E+01  0.10792237474E+03  0.36218350783E+03  0.37793243925E+03  0.00000000000E+00 0.  1.
<mgrwt>
<rscale>  0 0.41173409E+04</rscale>
<asrwt>0</asrwt>
<pdfrwt beam="1">  1        2 0.16344825E+00 0.41173409E+04</pdfrwt>
<pdfrwt beam="2">  1       -1 0.61371490E+00 0.41173409E+04</pdfrwt>
<totfact> 0.80099266E-03</totfact>
</mgrwt>
</event>
<event>
12    7  0.1740517E-007  0.1476705E+04  0.7818608E-02  0.8900094E-01
         -1   -1    0    0    0  501 -0.00000000000E+00  0.00000000000E+00  0.62632548092E+03  0.62632548092E+03  0.00000000000E+00 0.  1.
          2   -1    0    0  501    0  0.00000000000E+00 -0.00000000000E+00 -0.87041653994E+03  0.87041653994E+03  0.00000000000E+00 0. -1.
         24    2    1    2    0    0 -0.23990155474E+03  0.27432097429E+03 -0.38063862673E+02  0.37535951682E+03  0.81493290047E+02 0.  0.
        254    2    1    2    0    0  0.23990155474E+03 -0.27432097429E+03 -0.20602719635E+03  0.11213825040E+04  0.10403108967E+04 0.  0.
         23    2    4    4    0    0 -0.19589325019E+03 -0.15305069003E+03 -0.50599395933E+03  0.57125191337E+03  0.92196434116E+02 0.  0.
         23    2    4    4    0    0  0.43579480493E+03 -0.12127028427E+03  0.29996676298E+03  0.55013059067E+03  0.89666125406E+02 0.  0.
          4    1    3    3  502    0 -0.17893606514E+02  0.17511494197E+01  0.99580207274E+01  0.20552611882E+02  0.00000000000E+00 0. -1.
         -3    1    3    3    0  502 -0.22200794823E+03  0.27256982487E+03 -0.48021883400E+02  0.35480690494E+03  0.00000000000E+00 0.  1.
         13    1    5    5    0    0 -0.55551871805E+02 -0.96482256530E+02 -0.17656845001E+03  0.20873728422E+03  0.00000000000E+00 0.  1.
        -13    1    5    5    0    0 -0.14034137838E+03 -0.56568433500E+02 -0.32942550932E+03  0.36251462915E+03  0.00000000000E+00 0. -1.
          2    1    6    6  503    0  0.39048576795E+03 -0.78825686266E+02  0.26961058935E+03  0.48102234218E+03  0.00000000000E+00 0. -1.
         -2    1    6    6    0  503  0.45309036976E+02 -0.42444598000E+02  0.30356173629E+02  0.69108248483E+02  0.00000000000E+00 0.  1.
<mgrwt>
<rscale>  0 0.14767045E+04</rscale>
<asrwt>0</asrwt>
<pdfrwt beam="1">  1        2 0.13391024E+00 0.14767045E+04</pdfrwt>
<pdfrwt beam="2">  1       -1 0.96357766E-01 0.14767045E+04</pdfrwt>
<totfact> 0.35206153E+01</totfact>
</mgrwt>
</event>
<event>
12    7  0.1740517E-007  0.1058811E+04  0.7818608E-02  0.9246294E-01
         -1   -1    0    0    0  501 -0.00000000000E+00  0.00000000000E+00  0.24529434200E+03  0.24529434200E+03  0.00000000000E+00 0.  1.
          2   -1    0    0  501    0  0.00000000000E+00 -0.00000000000E+00 -0.11425882753E+04  0.11425882753E+04  0.00000000000E+00 0. -1.
         24    2    1    2    0    0  0.44179504159E+02 -0.11689886263E+03 -0.15693604718E+03  0.21537258808E+03  0.78353405300E+02 0.  0.
        254    2    1    2    0    0 -0.44179504159E+02  0.11689886263E+03 -0.74035788607E+03  0.11725100292E+04  0.90057359298E+03 0.  0.
         23    2    4    4    0    0 -0.15849728335E+03 -0.28421414790E+03 -0.24981852088E+02  0.33909082396E+03  0.91975123058E+02 0.  0.
         23    2    4    4    0    0  0.11431777919E+03  0.40111301052E+03 -0.71537603398E+03  0.83341920521E+03  0.94151472515E+02 0.  0.
          2    1    3    3  502    0  0.24048232903E+02 -0.85985738351E+02 -0.15444797250E+03  0.17839854516E+03  0.00000000000E+00 0. -1.
         -1    1    3    3    0  502  0.20131271256E+02 -0.30913124275E+02 -0.24880746853E+01  0.36974042928E+02  0.00000000000E+00 0.  1.
         13    1    5    5    0    0 -0.12753714276E+03 -0.18417813948E+03  0.20421445173E+02  0.22495409591E+03  0.00000000000E+00 0. -1.
        -13    1    5    5    0    0 -0.30960140592E+02 -0.10003600842E+03 -0.45403297261E+02  0.11413672804E+03  0.00000000000E+00 0.  1.
          4    1    6    6  503    0  0.12196934951E+03  0.27284077607E+03 -0.51232261129E+03  0.59312146256E+03  0.00000000000E+00 0. -1.
         -4    1    6    6    0  503 -0.76515703201E+01  0.12827223445E+03 -0.20305342269E+03  0.24029774265E+03  0.00000000000E+00 0.  1.
<mgrwt>
<rscale>  0 0.10588115E+04</rscale>
<asrwt>0</asrwt>
<pdfrwt beam="1">  1        2 0.17578281E+00 0.10588115E+04</pdfrwt>
<pdfrwt beam="2">  1       -1 0.37737591E-01 0.10588115E+04</pdfrwt>
<totfact> 0.15748003E+02</totfact>
</mgrwt>
</event>
<event>
12    7  0.1740517E-007  0.1215571E+04  0.7818608E-02  0.9099336E-01
          2   -1    0    0  501    0  0.00000000000E+00  0.00000000000E+00  0.31823387782E+04  0.31823387782E+04  0.00000000000E+00 0. -1.
         -1   -1    0    0    0  501 -0.00000000000E+00 -0.00000000000E+00 -0.11607908599E+03  0.11607908599E+03  0.00000000000E+00 0.  1.
         24    2    1    2    0    0  0.21247110283E+03  0.14995773148E+03  0.90790379550E+03  0.94779230579E+03  0.79935362960E+02 0.  0.
        254    2    1    2    0    0 -0.21247110283E+03 -0.14995773148E+03  0.21583558967E+04  0.23506255584E+04  0.89404085373E+03 0.  0.
         23    2    4    4    0    0 -0.38065372393E+03 -0.18833142699E+03  0.21035068516E+04  0.21478577004E+04  0.90474541511E+02 0.  0.
         23    2    4    4    0    0  0.16818262110E+03  0.38373695507E+02  0.54849045059E+02  0.20276785791E+03  0.91369863257E+02 0.  0.
          4    1    3    3  502    0  0.20140724146E+03  0.14100134000E+03  0.89635667485E+03  0.92946304033E+03  0.00000000000E+00 0. -1.
         -3    1    3    3    0  502  0.11063861375E+02  0.89563914758E+01  0.11547120655E+02  0.18329265457E+02  0.00000000000E+00 0.  1.
         13    1    5    5    0    0 -0.91930002095E+02 -0.54299081189E+02  0.35873215420E+03  0.37428368113E+03  0.00000000000E+00 0. -1.
        -13    1    5    5    0    0 -0.28872372184E+03 -0.13403234580E+03  0.17447746974E+04  0.17735740193E+04  0.00000000000E+00 0.  1.
          3    1    6    6  503    0  0.17758762004E+03  0.43138485801E+02  0.58049083880E+02  0.19174980544E+03  0.00000000000E+00 0. -1.
         -3    1    6    6    0  503 -0.94049989438E+01 -0.47647902933E+01 -0.32000388203E+01  0.11018052465E+02  0.00000000000E+00 0.  1.
<mgrwt>
<rscale>  0 0.12155706E+04</rscale>
<asrwt>0</asrwt>
<pdfrwt beam="1">  1        2 0.48959051E+00 0.12155706E+04</pdfrwt>
<pdfrwt beam="2">  1       -1 0.17858323E-01 0.12155706E+04</pdfrwt>
<totfact> 0.37589326E+01</totfact>
</mgrwt>
</event>
<event>
12    7  0.1740517E-007  0.1988916E+04  0.7818608E-02  0.8611820E-01
         -1   -1    0    0    0  501 -0.00000000000E+00  0.00000000000E+00  0.35168595254E+03  0.35168595254E+03  0.00000000000E+00 0.  1.
          2   -1    0    0  501    0  0.00000000000E+00 -0.00000000000E+00 -0.28120167840E+04  0.28120167840E+04  0.00000000000E+00 0. -1.
         24    2    1    2    0    0 -0.64164289280E+03 -0.17292431866E+03 -0.30819780616E+03  0.73687868671E+03  0.79974304228E+02 0.  0.
        254    2    1    2    0    0  0.64164289280E+03  0.17292431866E+03 -0.21521330253E+04  0.24268240498E+04  0.90343233748E+03 0.  0.
         23    2    4    4    0    0  0.51980918127E+03 -0.21877810072E+03 -0.17655884321E+04  0.18557826551E+04  0.92527341930E+02 0.  0.
         23    2    4    4    0    0  0.12183371153E+03  0.39170241938E+03 -0.38654459314E+03  0.57104139471E+03  0.91636855955E+02 0.  0.
          4    1    3    3  502    0 -0.54717051701E+02 -0.26263271725E+02 -0.51888298468E+02  0.79850552324E+02  0.00000000000E+00 0. -1.
         -3    1    3    3    0  502 -0.58692584110E+03 -0.14666104694E+03 -0.25630950769E+03  0.65702813439E+03  0.00000000000E+00 0.  1.
         13    1    5    5    0    0  0.44886717236E+03 -0.20316151908E+03 -0.16168397802E+04  0.16902447208E+04  0.00000000000E+00 0. -1.
        -13    1    5    5    0    0  0.70942008909E+02 -0.15616581636E+02 -0.14874865193E+03  0.16553793433E+03  0.00000000000E+00 0.  1.
          4    1    6    6  503    0  0.12828215837E+03  0.36985524628E+03 -0.38357719388E+03  0.54806995815E+03  0.00000000000E+00 0. -1.
         -4    1    6    6    0  503 -0.64484468395E+01  0.21847173105E+02 -0.29673992546E+01  0.22971436561E+02  0.00000000000E+00 0.  1.
<mgrwt>
<rscale>  0 0.19889161E+04</rscale>
<asrwt>0</asrwt>
<pdfrwt beam="1">  1        2 0.43261796E+00 0.19889161E+04</pdfrwt>
<pdfrwt beam="2">  1       -1 0.54105532E-01 0.19889161E+04</pdfrwt>
<totfact> 0.83149126E+00</totfact>
</mgrwt>
</event>
<event>
12    7  0.1740517E-007  0.2124169E+04  0.7818608E-02  0.8550671E-01
         -1   -1    0    0    0  501 -0.00000000000E+00  0.00000000000E+00  0.76153800324E+03  0.76153800324E+03  0.00000000000E+00 0.  1.
          2   -1    0    0  501    0  0.00000000000E+00 -0.00000000000E+00 -0.14812445108E+04  0.14812445108E+04  0.00000000000E+00 0. -1.
         24    2    1    2    0    0  0.14324390447E+03 -0.81163015956E+03 -0.22930758905E+03  0.85882127176E+03  0.75694612544E+02 0.  0.
        254    2    1    2    0    0 -0.14324390447E+03  0.81163015956E+03 -0.49039891851E+03  0.13839612423E+04  0.99779521383E+03 0.  0.
         23    2    4    4    0    0  0.21880049087E+03  0.40068505364E+03  0.19208125164E+03  0.50407278694E+03  0.93658957301E+02 0.  0.
         23    2    4    4    0    0 -0.36204439534E+03  0.41094510592E+03 -0.68248017015E+03  0.87988845533E+03  0.92046112857E+02 0.  0.
          4    1    3    3  502    0  0.42527373253E+02 -0.22202276129E+03 -0.28408806497E+02  0.22783710034E+03  0.00000000000E+00 0. -1.
         -3    1    3    3    0  502  0.10071653122E+03 -0.58960739827E+03 -0.20089878255E+03  0.63098417142E+03  0.00000000000E+00 0.  1.
         13    1    5    5    0    0  0.77556265412E+01  0.44046419476E+02 -0.53466733409E+01  0.45042465824E+02  0.00000000000E+00 0.  1.
        -13    1    5    5    0    0  0.21104486433E+03  0.35663863416E+03  0.19742792498E+03  0.45903032112E+03  0.00000000000E+00 0. -1.
          1    1    6    6  503    0 -0.28530996209E+03  0.26924566395E+03 -0.51603790120E+03  0.64822073208E+03  0.00000000000E+00 0. -1.
         -1    1    6    6    0  503 -0.76734433253E+02  0.14169944197E+03 -0.16644226895E+03  0.23166772325E+03  0.00000000000E+00 0.  1.
<mgrwt>
<rscale>  0 0.21241695E+04</rscale>
<asrwt>0</asrwt>
<pdfrwt beam="1">  1        2 0.22788377E+00 0.21241695E+04</pdfrwt>
<pdfrwt beam="2">  1       -1 0.11715969E+00 0.21241695E+04</pdfrwt>
<totfact> 0.89461082E+00</totfact>
</mgrwt>
</event>
<event>
12    7  0.1740517E-007  0.1511120E+04  0.7818608E-02  0.8877092E-01
          2   -1    0    0  501    0  0.00000000000E+00  0.00000000000E+00  0.92021847744E+03  0.92021847744E+03  0.00000000000E+00 0. -1.
         -1   -1    0    0    0  501 -0.00000000000E+00 -0.00000000000E+00 -0.62036434963E+03  0.62036434963E+03  0.00000000000E+00 0.  1.
         24    2    1    2    0    0 -0.94422683563E+02 -0.72169517955E+02 -0.37971082312E+03  0.40602126881E+03  0.80925144620E+02 0.  0.
        254    2    1    2    0    0  0.94422683563E+02  0.72169517955E+02  0.67956495093E+03  0.11345615583E+04  0.90072044745E+03 0.  0.
         23    2    4    4    0    0 -0.14727984375E+03 -0.31240367671E+03  0.62074480696E+02  0.36278960417E+03  0.92063272493E+02 0.  0.
         23    2    4    4    0    0  0.24170252731E+03  0.38457319466E+03  0.61749047024E+03  0.77177195409E+03  0.89559000263E+02 0.  0.
          2    1    3    3  502    0  0.13300498164E+02  0.83742609159E+00 -0.43887595703E+02  0.45866388461E+02  0.00000000000E+00 0. -1.
         -1    1    3    3    0  502 -0.10772318173E+03 -0.73006944046E+02 -0.33582322742E+03  0.36015488034E+03  0.00000000000E+00 0.  1.
         13    1    5    5    0    0 -0.15779730638E+03 -0.26118173287E+03  0.52928561172E+02  0.30970521480E+03  0.00000000000E+00 0. -1.
        -13    1    5    5    0    0  0.10517462629E+02 -0.51221943836E+02  0.91459195242E+01  0.53084389367E+02  0.00000000000E+00 0.  1.
          1    1    6    6  503    0  0.20221681303E+03  0.28836445968E+03  0.52734584183E+03  0.63414457182E+03  0.00000000000E+00 0. -1.
         -1    1    6    6    0  503  0.39485714287E+02  0.96208734987E+02  0.90144628410E+02  0.13762738227E+03  0.00000000000E+00 0.  1.
<mgrwt>
<rscale>  0 0.15111198E+04</rscale>
<asrwt>0</asrwt>
<pdfrwt beam="1">  1        2 0.14157207E+00 0.15111198E+04</pdfrwt>
<pdfrwt beam="2">  1       -1 0.95440669E-01 0.15111198E+04</pdfrwt>
<totfact> 0.33184166E+01</totfact>
</mgrwt>
</event>
<event>
12    7  0.1740517E-007  0.1356547E+04  0.7818608E-02  0.8985887E-01
          2   -1    0    0  501    0  0.00000000000E+00  0.00000000000E+00  0.16062735390E+04  0.16062735390E+04  0.00000000000E+00 0. -1.
         -1   -1    0    0    0  501 -0.00000000000E+00 -0.00000000000E+00 -0.28641129770E+03  0.28641129770E+03  0.00000000000E+00 0.  1.
         24    2    1    2    0    0 -0.24865398430E+03 -0.21351842396E+03  0.63378288014E+03  0.71796584669E+03  0.79845454341E+02 0.  0.
        254    2    1    2    0    0  0.24865398430E+03  0.21351842396E+03  0.68607936114E+03  0.11747189900E+04  0.89545569091E+03 0.  0.
         23    2    4    4    0    0 -0.13541281083E+03  0.43747456740E+03  0.49885436142E+03  0.68324311026E+03  0.90801141784E+02 0.  0.
         23    2    4    4    0    0  0.38406679513E+03 -0.22395614345E+03  0.18722499972E+03  0.49147587973E+03  0.93977031935E+02 0.  0.
          4    1    3    3  502    0 -0.21829703685E+03 -0.20001431478E+03  0.50910997414E+03  0.58894166789E+03  0.00000000000E+00 0. -1.
         -3    1    3    3    0  502 -0.30356947450E+02 -0.13504109174E+02  0.12467290601E+03  0.12902417880E+03  0.00000000000E+00 0.  1.
         13    1    5    5    0    0  0.49809982351E+01  0.68238090754E+01  0.30654305823E+02  0.31797188228E+02  0.00000000000E+00 0.  1.
        -13    1    5    5    0    0 -0.14039380906E+03  0.43065075833E+03  0.46820005559E+03  0.65144592203E+03  0.00000000000E+00 0. -1.
          4    1    6    6  503    0  0.25253607434E+03 -0.11670515656E+03  0.15587080246E+03  0.31888911783E+03  0.00000000000E+00 0. -1.
         -4    1    6    6    0  503  0.13153072078E+03 -0.10725098688E+03  0.31354197268E+02  0.17258676190E+03  0.00000000000E+00 0.  1.
<mgrwt>
<rscale>  0 0.13565469E+04</rscale>
<asrwt>0</asrwt>
<pdfrwt beam="1">  1        2 0.24711900E+00 0.13565469E+04</pdfrwt>
<pdfrwt beam="2">  1       -1 0.44063278E-01 0.13565469E+04</pdfrwt>
<totfact> 0.62667976E+01</totfact>
</mgrwt>
</event>
<event>
12    7  0.1740517E-007  0.1601581E+04  0.7818608E-02  0.8819578E-01
         -1   -1    0    0    0  501 -0.00000000000E+00  0.00000000000E+00  0.10660375693E+04  0.10660375693E+04  0.00000000000E+00 0.  1.
          2   -1    0    0  501    0  0.00000000000E+00 -0.00000000000E+00 -0.60154079955E+03  0.60154079955E+03  0.00000000000E+00 0. -1.
         24    2    1    2    0    0 -0.25677437690E+03  0.38425454521E+03  0.45056272484E+03  0.65003025390E+03  0.77122797072E+02 0.  0.
        254    2    1    2    0    0  0.25677437690E+03 -0.38425454521E+03  0.13934044916E+02  0.10175481150E+04  0.90643553135E+03 0.  0.
         23    2    4    4    0    0 -0.31142877341E+03 -0.71463188177E+01  0.56273382074E+02  0.32934448218E+03  0.90896334514E+02 0.  0.
         23    2    4    4    0    0  0.56820315031E+03 -0.37710822639E+03 -0.42339337158E+02  0.68820363277E+03  0.82256831049E+02 0.  0.
          2    1    3    3  502    0 -0.24376995064E+02  0.77994390074E+02  0.10540547620E+03  0.13337045094E+03  0.00000000000E+00 0. -1.
         -1    1    3    3    0  502 -0.23239738183E+03  0.30626015514E+03  0.34515724864E+03  0.51665980296E+03  0.00000000000E+00 0.  1.
         13    1    5    5    0    0 -0.20465605017E+03  0.92224751729E+01 -0.54445196896E+01  0.20493607714E+03  0.00000000000E+00 0.  1.
        -13    1    5    5    0    0 -0.10677272325E+03 -0.16368793991E+02  0.61717901763E+02  0.12440840504E+03  0.00000000000E+00 0. -1.
          3    1    6    6  503    0  0.35303666638E+03 -0.19499209468E+03 -0.48722727297E+02  0.40623971858E+03  0.00000000000E+00 0. -1.
         -3    1    6    6    0  503  0.21516648393E+03 -0.18211613172E+03  0.63833901392E+01  0.28196391420E+03  0.00000000000E+00 0.  1.
<mgrwt>
<rscale>  0 0.16015806E+04</rscale>
<asrwt>0</asrwt>
<pdfrwt beam="1">  1        2 0.92544738E-01 0.16015806E+04</pdfrwt>
<pdfrwt beam="2">  1       -1 0.16400578E+00 0.16015806E+04</pdfrwt>
<totfact> 0.14765230E+01</totfact>
</mgrwt>
</event>
<event>
12    7  0.1740517E-007  0.1495011E+04  0.7818608E-02  0.8887778E-01
         -1   -1    0    0    0  501 -0.00000000000E+00  0.00000000000E+00  0.10044792796E+04  0.10044792796E+04  0.00000000000E+00 0.  1.
          2   -1    0    0  501    0  0.00000000000E+00 -0.00000000000E+00 -0.55627251627E+03  0.55627251627E+03  0.00000000000E+00 0. -1.
         24    2    1    2    0    0 -0.20866202136E+03 -0.14539111318E+03 -0.27001272013E+03  0.37798315242E+03  0.72704742183E+02 0.  0.
        254    2    1    2    0    0  0.20866202136E+03  0.14539111318E+03  0.71821948348E+03  0.11827686435E+04  0.90466790733E+03 0.  0.
         23    2    4    4    0    0 -0.17906965780E+03  0.26422874020E+03  0.69073987713E+03  0.76656113886E+03  0.92798880711E+02 0.  0.
         23    2    4    4    0    0  0.38773167916E+03 -0.11883762703E+03  0.27479606353E+02  0.41620750460E+03  0.89528327935E+02 0.  0.
          4    1    3    3  502    0 -0.10606368903E+03 -0.30882633542E+02 -0.10419669163E+03  0.15185583207E+03  0.00000000000E+00 0. -1.
         -3    1    3    3    0  502 -0.10259833232E+03 -0.11450847964E+03 -0.16581602850E+03  0.22612732035E+03  0.00000000000E+00 0.  1.
         13    1    5    5    0    0 -0.13856845659E+03  0.24972029586E+03  0.55502860046E+03  0.62419403286E+03  0.00000000000E+00 0. -1.
        -13    1    5    5    0    0 -0.40501201209E+02  0.14508444343E+02  0.13571127666E+03  0.14236710600E+03  0.00000000000E+00 0.  1.
          1    1    6    6  503    0  0.35792174364E+03 -0.87988954854E+02  0.41895111776E+02  0.37095179085E+03  0.00000000000E+00 0. -1.
         -1    1    6    6    0  503  0.29809935518E+02 -0.30848672173E+02 -0.14415505423E+02  0.45255713750E+02  0.00000000000E+00 0.  1.
<mgrwt>
<rscale>  0 0.14950107E+04</rscale>
<asrwt>0</asrwt>
<pdfrwt beam="1">  1        2 0.85580387E-01 0.14950107E+04</pdfrwt>
<pdfrwt beam="2">  1       -1 0.15453527E+00 0.14950107E+04</pdfrwt>
<totfact> 0.19306777E+01</totfact>
</mgrwt>
</event>
<event>
12    7  0.1740517E-007  0.1876247E+04  0.7818608E-02  0.8666771E-01
          2   -1    0    0  501    0  0.00000000000E+00  0.00000000000E+00  0.12608264494E+04  0.12608264494E+04  0.00000000000E+00 0. -1.
         -1   -1    0    0    0  501 -0.00000000000E+00 -0.00000000000E+00 -0.69801523947E+03  0.69801523947E+03  0.00000000000E+00 0.  1.
         24    2    1    2    0    0 -0.36640322234E+03 -0.31025762190E+03 -0.34798400344E+03  0.59863216790E+03  0.82197886268E+02 0.  0.
        254    2    1    2    0    0  0.36640322234E+03  0.31025762190E+03  0.91079521340E+03  0.13602095210E+04  0.88888182961E+03 0.  0.
         23    2    4    4    0    0  0.46949164310E+03  0.48226239795E+03  0.36427411016E+03  0.77074646884E+03  0.91406063714E+02 0.  0.
         23    2    4    4    0    0 -0.10308842076E+03 -0.17200477605E+03  0.54652110324E+03  0.58946305217E+03  0.92566236343E+02 0.  0.
          4    1    3    3  502    0 -0.15440322515E+03 -0.18064029249E+03 -0.15115573981E+03  0.28163687416E+03  0.00000000000E+00 0. -1.
         -3    1    3    3    0  502 -0.21199999718E+03 -0.12961732941E+03 -0.19682826362E+03  0.31699529373E+03  0.00000000000E+00 0.  1.
         13    1    5    5    0    0  0.30064178945E+03  0.28634564635E+03  0.27100325560E+03  0.49580447687E+03  0.00000000000E+00 0.  1.
        -13    1    5    5    0    0  0.16884985365E+03  0.19591675160E+03  0.93270854566E+02  0.27494199197E+03  0.00000000000E+00 0. -1.
          3    1    6    6  503    0 -0.67149518554E+02 -0.80869129560E+02  0.39720566311E+03  0.41087858640E+03  0.00000000000E+00 0. -1.
         -3    1    6    6    0  503 -0.35938902204E+02 -0.91135646488E+02  0.14931544013E+03  0.17858446576E+03  0.00000000000E+00 0.  1.
<mgrwt>
<rscale>  0 0.18762474E+04</rscale>
<asrwt>0</asrwt>
<pdfrwt beam="1">  1        2 0.19397330E+00 0.18762474E+04</pdfrwt>
<pdfrwt beam="2">  1       -1 0.10738696E+00 0.18762474E+04</pdfrwt>
<totfact> 0.15061386E+01</totfact>
</mgrwt>
</event>
<event>
12    7  0.1740517E-007  0.1466544E+04  0.7818608E-02  0.8907011E-01
         -1   -1    0    0    0  501 -0.00000000000E+00  0.00000000000E+00  0.11237335511E+04  0.11237335511E+04  0.00000000000E+00 0.  1.
          2   -1    0    0  501    0  0.00000000000E+00 -0.00000000000E+00 -0.47848352294E+03  0.47848352294E+03  0.00000000000E+00 0. -1.
         24    2    1    2    0    0  0.42340385485E+03  0.14013814993E+03  0.28262994528E+03  0.53382499429E+03  0.78612423923E+02 0.  0.
        254    2    1    2    0    0 -0.42340385485E+03 -0.14013814993E+03  0.36262008285E+03  0.10683920797E+04  0.90058802244E+03 0.  0.
         23    2    4    4    0    0 -0.54454486089E+03  0.12719224984E+03 -0.33026631588E+02  0.56720464732E+03  0.89013367568E+02 0.  0.
         23    2    4    4    0    0  0.12114100604E+03 -0.26733039977E+03  0.39564671444E+03  0.50118743240E+03  0.92259599836E+02 0.  0.
          4    1    3    3  502    0  0.32110982406E+02  0.20726707152E+02  0.50882951983E+02  0.63637931950E+02  0.00000000000E+00 0. -1.
         -3    1    3    3    0  502  0.39129287244E+03  0.11941144277E+03  0.23174699330E+03  0.47018706234E+03  0.00000000000E+00 0.  1.
         13    1    5    5    0    0 -0.52330830107E+03  0.13783398166E+03 -0.39467297276E+02  0.54259326574E+03  0.00000000000E+00 0. -1.
        -13    1    5    5    0    0 -0.21236559820E+02 -0.10641731813E+02  0.64406656875E+01  0.24611381584E+02  0.00000000000E+00 0.  1.
          3    1    6    6  503    0  0.92568636868E+02 -0.13442096136E+03  0.15660561189E+03  0.22619298190E+03  0.00000000000E+00 0. -1.
         -3    1    6    6    0  503  0.28572369175E+02 -0.13290943841E+03  0.23904110255E+03  0.27499445050E+03  0.00000000000E+00 0.  1.
<mgrwt>
<rscale>  0 0.14665442E+04</rscale>
<asrwt>0</asrwt>
<pdfrwt beam="1">  1        2 0.73612850E-01 0.14665442E+04</pdfrwt>
<pdfrwt beam="2">  1       -1 0.17288208E+00 0.14665442E+04</pdfrwt>
<totfact> 0.16821244E+01</totfact>
</mgrwt>
</event>
<event>
12    7  0.1740517E-007  0.1216628E+04  0.7818608E-02  0.9098425E-01
         -1   -1    0    0    0  501 -0.00000000000E+00  0.00000000000E+00  0.91762973602E+03  0.91762973602E+03  0.00000000000E+00 0.  1.
          2   -1    0    0  501    0  0.00000000000E+00 -0.00000000000E+00 -0.40326266449E+03  0.40326266449E+03  0.00000000000E+00 0. -1.
         24    2    1    2    0    0 -0.25344356954E+03 -0.16613648344E+02 -0.56255497650E+01  0.26785143012E+03  0.84870993609E+02 0.  0.
        254    2    1    2    0    0  0.25344356954E+03  0.16613648344E+02  0.51999262130E+03  0.10530409704E+04  0.87976889174E+03 0.  0.
         23    2    4    4    0    0  0.37351363447E+03  0.34778816771E+03  0.16919476114E+03  0.54538209702E+03  0.91354911316E+02 0.  0.
         23    2    4    4    0    0 -0.12007006494E+03 -0.33117451937E+03  0.35079786015E+03  0.50765887337E+03  0.10278623569E+03 0.  0.
          4    1    3    3  502    0 -0.12627167401E+03  0.34192558276E+02 -0.46856024595E+01  0.13090309992E+03  0.00000000000E+00 0. -1.
         -3    1    3    3    0  502 -0.12717189553E+03 -0.50806206620E+02 -0.93994730550E+00  0.13694833020E+03  0.00000000000E+00 0.  1.
         13    1    5    5    0    0  0.31065709755E+03  0.24168042577E+03  0.11058208241E+03  0.40883451103E+03  0.00000000000E+00 0. -1.
        -13    1    5    5    0    0  0.62856536923E+02  0.10610774194E+03  0.58612678728E+02  0.13654758599E+03  0.00000000000E+00 0.  1.
          1    1    6    6  503    0 -0.51554917040E+02 -0.14311937785E+03  0.22384803598E+03  0.27064554125E+03  0.00000000000E+00 0. -1.
         -1    1    6    6    0  503 -0.68515147896E+02 -0.18805514152E+03  0.12694982417E+03  0.23701333211E+03  0.00000000000E+00 0.  1.
<mgrwt>
<rscale>  0 0.12166278E+04</rscale>
<asrwt>0</asrwt>
<pdfrwt beam="1">  1        2 0.62040410E-01 0.12166278E+04</pdfrwt>
<pdfrwt beam="2">  1       -1 0.14117380E+00 0.12166278E+04</pdfrwt>
<totfact> 0.36455470E+01</totfact>
</mgrwt>
</event>
<event>
12    7  0.1740517E-007  0.1523663E+04  0.7818608E-02  0.8868868E-01
          2   -1    0    0  501    0  0.00000000000E+00  0.00000000000E+00  0.17875877890E+04  0.17875877890E+04  0.00000000000E+00 0. -1.
         -1   -1    0    0    0  501 -0.00000000000E+00 -0.00000000000E+00 -0.32467627524E+03  0.32467627524E+03  0.00000000000E+00 0.  1.
         24    2    1    2    0    0  0.16044823445E+03  0.44183785453E+03  0.62296441354E+03  0.78761848496E+03  0.10627272311E+03 0.  0.
        254    2    1    2    0    0 -0.16044823445E+03 -0.44183785453E+03  0.83994710021E+03  0.13246455793E+04  0.91006068695E+03 0.  0.
         23    2    4    4    0    0 -0.26520495329E+03  0.19989800872E+03  0.42630763874E+03  0.54791371556E+03  0.90434261830E+02 0.  0.
         23    2    4    4    0    0  0.10475671884E+03 -0.64173586325E+03  0.41363946147E+03  0.77673186372E+03  0.97035538407E+02 0.  0.
          4    1    3    3  502    0  0.10255489755E+02  0.16644406543E+03  0.24623275220E+03  0.29738757580E+03  0.00000000000E+00 0. -1.
         -3    1    3    3    0  502  0.15019274469E+03  0.27539378910E+03  0.37673166135E+03  0.49023090916E+03  0.00000000000E+00 0.  1.
         13    1    5    5    0    0 -0.45098497775E+02  0.83483344980E+02  0.10734033467E+03  0.14326650284E+03  0.00000000000E+00 0.  1.
        -13    1    5    5    0    0 -0.22010645551E+03  0.11641466374E+03  0.31896730408E+03  0.40464721272E+03  0.00000000000E+00 0. -1.
          2    1    6    6  503    0  0.10728992540E+03 -0.56569878332E+03  0.39546508582E+03  0.69851190086E+03  0.00000000000E+00 0. -1.
         -2    1    6    6    0  503 -0.25332065599E+01 -0.76037079925E+02  0.18174375646E+02  0.78219962856E+02  0.00000000000E+00 0.  1.
<mgrwt>
<rscale>  0 0.15236631E+04</rscale>
<asrwt>0</asrwt>
<pdfrwt beam="1">  1        2 0.27501350E+00 0.15236631E+04</pdfrwt>
<pdfrwt beam="2">  1       -1 0.49950197E-01 0.15236631E+04</pdfrwt>
<totfact> 0.38736200E+01</totfact>
</mgrwt>
</event>
<event>
12    7  0.1740517E-007  0.1226731E+04  0.7818608E-02  0.9089775E-01
          2   -1    0    0  501    0  0.00000000000E+00  0.00000000000E+00  0.18756853532E+04  0.18756853532E+04  0.00000000000E+00 0. -1.
         -1   -1    0    0    0  501 -0.00000000000E+00 -0.00000000000E+00 -0.20057595178E+03  0.20057595178E+03  0.00000000000E+00 0.  1.
         24    2    1    2    0    0  0.36275233001E+02 -0.18698399139E+03  0.75969261208E+03  0.78732224944E+03  0.80402450495E+02 0.  0.
        254    2    1    2    0    0 -0.36275233001E+02  0.18698399139E+03  0.91541678938E+03  0.12889390556E+04  0.88718492164E+03 0.  0.
         23    2    4    4    0    0 -0.30467150553E+03  0.39334523854E+03  0.32113867125E+03  0.59910204147E+03  0.90818538648E+02 0.  0.
         23    2    4    4    0    0  0.26839627252E+03 -0.20636124715E+03  0.59427811813E+03  0.68983701412E+03  0.89928309973E+02 0.  0.
          2    1    3    3  502    0  0.44112438937E+02 -0.13617020900E+03  0.65779351749E+03  0.67318685722E+03  0.00000000000E+00 0. -1.
         -1    1    3    3    0  502 -0.78372059361E+01 -0.50813782386E+02  0.10189909459E+03  0.11413539221E+03  0.00000000000E+00 0.  1.
         13    1    5    5    0    0 -0.45382629005E+02  0.24497940181E+02  0.13594467588E+02  0.53334244510E+02  0.00000000000E+00 0. -1.
        -13    1    5    5    0    0 -0.25928887652E+03  0.36884729835E+03  0.30754420367E+03  0.54576779696E+03  0.00000000000E+00 0.  1.
          1    1    6    6  503    0  0.45435603725E+02 -0.14762731514E-01  0.60473083275E+02  0.75639857909E+02  0.00000000000E+00 0. -1.
         -1    1    6    6    0  503  0.22296066880E+03 -0.20634648442E+03  0.53380503485E+03  0.61419715621E+03  0.00000000000E+00 0.  1.
<mgrwt>
<rscale>  0 0.12267312E+04</rscale>
<asrwt>0</asrwt>
<pdfrwt beam="1">  1        2 0.28856697E+00 0.12267312E+04</pdfrwt>
<pdfrwt beam="2">  1       -1 0.30857840E-01 0.12267312E+04</pdfrwt>
<totfact> 0.85390266E+01</totfact>
</mgrwt>
</event>
<event>
12    7  0.1740517E-007  0.1111024E+04  0.7818608E-02  0.9194513E-01
         -1   -1    0    0    0  501 -0.00000000000E+00  0.00000000000E+00  0.12619448737E+03  0.12619448737E+03  0.00000000000E+00 0.  1.
          2   -1    0    0  501    0  0.00000000000E+00 -0.00000000000E+00 -0.24453801886E+04  0.24453801886E+04  0.00000000000E+00 0. -1.
         24    2    1    2    0    0  0.14899687433E+03  0.80602215998E+02 -0.29954509440E+03  0.35368797958E+03  0.81677031874E+02 0.  0.
        254    2    1    2    0    0 -0.14899687433E+03 -0.80602215998E+02 -0.20196406068E+04  0.22178866964E+04  0.90076435960E+03 0.  0.
         23    2    4    4    0    0  0.59095044241E+02 -0.43762868927E+03 -0.71251797550E+03  0.84345572405E+03  0.93405562462E+02 0.  0.
         23    2    4    4    0    0 -0.20809191857E+03  0.35702647327E+03 -0.13071226313E+04  0.13744309723E+04  0.98593991871E+02 0.  0.
          4    1    3    3  502    0  0.12183309407E+03  0.95517340497E+02 -0.26778048147E+03  0.30931092998E+03  0.00000000000E+00 0. -1.
         -3    1    3    3    0  502  0.27163780262E+02 -0.14915124499E+02 -0.31764612928E+02  0.44377049602E+02  0.00000000000E+00 0.  1.
         13    1    5    5    0    0  0.57940621912E+02 -0.34517917220E+03 -0.48706973943E+03  0.59978555139E+03  0.00000000000E+00 0. -1.
        -13    1    5    5    0    0  0.11544223288E+01 -0.92449517069E+02 -0.22544823608E+03  0.24367017267E+03  0.00000000000E+00 0.  1.
          2    1    6    6  503    0 -0.37932781702E+02  0.58170944657E+02 -0.12157783926E+03  0.14001401976E+03  0.00000000000E+00 0. -1.
         -2    1    6    6    0  503 -0.17015913687E+03  0.29885552861E+03 -0.11855447920E+04  0.12344169526E+04  0.00000000000E+00 0.  1.
<mgrwt>
<rscale>  0 0.11110239E+04</rscale>
<asrwt>0</asrwt>
<pdfrwt beam="1">  1        2 0.37621231E+00 0.11110239E+04</pdfrwt>
<pdfrwt beam="2">  1       -1 0.19414538E-01 0.11110239E+04</pdfrwt>
<totfact> 0.91655709E+01</totfact>
</mgrwt>
</event>
<event>
12    7  0.1740517E-007  0.1520963E+04  0.7818608E-02  0.8870631E-01
         -1   -1    0    0    0  501 -0.00000000000E+00  0.00000000000E+00  0.41905847529E+03  0.41905847529E+03  0.00000000000E+00 0.  1.
          2   -1    0    0  501    0  0.00000000000E+00 -0.00000000000E+00 -0.13800756601E+04  0.13800756601E+04  0.00000000000E+00 0. -1.
         24    2    1    2    0    0  0.11534118621E+02  0.15975707406E+03  0.23590559044E+03  0.29573111495E+03  0.78422484935E+02 0.  0.
        254    2    1    2    0    0 -0.11534118621E+02 -0.15975707406E+03 -0.11969227753E+04  0.15034030205E+04  0.89551167126E+03 0.  0.
         23    2    4    4    0    0 -0.23689623602E+03 -0.63241867005E+02  0.17714194387E+02  0.26082316463E+03  0.87152568199E+02 0.  0.
         23    2    4    4    0    0  0.22536211740E+03 -0.96515207060E+02 -0.12146369697E+04  0.12425798558E+04  0.92511950087E+02 0.  0.
          2    1    3    3  502    0  0.21831900102E+02  0.10691503190E+03  0.94246158535E+02  0.14418666480E+03  0.00000000000E+00 0. -1.
         -1    1    3    3    0  502 -0.10297781481E+02  0.52842042167E+02  0.14165943190E+03  0.15154445015E+03  0.00000000000E+00 0.  1.
         13    1    5    5    0    0 -0.46983463042E+02 -0.11813020825E+02 -0.31781251956E+02  0.57939979602E+02  0.00000000000E+00 0.  1.
        -13    1    5    5    0    0 -0.18991277297E+03 -0.51428846181E+02  0.49495446343E+02  0.20288318503E+03  0.00000000000E+00 0. -1.
          4    1    6    6  503    0  0.13742418801E+03 -0.55968919602E+02 -0.93381967450E+03  0.94553535730E+03  0.00000000000E+00 0. -1.
         -4    1    6    6    0  503  0.87937929387E+02 -0.40546287458E+02 -0.28081729516E+03  0.29704449854E+03  0.00000000000E+00 0.  1.
<mgrwt>
<rscale>  0 0.15209634E+04</rscale>
<asrwt>0</asrwt>
<pdfrwt beam="1">  1        2 0.21231933E+00 0.15209634E+04</pdfrwt>
<pdfrwt beam="2">  1       -1 0.64470535E-01 0.15209634E+04</pdfrwt>
<totfact> 0.39850550E+01</totfact>
</mgrwt>
</event>
<event>
12    7  0.2023459E-007  0.1897597E+04  0.7818608E-02  0.8656054E-01
          2   -1    0    0  501    0  0.00000000000E+00  0.00000000000E+00  0.11939166181E+04  0.11939166181E+04  0.00000000000E+00 0. -1.
         -1   -1    0    0    0  501 -0.00000000000E+00 -0.00000000000E+00 -0.75400434829E+03  0.75400434829E+03  0.00000000000E+00 0.  1.
         24    2    1    2    0    0 -0.16709589457E+03  0.57346254814E+03  0.61393457139E+03  0.86034877582E+03  0.80647541893E+02 0.  0.
        254    2    1    2    0    0  0.16709589457E+03 -0.57346254814E+03 -0.17402230158E+03  0.10875721906E+04  0.89204774321E+03 0.  0.
         23    2    4    4    0    0  0.15298002797E+03  0.16118011002E+03 -0.24580042726E+03  0.34365603390E+03  0.91102704525E+02 0.  0.
         23    2    4    4    0    0  0.14115866605E+02 -0.73464265816E+03  0.71778125682E+02  0.74391615668E+03  0.91433341657E+02 0.  0.
          2    1    3    3  502    0 -0.14721347315E+03  0.53985801823E+03  0.54495782702E+03  0.78108739572E+03  0.00000000000E+00 0. -1.
         -3    1    3    3    0  502 -0.19882421419E+02  0.33604529908E+02  0.68976744367E+02  0.79261380099E+02  0.00000000000E+00 0.  1.
         13    1    5    5    0    0  0.19522860859E+02  0.58181588320E+02 -0.25997609854E+02  0.66649193796E+02  0.00000000000E+00 0. -1.
        -13    1    5    5    0    0  0.13345716711E+03  0.10299852170E+03 -0.21980281740E+03  0.27700684010E+03  0.00000000000E+00 0.  1.
          3    1    6    6  503    0  0.42186892960E+02 -0.26365868967E+03  0.24025333633E+01  0.26702324008E+03  0.00000000000E+00 0. -1.
         -3    1    6    6    0  503 -0.28071026355E+02 -0.47098396849E+03  0.69375592318E+02  0.47689291660E+03  0.00000000000E+00 0.  1.
<mgrwt>
<rscale>  0 0.18975967E+04</rscale>
<asrwt>0</asrwt>
<pdfrwt beam="1">  1        2 0.18367948E+00 0.18975967E+04</pdfrwt>
<pdfrwt beam="2">  1       -1 0.11600067E+00 0.18975967E+04</pdfrwt>
<totfact> 0.13715973E+01</totfact>
</mgrwt>
</event>
<event>
12    7  0.1740517E-007  0.1844183E+04  0.7818608E-02  0.8683150E-01
          2   -1    0    0  501    0  0.00000000000E+00  0.00000000000E+00  0.14587803075E+04  0.14587803075E+04  0.00000000000E+00 0. -1.
         -1   -1    0    0    0  501 -0.00000000000E+00 -0.00000000000E+00 -0.58285178068E+03  0.58285178068E+03  0.00000000000E+00 0.  1.
         24    2    1    2    0    0  0.65054419216E+02 -0.46134535913E+02  0.11155764401E+04  0.11220295003E+04  0.89882884285E+02 0.  0.
        254    2    1    2    0    0 -0.65054419216E+02  0.46134535913E+02 -0.23964791330E+03  0.91960258790E+03  0.88423827357E+03 0.  0.
         23    2    4    4    0    0 -0.45741731490E+03  0.11451385304E+03 -0.10968402395E+03  0.49260976809E+03  0.91048207012E+02 0.  0.
         23    2    4    4    0    0  0.39236289569E+03 -0.68379317126E+02 -0.12996388935E+03  0.42699281980E+03  0.82509894589E+02 0.  0.
          2    1    3    3  502    0  0.42869396064E+02 -0.37196542087E+02  0.10600811103E+04  0.10615994199E+04  0.00000000000E+00 0. -1.
         -1    1    3    3    0  502  0.22185023151E+02 -0.89379938256E+01  0.55495329785E+02  0.60430080373E+02  0.00000000000E+00 0.  1.
         13    1    5    5    0    0  0.29964521792E+01  0.27387241093E+01 -0.65832319209E+01  0.77342276882E+01  0.00000000000E+00 0.  1.
        -13    1    5    5    0    0 -0.46041376708E+03  0.11177512893E+03 -0.10310079203E+03  0.48487554041E+03  0.00000000000E+00 0. -1.
          3    1    6    6  503    0  0.10703846726E+03 -0.69916751328E+01 -0.72680706963E+02  0.12957083838E+03  0.00000000000E+00 0. -1.
         -3    1    6    6    0  503  0.28532442843E+03 -0.61387641993E+02 -0.57283182386E+02  0.29742198142E+03  0.00000000000E+00 0.  1.
<mgrwt>
<rscale>  0 0.18441830E+04</rscale>
<asrwt>0</asrwt>
<pdfrwt beam="1">  1        2 0.22442774E+00 0.18441830E+04</pdfrwt>
<pdfrwt beam="2">  1       -1 0.89669505E-01 0.18441830E+04</pdfrwt>
<totfact> 0.17487772E+01</totfact>
</mgrwt>
</event>
<event>
12    7  0.1740517E-007  0.2272147E+04  0.7818608E-02  0.8488985E-01
          2   -1    0    0  501    0  0.00000000000E+00  0.00000000000E+00  0.27368058005E+04  0.27368058005E+04  0.00000000000E+00 0. -1.
         -1   -1    0    0    0  501 -0.00000000000E+00 -0.00000000000E+00 -0.47159454854E+03  0.47159454854E+03  0.00000000000E+00 0.  1.
         24    2    1    2    0    0 -0.71692801439E+03  0.48674529507E+03  0.38301763056E+03  0.95091413387E+03  0.81415137331E+02 0.  0.
        254    2    1    2    0    0  0.71692801439E+03 -0.48674529507E+03  0.18821936214E+04  0.22574862152E+04  0.89592657243E+03 0.  0.
         23    2    4    4    0    0  0.14239761194E+03 -0.13515360172E+03 -0.38225161250E+02  0.21979944533E+03  0.91143059365E+02 0.  0.
         23    2    4    4    0    0  0.57453040244E+03 -0.35159169334E+03  0.19204187827E+04  0.20376867699E+04  0.10226030053E+03 0.  0.
          4    1    3    3  502    0 -0.36081124306E+03  0.23225424004E+03  0.23258607772E+03  0.48808100627E+03  0.00000000000E+00 0. -1.
         -3    1    3    3    0  502 -0.35611677132E+03  0.25449105503E+03  0.15043155284E+03  0.46283312759E+03  0.00000000000E+00 0.  1.
         13    1    5    5    0    0  0.10066189845E+03 -0.13969982352E+03 -0.43195027799E+02  0.17752371367E+03  0.00000000000E+00 0. -1.
        -13    1    5    5    0    0  0.41735713498E+02  0.45462217970E+01  0.49698665491E+01  0.42275731659E+02  0.00000000000E+00 0.  1.
          2    1    6    6  503    0  0.26036350411E+03 -0.10066707040E+03  0.80140434977E+03  0.84862945104E+03  0.00000000000E+00 0. -1.
         -2    1    6    6    0  503  0.31416689833E+03 -0.25092462294E+03  0.11190144329E+04  0.11890573188E+04  0.00000000000E+00 0.  1.
<mgrwt>
<rscale>  0 0.22721467E+04</rscale>
<asrwt>0</asrwt>
<pdfrwt beam="1">  1        2 0.42104704E+00 0.22721467E+04</pdfrwt>
<pdfrwt beam="2">  1       -1 0.72553009E-01 0.22721467E+04</pdfrwt>
<totfact> 0.50018840E+00</totfact>
</mgrwt>
</event>
<event>
12    7  0.1740517E-007  0.1626800E+04  0.7818608E-02  0.8804251E-01
         -1   -1    0    0    0  501 -0.00000000000E+00  0.00000000000E+00  0.21314894032E+03  0.21314894032E+03  0.00000000000E+00 0.  1.
          2   -1    0    0  501    0  0.00000000000E+00 -0.00000000000E+00 -0.31040249442E+04  0.31040249442E+04  0.00000000000E+00 0. -1.
         24    2    1    2    0    0  0.36387131201E+03 -0.38836067206E+03 -0.13688826407E+04  0.14707110727E+04  0.76974230832E+02 0.  0.
        254    2    1    2    0    0 -0.36387131201E+03  0.38836067206E+03 -0.15219933632E+04  0.18464628118E+04  0.89985264036E+03 0.  0.
         23    2    4    4    0    0 -0.62120004325E+03  0.79191208729E+02 -0.90000034925E+03  0.11000590184E+04  0.89266309666E+02 0.  0.
         23    2    4    4    0    0  0.25732873124E+03  0.30916946333E+03 -0.62199301393E+03  0.74640379337E+03  0.91866644640E+02 0.  0.
          2    1    3    3  502    0  0.35692155073E+03 -0.38580363006E+03 -0.13121544426E+04  0.14135015796E+04  0.00000000000E+00 0. -1.
         -1    1    3    3    0  502  0.69497612800E+01 -0.25570419988E+01 -0.56728198101E+02  0.57209493140E+02  0.00000000000E+00 0.  1.
         13    1    5    5    0    0 -0.33647188931E+02 -0.12664871991E+02 -0.73774566248E+02  0.82068379603E+02  0.00000000000E+00 0. -1.
        -13    1    5    5    0    0 -0.58755285432E+03  0.91856080721E+02 -0.82622578300E+03  0.10179906388E+04  0.00000000000E+00 0.  1.
          2    1    6    6  503    0  0.26286198104E+02  0.91126359607E+02 -0.14921570894E+03  0.17680584102E+03  0.00000000000E+00 0. -1.
         -2    1    6    6    0  503  0.23104253313E+03  0.21804310373E+03 -0.47277730499E+03  0.56959795235E+03  0.00000000000E+00 0.  1.
<mgrwt>
<rscale>  0 0.16268001E+04</rscale>
<asrwt>0</asrwt>
<pdfrwt beam="1">  1        2 0.47754228E+00 0.16268001E+04</pdfrwt>
<pdfrwt beam="2">  1       -1 0.32792146E-01 0.16268001E+04</pdfrwt>
<totfact> 0.14305932E+01</totfact>
</mgrwt>
</event>
<event>
12    7  0.1740517E-007  0.1630542E+04  0.7818608E-02  0.8802002E-01
          2   -1    0    0  501    0  0.00000000000E+00  0.00000000000E+00  0.20241639156E+04  0.20241639156E+04  0.00000000000E+00 0. -1.
         -1   -1    0    0    0  501 -0.00000000000E+00 -0.00000000000E+00 -0.32836608327E+03  0.32836608327E+03  0.00000000000E+00 0.  1.
         24    2    1    2    0    0 -0.52178930842E+03 -0.35214476261E+00  0.29814053476E+03  0.60614788856E+03  0.79140874086E+02 0.  0.
        254    2    1    2    0    0  0.52178930842E+03  0.35214476261E+00  0.13976572975E+04  0.17463821103E+04  0.90782175970E+03 0.  0.
         23    2    4    4    0    0  0.53374966911E+03  0.37253302164E+03  0.79175994549E+03  0.10292070129E+04  0.93347215133E+02 0.  0.
         23    2    4    4    0    0 -0.11960360694E+02 -0.37218087687E+03  0.60589735203E+03  0.71717509740E+03  0.92557354078E+02 0.  0.
          2    1    3    3  502    0 -0.29305123337E+03  0.38886258073E+02  0.16256124097E+03  0.33736823134E+03  0.00000000000E+00 0. -1.
         -1    1    3    3    0  502 -0.22873807504E+03 -0.39238402835E+02  0.13557929379E+03  0.26877965722E+03  0.00000000000E+00 0.  1.
         13    1    5    5    0    0  0.49137330903E+03  0.34251092883E+03  0.68135102931E+03  0.90719385489E+03  0.00000000000E+00 0.  1.
        -13    1    5    5    0    0  0.42376360081E+02  0.30022092803E+02  0.11040891617E+03  0.12201315798E+03  0.00000000000E+00 0. -1.
          3    1    6    6  503    0 -0.38094039179E+02 -0.19982226849E+03  0.26281703193E+03  0.33234453069E+03  0.00000000000E+00 0. -1.
         -3    1    6    6    0  503  0.26133678484E+02 -0.17235860838E+03  0.34308032010E+03  0.38483056671E+03  0.00000000000E+00 0.  1.
<mgrwt>
<rscale>  0 0.16305420E+04</rscale>
<asrwt>0</asrwt>
<pdfrwt beam="1">  1        2 0.31140982E+00 0.16305420E+04</pdfrwt>
<pdfrwt beam="2">  1       -1 0.50517861E-01 0.16305420E+04</pdfrwt>
<totfact> 0.27785476E+01</totfact>
</mgrwt>
</event>
<event>
12    7  0.1740517E-007  0.1182298E+04  0.7818608E-02  0.9128494E-01
         -1   -1    0    0    0  501 -0.00000000000E+00  0.00000000000E+00  0.12712548851E+03  0.12712548851E+03  0.00000000000E+00 0.  1.
          2   -1    0    0  501    0  0.00000000000E+00 -0.00000000000E+00 -0.27489134529E+04  0.27489134529E+04  0.00000000000E+00 0. -1.
         24    2    1    2    0    0  0.10781852615E+03  0.15835121916E+03 -0.23772455838E+03  0.31628186382E+03  0.82591213425E+02 0.  0.
        254    2    1    2    0    0 -0.10781852615E+03 -0.15835121916E+03 -0.23840634060E+04  0.25597570775E+04  0.91208444191E+03 0.  0.
         23    2    4    4    0    0 -0.38292902719E+03  0.22323745270E+03 -0.11689929753E+04  0.12535430718E+04  0.91411466991E+02 0.  0.
         23    2    4    4    0    0  0.27511050104E+03 -0.38158867185E+03 -0.12150704307E+04  0.13062140058E+04  0.92212662730E+02 0.  0.
          4    1    3    3  502    0  0.19118569900E+02  0.60083881179E+02 -0.29672385939E+02  0.69685313947E+02  0.00000000000E+00 0. -1.
         -3    1    3    3    0  502  0.88699956253E+02  0.98267337980E+02 -0.20805217244E+03  0.24659654988E+03  0.00000000000E+00 0.  1.
         13    1    5    5    0    0 -0.38409164120E+03  0.21307764331E+03 -0.11113667470E+04  0.11950165343E+04  0.00000000000E+00 0.  1.
        -13    1    5    5    0    0  0.11626140126E+01  0.10159809388E+02 -0.57626228319E+02  0.58526537472E+02  0.00000000000E+00 0. -1.
          3    1    6    6  503    0  0.24471124217E+02 -0.87014971666E+02 -0.28287137063E+03  0.29696237731E+03  0.00000000000E+00 0. -1.
         -3    1    6    6    0  503  0.25063937682E+03 -0.29457370019E+03 -0.93219906002E+03  0.10092516285E+04  0.00000000000E+00 0.  1.
<mgrwt>
<rscale>  0 0.11822977E+04</rscale>
<asrwt>0</asrwt>
<pdfrwt beam="1">  1        2 0.42290978E+00 0.11822977E+04</pdfrwt>
<pdfrwt beam="2">  1       -1 0.19557767E-01 0.11822977E+04</pdfrwt>
<totfact> 0.59945002E+01</totfact>
</mgrwt>
</event>
<event>
12    7  0.1740517E-007  0.1728080E+04  0.7818608E-02  0.8745510E-01
         -1   -1    0    0    0  501 -0.00000000000E+00  0.00000000000E+00  0.41760698081E+03  0.41760698081E+03  0.00000000000E+00 0.  1.
          2   -1    0    0  501    0  0.00000000000E+00 -0.00000000000E+00 -0.17877212476E+04  0.17877212476E+04  0.00000000000E+00 0. -1.
         24    2    1    2    0    0 -0.10575632669E+02 -0.14735997283E+03 -0.12735938620E+04  0.12845958792E+04  0.79488627185E+02 0.  0.
        254    2    1    2    0    0  0.10575632669E+02  0.14735997283E+03 -0.96520404780E+02  0.92073234924E+03  0.90366203018E+03 0.  0.
         23    2    4    4    0    0  0.34201007071E+03  0.26408917426E+03 -0.27037936703E+03  0.51771665675E+03  0.90617625945E+02 0.  0.
         23    2    4    4    0    0 -0.33143443804E+03 -0.11672920143E+03  0.17385896225E+03  0.40301569249E+03  0.93382099188E+02 0.  0.
          2    1    3    3  502    0  0.32754333629E+02 -0.90247267662E+02 -0.74726883803E+03  0.75341099805E+03  0.00000000000E+00 0. -1.
         -1    1    3    3    0  502 -0.43329966298E+02 -0.57112705167E+02 -0.52632502396E+03  0.53118488110E+03  0.00000000000E+00 0.  1.
         13    1    5    5    0    0  0.71058688684E+02  0.13527361931E+02 -0.39861119829E+02  0.82590772077E+02  0.00000000000E+00 0. -1.
        -13    1    5    5    0    0  0.27095138203E+03  0.25056181232E+03 -0.23051824721E+03  0.43512588467E+03  0.00000000000E+00 0.  1.
          2    1    6    6  503    0 -0.48936954794E+02 -0.23428717626E+02 -0.72209536719E+01  0.54734564272E+02  0.00000000000E+00 0. -1.
         -2    1    6    6    0  503 -0.28249748325E+03 -0.93300483801E+02  0.18107991593E+03  0.34828112821E+03  0.00000000000E+00 0.  1.
<mgrwt>
<rscale>  0 0.17280797E+04</rscale>
<asrwt>0</asrwt>
<pdfrwt beam="1">  1        2 0.27503404E+00 0.17280797E+04</pdfrwt>
<pdfrwt beam="2">  1       -1 0.64247227E-01 0.17280797E+04</pdfrwt>
<totfact> 0.23287971E+01</totfact>
</mgrwt>
</event>
<event>
12    7  0.1740517E-007  0.1145462E+04  0.7818608E-02  0.9161980E-01
          2   -1    0    0  501    0  0.00000000000E+00  0.00000000000E+00  0.95329207084E+03  0.95329207084E+03  0.00000000000E+00 0. -1.
         -1   -1    0    0    0  501 -0.00000000000E+00 -0.00000000000E+00 -0.34409266157E+03  0.34409266157E+03  0.00000000000E+00 0.  1.
         24    2    1    2    0    0 -0.69114678109E+02 -0.18108409190E+03  0.67134829579E+02  0.22073105809E+03  0.81528078561E+02 0.  0.
        254    2    1    2    0    0  0.69114678109E+02  0.18108409190E+03  0.54206457968E+03  0.10766536743E+04  0.90982461980E+03 0.  0.
         23    2    4    4    0    0  0.14314483939E+03 -0.23125365937E+03  0.57749992490E+03  0.64484362824E+03  0.91369806850E+02 0.  0.
         23    2    4    4    0    0 -0.74030161278E+02  0.41233775128E+03 -0.35435345217E+02  0.43181004607E+03  0.98495514058E+02 0.  0.
          2    1    3    3  502    0  0.53269228023E+01  0.60842246642E+01 -0.86786855789E+00  0.81330862617E+01  0.00000000000E+00 0. -1.
         -1    1    3    3    0  502 -0.74441600912E+02 -0.18716831657E+03  0.68002698137E+02  0.21259797183E+03  0.00000000000E+00 0.  1.
         13    1    5    5    0    0  0.48740299506E+01 -0.45338566714E+02  0.44743444484E+02  0.63885190960E+02  0.00000000000E+00 0. -1.
        -13    1    5    5    0    0  0.13827080944E+03 -0.18591509266E+03  0.53275648042E+03  0.58095843728E+03  0.00000000000E+00 0.  1.
          3    1    6    6  503    0 -0.36214584633E+02  0.11858765526E+03  0.31997940850E+02  0.12805622335E+03  0.00000000000E+00 0. -1.
         -3    1    6    6    0  503 -0.37815576645E+02  0.29375009602E+03 -0.67433286067E+02  0.30375382272E+03  0.00000000000E+00 0.  1.
<mgrwt>
<rscale>  0 0.11454620E+04</rscale>
<asrwt>0</asrwt>
<pdfrwt beam="1">  1        2 0.14666032E+00 0.11454620E+04</pdfrwt>
<pdfrwt beam="2">  1       -1 0.52937333E-01 0.11454620E+04</pdfrwt>
<totfact> 0.10975973E+02</totfact>
</mgrwt>
</event>
<event>
12    7  0.1740517E-007  0.2671009E+04  0.7818608E-02  0.8344473E-01
          2   -1    0    0  501    0  0.00000000000E+00  0.00000000000E+00  0.11692676235E+04  0.11692676235E+04  0.00000000000E+00 0. -1.
         -1   -1    0    0    0  501 -0.00000000000E+00 -0.00000000000E+00 -0.15253754588E+04  0.15253754588E+04  0.00000000000E+00 0.  1.
         24    2    1    2    0    0  0.28795241864E+03 -0.11860854908E+03 -0.12968438441E+04  0.13360704107E+04  0.79344836326E+02 0.  0.
        254    2    1    2    0    0 -0.28795241864E+03  0.11860854908E+03  0.94073600877E+03  0.13585726716E+04  0.92938198952E+03 0.  0.
         23    2    4    4    0    0  0.32680627909E+03  0.93918822460E+02  0.42495495715E+03  0.55144973231E+03  0.88808796808E+02 0.  0.
         23    2    4    4    0    0 -0.61475869773E+03  0.24689726624E+02  0.51578105161E+03  0.80712293926E+03  0.82942792597E+02 0.  0.
          4    1    3    3  502    0  0.19681877743E+03 -0.11897837641E+03 -0.95221738842E+03  0.97959759086E+03  0.00000000000E+00 0. -1.
         -3    1    3    3    0  502  0.91133641208E+02  0.36982732943E+00 -0.34462645566E+03  0.35647281982E+03  0.00000000000E+00 0.  1.
         13    1    5    5    0    0  0.28357962993E+03  0.63148754317E+02  0.39557125616E+03  0.49079709696E+03  0.00000000000E+00 0. -1.
        -13    1    5    5    0    0  0.43226649160E+02  0.30770068143E+02  0.29383700997E+02  0.60652635354E+02  0.00000000000E+00 0.  1.
          2    1    6    6  503    0 -0.17948035579E+03 -0.12396645059E+02  0.10992282355E+03  0.21083145415E+03  0.00000000000E+00 0.  1.
         -2    1    6    6    0  503 -0.43527834194E+03  0.37086371683E+02  0.40585822806E+03  0.59629148511E+03  0.00000000000E+00 0. -1.
<mgrwt>
<rscale>  0 0.26710089E+04</rscale>
<asrwt>0</asrwt>
<pdfrwt beam="1">  1        2 0.17988733E+00 0.26710089E+04</pdfrwt>
<pdfrwt beam="2">  1       -1 0.23467315E+00 0.26710089E+04</pdfrwt>
<totfact> 0.17409281E+00</totfact>
</mgrwt>
</event>
<event>
12    7  0.1740517E-007  0.1079542E+04  0.7818608E-02  0.9225364E-01
         -1   -1    0    0    0  501 -0.00000000000E+00  0.00000000000E+00  0.10960027691E+03  0.10960027691E+03  0.00000000000E+00 0.  1.
          2   -1    0    0  501    0  0.00000000000E+00 -0.00000000000E+00 -0.26583231721E+04  0.26583231721E+04  0.00000000000E+00 0. -1.
         24    2    1    2    0    0 -0.46983148629E+02 -0.61299469077E+02 -0.72886316560E+03  0.73781947546E+03  0.84681893254E+02 0.  0.
        254    2    1    2    0    0  0.46983148629E+02  0.61299469077E+02 -0.18198597295E+04  0.20301039735E+04  0.89636357959E+03 0.  0.
         23    2    4    4    0    0  0.27919037965E+03  0.34574295762E+02 -0.17473606959E+04  0.17722930284E+04  0.92792924111E+02 0.  0.
         23    2    4    4    0    0 -0.23220723102E+03  0.26725173315E+02 -0.72499033629E+02  0.25781094512E+03  0.81092172977E+02 0.  0.
          4    1    3    3  502    0 -0.27159489952E+02 -0.66956881677E+02 -0.69048212725E+03  0.69425242524E+03  0.00000000000E+00 0. -1.
         -3    1    3    3    0  502 -0.19823658676E+02  0.56574126007E+01 -0.38381038344E+02  0.43567050221E+02  0.00000000000E+00 0.  1.
         13    1    5    5    0    0  0.13553723266E+03  0.46486770223E+02 -0.65686565174E+03  0.67231231260E+03  0.00000000000E+00 0. -1.
        -13    1    5    5    0    0  0.14365314699E+03 -0.11912474461E+02 -0.10904950442E+04  0.10999807158E+04  0.00000000000E+00 0.  1.
          3    1    6    6  503    0 -0.15448927948E+03 -0.21234698424E+02 -0.49906518518E+02  0.16373304639E+03  0.00000000000E+00 0. -1.
         -3    1    6    6    0  503 -0.77717951546E+02  0.47959871739E+02 -0.22592515111E+02  0.94077898726E+02  0.00000000000E+00 0.  1.
<mgrwt>
<rscale>  0 0.10795424E+04</rscale>
<asrwt>0</asrwt>
<pdfrwt beam="1">  1        2 0.40897274E+00 0.10795424E+04</pdfrwt>
<pdfrwt beam="2">  1       -1 0.16861583E-01 0.10795424E+04</pdfrwt>
<totfact> 0.87541831E+01</totfact>
</mgrwt>
</event>
<event>
12    7  0.1740517E-007  0.2460538E+04  0.7818608E-02  0.8417180E-01
         -1   -1    0    0    0  501 -0.00000000000E+00  0.00000000000E+00  0.94817544842E+03  0.94817544842E+03  0.00000000000E+00 0.  1.
          2   -1    0    0  501    0  0.00000000000E+00 -0.00000000000E+00 -0.15962890735E+04  0.15962890735E+04  0.00000000000E+00 0. -1.
         24    2    1    2    0    0  0.19188747190E+03 -0.53714072227E+03 -0.12074183744E+04  0.13377279842E+04  0.79473715683E+02 0.  0.
        254    2    1    2    0    0 -0.19188747190E+03  0.53714072227E+03  0.55930474929E+03  0.12067365378E+04  0.90446133780E+03 0.  0.
         23    2    4    4    0    0  0.33359671474E+01  0.21032771962E+02  0.63464654916E+03  0.64184477849E+03  0.93461067493E+02 0.  0.
         23    2    4    4    0    0 -0.19522343905E+03  0.51610795031E+03 -0.75341799874E+02  0.56489175926E+03  0.94587025287E+02 0.  0.
          2    1    3    3  502    0  0.13977775422E+03 -0.47303926667E+03 -0.10295317554E+04  0.11415952014E+04  0.00000000000E+00 0. -1.
         -1    1    3    3    0  502  0.52109717682E+02 -0.64101455601E+02 -0.17788661896E+03  0.19613278281E+03  0.00000000000E+00 0.  1.
         13    1    5    5    0    0 -0.38827102717E+01 -0.30036378789E+02  0.94343989534E+02  0.99086062849E+02  0.00000000000E+00 0. -1.
        -13    1    5    5    0    0  0.72186774191E+01  0.51069150751E+02  0.54030255963E+03  0.54275871564E+03  0.00000000000E+00 0.  1.
          1    1    6    6  503    0 -0.98451470238E+02  0.27906560666E+03  0.68063479653E+01  0.29600106619E+03  0.00000000000E+00 0. -1.
         -1    1    6    6    0  503 -0.96771968809E+02  0.23704234365E+03 -0.82148147839E+02  0.26889069308E+03  0.00000000000E+00 0.  1.
<mgrwt>
<rscale>  0 0.24605382E+04</rscale>
<asrwt>0</asrwt>
<pdfrwt beam="1">  1        2 0.24558293E+00 0.24605382E+04</pdfrwt>
<pdfrwt beam="2">  1       -1 0.14587315E+00 0.24605382E+04</pdfrwt>
<totfact> 0.42934998E+00</totfact>
</mgrwt>
</event>
<event>
12    7  0.1740517E-007  0.1618982E+04  0.7818608E-02  0.8808971E-01
         -1   -1    0    0    0  501 -0.00000000000E+00  0.00000000000E+00  0.49277861820E+03  0.49277861820E+03  0.00000000000E+00 0.  1.
          2   -1    0    0  501    0  0.00000000000E+00 -0.00000000000E+00 -0.13297567492E+04  0.13297567492E+04  0.00000000000E+00 0. -1.
         24    2    1    2    0    0  0.15743851145E+02 -0.54824617797E+03 -0.39685080142E+03  0.68166308562E+03  0.79701086574E+02 0.  0.
        254    2    1    2    0    0 -0.15743851145E+02  0.54824617797E+03 -0.44012732955E+03  0.11408722818E+04  0.89836282011E+03 0.  0.
         23    2    4    4    0    0  0.28621278078E+03  0.65301573908E+03 -0.27393860798E+03  0.76925687846E+03  0.91468424852E+02 0.  0.
         23    2    4    4    0    0 -0.30195663192E+03 -0.10476956112E+03 -0.16618872157E+03  0.37161540329E+03  0.91240606559E+02 0.  0.
          4    1    3    3  502    0 -0.20881198831E+02 -0.24377353795E+03 -0.21094041003E+03  0.32304398904E+03  0.00000000000E+00 0. -1.
         -3    1    3    3    0  502  0.36625049977E+02 -0.30447264002E+03 -0.18591039139E+03  0.35861909658E+03  0.00000000000E+00 0.  1.
         13    1    5    5    0    0  0.54286154397E+02  0.22769426266E+03 -0.78772869144E+02  0.24697536055E+03  0.00000000000E+00 0. -1.
        -13    1    5    5    0    0  0.23192662638E+03  0.42532147643E+03 -0.19516573884E+03  0.52228151791E+03  0.00000000000E+00 0.  1.
          2    1    6    6  503    0 -0.26501786551E+03 -0.87832264114E+02 -0.17570323884E+03  0.32987968079E+03  0.00000000000E+00 0. -1.
         -2    1    6    6    0  503 -0.36938766412E+02 -0.16937297004E+02  0.95145172659E+01  0.41735722501E+02  0.00000000000E+00 0.  1.
<mgrwt>
<rscale>  0 0.16189820E+04</rscale>
<asrwt>0</asrwt>
<pdfrwt beam="1">  1        2 0.20457796E+00 0.16189820E+04</pdfrwt>
<pdfrwt beam="2">  1       -1 0.75812096E-01 0.16189820E+04</pdfrwt>
<totfact> 0.30308610E+01</totfact>
</mgrwt>
</event>
<event>
12    7  0.1740517E-007  0.1761019E+04  0.7818608E-02  0.8727308E-01
          2   -1    0    0  501    0  0.00000000000E+00  0.00000000000E+00  0.10175515007E+04  0.10175515007E+04  0.00000000000E+00 0. -1.
         -1   -1    0    0    0  501 -0.00000000000E+00 -0.00000000000E+00 -0.76192402591E+03  0.76192402591E+03  0.00000000000E+00 0.  1.
         24    2    1    2    0    0 -0.85084434287E+02 -0.13712461856E+03 -0.52905984021E+03  0.55999542563E+03  0.87453074461E+02 0.  0.
        254    2    1    2    0    0  0.85084434287E+02  0.13712461856E+03  0.78468731501E+03  0.12194801010E+04  0.91943189654E+03 0.  0.
         23    2    4    4    0    0 -0.18073954451E+03  0.31761885576E+03  0.11046302991E+02  0.37694362748E+03  0.91738525198E+02 0.  0.
         23    2    4    4    0    0  0.26582397879E+03 -0.18049423721E+03  0.77364101202E+03  0.84253647350E+03  0.90037416239E+02 0.  0.
          4    1    3    3  502    0 -0.32776109527E+02 -0.11156768503E+03 -0.26171243412E+03  0.28638264590E+03  0.00000000000E+00 0. -1.
         -3    1    3    3    0  502 -0.52308324761E+02 -0.25556933529E+02 -0.26734740609E+03  0.27361277974E+03  0.00000000000E+00 0.  1.
         13    1    5    5    0    0 -0.55183360878E+01  0.61978416032E+02  0.24136010208E+02  0.66740715277E+02  0.00000000000E+00 0. -1.
        -13    1    5    5    0    0 -0.17522120842E+03  0.25564043973E+03 -0.13089707217E+02  0.31020291221E+03  0.00000000000E+00 0.  1.
          4    1    6    6  503    0  0.53029139292E+02 -0.61487367857E+02  0.11985966309E+03  0.14477266613E+03  0.00000000000E+00 0. -1.
         -4    1    6    6    0  503  0.21279483950E+03 -0.11900686935E+03  0.65378134893E+03  0.69776380737E+03  0.00000000000E+00 0.  1.
<mgrwt>
<rscale>  0 0.17610190E+04</rscale>
<asrwt>0</asrwt>
<pdfrwt beam="1">  1        2 0.15654639E+00 0.17610190E+04</pdfrwt>
<pdfrwt beam="2">  1       -1 0.11721908E+00 0.17610190E+04</pdfrwt>
<totfact> 0.17384063E+01</totfact>
</mgrwt>
</event>
<event>
12    7  0.1740517E-007  0.2048784E+04  0.7818608E-02  0.8584146E-01
         -1   -1    0    0    0  501 -0.00000000000E+00  0.00000000000E+00  0.31232006983E+03  0.31232006983E+03  0.00000000000E+00 0.  1.
          2   -1    0    0  501    0  0.00000000000E+00 -0.00000000000E+00 -0.33599459380E+04  0.33599459380E+04  0.00000000000E+00 0. -1.
         24    2    1    2    0    0  0.75308317775E+03  0.14347554160E+03 -0.66849741148E+03  0.10203727681E+04  0.80946235534E+02 0.  0.
        254    2    1    2    0    0 -0.75308317775E+03 -0.14347554160E+03 -0.23791284567E+04  0.26518932398E+04  0.88575732451E+03 0.  0.
         23    2    4    4    0    0 -0.63694428553E+03 -0.36733959507E+03 -0.98643437596E+03  0.12335906740E+04  0.89759523116E+02 0.  0.
         23    2    4    4    0    0 -0.11613889223E+03  0.22386405347E+03 -0.13926940807E+04  0.14183025657E+04  0.91553310766E+02 0.  0.
          2    1    3    3  502    0  0.54833350763E+03  0.13049809876E+03 -0.45609653685E+03  0.72506788668E+03  0.00000000000E+00 0. -1.
         -1    1    3    3    0  502  0.20474967012E+03  0.12977442836E+02 -0.21240087464E+03  0.29530488141E+03  0.00000000000E+00 0.  1.
         13    1    5    5    0    0 -0.16802929802E+03 -0.14358278679E+03 -0.28301367238E+03  0.35909135385E+03  0.00000000000E+00 0.  1.
        -13    1    5    5    0    0 -0.46891498751E+03 -0.22375680828E+03 -0.70342070358E+03  0.87449932017E+03  0.00000000000E+00 0. -1.
          2    1    6    6  503    0 -0.46897195719E+02  0.12995935960E+03 -0.97045132131E+03  0.98023698621E+03  0.00000000000E+00 0. -1.
         -2    1    6    6    0  503 -0.69241696509E+02  0.93904693871E+02 -0.42224275944E+03  0.43806557953E+03  0.00000000000E+00 0.  1.
<mgrwt>
<rscale>  0 0.20487836E+04</rscale>
<asrwt>0</asrwt>
<pdfrwt beam="1">  1        2 0.51691475E+00 0.20487836E+04</pdfrwt>
<pdfrwt beam="2">  1       -1 0.48049243E-01 0.20487836E+04</pdfrwt>
<totfact> 0.46474847E+00</totfact>
</mgrwt>
</event>
<event>
12    7  0.1740517E-007  0.1157965E+04  0.7818608E-02  0.9150467E-01
          2   -1    0    0  501    0  0.00000000000E+00  0.00000000000E+00  0.15841815779E+04  0.15841815779E+04  0.00000000000E+00 0. -1.
         -1   -1    0    0    0  501 -0.00000000000E+00 -0.00000000000E+00 -0.21160507468E+03  0.21160507468E+03  0.00000000000E+00 0.  1.
         24    2    1    2    0    0 -0.11433955544E+03  0.90330136743E+02  0.52332715557E+03  0.54893330595E+03  0.78888497740E+02 0.  0.
        254    2    1    2    0    0  0.11433955544E+03 -0.90330136743E+02  0.84924934765E+03  0.12468533466E+04  0.90121348526E+03 0.  0.
         23    2    4    4    0    0  0.48245094507E+03 -0.17707551788E+03  0.47672661787E+03  0.70809639437E+03  0.10008787187E+03 0.  0.
         23    2    4    4    0    0 -0.36811138963E+03  0.86745381140E+02  0.37252272978E+03  0.53875695228E+03  0.91951688933E+02 0.  0.
          4    1    3    3  502    0 -0.10784079311E+03  0.66264108584E+02  0.49621296947E+03  0.51210143509E+03  0.00000000000E+00 0. -1.
         -3    1    3    3    0  502 -0.64987623264E+01  0.24066028159E+02  0.27114186100E+02  0.36831870859E+02  0.00000000000E+00 0.  1.
         13    1    5    5    0    0  0.26673057607E+03 -0.12770611666E+03  0.32709436020E+03  0.44095892430E+03  0.00000000000E+00 0.  1.
        -13    1    5    5    0    0  0.21572036900E+03 -0.49369401227E+02  0.14963225767E+03  0.26713747007E+03  0.00000000000E+00 0. -1.
          3    1    6    6  503    0 -0.23178477928E+03  0.25111826730E+02  0.27330528266E+03  0.35923608571E+03  0.00000000000E+00 0. -1.
         -3    1    6    6    0  503 -0.13632661035E+03  0.61633554410E+02  0.99217447120E+02  0.17952086656E+03  0.00000000000E+00 0.  1.
<mgrwt>
<rscale>  0 0.11579652E+04</rscale>
<asrwt>0</asrwt>
<pdfrwt beam="1">  1        2 0.24372024E+00 0.11579652E+04</pdfrwt>
<pdfrwt beam="2">  1       -1 0.32554628E-01 0.11579652E+04</pdfrwt>
<totfact> 0.11325955E+02</totfact>
</mgrwt>
</event>
<event>
12    7  0.1740517E-007  0.2230084E+04  0.7818608E-02  0.8506010E-01
          2   -1    0    0  501    0  0.00000000000E+00  0.00000000000E+00  0.23941054011E+04  0.23941054011E+04  0.00000000000E+00 0. -1.
         -1   -1    0    0    0  501 -0.00000000000E+00 -0.00000000000E+00 -0.51932499652E+03  0.51932499652E+03  0.00000000000E+00 0.  1.
         24    2    1    2    0    0  0.93550251872E+01 -0.79105308081E+02  0.20119147093E+04  0.20150949551E+04  0.80384787324E+02 0.  0.
        254    2    1    2    0    0 -0.93550251872E+01  0.79105308081E+02 -0.13713430475E+03  0.89833544255E+03  0.88422597991E+03 0.  0.
         23    2    4    4    0    0 -0.33104077332E+02  0.47072209643E+03 -0.40959316028E+02  0.48367329714E+03  0.97913333066E+02 0.  0.
         23    2    4    4    0    0  0.23749052145E+02 -0.39161678835E+03 -0.96174988726E+02  0.41466214541E+03  0.93634074901E+02 0.  0.
          2    1    3    3  502    0 -0.62047762416E+01  0.88257996370E+01  0.72744064996E+03  0.72752064795E+03  0.00000000000E+00 0. -1.
         -1    1    3    3    0  502  0.15559801429E+02 -0.87931107718E+02  0.12844740594E+04  0.12875743071E+04  0.00000000000E+00 0.  1.
         13    1    5    5    0    0 -0.29753164336E+02  0.21204673051E+03 -0.65232405491E+02  0.22383997282E+03  0.00000000000E+00 0.  1.
        -13    1    5    5    0    0 -0.33509129961E+01  0.25867536593E+03  0.24273089464E+02  0.25983332432E+03  0.00000000000E+00 0. -1.
          1    1    6    6  503    0  0.36874784362E+02 -0.26718332713E+03 -0.10452177574E+03  0.28926023166E+03  0.00000000000E+00 0. -1.
         -1    1    6    6    0  503 -0.13125732217E+02 -0.12443346122E+03  0.83467870132E+01  0.12540191375E+03  0.00000000000E+00 0.  1.
<mgrwt>
<rscale>  0 0.22300841E+04</rscale>
<asrwt>0</asrwt>
<pdfrwt beam="1">  1        2 0.36832390E+00 0.22300841E+04</pdfrwt>
<pdfrwt beam="2">  1       -1 0.79896154E-01 0.22300841E+04</pdfrwt>
<totfact> 0.65023031E+00</totfact>
</mgrwt>
</event>
<event>
12    7  0.1740517E-007  0.2072774E+04  0.7818608E-02  0.8573332E-01
         -1   -1    0    0    0  501 -0.00000000000E+00  0.00000000000E+00  0.10052061729E+04  0.10052061729E+04  0.00000000000E+00 0.  1.
          2   -1    0    0  501    0  0.00000000000E+00 -0.00000000000E+00 -0.10685352747E+04  0.10685352747E+04  0.00000000000E+00 0. -1.
         24    2    1    2    0    0  0.50417108368E+03 -0.66889132312E+03  0.17271964405E+01  0.84147431740E+03  0.80448492057E+02 0.  0.
        254    2    1    2    0    0 -0.50417108368E+03  0.66889132312E+03 -0.65056298201E+02  0.12322671302E+04  0.90146873185E+03 0.  0.
         23    2    4    4    0    0 -0.53884377157E+03  0.52331520288E+02  0.15498005413E+03  0.57055904008E+03  0.91801976349E+02 0.  0.
         23    2    4    4    0    0  0.34672687890E+02  0.61655980283E+03 -0.22003635233E+03  0.66170809013E+03  0.89963406170E+02 0.  0.
          2    1    3    3  502    0  0.16953979068E+03 -0.27471303397E+03  0.25832974238E+02  0.32384924613E+03  0.00000000000E+00 0. -1.
         -1    1    3    3    0  502  0.33463129300E+03 -0.39417828914E+03 -0.24105777797E+02  0.51762507127E+03  0.00000000000E+00 0.  1.
         13    1    5    5    0    0 -0.33694379287E+03  0.70628103036E+02  0.73226867022E+02  0.35196821241E+03  0.00000000000E+00 0. -1.
        -13    1    5    5    0    0 -0.20189997870E+03 -0.18296582747E+02  0.81753187106E+02  0.21859082767E+03  0.00000000000E+00 0.  1.
          3    1    6    6  503    0  0.55496517228E+02  0.32479789937E+03 -0.89814107172E+02  0.34152615230E+03  0.00000000000E+00 0. -1.
         -3    1    6    6    0  503 -0.20823829339E+02  0.29176190346E+03 -0.13022224516E+03  0.32018193783E+03  0.00000000000E+00 0.  1.
<mgrwt>
<rscale>  0 0.20727742E+04</rscale>
<asrwt>0</asrwt>
<pdfrwt beam="1">  1        2 0.16439004E+00 0.20727742E+04</pdfrwt>
<pdfrwt beam="2">  1       -1 0.15464710E+00 0.20727742E+04</pdfrwt>
<totfact> 0.77088960E+00</totfact>
</mgrwt>
</event>
<event>
12    7  0.1740517E-007  0.2440228E+04  0.7818608E-02  0.8424595E-01
         -1   -1    0    0    0  501 -0.00000000000E+00  0.00000000000E+00  0.50412233614E+03  0.50412233614E+03  0.00000000000E+00 0.  1.
          2   -1    0    0  501    0  0.00000000000E+00 -0.00000000000E+00 -0.29530096328E+04  0.29530096328E+04  0.00000000000E+00 0. -1.
         24    2    1    2    0    0  0.34323171694E+03  0.75415769168E+03 -0.19742282008E+04  0.21425495122E+04  0.79872324887E+02 0.  0.
        254    2    1    2    0    0 -0.34323171694E+03 -0.75415769168E+03 -0.47465909592E+03  0.13145824567E+04  0.90347326619E+03 0.  0.
         23    2    4    4    0    0  0.11405526743E+03 -0.18286844738E+03  0.20555735573E+03  0.31138800843E+03  0.90880098050E+02 0.  0.
         23    2    4    4    0    0 -0.45728698437E+03 -0.57128924430E+03 -0.68021645165E+03  0.10031944483E+04  0.90674656065E+02 0.  0.
          2    1    3    3  502    0  0.17393063202E+03  0.44433235801E+03 -0.12109310035E+04  0.13015517678E+04  0.00000000000E+00 0. -1.
         -1    1    3    3    0  502  0.16930108493E+03  0.30982533367E+03 -0.76329719729E+03  0.84099774443E+03  0.00000000000E+00 0.  1.
         13    1    5    5    0    0  0.91304464259E+02 -0.99155881700E+02  0.17164988341E+03  0.21824774121E+03  0.00000000000E+00 0.  1.
        -13    1    5    5    0    0  0.22750803168E+02 -0.83712565683E+02  0.33907472321E+02  0.93140267217E+02  0.00000000000E+00 0. -1.
          2    1    6    6  503    0 -0.45407624552E+03 -0.54230104236E+03 -0.64280982272E+03  0.95576154216E+03  0.00000000000E+00 0. -1.
         -2    1    6    6    0  503 -0.32107388536E+01 -0.28988201946E+02 -0.37406628935E+02  0.47432906134E+02  0.00000000000E+00 0.  1.
<mgrwt>
<rscale>  0 0.24402280E+04</rscale>
<asrwt>0</asrwt>
<pdfrwt beam="1">  1        2 0.45430917E+00 0.24402280E+04</pdfrwt>
<pdfrwt beam="2">  1       -1 0.77557284E-01 0.24402280E+04</pdfrwt>
<totfact> 0.31647410E+00</totfact>
</mgrwt>
</event>
<event>
12    7  0.1740517E-007  0.1645465E+04  0.7818608E-02  0.8793094E-01
         -1   -1    0    0    0  501 -0.00000000000E+00  0.00000000000E+00  0.25768225277E+03  0.25768225277E+03  0.00000000000E+00 0.  1.
          2   -1    0    0  501    0  0.00000000000E+00 -0.00000000000E+00 -0.26268351878E+04  0.26268351878E+04  0.00000000000E+00 0. -1.
         24    2    1    2    0    0  0.50734001463E+03 -0.18821903232E+03 -0.52196659389E+03  0.75592646042E+03  0.78456318100E+02 0.  0.
        254    2    1    2    0    0 -0.50734001463E+03  0.18821903232E+03 -0.18471863412E+04  0.21285909802E+04  0.90883545669E+03 0.  0.
         23    2    4    4    0    0  0.14589062164E+03  0.25542324775E+03 -0.10378006860E+04  0.10825657194E+04  0.91614213140E+02 0.  0.
         23    2    4    4    0    0 -0.65323063628E+03 -0.67204215422E+02 -0.80938565515E+03  0.10460252607E+04  0.88527038731E+02 0.  0.
          2    1    3    3  502    0  0.26672777742E+03 -0.11383326238E+03 -0.22848485115E+03  0.36919784137E+03  0.00000000000E+00 0. -1.
         -1    1    3    3    0  502  0.24061223722E+03 -0.74385769948E+02 -0.29348174274E+03  0.38672861905E+03  0.00000000000E+00 0.  1.
         13    1    5    5    0    0  0.30780325243E+02  0.67727933632E+02 -0.42379667191E+03  0.43027679526E+03  0.00000000000E+00 0. -1.
        -13    1    5    5    0    0  0.11511029640E+03  0.18769531411E+03 -0.61400401411E+03  0.65228892419E+03  0.00000000000E+00 0.  1.
          4    1    6    6  503    0 -0.43480350365E+03 -0.69323117028E+02 -0.48609961696E+03  0.65586021296E+03  0.00000000000E+00 0. -1.
         -4    1    6    6    0  503 -0.21842713263E+03  0.21189016060E+01 -0.32328603819E+03  0.39016504777E+03  0.00000000000E+00 0.  1.
<mgrwt>
<rscale>  0 0.16454651E+04</rscale>
<asrwt>0</asrwt>
<pdfrwt beam="1">  1        2 0.40412849E+00 0.16454651E+04</pdfrwt>
<pdfrwt beam="2">  1       -1 0.39643423E-01 0.16454651E+04</pdfrwt>
<totfact> 0.19823243E+01</totfact>
</mgrwt>
</event>
<event>
12    7  0.1740517E-007  0.2235526E+04  0.7818608E-02  0.8503785E-01
         -1   -1    0    0    0  501 -0.00000000000E+00  0.00000000000E+00  0.10503760466E+04  0.10503760466E+04  0.00000000000E+00 0.  1.
          2   -1    0    0  501    0  0.00000000000E+00 -0.00000000000E+00 -0.11894736037E+04  0.11894736037E+04  0.00000000000E+00 0. -1.
         24    2    1    2    0    0 -0.90305051819E+03 -0.17298848770E+03 -0.11167973855E+03  0.92955165839E+03  0.78540857747E+02 0.  0.
        254    2    1    2    0    0  0.90305051819E+03  0.17298848770E+03 -0.27417818543E+02  0.13102979919E+04  0.93311512442E+03 0.  0.
         23    2    4    4    0    0  0.31508433144E+03 -0.32596181267E+03  0.19577781593E+03  0.50221525700E+03  0.91443818341E+02 0.  0.
         23    2    4    4    0    0  0.58796618675E+03  0.49895030037E+03 -0.22319563447E+03  0.80808273487E+03  0.92335129513E+02 0.  0.
          4    1    3    3  502    0 -0.88359461996E+03 -0.16662165309E+03 -0.97049130083E+02  0.90438971763E+03  0.00000000000E+00 0. -1.
         -3    1    3    3    0  502 -0.19455898234E+02 -0.63668346093E+01 -0.14630608469E+02  0.25161940768E+02  0.00000000000E+00 0.  1.
         13    1    5    5    0    0  0.27846605709E+03 -0.30098696530E+03  0.20260584142E+03  0.45736815063E+03  0.00000000000E+00 0. -1.
        -13    1    5    5    0    0  0.36618274353E+02 -0.24974847369E+02 -0.68280254905E+01  0.44847106370E+02  0.00000000000E+00 0.  1.
          4    1    6    6  503    0  0.32142686808E+03  0.26329997719E+03 -0.16742280906E+03  0.44796484963E+03  0.00000000000E+00 0. -1.
         -4    1    6    6    0  503  0.26653931868E+03  0.23565032318E+03 -0.55772825411E+02  0.36011788524E+03  0.00000000000E+00 0.  1.
<mgrwt>
<rscale>  0 0.22355264E+04</rscale>
<asrwt>0</asrwt>
<pdfrwt beam="1">  1        2 0.18299594E+00 0.22355264E+04</pdfrwt>
<pdfrwt beam="2">  1       -1 0.16159632E+00 0.22355264E+04</pdfrwt>
<totfact> 0.56753451E+00</totfact>
</mgrwt>
</event>
<event>
12    7  0.1740517E-007  0.1376156E+04  0.7818608E-02  0.8971261E-01
          2   -1    0    0  501    0  0.00000000000E+00  0.00000000000E+00  0.99908620546E+03  0.99908620546E+03  0.00000000000E+00 0. -1.
         -1   -1    0    0    0  501 -0.00000000000E+00 -0.00000000000E+00 -0.47388407778E+03  0.47388407778E+03  0.00000000000E+00 0.  1.
         24    2    1    2    0    0  0.19221565496E+02  0.66965309852E+02  0.56424491593E+03  0.57422819898E+03  0.80696208385E+02 0.  0.
        254    2    1    2    0    0 -0.19221565496E+02 -0.66965309852E+02 -0.39042788244E+02  0.89874208427E+03  0.89518666959E+03 0.  0.
         23    2    4    4    0    0  0.30920289166E+03  0.20754021946E+03  0.16515732164E+03  0.41569855361E+03  0.82758538390E+02 0.  0.
         23    2    4    4    0    0 -0.32842445715E+03 -0.27450552931E+03 -0.20420010989E+03  0.48304353066E+03  0.91746705406E+02 0.  0.
          4    1    3    3  502    0  0.18787321620E+02  0.84520631248E+02  0.41376292758E+03  0.42272504160E+03  0.00000000000E+00 0. -1.
         -1    1    3    3    0  502  0.43424387625E+00 -0.17555321396E+02  0.15048198835E+03  0.15150315737E+03  0.00000000000E+00 0.  1.
         13    1    5    5    0    0  0.48628936952E+02  0.25926094963E+01  0.10195076862E+02  0.49753740818E+02  0.00000000000E+00 0. -1.
        -13    1    5    5    0    0  0.26057395471E+03  0.20494760996E+03  0.15496224478E+03  0.36594481279E+03  0.00000000000E+00 0.  1.
          3    1    6    6  503    0 -0.67492418969E+02 -0.54304116882E+02 -0.28680947650E+01  0.86674042805E+02  0.00000000000E+00 0. -1.
         -3    1    6    6    0  503 -0.26093203819E+03 -0.22020141243E+03 -0.20133201512E+03  0.39636948785E+03  0.00000000000E+00 0.  1.
<mgrwt>
<rscale>  0 0.13761556E+04</rscale>
<asrwt>0</asrwt>
<pdfrwt beam="1">  1        2 0.15370557E+00 0.13761556E+04</pdfrwt>
<pdfrwt beam="2">  1       -1 0.72905243E-01 0.13761556E+04</pdfrwt>
<totfact> 0.53226724E+01</totfact>
</mgrwt>
</event>
<event>
12    7  0.1740517E-007  0.1685307E+04  0.7818608E-02  0.8769789E-01
          2   -1    0    0  501    0  0.00000000000E+00  0.00000000000E+00  0.85637963848E+03  0.85637963848E+03  0.00000000000E+00 0. -1.
         -1   -1    0    0    0  501 -0.00000000000E+00 -0.00000000000E+00 -0.82914719395E+03  0.82914719395E+03  0.00000000000E+00 0.  1.
         24    2    1    2    0    0  0.14685754574E+03 -0.41903700138E+03  0.41346500794E+03  0.61197612306E+03  0.80014468280E+02 0.  0.
        254    2    1    2    0    0 -0.14685754574E+03  0.41903700138E+03 -0.38623256341E+03  0.10735507094E+04  0.89787325680E+03 0.  0.
         23    2    4    4    0    0 -0.17746187058E+03  0.35616329584E+02 -0.59499983675E+03  0.62787646637E+03  0.86271738414E+02 0.  0.
         23    2    4    4    0    0  0.30604324837E+02  0.38342067180E+03  0.20876727334E+03  0.44567424300E+03  0.84224225703E+02 0.  0.
          4    1    3    3  502    0  0.12381068897E+03 -0.29792922328E+03  0.33882464991E+03  0.46786007756E+03  0.00000000000E+00 0. -1.
         -3    1    3    3    0  502  0.23046856773E+02 -0.12110777810E+03  0.74640358034E+02  0.14411604550E+03  0.00000000000E+00 0.  1.
         13    1    5    5    0    0 -0.89255547002E+02 -0.23560690874E+02 -0.23318371698E+03  0.25079135688E+03  0.00000000000E+00 0.  1.
        -13    1    5    5    0    0 -0.88206323579E+02  0.59177020458E+02 -0.36181611977E+03  0.37708510949E+03  0.00000000000E+00 0. -1.
          2    1    6    6  503    0  0.50987972283E+02  0.28264972164E+03  0.17984040916E+03  0.33887049330E+03  0.00000000000E+00 0. -1.
         -2    1    6    6    0  503 -0.20383647447E+02  0.10077095016E+03  0.28926864174E+02  0.10680374970E+03  0.00000000000E+00 0.  1.
<mgrwt>
<rscale>  0 0.16853068E+04</rscale>
<asrwt>0</asrwt>
<pdfrwt beam="1">  1        2 0.13175071E+00 0.16853068E+04</pdfrwt>
<pdfrwt beam="2">  1       -1 0.12756111E+00 0.16853068E+04</pdfrwt>
<totfact> 0.18173943E+01</totfact>
</mgrwt>
</event>
<event>
12    7  0.1740517E-007  0.1419837E+04  0.7818608E-02  0.8939583E-01
         -1   -1    0    0    0  501 -0.00000000000E+00  0.00000000000E+00  0.16923318401E+04  0.16923318401E+04  0.00000000000E+00 0.  1.
          2   -1    0    0  501    0  0.00000000000E+00 -0.00000000000E+00 -0.29780460603E+03  0.29780460603E+03  0.00000000000E+00 0. -1.
         24    2    1    2    0    0 -0.19136641840E+03  0.37421241918E+03  0.36927754571E+03  0.56527445482E+03  0.80704787678E+02 0.  0.
        254    2    1    2    0    0  0.19136641840E+03 -0.37421241918E+03  0.10252496883E+04  0.14248619913E+04  0.89578944512E+03 0.  0.
         23    2    4    4    0    0  0.52894540156E+03 -0.28606379254E+03  0.77780280075E+03  0.98731312536E+03  0.90522259192E+02 0.  0.
         23    2    4    4    0    0 -0.33757898316E+03 -0.88148626637E+02  0.24744688756E+03  0.43754886590E+03  0.92137384559E+02 0.  0.
          2    1    3    3  502    0 -0.33264287789E+02  0.13213351316E+03  0.14809732050E+03  0.20124262591E+03  0.00000000000E+00 0. -1.
         -1    1    3    3    0  502 -0.15810213061E+03  0.24207890602E+03  0.22118022520E+03  0.36403182892E+03  0.00000000000E+00 0.  1.
         13    1    5    5    0    0  0.36288395347E+03 -0.18581419665E+03  0.59128082295E+03  0.71820936429E+03  0.00000000000E+00 0.  1.
        -13    1    5    5    0    0  0.16606144809E+03 -0.10024959590E+03  0.18652197781E+03  0.26910376107E+03  0.00000000000E+00 0. -1.
          1    1    6    6  503    0 -0.44175492663E+02 -0.33212602785E+02  0.73841125561E+02  0.92233740897E+02  0.00000000000E+00 0. -1.
         -1    1    6    6    0  503 -0.29340349050E+03 -0.54936023851E+02  0.17360576200E+03  0.34531512500E+03  0.00000000000E+00 0.  1.
<mgrwt>
<rscale>  0 0.14198369E+04</rscale>
<asrwt>0</asrwt>
<pdfrwt beam="1">  1        2 0.45816094E-01 0.14198369E+04</pdfrwt>
<pdfrwt beam="2">  1       -1 0.26035874E+00 0.14198369E+04</pdfrwt>
<totfact> 0.73634733E+00</totfact>
</mgrwt>
</event>
<event>
12    7  0.1740517E-007  0.2534601E+04  0.7818608E-02  0.8390761E-01
          2   -1    0    0  501    0  0.00000000000E+00  0.00000000000E+00  0.21817835823E+04  0.21817835823E+04  0.00000000000E+00 0. -1.
         -1   -1    0    0    0  501 -0.00000000000E+00 -0.00000000000E+00 -0.73611807795E+03  0.73611807795E+03  0.00000000000E+00 0.  1.
         24    2    1    2    0    0  0.31378121077E+03 -0.20643394216E+03  0.18291323495E+04  0.18689701191E+04  0.79060314226E+02 0.  0.
        254    2    1    2    0    0 -0.31378121077E+03  0.20643394216E+03 -0.38346684516E+03  0.10489315412E+04  0.90118640471E+03 0.  0.
         23    2    4    4    0    0  0.72128160276E+02  0.32912924262E+03 -0.50728332477E+03  0.61569948973E+03  0.90669510857E+02 0.  0.
         23    2    4    4    0    0 -0.38590937105E+03 -0.12269530047E+03  0.12381647962E+03  0.43323205145E+03  0.91538573079E+02 0.  0.
          2    1    3    3  502    0  0.23627207572E+03 -0.15813992236E+03  0.11985744768E+04  0.12318333918E+04  0.00000000000E+00 0. -1.
         -1    1    3    3    0  502  0.77509135047E+02 -0.48294019794E+02  0.63055787277E+03  0.63713672730E+03  0.00000000000E+00 0.  1.
         13    1    5    5    0    0 -0.33178226465E+01  0.16045183847E+03 -0.28052204125E+03  0.32318480169E+03  0.00000000000E+00 0.  1.
        -13    1    5    5    0    0  0.75445982923E+02  0.16867740416E+03 -0.22676128352E+03  0.29251468804E+03  0.00000000000E+00 0. -1.
          2    1    6    6  503    0 -0.11197603777E+03 -0.48731174827E+02  0.80339648864E+02  0.14617735671E+03  0.00000000000E+00 0. -1.
         -2    1    6    6    0  503 -0.27393333327E+03 -0.73964125640E+02  0.43476830754E+02  0.28705469474E+03  0.00000000000E+00 0.  1.
<mgrwt>
<rscale>  0 0.25346008E+04</rscale>
<asrwt>0</asrwt>
<pdfrwt beam="1">  1        2 0.33565901E+00 0.25346008E+04</pdfrwt>
<pdfrwt beam="2">  1       -1 0.11324894E+00 0.25346008E+04</pdfrwt>
<totfact> 0.38085836E+00</totfact>
</mgrwt>
</event>
<event>
12    7  0.1740517E-007  0.1716424E+04  0.7818608E-02  0.8752052E-01
          2   -1    0    0  501    0  0.00000000000E+00  0.00000000000E+00  0.23971879302E+04  0.23971879302E+04  0.00000000000E+00 0. -1.
         -1   -1    0    0    0  501 -0.00000000000E+00 -0.00000000000E+00 -0.30724673813E+03  0.30724673813E+03  0.00000000000E+00 0.  1.
         24    2    1    2    0    0 -0.27766547879E+03 -0.17039790237E+03  0.15947112248E+04  0.16297107165E+04  0.81972956584E+02 0.  0.
        254    2    1    2    0    0  0.27766547879E+03  0.17039790237E+03  0.49522996724E+03  0.10747239518E+04  0.89646265341E+03 0.  0.
         23    2    4    4    0    0  0.14724165463E+03 -0.31617495200E+03  0.42619208271E+03  0.55789222693E+03  0.89203925790E+02 0.  0.
         23    2    4    4    0    0  0.13042382417E+03  0.48657285437E+03  0.69037884528E+02  0.51683172491E+03  0.92656817660E+02 0.  0.
          2    1    3    3  502    0 -0.24561392501E+03 -0.12052935571E+03  0.13859282531E+04  0.14126749975E+04  0.00000000000E+00 0. -1.
         -1    1    3    3    0  502 -0.32051553787E+02 -0.49868546657E+02  0.20878297166E+03  0.21703571896E+03  0.00000000000E+00 0.  1.
         13    1    5    5    0    0 -0.71797101818E+01 -0.63321120497E+02  0.75252401362E+02  0.98610529103E+02  0.00000000000E+00 0.  1.
        -13    1    5    5    0    0  0.15442136481E+03 -0.25285383150E+03  0.35093968135E+03  0.45928169783E+03  0.00000000000E+00 0. -1.
          2    1    6    6  503    0  0.11471392799E+03  0.48032003807E+03  0.59450428464E+02  0.49739418743E+03  0.00000000000E+00 0. -1.
         -2    1    6    6    0  503  0.15709896181E+02  0.62528163004E+01  0.95874560636E+01  0.19437537485E+02  0.00000000000E+00 0.  1.
<mgrwt>
<rscale>  0 0.17164244E+04</rscale>
<asrwt>0</asrwt>
<pdfrwt beam="1">  1        2 0.36879813E+00 0.17164244E+04</pdfrwt>
<pdfrwt beam="2">  1       -1 0.47268730E-01 0.17164244E+04</pdfrwt>
<totfact> 0.19302918E+01</totfact>
</mgrwt>
</event>
<event>
12    7  0.1740517E-007  0.1887136E+04  0.7818608E-02  0.8661286E-01
          2   -1    0    0  501    0  0.00000000000E+00  0.00000000000E+00  0.25292401452E+04  0.25292401452E+04  0.00000000000E+00 0. -1.
         -1   -1    0    0    0  501 -0.00000000000E+00 -0.00000000000E+00 -0.35201097872E+03  0.35201097872E+03  0.00000000000E+00 0.  1.
         24    2    1    2    0    0  0.66473735699E+03  0.28994379340E+03  0.86357939981E+03  0.11306177626E+04  0.81141778482E+02 0.  0.
        254    2    1    2    0    0 -0.66473735699E+03 -0.28994379340E+03  0.13136497667E+04  0.17506333613E+04  0.90171963450E+03 0.  0.
         23    2    4    4    0    0 -0.18093011197E+03 -0.31535627379E+03  0.30748623325E+02  0.37627855587E+03  0.91949926261E+02 0.  0.
         23    2    4    4    0    0 -0.48380724502E+03  0.25412480382E+02  0.12829011434E+04  0.13743548055E+04  0.91107316975E+02 0.  0.
          4    1    3    3  502    0  0.43788334089E+03  0.21221370148E+03  0.62803823424E+03  0.79448631139E+03  0.00000000000E+00 0. -1.
         -3    1    3    3    0  502  0.22685401610E+03  0.77730091929E+02  0.23554116558E+03  0.33613145121E+03  0.00000000000E+00 0.  1.
         13    1    5    5    0    0 -0.19191868909E+03 -0.29966343242E+03  0.28570485427E+02  0.35699751902E+03  0.00000000000E+00 0. -1.
        -13    1    5    5    0    0  0.10988577120E+02 -0.15692841369E+02  0.21781378978E+01  0.19281036852E+02  0.00000000000E+00 0.  1.
          1    1    6    6  503    0 -0.47144470826E+03  0.38143382648E+02  0.12562044076E+04  0.13422982322E+04  0.00000000000E+00 0. -1.
         -1    1    6    6    0  503 -0.12362536760E+02 -0.12730902266E+02  0.26696735750E+02  0.32056573232E+02  0.00000000000E+00 0.  1.
<mgrwt>
<rscale>  0 0.18871357E+04</rscale>
<asrwt>0</asrwt>
<pdfrwt beam="1">  1        2 0.38911386E+00 0.18871357E+04</pdfrwt>
<pdfrwt beam="2">  1       -1 0.54155537E-01 0.18871357E+04</pdfrwt>
<totfact> 0.12313435E+01</totfact>
</mgrwt>
</event>
<event>
12    7  0.1740517E-007  0.1505095E+04  0.7818608E-02  0.8881072E-01
          2   -1    0    0  501    0  0.00000000000E+00  0.00000000000E+00  0.16575825802E+04  0.16575825802E+04  0.00000000000E+00 0. -1.
         -1   -1    0    0    0  501 -0.00000000000E+00 -0.00000000000E+00 -0.34165906297E+03  0.34165906297E+03  0.00000000000E+00 0.  1.
         24    2    1    2    0    0  0.66298452103E+02  0.30695413440E+03  0.90456206810E+03  0.96082383497E+03  0.79583801269E+02 0.  0.
        254    2    1    2    0    0 -0.66298452103E+02 -0.30695413440E+03  0.41136144915E+03  0.10384178082E+04  0.90026494834E+03 0.  0.
         23    2    4    4    0    0 -0.41852354640E+03 -0.36000827579E+03  0.36326098528E+03  0.66735002288E+03  0.92895597727E+02 0.  0.
         23    2    4    4    0    0  0.35222509430E+03  0.53054141389E+02  0.48100463871E+02  0.37106778535E+03  0.92197547277E+02 0.  0.
          2    1    3    3  502    0  0.78153790699E+02  0.28635631618E+03  0.79239207953E+03  0.84616379178E+03  0.00000000000E+00 0. -1.
         -1    1    3    3    0  502 -0.11855338595E+02  0.20597818220E+02  0.11216998857E+03  0.11466004319E+03  0.00000000000E+00 0.  1.
         13    1    5    5    0    0 -0.37998842196E+03 -0.28341297946E+03  0.30486410908E+03  0.56361000945E+03  0.00000000000E+00 0. -1.
        -13    1    5    5    0    0 -0.38535124447E+02 -0.76595296330E+02  0.58396876207E+02  0.10374001343E+03  0.00000000000E+00 0.  1.
          1    1    6    6  503    0  0.30049449010E+03  0.47786914918E+02  0.62741132379E+01  0.30433516444E+03  0.00000000000E+00 0. -1.
         -1    1    6    6    0  503  0.51730604197E+02  0.52672264709E+01  0.41826350633E+02  0.66732620903E+02  0.00000000000E+00 0.  1.
<mgrwt>
<rscale>  0 0.15050955E+04</rscale>
<asrwt>0</asrwt>
<pdfrwt beam="1">  1        2 0.25501270E+00 0.15050955E+04</pdfrwt>
<pdfrwt beam="2">  1       -1 0.52562934E-01 0.15050955E+04</pdfrwt>
<totfact> 0.41556559E+01</totfact>
</mgrwt>
</event>
<event>
12    7  0.1740517E-007  0.1590923E+04  0.7818608E-02  0.8826144E-01
          2   -1    0    0  501    0  0.00000000000E+00  0.00000000000E+00  0.14988124876E+04  0.14988124876E+04  0.00000000000E+00 0. -1.
         -1   -1    0    0    0  501 -0.00000000000E+00 -0.00000000000E+00 -0.42217380787E+03  0.42217380787E+03  0.00000000000E+00 0.  1.
         24    2    1    2    0    0 -0.32138322815E+03  0.27350034334E+02 -0.17653173420E+03  0.37615556154E+03  0.79336937042E+02 0.  0.
        254    2    1    2    0    0  0.32138322815E+03 -0.27350034334E+02  0.12531704140E+04  0.15448307340E+04  0.84381911951E+03 0.  0.
         23    2    4    4    0    0  0.43729825236E+03 -0.19138302557E+03  0.12250200207E+04  0.13178323823E+04  0.90282404904E+02 0.  0.
         23    2    4    4    0    0 -0.11591502420E+03  0.16403299123E+03  0.28150393268E+02  0.22699835171E+03  0.10194455349E+03 0.  0.
          2    1    3    3  502    0 -0.37853864904E+02  0.27251067735E+02 -0.11294712178E+02  0.47990689764E+02  0.00000000000E+00 0. -1.
         -1    1    3    3    0  502 -0.28352936325E+03  0.98966599185E-01 -0.16523702202E+03  0.32816487177E+03  0.00000000000E+00 0.  1.
         13    1    5    5    0    0  0.17238970035E+03 -0.12419626055E+03  0.52720470541E+03  0.56840805881E+03  0.00000000000E+00 0. -1.
        -13    1    5    5    0    0  0.26490855200E+03 -0.67186765020E+02  0.69781531529E+03  0.74942432344E+03  0.00000000000E+00 0.  1.
          1    1    6    6  503    0 -0.76021273333E+02  0.34363541862E+02 -0.14725759778E+02  0.84716792960E+02  0.00000000000E+00 0. -1.
         -1    1    6    6    0  503 -0.39893750870E+02  0.12966944937E+03  0.42876153046E+02  0.14228155875E+03  0.00000000000E+00 0.  1.
<mgrwt>
<rscale>  0 0.15909235E+04</rscale>
<asrwt>0</asrwt>
<pdfrwt beam="1">  1        2 0.23058653E+00 0.15909235E+04</pdfrwt>
<pdfrwt beam="2">  1       -1 0.64949817E-01 0.15909235E+04</pdfrwt>
<totfact> 0.33411088E+01</totfact>
</mgrwt>
</event>
<event>
12    7  0.1740517E-007  0.1072502E+04  0.7818608E-02  0.9232415E-01
          2   -1    0    0  501    0  0.00000000000E+00  0.00000000000E+00  0.10663700101E+04  0.10663700101E+04  0.00000000000E+00 0. -1.
         -1   -1    0    0    0  501 -0.00000000000E+00 -0.00000000000E+00 -0.26966750372E+03  0.26966750372E+03  0.00000000000E+00 0.  1.
         24    2    1    2    0    0 -0.63671576564E+02 -0.55961878130E+02 -0.16076005370E+02  0.11725247054E+03  0.79397118544E+02 0.  0.
        254    2    1    2    0    0  0.63671576564E+02  0.55961878130E+02  0.81277851175E+03  0.12187850433E+04  0.90423573868E+03 0.  0.
         23    2    4    4    0    0  0.24900945969E+02 -0.25918331277E+03 -0.65599074257E+02  0.28044408046E+03  0.80929580460E+02 0.  0.
         23    2    4    4    0    0  0.38770630595E+02  0.31514519090E+03  0.87837758601E+03  0.93834096283E+03  0.90093983017E+02 0.  0.
          2    1    3    3  502    0  0.16773899461E+02 -0.52504800305E+01  0.77632610914E+01  0.19214563915E+02  0.00000000000E+00 0. -1.
         -1    1    3    3    0  502 -0.80445476024E+02 -0.50711398100E+02 -0.23839266461E+02  0.98037906625E+02  0.00000000000E+00 0.  1.
         13    1    5    5    0    0  0.18048475545E+02 -0.25142138810E+03 -0.43167118487E+02  0.25573787749E+03  0.00000000000E+00 0. -1.
        -13    1    5    5    0    0  0.68524704241E+01 -0.77619246650E+01 -0.22431955770E+02  0.24706202968E+02  0.00000000000E+00 0.  1.
          4    1    6    6  503    0 -0.11064147995E+01  0.25100512510E+03  0.72809892348E+03  0.77015117955E+03  0.00000000000E+00 0. -1.
         -4    1    6    6    0  503  0.39877045394E+02  0.64140065791E+02  0.15027866253E+03  0.16818978329E+03  0.00000000000E+00 0.  1.
<mgrwt>
<rscale>  0 0.10725024E+04</rscale>
<asrwt>0</asrwt>
<pdfrwt beam="1">  1        2 0.16405692E+00 0.10725024E+04</pdfrwt>
<pdfrwt beam="2">  1       -1 0.41487309E-01 0.10725024E+04</pdfrwt>
<totfact> 0.14751405E+02</totfact>
</mgrwt>
</event>
<event>
12    7  0.1740517E-007  0.1872103E+04  0.7818608E-02  0.8668868E-01
         -1   -1    0    0    0  501 -0.00000000000E+00  0.00000000000E+00  0.98840539871E+03  0.98840539871E+03  0.00000000000E+00 0.  1.
          2   -1    0    0  501    0  0.00000000000E+00 -0.00000000000E+00 -0.88647099915E+03  0.88647099915E+03  0.00000000000E+00 0. -1.
         24    2    1    2    0    0  0.86158519415E+02  0.21930730136E+02 -0.67398384723E+03  0.68436531164E+03  0.78723605461E+02 0.  0.
        254    2    1    2    0    0 -0.86158519415E+02 -0.21930730136E+02  0.77591824678E+03  0.11905110862E+04  0.89853395780E+03 0.  0.
         23    2    4    4    0    0  0.34372215155E+03  0.17728933397E+03  0.48552335860E+03  0.62719821558E+03  0.89823407149E+02 0.  0.
         23    2    4    4    0    0 -0.42988067096E+03 -0.19922006411E+03  0.29039488818E+03  0.56331287064E+03  0.92228921351E+02 0.  0.
          2    1    3    3  502    0  0.82733813953E+02 -0.12344946039E+02 -0.50849954011E+03  0.51533393441E+03  0.00000000000E+00 0. -1.
         -1    1    3    3    0  502  0.34247054625E+01  0.34275676175E+02 -0.16548430713E+03  0.16903137724E+03  0.00000000000E+00 0.  1.
         13    1    5    5    0    0  0.32829886204E+03  0.18658912596E+03  0.47306797801E+03  0.60530071581E+03  0.00000000000E+00 0.  1.
        -13    1    5    5    0    0  0.15423289514E+02 -0.92997919900E+01  0.12455380592E+02  0.21897499770E+02  0.00000000000E+00 0. -1.
          1    1    6    6  503    0 -0.77628410959E+02  0.10983156791E+00  0.39270985290E+02  0.86996508761E+02  0.00000000000E+00 0. -1.
         -1    1    6    6    0  503 -0.35225226001E+03 -0.19932989567E+03  0.25112390289E+03  0.47631636188E+03  0.00000000000E+00 0.  1.
<mgrwt>
<rscale>  0 0.18721033E+04</rscale>
<asrwt>0</asrwt>
<pdfrwt beam="1">  1        2 0.13638015E+00 0.18721033E+04</pdfrwt>
<pdfrwt beam="2">  1       -1 0.15206237E+00 0.18721033E+04</pdfrwt>
<totfact> 0.10787022E+01</totfact>
</mgrwt>
</event>
<event>
12    7  0.1740517E-007  0.2243969E+04  0.7818608E-02  0.8500347E-01
         -1   -1    0    0    0  501 -0.00000000000E+00  0.00000000000E+00  0.15029721254E+04  0.15029721254E+04  0.00000000000E+00 0.  1.
          2   -1    0    0  501    0  0.00000000000E+00 -0.00000000000E+00 -0.83757312702E+03  0.83757312702E+03  0.00000000000E+00 0. -1.
         24    2    1    2    0    0 -0.65371876703E+03  0.61728239977E+03  0.23970728362E+02  0.90313716600E+03  0.81831273714E+02 0.  0.
        254    2    1    2    0    0  0.65371876703E+03 -0.61728239977E+03  0.64142826999E+03  0.14374080864E+04  0.91995977840E+03 0.  0.
         23    2    4    4    0    0  0.66587982222E+03 -0.59091508001E+03  0.83598129457E+03  0.12246078073E+04  0.90680689686E+02 0.  0.
         23    2    4    4    0    0 -0.12161055191E+02 -0.26367319757E+02 -0.19455302457E+03  0.21280027907E+03  0.81178522954E+02 0.  0.
          4    1    3    3  502    0 -0.64248197143E+03  0.60965030250E+03  0.33848015557E+02  0.88634206891E+03  0.00000000000E+00 0. -1.
         -3    1    3    3    0  502 -0.11236795595E+02  0.76320972680E+01 -0.98772871950E+01  0.16795097091E+02  0.00000000000E+00 0.  1.
         13    1    5    5    0    0  0.62930180747E+03 -0.57807839098E+03  0.81336343224E+03  0.11797268599E+04  0.00000000000E+00 0. -1.
        -13    1    5    5    0    0  0.36578014747E+02 -0.12836689029E+02  0.22617862330E+02  0.44880947455E+02  0.00000000000E+00 0.  1.
          3    1    6    6  503    0 -0.43959463881E+02 -0.28974684101E+02 -0.14040398267E+03  0.14995080904E+03  0.00000000000E+00 0. -1.
         -3    1    6    6    0  503  0.31798408689E+02  0.26073643443E+01 -0.54149041902E+02  0.62849470029E+02  0.00000000000E+00 0.  1.
<mgrwt>
<rscale>  0 0.22439689E+04</rscale>
<asrwt>0</asrwt>
<pdfrwt beam="1">  1        2 0.12885740E+00 0.22439689E+04</pdfrwt>
<pdfrwt beam="2">  1       -1 0.23122648E+00 0.22439689E+04</pdfrwt>
<totfact> 0.31166857E+00</totfact>
</mgrwt>
</event>
<event>
12    7  0.1740517E-007  0.1778683E+04  0.7818608E-02  0.8717719E-01
         -1   -1    0    0    0  501 -0.00000000000E+00  0.00000000000E+00  0.66026037137E+03  0.66026037137E+03  0.00000000000E+00 0.  1.
          2   -1    0    0  501    0  0.00000000000E+00 -0.00000000000E+00 -0.11979032191E+04  0.11979032191E+04  0.00000000000E+00 0. -1.
         24    2    1    2    0    0 -0.97771070975E+01  0.10843796521E+03 -0.87950903339E+03  0.88976918481E+03  0.79364212991E+02 0.  0.
        254    2    1    2    0    0  0.97771070975E+01 -0.10843796521E+03  0.34186618566E+03  0.96839440565E+03  0.89947809972E+03 0.  0.
         23    2    4    4    0    0  0.23781695682E+03 -0.33092608794E+03 -0.86410211115E+02  0.42622907690E+03  0.90197121790E+02 0.  0.
         23    2    4    4    0    0 -0.22803984972E+03  0.22248812273E+03  0.42827639677E+03  0.54216532875E+03  0.94970699971E+02 0.  0.
          2    1    3    3  502    0 -0.42391289461E+02  0.52329291085E+02 -0.53269883090E+03  0.53693893560E+03  0.00000000000E+00 0. -1.
         -1    1    3    3    0  502  0.32614182364E+02  0.56108674123E+02 -0.34681020250E+03  0.35283024921E+03  0.00000000000E+00 0.  1.
         13    1    5    5    0    0  0.22281187445E+03 -0.26817089612E+03 -0.50235038613E+02  0.35225604328E+03  0.00000000000E+00 0.  1.
        -13    1    5    5    0    0  0.15005082365E+02 -0.62755191817E+02 -0.36175172501E+02  0.73973033615E+02  0.00000000000E+00 0. -1.
          2    1    6    6  503    0 -0.23135015957E+03  0.22533934559E+03  0.40263643267E+03  0.51615580391E+03  0.00000000000E+00 0. -1.
         -2    1    6    6    0  503  0.33103098470E+01 -0.28512228584E+01  0.25639964106E+02  0.26009524841E+02  0.00000000000E+00 0.  1.
<mgrwt>
<rscale>  0 0.17786827E+04</rscale>
<asrwt>0</asrwt>
<pdfrwt beam="1">  1        2 0.18429280E+00 0.17786827E+04</pdfrwt>
<pdfrwt beam="2">  1       -1 0.10157852E+00 0.17786827E+04</pdfrwt>
<totfact> 0.18834164E+01</totfact>
</mgrwt>
</event>
<event>
12    7  0.1740517E-007  0.2807272E+04  0.7818608E-02  0.8301014E-01
          2   -1    0    0  501    0  0.00000000000E+00  0.00000000000E+00  0.12321531705E+04  0.12321531705E+04  0.00000000000E+00 0. -1.
         -1   -1    0    0    0  501 -0.00000000000E+00 -0.00000000000E+00 -0.15989851173E+04  0.15989851173E+04  0.00000000000E+00 0.  1.
         24    2    1    2    0    0 -0.64223900952E+03 -0.56019282457E+03  0.77098825909E+03  0.11518771655E+04  0.78173926169E+02 0.  0.
        254    2    1    2    0    0  0.64223900952E+03  0.56019282457E+03 -0.11378202059E+04  0.16792611223E+04  0.89386584564E+03 0.  0.
         23    2    4    4    0    0  0.42357736746E+03  0.66143341093E+03 -0.11767005233E+04  0.14180029499E+04  0.95897346984E+02 0.  0.
         23    2    4    4    0    0  0.21866164206E+03 -0.10124058635E+03  0.38880317443E+02  0.26125817239E+03  0.93175015543E+02 0.  0.
          4    1    3    3  502    0 -0.54372945125E+03 -0.43533850171E+03  0.63794442524E+03  0.94452867449E+03  0.00000000000E+00 0. -1.
         -3    1    3    3    0  502 -0.98509558266E+02 -0.12485432286E+03  0.13304383386E+03  0.20734849103E+03  0.00000000000E+00 0.  1.
         13    1    5    5    0    0  0.39362664309E+03  0.61547177396E+03 -0.10423790699E+04  0.12729106662E+04  0.00000000000E+00 0. -1.
        -13    1    5    5    0    0  0.29950724367E+02  0.45961636962E+02 -0.13432145336E+03  0.14509228372E+03  0.00000000000E+00 0.  1.
          1    1    6    6  503    0  0.81991899850E+01 -0.37556071653E+02  0.69882837262E+01  0.39070722336E+02  0.00000000000E+00 0. -1.
         -1    1    6    6    0  503  0.21046245207E+03 -0.63684514700E+02  0.31892033716E+02  0.22218745005E+03  0.00000000000E+00 0.  1.
<mgrwt>
<rscale>  0 0.28072724E+04</rscale>
<asrwt>0</asrwt>
<pdfrwt beam="1">  1        2 0.18956203E+00 0.28072724E+04</pdfrwt>
<pdfrwt beam="2">  1       -1 0.24599771E+00 0.28072724E+04</pdfrwt>
<totfact> 0.13297100E+00</totfact>
</mgrwt>
</event>
<event>
12    7  0.1740517E-007  0.1576791E+04  0.7818608E-02  0.8834935E-01
         -1   -1    0    0    0  501 -0.00000000000E+00  0.00000000000E+00  0.26763705219E+03  0.26763705219E+03  0.00000000000E+00 0.  1.
          2   -1    0    0  501    0  0.00000000000E+00 -0.00000000000E+00 -0.23224258121E+04  0.23224258121E+04  0.00000000000E+00 0. -1.
         24    2    1    2    0    0  0.81132871848E+02  0.34672757383E+02  0.15574930072E+03  0.19635004797E+03  0.80689241315E+02 0.  0.
        254    2    1    2    0    0 -0.81132871848E+02 -0.34672757383E+02 -0.22105380606E+04  0.23937128163E+04  0.91411037981E+03 0.  0.
         23    2    4    4    0    0  0.31767998475E+03 -0.27900983374E+03 -0.12174385651E+04  0.12921972356E+04  0.94074310102E+02 0.  0.
         23    2    4    4    0    0 -0.39881285660E+03  0.24433707636E+03 -0.99309949549E+03  0.11015155807E+04  0.91310815833E+02 0.  0.
          2    1    3    3  502    0  0.73137871790E+02  0.47267768181E+02  0.77133410697E+02  0.11633122214E+03  0.00000000000E+00 0. -1.
         -1    1    3    3    0  502  0.79950000575E+01 -0.12595010798E+02  0.78615890025E+02  0.80018825831E+02  0.00000000000E+00 0.  1.
         13    1    5    5    0    0  0.12398880144E+03 -0.62573699528E+02 -0.47774395095E+03  0.49752183211E+03  0.00000000000E+00 0. -1.
        -13    1    5    5    0    0  0.19369118332E+03 -0.21643613421E+03 -0.73969461414E+03  0.79467540347E+03  0.00000000000E+00 0.  1.
          4    1    6    6  503    0 -0.90849420240E+02  0.50944156964E+02 -0.14309757831E+03  0.17699107662E+03  0.00000000000E+00 0. -1.
         -4    1    6    6    0  503 -0.30796343636E+03  0.19339291939E+03 -0.85000191719E+03  0.92452450407E+03  0.00000000000E+00 0.  1.
<mgrwt>
<rscale>  0 0.15767907E+04</rscale>
<asrwt>0</asrwt>
<pdfrwt beam="1">  1        2 0.35729629E+00 0.15767907E+04</pdfrwt>
<pdfrwt beam="2">  1       -1 0.41174930E-01 0.15767907E+04</pdfrwt>
<totfact> 0.27853964E+01</totfact>
</mgrwt>
</event>
<event>
12    7  0.2181669E-007  0.2084356E+04  0.7818608E-02  0.8568166E-01
          2   -1    0    0  501    0  0.00000000000E+00  0.00000000000E+00  0.19393237923E+04  0.19393237923E+04  0.00000000000E+00 0. -1.
         -1   -1    0    0    0  501 -0.00000000000E+00 -0.00000000000E+00 -0.56005836164E+03  0.56005836164E+03  0.00000000000E+00 0.  1.
         24    2    1    2    0    0  0.93348484986E+02  0.79310312110E+03  0.87261586976E+03  0.11854532179E+04  0.78194470490E+02 0.  0.
        254    2    1    2    0    0 -0.93348484986E+02 -0.79310312110E+03  0.50664956087E+03  0.13139289361E+04  0.91213429445E+03 0.  0.
         23    2    4    4    0    0 -0.31557861575E+02 -0.98564883885E+03  0.41894356664E+03  0.10753435911E+04  0.91381588701E+02 0.  0.
         23    2    4    4    0    0 -0.61790623411E+02  0.19254571774E+03  0.87705994235E+02  0.23858534495E+03  0.91316432456E+02 0.  0.
          2    1    3    3  502    0  0.86605698199E+02  0.78682893341E+03  0.85255388319E+03  0.11633780302E+04  0.00000000000E+00 0. -1.
         -1    1    3    3    0  502  0.67427867869E+01  0.62741876928E+01  0.20061986570E+02  0.22075187655E+02  0.00000000000E+00 0.  1.
         13    1    5    5    0    0 -0.34588511857E+02 -0.12535952677E+03  0.51745210284E+02  0.13996050476E+03  0.00000000000E+00 0.  1.
        -13    1    5    5    0    0  0.30306502828E+01 -0.86028931208E+03  0.36719835635E+03  0.93538308635E+03  0.00000000000E+00 0. -1.
          3    1    6    6  503    0 -0.56994950281E+02  0.19986612606E+03  0.70824029555E+02  0.21956988834E+03  0.00000000000E+00 0. -1.
         -3    1    6    6    0  503 -0.47956731302E+01 -0.73204083134E+01  0.16881964679E+02  0.19015456610E+02  0.00000000000E+00 0.  1.
<mgrwt>
<rscale>  0 0.20843555E+04</rscale>
<asrwt>0</asrwt>
<pdfrwt beam="1">  1        2 0.29835750E+00 0.20843555E+04</pdfrwt>
<pdfrwt beam="2">  1       -1 0.86162826E-01 0.20843555E+04</pdfrwt>
<totfact> 0.10082414E+01</totfact>
</mgrwt>
</event>
<event>
12    7  0.1740517E-007  0.1437915E+04  0.7818608E-02  0.8926822E-01
          2   -1    0    0  501    0  0.00000000000E+00  0.00000000000E+00  0.13434283383E+04  0.13434283383E+04  0.00000000000E+00 0. -1.
         -1   -1    0    0    0  501 -0.00000000000E+00 -0.00000000000E+00 -0.38476193937E+03  0.38476193937E+03  0.00000000000E+00 0.  1.
         24    2    1    2    0    0  0.29648143116E+03 -0.24152386123E+03  0.49057027789E+02  0.39286413062E+03  0.75502440948E+02 0.  0.
        254    2    1    2    0    0 -0.29648143116E+03  0.24152386123E+03  0.90960937117E+03  0.13353261471E+04  0.89970645012E+03 0.  0.
         23    2    4    4    0    0 -0.10854797273E+03  0.30309240372E+03 -0.61561838458E+02  0.34015330963E+03  0.90921650437E+02 0.  0.
         23    2    4    4    0    0 -0.18793345843E+03 -0.61568542494E+02  0.97117120963E+03  0.99517283745E+03  0.89921008505E+02 0.  0.
          2    1    3    3  502    0  0.50244324253E+02 -0.69937887994E+02 -0.10923578027E+02  0.86805096934E+02  0.00000000000E+00 0. -1.
         -1    1    3    3    0  502  0.24623710691E+03 -0.17158597323E+03  0.59980605816E+02  0.30605903369E+03  0.00000000000E+00 0.  1.
         13    1    5    5    0    0 -0.65233688994E+02  0.19793078425E+03 -0.83169690164E+02  0.22438633402E+03  0.00000000000E+00 0. -1.
        -13    1    5    5    0    0 -0.43314283738E+02  0.10516161947E+03  0.21607851706E+02  0.11576697560E+03  0.00000000000E+00 0.  1.
          4    1    6    6  503    0 -0.15210751139E+03 -0.15293348162E+02  0.79410004100E+03  0.80868130722E+03  0.00000000000E+00 0. -1.
         -4    1    6    6    0  503 -0.35825947035E+02 -0.46275194332E+02  0.17707116862E+03  0.18649153023E+03  0.00000000000E+00 0.  1.
<mgrwt>
<rscale>  0 0.14379153E+04</rscale>
<asrwt>0</asrwt>
<pdfrwt beam="1">  1        2 0.20668128E+00 0.14379153E+04</pdfrwt>
<pdfrwt beam="2">  1       -1 0.59194145E-01 0.14379153E+04</pdfrwt>
<totfact> 0.49920209E+01</totfact>
</mgrwt>
</event>
<event>
12    7  0.1740517E-007  0.1424285E+04  0.7818608E-02  0.8936425E-01
          4   -1    0    0  501    0  0.00000000000E+00  0.00000000000E+00  0.59053469932E+03  0.59053469932E+03  0.00000000000E+00 0. -1.
         -3   -1    0    0    0  501 -0.00000000000E+00 -0.00000000000E+00 -0.85879239196E+03  0.85879239196E+03  0.00000000000E+00 0.  1.
         24    2    1    2    0    0  0.26078770170E+03 -0.32939413635E+03 -0.80718313274E+02  0.43548459735E+03  0.81367475165E+02 0.  0.
        254    2    1    2    0    0 -0.26078770170E+03  0.32939413635E+03 -0.18753937936E+03  0.10138424939E+04  0.90343503434E+03 0.  0.
         23    2    4    4    0    0 -0.69411728605E+02  0.56188524744E+03 -0.33655141062E+03  0.66464039932E+03  0.89145886397E+02 0.  0.
         23    2    4    4    0    0 -0.19137597309E+03 -0.23249111109E+03  0.14901203126E+03  0.34920209460E+03  0.95187381532E+02 0.  0.
          4    1    3    3  502    0  0.53887313634E+02 -0.89562981245E+02  0.12597083859E+02  0.10528084679E+03  0.00000000000E+00 0. -1.
         -3    1    3    3    0  502  0.20690038806E+03 -0.23983115511E+03 -0.93315397133E+02  0.33020375056E+03  0.00000000000E+00 0.  1.
         13    1    5    5    0    0  0.42435132348E+01  0.25309504558E+03 -0.11837055270E+03  0.27943997074E+03  0.00000000000E+00 0.  1.
        -13    1    5    5    0    0 -0.73655241840E+02  0.30879020186E+03 -0.21818085792E+03  0.38520042858E+03  0.00000000000E+00 0. -1.
          2    1    6    6  503    0  0.37137667652E+01 -0.34672252067E+02  0.33357685180E+02  0.48256525855E+02  0.00000000000E+00 0. -1.
         -2    1    6    6    0  503 -0.19508973986E+03 -0.19781885902E+03  0.11565434608E+03  0.30094556875E+03  0.00000000000E+00 0.  1.
<mgrwt>
<rscale>  0 0.14242847E+04</rscale>
<asrwt>0</asrwt>
<pdfrwt beam="1">  1        4 0.90851492E-01 0.14242847E+04</pdfrwt>
<pdfrwt beam="2">  1       -3 0.13212191E+00 0.14242847E+04</pdfrwt>
<totfact> 0.10257961E+00</totfact>
</mgrwt>
</event>
<event>
12    7  0.1740517E-007  0.1330260E+04  0.7818608E-02  0.9005907E-01
         -1   -1    0    0    0  501 -0.00000000000E+00  0.00000000000E+00  0.52785622439E+03  0.52785622439E+03  0.00000000000E+00 0.  1.
          2   -1    0    0  501    0  0.00000000000E+00 -0.00000000000E+00 -0.83810365871E+03  0.83810365871E+03  0.00000000000E+00 0. -1.
         24    2    1    2    0    0  0.19345507165E+03  0.21089086080E+03 -0.34432840467E+03  0.45477242342E+03  0.79725070828E+02 0.  0.
        254    2    1    2    0    0 -0.19345507165E+03 -0.21089086080E+03  0.34080970357E+02  0.91118745968E+03  0.86440803688E+03 0.  0.
         23    2    4    4    0    0  0.69817072657E+02 -0.54700558854E+02  0.40358752497E+03  0.42331369299E+03  0.91896776800E+02 0.  0.
         23    2    4    4    0    0 -0.26327214431E+03 -0.15619030194E+03 -0.36950655461E+03  0.48787376669E+03  0.88193457427E+02 0.  0.
          4    1    3    3  502    0  0.12191913941E+03  0.18384543371E+03 -0.25474031221E+03  0.33698078093E+03  0.00000000000E+00 0. -1.
         -3    1    3    3    0  502  0.71535932248E+02  0.27045427086E+02 -0.89588092468E+02  0.11779164249E+03  0.00000000000E+00 0.  1.
         13    1    5    5    0    0  0.68797283306E+02 -0.75655883725E+02  0.28286005598E+03  0.30077681127E+03  0.00000000000E+00 0. -1.
        -13    1    5    5    0    0  0.10197893502E+01  0.20955324871E+02  0.12072746899E+03  0.12253688171E+03  0.00000000000E+00 0.  1.
          1    1    6    6  503    0 -0.89869505442E+02 -0.95751132398E+01 -0.12414424273E+03  0.15355781910E+03  0.00000000000E+00 0. -1.
         -1    1    6    6    0  503 -0.17340263887E+03 -0.14661518870E+03 -0.24536231188E+03  0.33431594759E+03  0.00000000000E+00 0.  1.
<mgrwt>
<rscale>  0 0.13302605E+04</rscale>
<asrwt>0</asrwt>
<pdfrwt beam="1">  1        2 0.12893902E+00 0.13302605E+04</pdfrwt>
<pdfrwt beam="2">  1       -1 0.81208651E-01 0.13302605E+04</pdfrwt>
<totfact> 0.54595955E+01</totfact>
</mgrwt>
</event>
<event>
12    7  0.1740517E-007  0.1949665E+04  0.7818608E-02  0.8630522E-01
          2   -1    0    0  501    0  0.00000000000E+00  0.00000000000E+00  0.10896293659E+04  0.10896293659E+04  0.00000000000E+00 0. -1.
         -1   -1    0    0    0  501 -0.00000000000E+00 -0.00000000000E+00 -0.87213023905E+03  0.87213023905E+03  0.00000000000E+00 0.  1.
         24    2    1    2    0    0 -0.65330469570E+02  0.69684601798E+03  0.40468880144E+03  0.81306163368E+03  0.86219203939E+02 0.  0.
        254    2    1    2    0    0  0.65330469570E+02 -0.69684601798E+03 -0.18718967457E+03  0.11486979713E+04  0.89140597482E+03 0.  0.
         23    2    4    4    0    0 -0.78255533186E+02 -0.82138720640E+03  0.49417978500E+02  0.83171634814E+03  0.92244652095E+02 0.  0.
         23    2    4    4    0    0  0.14358600276E+03  0.12454118842E+03 -0.23660765307E+03  0.31698162315E+03  0.91469777092E+02 0.  0.
          2    1    3    3  502    0 -0.41001915872E+02  0.25037628869E+03  0.10383735651E+03  0.27413799381E+03  0.00000000000E+00 0. -1.
         -1    1    3    3    0  502 -0.24328553698E+02  0.44646972929E+03  0.30085144493E+03  0.53892363988E+03  0.00000000000E+00 0.  1.
         13    1    5    5    0    0 -0.98116294158E+01 -0.53036684690E+03  0.49431437529E+02  0.53275578588E+03  0.00000000000E+00 0. -1.
        -13    1    5    5    0    0 -0.68443903770E+02 -0.29102035950E+03 -0.13459028631E-01  0.29896056226E+03  0.00000000000E+00 0.  1.
          2    1    6    6  503    0  0.73801624167E+01  0.55861910578E+02 -0.84483210409E+02  0.10155014865E+03  0.00000000000E+00 0. -1.
         -2    1    6    6    0  503  0.13620584034E+03  0.68679277847E+02 -0.15212444266E+03  0.21543147449E+03  0.00000000000E+00 0.  1.
<mgrwt>
<rscale>  0 0.19496653E+04</rscale>
<asrwt>0</asrwt>
<pdfrwt beam="1">  1        2 0.16763529E+00 0.19496653E+04</pdfrwt>
<pdfrwt beam="2">  1       -1 0.13417388E+00 0.19496653E+04</pdfrwt>
<totfact> 0.11008850E+01</totfact>
</mgrwt>
</event>
<event>
12    7  0.1740517E-007  0.2430168E+04  0.7818608E-02  0.8428295E-01
         -1   -1    0    0    0  501 -0.00000000000E+00  0.00000000000E+00  0.54589222416E+03  0.54589222416E+03  0.00000000000E+00 0.  1.
          2   -1    0    0  501    0  0.00000000000E+00 -0.00000000000E+00 -0.27046161746E+04  0.27046161746E+04  0.00000000000E+00 0. -1.
         24    2    1    2    0    0  0.57445539205E+03 -0.79116201104E+03 -0.43263201108E+03  0.10722205820E+04  0.80933271055E+02 0.  0.
        254    2    1    2    0    0 -0.57445539205E+03  0.79116201104E+03 -0.17260919393E+04  0.21782878167E+04  0.89978225377E+03 0.  0.
         23    2    4    4    0    0  0.15692074287E+03  0.49742082141E+03 -0.79171878795E+03  0.95253423334E+03  0.91930589946E+02 0.  0.
         23    2    4    4    0    0 -0.73137613491E+03  0.29374118963E+03 -0.93437315136E+03  0.12257535833E+04  0.90684750112E+02 0.  0.
          2    1    3    3  502    0  0.86871759630E+02 -0.12244593604E+03 -0.99386006423E+02  0.18004801623E+03  0.00000000000E+00 0. -1.
         -1    1    3    3    0  502  0.48758363242E+03 -0.66871607499E+03 -0.33324600466E+03  0.89217256581E+03  0.00000000000E+00 0.  1.
         13    1    5    5    0    0  0.82255756307E+01  0.32660444980E+02 -0.19091141856E+02  0.38714809287E+02  0.00000000000E+00 0. -1.
        -13    1    5    5    0    0  0.14869516724E+03  0.46476037643E+03 -0.77262764610E+03  0.91381942405E+03  0.00000000000E+00 0.  1.
          1    1    6    6  503    0 -0.26678862735E+03  0.81994373711E+02 -0.27505972038E+03  0.39186362268E+03  0.00000000000E+00 0. -1.
         -1    1    6    6    0  503 -0.46458750757E+03  0.21174681592E+03 -0.65931343098E+03  0.83388996067E+03  0.00000000000E+00 0.  1.
<mgrwt>
<rscale>  0 0.24301678E+04</rscale>
<asrwt>0</asrwt>
<pdfrwt beam="1">  1        2 0.41609480E+00 0.24301678E+04</pdfrwt>
<pdfrwt beam="2">  1       -1 0.83983419E-01 0.24301678E+04</pdfrwt>
<totfact> 0.37833245E+00</totfact>
</mgrwt>
</event>
<event>
12    7  0.1740517E-007  0.1878722E+04  0.7818608E-02  0.8665521E-01
         -1   -1    0    0    0  501 -0.00000000000E+00  0.00000000000E+00  0.32279085248E+03  0.32279085248E+03  0.00000000000E+00 0.  1.
          2   -1    0    0  501    0  0.00000000000E+00 -0.00000000000E+00 -0.27336568837E+04  0.27336568837E+04  0.00000000000E+00 0. -1.
         24    2    1    2    0    0  0.45855487895E+03  0.31390677721E+03 -0.16813788000E+04  0.17726813974E+04  0.80960643046E+02 0.  0.
        254    2    1    2    0    0 -0.45855487895E+03 -0.31390677721E+03 -0.72948723119E+03  0.12837663388E+04  0.89838429992E+03 0.  0.
         23    2    4    4    0    0 -0.36580791950E+03 -0.53366423130E+03 -0.78586645021E+03  0.10220517493E+04  0.91601064533E+02 0.  0.
         23    2    4    4    0    0 -0.92746959452E+02  0.21975745410E+03  0.56379219020E+02  0.26171458945E+03  0.91763679490E+02 0.  0.
          4    1    3    3  502    0  0.46136913786E+03  0.31097010637E+03 -0.16759935674E+04  0.17659327072E+04  0.00000000000E+00 0. -1.
         -3    1    3    3    0  502 -0.28142589072E+01  0.29366708351E+01 -0.53852325986E+01  0.67486901641E+01  0.00000000000E+00 0.  1.
         13    1    5    5    0    0 -0.11253713748E+03 -0.10367268101E+03 -0.15689347577E+03  0.21915335918E+03  0.00000000000E+00 0.  1.
        -13    1    5    5    0    0 -0.25327078202E+03 -0.42999155030E+03 -0.62897297444E+03  0.80289839016E+03  0.00000000000E+00 0. -1.
          1    1    6    6  503    0 -0.89690776199E+02  0.13460443097E+03  0.68486710160E+02  0.17565084013E+03  0.00000000000E+00 0. -1.
         -1    1    6    6    0  503 -0.30561832533E+01  0.85153023128E+02 -0.12107491141E+02  0.86063749312E+02  0.00000000000E+00 0.  1.
<mgrwt>
<rscale>  0 0.18787224E+04</rscale>
<asrwt>0</asrwt>
<pdfrwt beam="1">  1        2 0.42056261E+00 0.18787224E+04</pdfrwt>
<pdfrwt beam="2">  1       -1 0.49660130E-01 0.18787224E+04</pdfrwt>
<totfact> 0.11030774E+01</totfact>
</mgrwt>
</event>
<event>
12    7  0.1740517E-007  0.1265604E+04  0.7818608E-02  0.9057296E-01
         -3   -1    0    0    0  501 -0.00000000000E+00  0.00000000000E+00  0.28229912114E+03  0.28229912114E+03  0.00000000000E+00 0.  1.
          2   -1    0    0  501    0  0.00000000000E+00 -0.00000000000E+00 -0.14184886130E+04  0.14184886130E+04  0.00000000000E+00 0. -1.
         24    2    1    2    0    0  0.16046681278E+03  0.14423353873E+03 -0.52593207493E+03  0.57393695536E+03  0.79032712167E+02 0.  0.
        254    2    1    2    0    0 -0.16046681278E+03 -0.14423353873E+03 -0.61025741691E+03  0.11268507788E+04  0.92240210918E+03 0.  0.
         23    2    4    4    0    0 -0.30989784192E+03  0.16943101603E+03 -0.67034224868E+03  0.76265109752E+03  0.86801063226E+02 0.  0.
         23    2    4    4    0    0  0.14943102914E+03 -0.31366455475E+03  0.60084831770E+02  0.36419968124E+03  0.91192847454E+02 0.  0.
          2    1    3    3  502    0  0.13395150345E+03  0.11561595376E+03 -0.33292756601E+03  0.37702893556E+03  0.00000000000E+00 0. -1.
         -1    1    3    3    0  502  0.26515309324E+02  0.28617584963E+02 -0.19300450891E+03  0.19690801979E+03  0.00000000000E+00 0.  1.
         13    1    5    5    0    0 -0.25033733716E+03  0.10040017803E+03 -0.53963068520E+03  0.60328289760E+03  0.00000000000E+00 0. -1.
        -13    1    5    5    0    0 -0.59560504761E+02  0.69030837994E+02 -0.13071156347E+03  0.15936819992E+03  0.00000000000E+00 0.  1.
          4    1    6    6  503    0  0.10983923090E+03 -0.14159984265E+03  0.55406322233E+02  0.18757673797E+03  0.00000000000E+00 0. -1.
         -4    1    6    6    0  503  0.39591798246E+02 -0.17206471210E+03  0.46785095363E+01  0.17662294327E+03  0.00000000000E+00 0.  1.
<mgrwt>
<rscale>  0 0.12656036E+04</rscale>
<asrwt>0</asrwt>
<pdfrwt beam="1">  1        2 0.21822901E+00 0.12656036E+04</pdfrwt>
<pdfrwt beam="2">  1       -3 0.43430635E-01 0.12656036E+04</pdfrwt>
<totfact> 0.46917390E+01</totfact>
</mgrwt>
</event>
<event>
12    7  0.1740517E-007  0.1582487E+04  0.7818608E-02  0.8831380E-01
         -1   -1    0    0    0  501 -0.00000000000E+00  0.00000000000E+00  0.11926732271E+04  0.11926732271E+04  0.00000000000E+00 0.  1.
          2   -1    0    0  501    0  0.00000000000E+00 -0.00000000000E+00 -0.52492661063E+03  0.52492661063E+03  0.00000000000E+00 0. -1.
         24    2    1    2    0    0 -0.51896551285E+03 -0.15284011521E+02  0.13986341917E+03  0.54367279507E+03  0.80371185997E+02 0.  0.
        254    2    1    2    0    0  0.51896551285E+03  0.15284011521E+02  0.52788319726E+03  0.11739270426E+04  0.91098036580E+03 0.  0.
         23    2    4    4    0    0  0.10528818163E+03 -0.27902712458E+03  0.57691527739E+03  0.65596533615E+03  0.92290560204E+02 0.  0.
         23    2    4    4    0    0  0.41367733122E+03  0.29431113610E+03 -0.49032080123E+02  0.51796170646E+03  0.90178740726E+02 0.  0.
          2    1    3    3  502    0 -0.77404408834E+02  0.26474684189E+02  0.24106956620E+02  0.85284797985E+02  0.00000000000E+00 0. -1.
         -1    1    3    3    0  502 -0.44156110402E+03 -0.41758695710E+02  0.11575646255E+03  0.45838799709E+03  0.00000000000E+00 0.  1.
         13    1    5    5    0    0  0.27221561705E+02 -0.10453534904E+02  0.30912674053E+02  0.42495684848E+02  0.00000000000E+00 0. -1.
        -13    1    5    5    0    0  0.78066619929E+02 -0.26857358968E+03  0.54600260333E+03  0.61346965130E+03  0.00000000000E+00 0.  1.
          3    1    6    6  503    0  0.13842892527E+03  0.56909335527E+02 -0.37486367997E+02  0.15429344642E+03  0.00000000000E+00 0. -1.
         -3    1    6    6    0  503  0.27524840595E+03  0.23740180058E+03 -0.11545712126E+02  0.36366826004E+03  0.00000000000E+00 0.  1.
<mgrwt>
<rscale>  0 0.15824865E+04</rscale>
<asrwt>0</asrwt>
<pdfrwt beam="1">  1        2 0.80757940E-01 0.15824865E+04</pdfrwt>
<pdfrwt beam="2">  1       -1 0.18348819E+00 0.15824865E+04</pdfrwt>
<totfact> 0.12542269E+01</totfact>
</mgrwt>
</event>
<event>
12    7  0.1740517E-007  0.1695308E+04  0.7818608E-02  0.8764045E-01
          2   -1    0    0  501    0  0.00000000000E+00  0.00000000000E+00  0.60063672151E+03  0.60063672151E+03  0.00000000000E+00 0. -1.
         -1   -1    0    0    0  501 -0.00000000000E+00 -0.00000000000E+00 -0.11962592630E+04  0.11962592630E+04  0.00000000000E+00 0.  1.
         24    2    1    2    0    0  0.36257712790E+03 -0.18458895129E+03  0.26140755167E+03  0.49006684090E+03  0.79349517114E+02 0.  0.
        254    2    1    2    0    0 -0.36257712790E+03  0.18458895129E+03 -0.85703009320E+03  0.13068291436E+04  0.89875835207E+03 0.  0.
         23    2    4    4    0    0 -0.12689892963E+03  0.42621851071E+03 -0.89112412711E+02  0.46283423244E+03  0.92243955921E+02 0.  0.
         23    2    4    4    0    0 -0.23567819826E+03 -0.24162955942E+03 -0.76791768049E+03  0.84399491120E+03  0.93278019997E+02 0.  0.
          2    1    3    3  502    0  0.71293539821E+02 -0.49951988261E+02  0.94046571530E+02  0.12815119027E+03  0.00000000000E+00 0. -1.
         -1    1    3    3    0  502  0.29128358807E+03 -0.13463696303E+03  0.16736098014E+03  0.36191565063E+03  0.00000000000E+00 0.  1.
         13    1    5    5    0    0  0.60356699713E+01 -0.10010009594E+01  0.15630427171E+01  0.63146193439E+01  0.00000000000E+00 0.  1.
        -13    1    5    5    0    0 -0.13293459961E+03  0.42721951167E+03 -0.90675455428E+02  0.45651961309E+03  0.00000000000E+00 0. -1.
          1    1    6    6  503    0 -0.22117007547E+03 -0.18053051166E+03 -0.59300295553E+03  0.65814889895E+03  0.00000000000E+00 0. -1.
         -1    1    6    6    0  503 -0.14508122793E+02 -0.61099047754E+02 -0.17491472496E+03  0.18584601225E+03  0.00000000000E+00 0.  1.
<mgrwt>
<rscale>  0 0.16953079E+04</rscale>
<asrwt>0</asrwt>
<pdfrwt beam="1">  1        2 0.92405651E-01 0.16953079E+04</pdfrwt>
<pdfrwt beam="2">  1       -1 0.18403988E+00 0.16953079E+04</pdfrwt>
<totfact> 0.10486615E+01</totfact>
</mgrwt>
</event>
<event>
12    7  0.1740517E-007  0.1753180E+04  0.7818608E-02  0.8731602E-01
         -1   -1    0    0    0  501 -0.00000000000E+00  0.00000000000E+00  0.59511234525E+03  0.59511234525E+03  0.00000000000E+00 0.  1.
          2   -1    0    0  501    0  0.00000000000E+00 -0.00000000000E+00 -0.12912021312E+04  0.12912021312E+04  0.00000000000E+00 0. -1.
         24    2    1    2    0    0  0.28019446965E+03 -0.14402461388E+03 -0.86183389955E+03  0.92101374770E+03  0.79098816701E+02 0.  0.
        254    2    1    2    0    0 -0.28019446965E+03  0.14402461388E+03  0.16574411357E+03  0.96530072878E+03  0.89726381604E+03 0.  0.
         23    2    4    4    0    0  0.25375012608E+03  0.64644408243E+02 -0.16762864093E+03  0.32439025614E+03  0.92529190081E+02 0.  0.
         23    2    4    4    0    0 -0.53394459574E+03  0.79380205641E+02  0.33337275450E+03  0.64091047264E+03  0.90723713161E+02 0.  0.
          4    1    3    3  502    0  0.11777978155E+03 -0.10421207113E+03 -0.39688274764E+03  0.42690531513E+03  0.00000000000E+00 0. -1.
         -3    1    3    3    0  502  0.16241468811E+03 -0.39812542758E+02 -0.46495115191E+03  0.49410843257E+03  0.00000000000E+00 0.  1.
         13    1    5    5    0    0  0.10377405062E+02 -0.10891232097E+02 -0.32819907694E+02  0.36103404458E+02  0.00000000000E+00 0. -1.
        -13    1    5    5    0    0  0.24337272102E+03  0.75535640341E+02 -0.13480873324E+03  0.28828685169E+03  0.00000000000E+00 0.  1.
          4    1    6    6  503    0 -0.22671121268E+02  0.15994584708E+02  0.38015144683E+02  0.47063337162E+02  0.00000000000E+00 0. -1.
         -4    1    6    6    0  503 -0.51127347447E+03  0.63385620934E+02  0.29535760982E+03  0.59384713548E+03  0.00000000000E+00 0.  1.
<mgrwt>
<rscale>  0 0.17531803E+04</rscale>
<asrwt>0</asrwt>
<pdfrwt beam="1">  1        2 0.19864648E+00 0.17531803E+04</pdfrwt>
<pdfrwt beam="2">  1       -1 0.91555747E-01 0.17531803E+04</pdfrwt>
<totfact> 0.21016450E+01</totfact>
</mgrwt>
</event>
<event>
12    7  0.1740517E-007  0.1973258E+04  0.7818608E-02  0.8619227E-01
         -1   -1    0    0    0  501 -0.00000000000E+00  0.00000000000E+00  0.70501415795E+03  0.70501415795E+03  0.00000000000E+00 0.  1.
          2   -1    0    0  501    0  0.00000000000E+00 -0.00000000000E+00 -0.13807335211E+04  0.13807335211E+04  0.00000000000E+00 0. -1.
         24    2    1    2    0    0 -0.38813894215E+03 -0.46792266995E+03 -0.78369891723E+03  0.99499054368E+03  0.78858897286E+02 0.  0.
        254    2    1    2    0    0  0.38813894215E+03  0.46792266995E+03  0.10797955403E+03  0.10907571354E+04  0.89915965263E+03 0.  0.
         23    2    4    4    0    0  0.21445757134E+03  0.72374698904E+03  0.36974067653E+02  0.76127289110E+03  0.91474471825E+02 0.  0.
         23    2    4    4    0    0  0.17368137080E+03 -0.25582431909E+03  0.71005486379E+02  0.32948424432E+03  0.88920117855E+02 0.  0.
          4    1    3    3  502    0 -0.30779085876E+03 -0.40315200747E+03 -0.61439441351E+03  0.79671026679E+03  0.00000000000E+00 0. -1.
         -3    1    3    3    0  502 -0.80348083392E+02 -0.64770662482E+02 -0.16930450372E+03  0.19828027689E+03  0.00000000000E+00 0.  1.
         13    1    5    5    0    0 -0.30915968476E-02  0.11227803063E+03  0.88955679854E+00  0.11228155451E+03  0.00000000000E+00 0. -1.
        -13    1    5    5    0    0  0.21446066294E+03  0.61146895841E+03  0.36084510854E+02  0.64899133659E+03  0.00000000000E+00 0.  1.
          3    1    6    6  503    0  0.22064046763E+02 -0.54408354532E+02  0.48908350388E+02  0.76414121340E+02  0.00000000000E+00 0. -1.
         -3    1    6    6    0  503  0.15161732404E+03 -0.20141596456E+03  0.22097135992E+02  0.25307012298E+03  0.00000000000E+00 0.  1.
<mgrwt>
<rscale>  0 0.19732579E+04</rscale>
<asrwt>0</asrwt>
<pdfrwt beam="1">  1        2 0.21242054E+00 0.19732579E+04</pdfrwt>
<pdfrwt beam="2">  1       -1 0.10846372E+00 0.19732579E+04</pdfrwt>
<totfact> 0.12427788E+01</totfact>
</mgrwt>
</event>
<event>
12    7  0.2674108E-007  0.2003146E+04  0.7818608E-02  0.8605151E-01
         -1   -1    0    0    0  501 -0.00000000000E+00  0.00000000000E+00  0.60015419661E+03  0.60015419661E+03  0.00000000000E+00 0.  1.
          2   -1    0    0  501    0  0.00000000000E+00 -0.00000000000E+00 -0.16714843322E+04  0.16714843322E+04  0.00000000000E+00 0. -1.
         24    2    1    2    0    0 -0.29440922491E+03  0.48257180377E+03 -0.10662938332E+04  0.12094985881E+04  0.79699173814E+02 0.  0.
        254    2    1    2    0    0  0.29440922491E+03 -0.48257180377E+03 -0.50363023330E+01  0.10621399407E+04  0.89920161908E+03 0.  0.
         23    2    4    4    0    0  0.84725205682E+02 -0.71582788932E+03 -0.66461169094E+02  0.72991277357E+03  0.93635689849E+02 0.  0.
         23    2    4    4    0    0  0.20968401923E+03  0.23325608555E+03  0.61424866761E+02  0.33222716712E+03  0.90697778119E+02 0.  0.
          2    1    3    3  502    0 -0.28473200933E+03  0.48204863666E+03 -0.10347474669E+04  0.11764971421E+04  0.00000000000E+00 0. -1.
         -1    1    3    3    0  502 -0.96772155760E+01  0.52316711063E+00 -0.31546366358E+02  0.33001445961E+02  0.00000000000E+00 0.  1.
         13    1    5    5    0    0  0.58323763886E+02 -0.67661585953E+03 -0.68680364327E+02  0.68258895042E+03  0.00000000000E+00 0. -1.
        -13    1    5    5    0    0  0.26401441796E+02 -0.39212029792E+02  0.22191952332E+01  0.47323823142E+02  0.00000000000E+00 0.  1.
          3    1    6    6  503    0  0.20756859220E+03  0.18490128334E+03  0.49127828145E+02  0.28228841377E+03  0.00000000000E+00 0. -1.
         -3    1    6    6    0  503  0.21154270220E+01  0.48354802207E+02  0.12297038616E+02  0.49938753355E+02  0.00000000000E+00 0.  1.
<mgrwt>
<rscale>  0 0.20031459E+04</rscale>
<asrwt>0</asrwt>
<pdfrwt beam="1">  1        2 0.25715143E+00 0.20031459E+04</pdfrwt>
<pdfrwt beam="2">  1       -1 0.92331416E-01 0.20031459E+04</pdfrwt>
<totfact> 0.12281727E+01</totfact>
</mgrwt>
</event>
<event>
12    7  0.1740517E-007  0.1656935E+04  0.7818608E-02  0.8786314E-01
         -1   -1    0    0    0  501 -0.00000000000E+00  0.00000000000E+00  0.58312350679E+03  0.58312350679E+03  0.00000000000E+00 0.  1.
          2   -1    0    0  501    0  0.00000000000E+00 -0.00000000000E+00 -0.11770380996E+04  0.11770380996E+04  0.00000000000E+00 0. -1.
         24    2    1    2    0    0 -0.40429741513E+03 -0.45572129323E+02 -0.64476454699E+03  0.76626183135E+03  0.76828733408E+02 0.  0.
        254    2    1    2    0    0  0.40429741513E+03  0.45572129323E+02  0.50849954124E+02  0.99389977509E+03  0.90538269601E+03 0.  0.
         23    2    4    4    0    0  0.49167023203E+03 -0.15786169306E+02 -0.32242210016E+03  0.59535880021E+03  0.92234863884E+02 0.  0.
         23    2    4    4    0    0 -0.87372816903E+02  0.61358298629E+02  0.37327205428E+03  0.39854097488E+03  0.90022398359E+02 0.  0.
          4    1    3    3  502    0 -0.24086071750E+03 -0.32818568058E+02 -0.45196184271E+03  0.51318656540E+03  0.00000000000E+00 0. -1.
         -3    1    3    3    0  502 -0.16343669762E+03 -0.12753561265E+02 -0.19280270428E+03  0.25307526594E+03  0.00000000000E+00 0.  1.
         13    1    5    5    0    0  0.38129201432E+03 -0.96808613898E+01 -0.20094264103E+03  0.43110934141E+03  0.00000000000E+00 0. -1.
        -13    1    5    5    0    0  0.11037821771E+03 -0.61053079160E+01 -0.12147945912E+03  0.16424945881E+03  0.00000000000E+00 0.  1.
          2    1    6    6  503    0 -0.10461127748E+03  0.42892854297E+02  0.32418072724E+03  0.34333141458E+03  0.00000000000E+00 0. -1.
         -2    1    6    6    0  503  0.17238460577E+02  0.18465444331E+02  0.49091327042E+02  0.55209560297E+02  0.00000000000E+00 0.  1.
<mgrwt>
<rscale>  0 0.16569352E+04</rscale>
<asrwt>0</asrwt>
<pdfrwt beam="1">  1        2 0.18108278E+00 0.16569352E+04</pdfrwt>
<pdfrwt beam="2">  1       -1 0.89711309E-01 0.16569352E+04</pdfrwt>
<totfact> 0.25899952E+01</totfact>
</mgrwt>
</event>
<event>
12    7  0.1740517E-007  0.1815103E+04  0.7818608E-02  0.8698309E-01
         -1   -1    0    0    0  501 -0.00000000000E+00  0.00000000000E+00  0.38938687615E+03  0.38938687615E+03  0.00000000000E+00 0.  1.
          2   -1    0    0  501    0  0.00000000000E+00 -0.00000000000E+00 -0.21152487154E+04  0.21152487154E+04  0.00000000000E+00 0. -1.
         24    2    1    2    0    0 -0.30631334906E+02  0.22873128512E+03  0.23381766901E+03  0.33799116019E+03  0.79442070428E+02 0.  0.
        254    2    1    2    0    0  0.30631334906E+02 -0.22873128512E+03 -0.19596795083E+04  0.21666444313E+04  0.89484525888E+03 0.  0.
         23    2    4    4    0    0 -0.33699836695E+03  0.16677997999E+02 -0.14227930392E+04  0.14651563648E+04  0.92179640134E+02 0.  0.
         23    2    4    4    0    0  0.36762970186E+03 -0.24540928312E+03 -0.53688646910E+03  0.70148806656E+03  0.91984307918E+02 0.  0.
          4    1    3    3  502    0  0.33276544000E+01  0.11325367520E+03  0.16244194744E+03  0.19805265592E+03  0.00000000000E+00 0. -1.
         -3    1    3    3    0  502 -0.33958989306E+02  0.11547760991E+03  0.71375721579E+02  0.13993850427E+03  0.00000000000E+00 0.  1.
         13    1    5    5    0    0 -0.19264863611E+03  0.47332337338E+02 -0.70665038194E+03  0.73396771689E+03  0.00000000000E+00 0.  1.
        -13    1    5    5    0    0 -0.14434973084E+03 -0.30654339339E+02 -0.71614265722E+03  0.73118864789E+03  0.00000000000E+00 0. -1.
          3    1    6    6  503    0  0.10027814694E+03 -0.21922589772E+02 -0.11034490865E+03  0.15070602364E+03  0.00000000000E+00 0. -1.
         -3    1    6    6    0  503  0.26735155491E+03 -0.22348669334E+03 -0.42654156045E+03  0.55078204293E+03  0.00000000000E+00 0.  1.
<mgrwt>
<rscale>  0 0.18151034E+04</rscale>
<asrwt>0</asrwt>
<pdfrwt beam="1">  1        2 0.32542288E+00 0.18151034E+04</pdfrwt>
<pdfrwt beam="2">  1       -1 0.59905674E-01 0.18151034E+04</pdfrwt>
<totfact> 0.17481280E+01</totfact>
</mgrwt>
</event>
<event>
12    7  0.1740517E-007  0.1528098E+04  0.7818608E-02  0.8865980E-01
         -1   -1    0    0    0  501 -0.00000000000E+00  0.00000000000E+00  0.13266482512E+04  0.13266482512E+04  0.00000000000E+00 0.  1.
          2   -1    0    0  501    0  0.00000000000E+00 -0.00000000000E+00 -0.44003429608E+03  0.44003429608E+03  0.00000000000E+00 0. -1.
         24    2    1    2    0    0  0.67854207019E+02  0.64864975050E+02 -0.26710493751E+03  0.29442687314E+03  0.80811370384E+02 0.  0.
        254    2    1    2    0    0 -0.67854207019E+02 -0.64864975050E+02  0.11537188927E+04  0.14722556742E+04  0.90975701617E+03 0.  0.
         23    2    4    4    0    0  0.19941376650E+03  0.21308470899E+03  0.10023651551E+04  0.10479853890E+04  0.91468726545E+02 0.  0.
         23    2    4    4    0    0 -0.26726797352E+03 -0.27794968404E+03  0.15135373756E+03  0.42427028518E+03  0.91701278529E+02 0.  0.
          4    1    3    3  502    0  0.19865084171E+02  0.94462237936E+01 -0.17656238352E+03  0.17792731097E+03  0.00000000000E+00 0. -1.
         -3    1    3    3    0  502  0.47989122848E+02  0.55418751256E+02 -0.90542553987E+02  0.11649956217E+03  0.00000000000E+00 0.  1.
         13    1    5    5    0    0  0.34334944663E+02 -0.21401534248E+01  0.12513247682E+03  0.12977521118E+03  0.00000000000E+00 0. -1.
        -13    1    5    5    0    0  0.16507882183E+03  0.21522486241E+03  0.87723267828E+03  0.91821017782E+03  0.00000000000E+00 0.  1.
          1    1    6    6  503    0 -0.79515690479E+02 -0.14035738129E+03  0.39825291894E+02  0.16615954198E+03  0.00000000000E+00 0.  1.
         -1    1    6    6    0  503 -0.18775228304E+03 -0.13759230275E+03  0.11152844567E+03  0.25811074320E+03  0.00000000000E+00 0. -1.
<mgrwt>
<rscale>  0 0.15280978E+04</rscale>
<asrwt>0</asrwt>
<pdfrwt beam="1">  1        2 0.67697585E-01 0.15280978E+04</pdfrwt>
<pdfrwt beam="2">  1       -1 0.20409973E+00 0.15280978E+04</pdfrwt>
<totfact> 0.11095279E+01</totfact>
</mgrwt>
</event>
<event>
12    7  0.1740517E-007  0.1435239E+04  0.7818608E-02  0.8928698E-01
          2   -1    0    0  501    0  0.00000000000E+00  0.00000000000E+00  0.11896790224E+04  0.11896790224E+04  0.00000000000E+00 0. -1.
         -1   -1    0    0    0  501 -0.00000000000E+00 -0.00000000000E+00 -0.43287120498E+03  0.43287120498E+03  0.00000000000E+00 0.  1.
         24    2    1    2    0    0 -0.27971510509E+03  0.19964480605E+03  0.50652635442E+03  0.61717384909E+03  0.78968497980E+02 0.  0.
        254    2    1    2    0    0  0.27971510509E+03 -0.19964480605E+03  0.25028146297E+03  0.10053763783E+04  0.91106655227E+03 0.  0.
         23    2    4    4    0    0  0.25235116957E+03 -0.54906552448E+03  0.19224719350E+03  0.64055994727E+03  0.90575933205E+02 0.  0.
         23    2    4    4    0    0  0.27363935518E+02  0.34942071844E+03  0.58034269461E+02  0.36481643099E+03  0.82942320032E+02 0.  0.
          4    1    3    3  502    0 -0.19069203863E+03  0.14508857105E+03  0.28548827765E+03  0.37271665340E+03  0.00000000000E+00 0. -1.
         -3    1    3    3    0  502 -0.89023066460E+02  0.54556235000E+02  0.22103807677E+03  0.24445719569E+03  0.00000000000E+00 0.  1.
         13    1    5    5    0    0  0.71442720049E+02 -0.13895952683E+03  0.96104515192E+01  0.15654447651E+03  0.00000000000E+00 0. -1.
        -13    1    5    5    0    0  0.18090844952E+03 -0.41010599765E+03  0.18263674199E+03  0.48401547077E+03  0.00000000000E+00 0.  1.
          1    1    6    6  503    0  0.24578452620E+02  0.27056564661E+03  0.79448060077E+02  0.28305805713E+03  0.00000000000E+00 0. -1.
         -1    1    6    6    0  503  0.27854828980E+01  0.78855071827E+02 -0.21413790616E+02  0.81758373861E+02  0.00000000000E+00 0.  1.
<mgrwt>
<rscale>  0 0.14352391E+04</rscale>
<asrwt>0</asrwt>
<pdfrwt beam="1">  1        2 0.18302754E+00 0.14352391E+04</pdfrwt>
<pdfrwt beam="2">  1       -1 0.66595571E-01 0.14352391E+04</pdfrwt>
<totfact> 0.48592652E+01</totfact>
</mgrwt>
</event>
<event>
12    7  0.1740517E-007  0.1556795E+04  0.7818608E-02  0.8847539E-01
          2   -1    0    0  501    0  0.00000000000E+00  0.00000000000E+00  0.61887914415E+03  0.61887914415E+03  0.00000000000E+00 0. -1.
         -1   -1    0    0    0  501 -0.00000000000E+00 -0.00000000000E+00 -0.97903216226E+03  0.97903216226E+03  0.00000000000E+00 0.  1.
         24    2    1    2    0    0  0.30835392421E+03 -0.28117563880E+03  0.17812362889E+03  0.46537463340E+03  0.10345839653E+03 0.  0.
        254    2    1    2    0    0 -0.30835392421E+03  0.28117563880E+03 -0.53827664700E+03  0.11325366730E+04  0.90485119471E+03 0.  0.
         23    2    4    4    0    0  0.11446100872E+03  0.23094182033E+03  0.15430033303E+03  0.31441955477E+03  0.92820346654E+02 0.  0.
         23    2    4    4    0    0 -0.42281493293E+03  0.50233818477E+02 -0.69257698004E+03  0.81811711824E+03  0.91415763673E+02 0.  0.
          2    1    3    3  502    0  0.23740843630E+03 -0.23124166903E+03  0.18281264752E+03  0.37849166333E+03  0.00000000000E+00 0. -1.
         -1    1    3    3    0  502  0.70945487913E+02 -0.49933969776E+02 -0.46890186232E+01  0.86882970072E+02  0.00000000000E+00 0.  1.
         13    1    5    5    0    0  0.74968165742E+02  0.14204999753E+03  0.14555115053E+03  0.21675692629E+03  0.00000000000E+00 0. -1.
        -13    1    5    5    0    0  0.39492842980E+02  0.88891822800E+02  0.87491825007E+01  0.97662628481E+02  0.00000000000E+00 0.  1.
          2    1    6    6  503    0 -0.12800917741E+03  0.57115841498E+02 -0.24041462341E+03  0.27829437652E+03  0.00000000000E+00 0. -1.
         -2    1    6    6    0  503 -0.29480575552E+03 -0.68820230207E+01 -0.45216235662E+03  0.53982274172E+03  0.00000000000E+00 0.  1.
<mgrwt>
<rscale>  0 0.15567949E+04</rscale>
<asrwt>0</asrwt>
<pdfrwt beam="1">  1        2 0.95212177E-01 0.15567949E+04</pdfrwt>
<pdfrwt beam="2">  1       -1 0.15062033E+00 0.15567949E+04</pdfrwt>
<totfact> 0.18114697E+01</totfact>
</mgrwt>
</event>
<event>
12    7  0.1740517E-007  0.1572299E+04  0.7818608E-02  0.8837749E-01
         -1   -1    0    0    0  501 -0.00000000000E+00  0.00000000000E+00  0.35510061522E+03  0.35510061522E+03  0.00000000000E+00 0.  1.
          2   -1    0    0  501    0  0.00000000000E+00 -0.00000000000E+00 -0.17404397879E+04  0.17404397879E+04  0.00000000000E+00 0. -1.
         24    2    1    2    0    0 -0.21912506017E+03 -0.28116651679E+03 -0.98101019906E+03  0.10468043783E+04  0.79674296651E+02 0.  0.
        254    2    1    2    0    0  0.21912506017E+03  0.28116651679E+03 -0.40432897364E+03  0.10487360249E+04  0.89960820849E+03 0.  0.
         23    2    4    4    0    0  0.52996834609E+03  0.27504601676E+03 -0.40188924456E+03  0.72540357558E+03  0.90435741672E+02 0.  0.
         23    2    4    4    0    0 -0.31084328592E+03  0.61205000330E+01 -0.24397290736E+01  0.32333244929E+03  0.88751966559E+02 0.  0.
          4    1    3    3  502    0 -0.21704738166E+03 -0.23876262427E+03 -0.87589299215E+03  0.93343756638E+03  0.00000000000E+00 0. -1.
         -1    1    3    3    0  502 -0.20776785044E+01 -0.42403892527E+02 -0.10511720691E+03  0.11336681189E+03  0.00000000000E+00 0.  1.
         13    1    5    5    0    0  0.52219422182E+03  0.25340184673E+03 -0.38076786096E+03  0.69417826613E+03  0.00000000000E+00 0.  1.
        -13    1    5    5    0    0  0.77741242613E+01  0.21644170029E+02 -0.21121383604E+02  0.31225309440E+02  0.00000000000E+00 0. -1.
          2    1    6    6  503    0 -0.39631405033E+02 -0.16831091599E+02 -0.25725136738E+02  0.50156919457E+02  0.00000000000E+00 0. -1.
         -2    1    6    6    0  503 -0.27121188088E+03  0.22951591632E+02  0.23285407664E+02  0.27317552984E+03  0.00000000000E+00 0.  1.
<mgrwt>
<rscale>  0 0.15722993E+04</rscale>
<asrwt>0</asrwt>
<pdfrwt beam="1">  1        2 0.26775997E+00 0.15722993E+04</pdfrwt>
<pdfrwt beam="2">  1       -1 0.54630864E-01 0.15722993E+04</pdfrwt>
<totfact> 0.34505675E+01</totfact>
</mgrwt>
</event>
<event>
12    7  0.1740517E-007  0.1284281E+04  0.7818608E-02  0.9042125E-01
          2   -1    0    0  501    0  0.00000000000E+00  0.00000000000E+00  0.86833413622E+03  0.86833413622E+03  0.00000000000E+00 0. -1.
         -1   -1    0    0    0  501 -0.00000000000E+00 -0.00000000000E+00 -0.47486807232E+03  0.47486807232E+03  0.00000000000E+00 0.  1.
         24    2    1    2    0    0  0.18240261897E+03 -0.21284448732E+03  0.26150464579E+03  0.39104372356E+03  0.77181751599E+02 0.  0.
        254    2    1    2    0    0 -0.18240261897E+03  0.21284448732E+03  0.13196141811E+03  0.95215848499E+03  0.90034353081E+03 0.  0.
         23    2    4    4    0    0 -0.21343442782E+03 -0.31649229571E+03  0.13695867428E+03  0.41534788543E+03  0.89635702953E+02 0.  0.
         23    2    4    4    0    0  0.31031808852E+02  0.52933678303E+03 -0.49972561742E+01  0.53681059956E+03  0.83547855782E+02 0.  0.
          2    1    3    3  502    0  0.17512267683E+03 -0.21759974625E+03  0.26108401111E+03  0.38233815186E+03  0.00000000000E+00 0. -1.
         -1    1    3    3    0  502  0.72799421408E+01  0.47552589348E+01  0.42063467343E+00  0.87055717009E+01  0.00000000000E+00 0.  1.
         13    1    5    5    0    0 -0.88843987001E+01 -0.26108533173E+02 -0.12135125047E+02  0.30130537742E+02  0.00000000000E+00 0. -1.
        -13    1    5    5    0    0 -0.20455002912E+03 -0.29038376254E+03  0.14909379933E+03  0.38521734768E+03  0.00000000000E+00 0.  1.
          4    1    6    6  503    0 -0.18669519875E+02  0.38012599589E+02  0.64965613488E+01  0.42845233215E+02  0.00000000000E+00 0. -1.
         -4    1    6    6    0  503  0.49701328727E+02  0.49132418344E+03 -0.11493817523E+02  0.49396536635E+03  0.00000000000E+00 0.  1.
<mgrwt>
<rscale>  0 0.12842806E+04</rscale>
<asrwt>0</asrwt>
<pdfrwt beam="1">  1        2 0.13358987E+00 0.12842806E+04</pdfrwt>
<pdfrwt beam="2">  1       -1 0.73056626E-01 0.12842806E+04</pdfrwt>
<totfact> 0.65211161E+01</totfact>
</mgrwt>
</event>
<event>
12    7  0.1740517E-007  0.1605442E+04  0.7818608E-02  0.8817212E-01
          2   -1    0    0  501    0  0.00000000000E+00  0.00000000000E+00  0.14534360550E+04  0.14534360550E+04  0.00000000000E+00 0. -1.
         -1   -1    0    0    0  501 -0.00000000000E+00 -0.00000000000E+00 -0.44333622810E+03  0.44333622810E+03  0.00000000000E+00 0.  1.
         24    2    1    2    0    0  0.42598364235E+03  0.15205174343E+03  0.82794708475E+02  0.46682088814E+03  0.80529383565E+02 0.  0.
        254    2    1    2    0    0 -0.42598364235E+03 -0.15205174343E+03  0.92730511845E+03  0.14299513950E+04  0.99009313354E+03 0.  0.
         23    2    4    4    0    0  0.12506170423E+03 -0.41073069436E+03  0.56786465326E+03  0.71767013102E+03  0.90774552539E+02 0.  0.
         23    2    4    4    0    0 -0.55104534658E+03  0.25867895093E+03  0.35944046520E+03  0.71228126396E+03  0.87071105040E+02 0.  0.
          4    1    3    3  502    0  0.78668031595E+02  0.24348858130E+02 -0.15823577421E+02  0.83856494618E+02  0.00000000000E+00 0. -1.
         -3    1    3    3    0  502  0.34731561076E+03  0.12770288530E+03  0.98618285896E+02  0.38296439352E+03  0.00000000000E+00 0.  1.
         13    1    5    5    0    0  0.12293550499E+03 -0.31375714719E+03  0.48207595588E+03  0.58817847040E+03  0.00000000000E+00 0. -1.
        -13    1    5    5    0    0  0.21261992356E+01 -0.96973547166E+02  0.85788697372E+02  0.12949166062E+03  0.00000000000E+00 0.  1.
          4    1    6    6  503    0 -0.16542503809E+03  0.59064707236E+02  0.14614539935E+03  0.22850067969E+03  0.00000000000E+00 0.  1.
         -4    1    6    6    0  503 -0.38562030849E+03  0.19961424370E+03  0.21329506585E+03  0.48378058428E+03  0.00000000000E+00 0. -1.
<mgrwt>
<rscale>  0 0.16054418E+04</rscale>
<asrwt>0</asrwt>
<pdfrwt beam="1">  1        2 0.22360554E+00 0.16054418E+04</pdfrwt>
<pdfrwt beam="2">  1       -1 0.68205574E-01 0.16054418E+04</pdfrwt>
<totfact> 0.32064310E+01</totfact>
</mgrwt>
</event>
<event>
12    7  0.1740517E-007  0.1582220E+04  0.7818608E-02  0.8831546E-01
          2   -1    0    0  501    0  0.00000000000E+00  0.00000000000E+00  0.30646549943E+04  0.30646549943E+04  0.00000000000E+00 0. -1.
         -1   -1    0    0    0  501 -0.00000000000E+00 -0.00000000000E+00 -0.20421720347E+03  0.20421720347E+03  0.00000000000E+00 0.  1.
         24    2    1    2    0    0 -0.48654102275E+03  0.20616059096E+03  0.10217375558E+04  0.11529949329E+04  0.78900736063E+02 0.  0.
        254    2    1    2    0    0  0.48654102275E+03 -0.20616059096E+03  0.18387002350E+04  0.21158772649E+04  0.90382171352E+03 0.  0.
         23    2    4    4    0    0 -0.13338510186E+03  0.18404899947E+03  0.19148432674E+03  0.31084795272E+03  0.91074599764E+02 0.  0.
         23    2    4    4    0    0  0.61992612461E+03 -0.39020959043E+03  0.16472159083E+04  0.18050293122E+04  0.90766981512E+02 0.  0.
          2    1    3    3  502    0 -0.38314884046E+03  0.17265529887E+03  0.73978819979E+03  0.85082281747E+03  0.00000000000E+00 0. -1.
         -1    1    3    3    0  502 -0.10339218228E+03  0.33505292087E+02  0.28194935603E+03  0.30217211540E+03  0.00000000000E+00 0.  1.
         13    1    5    5    0    0 -0.12983785509E+03  0.19213506802E+03  0.16973288539E+03  0.28737258978E+03  0.00000000000E+00 0. -1.
        -13    1    5    5    0    0 -0.35472467681E+01 -0.80860685507E+01  0.21751441352E+02  0.23475362939E+02  0.00000000000E+00 0.  1.
          3    1    6    6  503    0  0.30351599555E+03 -0.14167307415E+03  0.79057871365E+03  0.85860813062E+03  0.00000000000E+00 0. -1.
         -3    1    6    6    0  503  0.31641012906E+03 -0.24853651627E+03  0.85663719466E+03  0.94642118159E+03  0.00000000000E+00 0.  1.
<mgrwt>
<rscale>  0 0.15822203E+04</rscale>
<asrwt>0</asrwt>
<pdfrwt beam="1">  1        2 0.47148535E+00 0.15822203E+04</pdfrwt>
<pdfrwt beam="2">  1       -1 0.31418034E-01 0.15822203E+04</pdfrwt>
<totfact> 0.16412543E+01</totfact>
</mgrwt>
</event>
<event>
12    7  0.1740517E-007  0.2083689E+04  0.7818608E-02  0.8568463E-01
         -1   -1    0    0    0  501 -0.00000000000E+00  0.00000000000E+00  0.63155724863E+03  0.63155724863E+03  0.00000000000E+00 0.  1.
          2   -1    0    0  501    0  0.00000000000E+00 -0.00000000000E+00 -0.17186730219E+04  0.17186730219E+04  0.00000000000E+00 0. -1.
         24    2    1    2    0    0 -0.38881459166E+03  0.69378021134E+03 -0.84063392177E+03  0.11599333228E+04  0.79196935328E+02 0.  0.
        254    2    1    2    0    0  0.38881459166E+03 -0.69378021134E+03 -0.24648185154E+03  0.11902969478E+04  0.85061492606E+03 0.  0.
         23    2    4    4    0    0 -0.13546595863E+03 -0.10665577874E+03  0.20141503458E+03  0.28009561318E+03  0.90327489069E+02 0.  0.
         23    2    4    4    0    0  0.52428055029E+03 -0.58712443260E+03 -0.44789688612E+03  0.91020133460E+03  0.90937638766E+02 0.  0.
          2    1    3    3  502    0 -0.36915367134E+03  0.68034403105E+03 -0.82592791754E+03  0.11319449450E+04  0.00000000000E+00 0. -1.
         -1    1    3    3    0  502 -0.19660920313E+02  0.13436180290E+02 -0.14706004231E+02  0.27988377745E+02  0.00000000000E+00 0.  1.
         13    1    5    5    0    0 -0.12773384685E+03 -0.10682877690E+03  0.13816482560E+03  0.21637431048E+03  0.00000000000E+00 0.  1.
        -13    1    5    5    0    0 -0.77321117805E+01  0.17299816033E+00  0.63250208984E+02  0.63721302698E+02  0.00000000000E+00 0. -1.
          1    1    6    6  503    0  0.85295180262E+02 -0.10882946139E+03 -0.11902075444E+03  0.18244193440E+03  0.00000000000E+00 0. -1.
         -1    1    6    6    0  503  0.43898537002E+03 -0.47829497121E+03 -0.32887613169E+03  0.72775940020E+03  0.00000000000E+00 0.  1.
<mgrwt>
<rscale>  0 0.20836894E+04</rscale>
<asrwt>0</asrwt>
<pdfrwt beam="1">  1        2 0.26441123E+00 0.20836894E+04</pdfrwt>
<pdfrwt beam="2">  1       -1 0.97162653E-01 0.20836894E+04</pdfrwt>
<totfact> 0.10240140E+01</totfact>
</mgrwt>
</event>
<event>
12    7  0.1740517E-007  0.3380765E+04  0.7818608E-02  0.8142643E-01
         -1   -1    0    0    0  501 -0.00000000000E+00  0.00000000000E+00  0.10481852802E+04  0.10481852802E+04  0.00000000000E+00 0.  1.
          2   -1    0    0  501    0  0.00000000000E+00 -0.00000000000E+00 -0.27260385759E+04  0.27260385759E+04  0.00000000000E+00 0. -1.
         24    2    1    2    0    0  0.35517988836E+03 -0.65134287496E+03 -0.23230049366E+04  0.24399193390E+04  0.80337735108E+02 0.  0.
        254    2    1    2    0    0 -0.35517988836E+03  0.65134287496E+03  0.64515164084E+03  0.13343045171E+04  0.90207960337E+03 0.  0.
         23    2    4    4    0    0  0.25331666786E+03  0.34095211008E+03  0.76504821996E+02  0.44085194305E+03  0.89887553752E+02 0.  0.
         23    2    4    4    0    0 -0.60849655622E+03  0.31039076488E+03  0.56864681884E+03  0.89345257405E+03  0.91037418874E+02 0.  0.
          4    1    3    3  502    0  0.26698043193E+03 -0.50272819162E+03 -0.16656937999E+04  0.17602698716E+04  0.00000000000E+00 0. -1.
         -3    1    3    3    0  502  0.88199456432E+02 -0.14861468334E+03 -0.65731113664E+03  0.67964946742E+03  0.00000000000E+00 0.  1.
         13    1    5    5    0    0  0.10433147633E+03  0.21507095970E+03  0.38005511585E+02  0.24204337125E+03  0.00000000000E+00 0.  1.
        -13    1    5    5    0    0  0.14898519153E+03  0.12588115039E+03  0.38499310411E+02  0.19880857180E+03  0.00000000000E+00 0. -1.
          3    1    6    6  503    0 -0.69433151128E+02  0.62995377702E+02  0.10384871509E+03  0.13990688229E+03  0.00000000000E+00 0. -1.
         -3    1    6    6    0  503 -0.53906340510E+03  0.24739538717E+03  0.46479810375E+03  0.75354569176E+03  0.00000000000E+00 0.  1.
<mgrwt>
<rscale>  0 0.33807653E+04</rscale>
<asrwt>0</asrwt>
<pdfrwt beam="1">  1        2 0.41939055E+00 0.33807653E+04</pdfrwt>
<pdfrwt beam="2">  1       -1 0.16125927E+00 0.33807653E+04</pdfrwt>
<totfact> 0.69020091E-01</totfact>
</mgrwt>
</event>
<event>
12    7  0.1740517E-007  0.1729319E+04  0.7818608E-02  0.8744817E-01
         -1   -1    0    0    0  501 -0.00000000000E+00  0.00000000000E+00  0.41420810914E+03  0.41420810914E+03  0.00000000000E+00 0.  1.
          2   -1    0    0  501    0  0.00000000000E+00 -0.00000000000E+00 -0.18049776772E+04  0.18049776772E+04  0.00000000000E+00 0. -1.
         24    2    1    2    0    0  0.58697365402E+03 -0.17717844631E+03 -0.69097962839E+03  0.92726770205E+03  0.80263765524E+02 0.  0.
        254    2    1    2    0    0 -0.58697365402E+03  0.17717844631E+03 -0.69978993965E+03  0.12919180843E+04  0.89633481718E+03 0.  0.
         23    2    4    4    0    0 -0.27781631488E+03 -0.33852472856E+03 -0.45033772413E+03  0.63448414889E+03  0.89359793823E+02 0.  0.
         23    2    4    4    0    0 -0.30915733914E+03  0.51570317487E+03 -0.24945221553E+03  0.65743393539E+03  0.92005144702E+02 0.  0.
          2    1    3    3  502    0  0.24439489107E+03 -0.57195522678E+02 -0.33755362988E+03  0.42064550828E+03  0.00000000000E+00 0. -1.
         -1    1    3    3    0  502  0.34257876296E+03 -0.11998292363E+03 -0.35342599852E+03  0.50662219377E+03  0.00000000000E+00 0.  1.
         13    1    5    5    0    0 -0.26370692074E+03 -0.31137529063E+03 -0.44440531693E+03  0.60331749301E+03  0.00000000000E+00 0. -1.
        -13    1    5    5    0    0 -0.14109394143E+02 -0.27149437936E+02 -0.59324072006E+01  0.31166655876E+02  0.00000000000E+00 0.  1.
          3    1    6    6  503    0 -0.40256705160E+02  0.38429492838E+02 -0.48836713794E+02  0.74043587462E+02  0.00000000000E+00 0.  1.
         -3    1    6    6    0  503 -0.26890063398E+03  0.47727368203E+03 -0.20061550173E+03  0.58339034793E+03  0.00000000000E+00 0. -1.
<mgrwt>
<rscale>  0 0.17293194E+04</rscale>
<asrwt>0</asrwt>
<pdfrwt beam="1">  1        2 0.27768887E+00 0.17293194E+04</pdfrwt>
<pdfrwt beam="2">  1       -1 0.63724324E-01 0.17293194E+04</pdfrwt>
<totfact> 0.23155011E+01</totfact>
</mgrwt>
</event>
<event>
12    7  0.1740517E-007  0.1724536E+04  0.7818608E-02  0.8747493E-01
         -1   -1    0    0    0  501 -0.00000000000E+00  0.00000000000E+00  0.39429678784E+03  0.39429678784E+03  0.00000000000E+00 0.  1.
          2   -1    0    0  501    0  0.00000000000E+00 -0.00000000000E+00 -0.18856506380E+04  0.18856506380E+04  0.00000000000E+00 0. -1.
         24    2    1    2    0    0 -0.48052883858E+03 -0.35985723631E+03 -0.34862985657E+03  0.69858916437E+03  0.77966970222E+02 0.  0.
        254    2    1    2    0    0  0.48052883858E+03  0.35985723631E+03 -0.11427239935E+04  0.15813582614E+04  0.91349364000E+03 0.  0.
         23    2    4    4    0    0  0.71234282288E+03  0.12826993065E+03 -0.61691133519E+03  0.95542556941E+03  0.91503829319E+02 0.  0.
         23    2    4    4    0    0 -0.23181398430E+03  0.23158730566E+03 -0.52581265835E+03  0.62593269201E+03  0.89120030213E+02 0.  0.
          2    1    3    3  502    0 -0.10360217965E+03 -0.11135522724E+03 -0.64906800966E+02  0.16536714025E+03  0.00000000000E+00 0. -1.
         -1    1    3    3    0  502 -0.37692665893E+03 -0.24850200907E+03 -0.28372305561E+03  0.53322202412E+03  0.00000000000E+00 0.  1.
         13    1    5    5    0    0  0.33911021100E+01  0.34786525329E+01 -0.19105369105E+02  0.19713338774E+02  0.00000000000E+00 0. -1.
        -13    1    5    5    0    0  0.70895172077E+03  0.12479127812E+03 -0.59780596608E+03  0.93571223064E+03  0.00000000000E+00 0.  1.
          1    1    6    6  503    0 -0.57721391807E+02  0.73550983428E+02 -0.22846487251E+03  0.24685563435E+03  0.00000000000E+00 0. -1.
         -1    1    6    6    0  503 -0.17409259249E+03  0.15803632223E+03 -0.29734778584E+03  0.37907705767E+03  0.00000000000E+00 0.  1.
<mgrwt>
<rscale>  0 0.17245359E+04</rscale>
<asrwt>0</asrwt>
<pdfrwt beam="1">  1        2 0.29010009E+00 0.17245359E+04</pdfrwt>
<pdfrwt beam="2">  1       -1 0.60661045E-01 0.17245359E+04</pdfrwt>
<totfact> 0.23056142E+01</totfact>
</mgrwt>
</event>
<event>
12    7  0.1740517E-007  0.1426508E+04  0.7818608E-02  0.8934851E-01
          2   -1    0    0  501    0  0.00000000000E+00  0.00000000000E+00  0.16857929555E+04  0.16857929555E+04  0.00000000000E+00 0. -1.
         -1   -1    0    0    0  501 -0.00000000000E+00 -0.00000000000E+00 -0.30177546380E+03  0.30177546380E+03  0.00000000000E+00 0.  1.
         24    2    1    2    0    0 -0.30056069865E+03  0.18540422022E+03  0.77137869454E+03  0.85216761298E+03  0.80331138227E+02 0.  0.
        254    2    1    2    0    0  0.30056069865E+03 -0.18540422022E+03  0.61263879717E+03  0.11354008063E+04  0.88831145258E+03 0.  0.
         23    2    4    4    0    0 -0.17361981719E+03 -0.14468973552E+03 -0.10951805133E+03  0.26564706354E+03  0.86574813394E+02 0.  0.
         23    2    4    4    0    0  0.47418051584E+03 -0.40714484702E+02  0.72215684850E+03  0.86975374280E+03  0.91957753412E+02 0.  0.
          4    1    3    3  502    0 -0.83833048834E+02  0.64830660028E+02  0.15501310407E+03  0.18777661460E+03  0.00000000000E+00 0. -1.
         -3    1    3    3    0  502 -0.21672764981E+03  0.12057356019E+03  0.61636559047E+03  0.66439099838E+03  0.00000000000E+00 0.  1.
         13    1    5    5    0    0 -0.13259123459E+03 -0.13736921489E+03 -0.58317862824E+02  0.19962893031E+03  0.00000000000E+00 0. -1.
        -13    1    5    5    0    0 -0.41028582595E+02 -0.73205206234E+01 -0.51200188507E+02  0.66018133229E+02  0.00000000000E+00 0.  1.
          2    1    6    6  503    0  0.23386073797E+03  0.68244306795E+01  0.28596755333E+03  0.36947917286E+03  0.00000000000E+00 0. -1.
         -2    1    6    6    0  503  0.24031977787E+03 -0.47538915381E+02  0.43618929516E+03  0.50027456994E+03  0.00000000000E+00 0.  1.
<mgrwt>
<rscale>  0 0.14265076E+04</rscale>
<asrwt>0</asrwt>
<pdfrwt beam="1">  1        2 0.25935276E+00 0.14265076E+04</pdfrwt>
<pdfrwt beam="2">  1       -1 0.46426995E-01 0.14265076E+04</pdfrwt>
<totfact> 0.51051183E+01</totfact>
</mgrwt>
</event>
<event>
12    7  0.1740517E-007  0.1780970E+04  0.7818608E-02  0.8716486E-01
          2   -1    0    0  501    0  0.00000000000E+00  0.00000000000E+00  0.19645012236E+04  0.19645012236E+04  0.00000000000E+00 0. -1.
         -1   -1    0    0    0  501 -0.00000000000E+00 -0.00000000000E+00 -0.40364603036E+03  0.40364603036E+03  0.00000000000E+00 0.  1.
         24    2    1    2    0    0  0.32977981059E+03 -0.36165006028E+03 -0.55684107210E+01  0.49584057199E+03  0.79255132741E+02 0.  0.
        254    2    1    2    0    0 -0.32977981059E+03  0.36165006028E+03  0.15664236040E+04  0.18723066820E+04  0.90127904376E+03 0.  0.
         23    2    4    4    0    0  0.20030011893E+03 -0.13370645174E+03  0.21269013262E+03  0.33369279533E+03  0.90090156302E+02 0.  0.
         23    2    4    4    0    0 -0.53007992952E+03  0.49535651201E+03  0.13537334714E+04  0.15386138867E+04  0.91518167781E+02 0.  0.
          4    1    3    3  502    0  0.31545085480E+02 -0.69620912032E+02  0.15162349621E+02  0.77923428160E+02  0.00000000000E+00 0. -1.
         -3    1    3    3    0  502  0.29823472511E+03 -0.29202914825E+03 -0.20730760342E+02  0.41791714383E+03  0.00000000000E+00 0.  1.
         13    1    5    5    0    0  0.32386222325E+02  0.79319537925E+01  0.10039793377E+02  0.34822130011E+02  0.00000000000E+00 0. -1.
        -13    1    5    5    0    0  0.16791389661E+03 -0.14163840553E+03  0.20265033924E+03  0.29887066532E+03  0.00000000000E+00 0.  1.
          3    1    6    6  503    0 -0.30982110557E+03  0.22857602349E+03  0.73453821702E+03  0.82932653896E+03  0.00000000000E+00 0. -1.
         -3    1    6    6    0  503 -0.22025882395E+03  0.26678048853E+03  0.61919525435E+03  0.70928734769E+03  0.00000000000E+00 0.  1.
<mgrwt>
<rscale>  0 0.17809695E+04</rscale>
<asrwt>0</asrwt>
<pdfrwt beam="1">  1        2 0.30223095E+00 0.17809695E+04</pdfrwt>
<pdfrwt beam="2">  1       -1 0.62099390E-01 0.17809695E+04</pdfrwt>
<totfact> 0.19802942E+01</totfact>
</mgrwt>
</event>
<event>
12    7  0.1740517E-007  0.1258334E+04  0.7818608E-02  0.9063275E-01
         -1   -1    0    0    0  501 -0.00000000000E+00  0.00000000000E+00  0.30058889846E+03  0.30058889846E+03  0.00000000000E+00 0.  1.
          2   -1    0    0  501    0  0.00000000000E+00 -0.00000000000E+00 -0.13169190505E+04  0.13169190505E+04  0.00000000000E+00 0. -1.
         24    2    1    2    0    0  0.27509008781E+03  0.12251512484E+03 -0.22532929664E+03  0.38170981398E+03  0.65150425465E+02 0.  0.
        254    2    1    2    0    0 -0.27509008781E+03 -0.12251512484E+03 -0.79100085538E+03  0.12357981350E+04  0.90046108463E+03 0.  0.
         23    2    4    4    0    0 -0.13040808669E+03  0.26740409921E+03 -0.74546305602E+03  0.80766398162E+03  0.89970650542E+02 0.  0.
         23    2    4    4    0    0 -0.14468200112E+03 -0.38991922406E+03 -0.45537799359E+02  0.42813415334E+03  0.90858567834E+02 0.  0.
          4    1    3    3  502    0  0.52236017556E+02  0.77758661113E+01 -0.66694776337E+02  0.85072080112E+02  0.00000000000E+00 0. -1.
         -3    1    3    3    0  502  0.22285407025E+03  0.11473925873E+03 -0.15863452030E+03  0.29663773387E+03  0.00000000000E+00 0.  1.
         13    1    5    5    0    0 -0.12370533066E+03  0.27286721751E+03 -0.73698459993E+03  0.79555378684E+03  0.00000000000E+00 0.  1.
        -13    1    5    5    0    0 -0.67027560225E+01 -0.54631182947E+01 -0.84784560946E+01  0.12110194777E+02  0.00000000000E+00 0. -1.
          2    1    6    6  503    0  0.80704008603E+01 -0.54292618394E+02 -0.20286125575E+02  0.58517917538E+02  0.00000000000E+00 0. -1.
         -2    1    6    6    0  503 -0.15275240198E+03 -0.33562660566E+03 -0.25251673783E+02  0.36961623580E+03  0.00000000000E+00 0.  1.
<mgrwt>
<rscale>  0 0.12583342E+04</rscale>
<asrwt>0</asrwt>
<pdfrwt beam="1">  1        2 0.20260293E+00 0.12583342E+04</pdfrwt>
<pdfrwt beam="2">  1       -1 0.46244446E-01 0.12583342E+04</pdfrwt>
<totfact> 0.84217008E+01</totfact>
</mgrwt>
</event>
<event>
12    7  0.1740517E-007  0.2289773E+04  0.7818608E-02  0.8481964E-01
          2   -1    0    0  501    0  0.00000000000E+00  0.00000000000E+00  0.14890799387E+04  0.14890799387E+04  0.00000000000E+00 0. -1.
         -3   -1    0    0    0  501 -0.00000000000E+00 -0.00000000000E+00 -0.88025189095E+03  0.88025189095E+03  0.00000000000E+00 0.  1.
         24    2    1    2    0    0  0.62718098525E+03  0.54172533666E+03  0.77365688178E+03  0.11364554055E+04  0.78508530799E+02 0.  0.
        254    2    1    2    0    0 -0.62718098525E+03 -0.54172533666E+03 -0.16482883401E+03  0.12328764241E+04  0.89777135400E+03 0.  0.
         23    2    4    4    0    0 -0.62158640765E+03 -0.35623252383E+03  0.25443739569E+03  0.76529881872E+03  0.87593495232E+02 0.  0.
         23    2    4    4    0    0 -0.55945776012E+01 -0.18549281283E+03 -0.41926622970E+03  0.46757760542E+03  0.91682947275E+02 0.  0.
          2    1    3    3  502    0  0.12549905612E+03  0.12448464071E+03  0.20730042299E+03  0.27243330235E+03  0.00000000000E+00 0. -1.
         -1    1    3    3    0  502  0.50168192913E+03  0.41724069595E+03  0.56635645879E+03  0.86402210319E+03  0.00000000000E+00 0.  1.
         13    1    5    5    0    0 -0.37122515704E+03 -0.24640439891E+03  0.19022503785E+03  0.48446755314E+03  0.00000000000E+00 0.  1.
        -13    1    5    5    0    0 -0.25036125061E+03 -0.10982812492E+03  0.64212357841E+02  0.28083126558E+03  0.00000000000E+00 0. -1.
          3    1    6    6  503    0  0.14134432751E+02 -0.13071487323E+03 -0.19013908354E+03  0.23116883735E+03  0.00000000000E+00 0. -1.
         -3    1    6    6    0  503 -0.19729010352E+02 -0.54777939595E+02 -0.22912714615E+03  0.23640876807E+03  0.00000000000E+00 0.  1.
<mgrwt>
<rscale>  0 0.22897733E+04</rscale>
<asrwt>0</asrwt>
<pdfrwt beam="1">  1        2 0.22908922E+00 0.22897733E+04</pdfrwt>
<pdfrwt beam="2">  1       -3 0.13542337E+00 0.22897733E+04</pdfrwt>
<totfact> 0.31051784E+00</totfact>
</mgrwt>
</event>
<event>
12    7  0.1740517E-007  0.1350842E+04  0.7818608E-02  0.8990191E-01
         -1   -1    0    0    0  501 -0.00000000000E+00  0.00000000000E+00  0.21366914669E+03  0.21366914669E+03  0.00000000000E+00 0.  1.
          2   -1    0    0  501    0  0.00000000000E+00 -0.00000000000E+00 -0.21350478387E+04  0.21350478387E+04  0.00000000000E+00 0. -1.
         24    2    1    2    0    0 -0.27347262181E+03 -0.24599295364E+03 -0.49103512780E+03  0.61854892910E+03  0.78660490985E+02 0.  0.
        254    2    1    2    0    0  0.27347262181E+03  0.24599295364E+03 -0.14303435642E+04  0.17301680563E+04  0.90127630791E+03 0.  0.
         23    2    4    4    0    0 -0.26131602500E+03  0.22295801287E+03 -0.26119640458E+03  0.44127915827E+03  0.92235531842E+02 0.  0.
         23    2    4    4    0    0  0.53478864681E+03  0.23034940774E+02 -0.11691471597E+04  0.12888888980E+04  0.88317638738E+02 0.  0.
          2    1    3    3  502    0 -0.15804366737E+03 -0.15137093414E+03 -0.22741128397E+03  0.31560553318E+03  0.00000000000E+00 0. -1.
         -1    1    3    3    0  502 -0.11542895444E+03 -0.94622019506E+02 -0.26362384383E+03  0.30294339592E+03  0.00000000000E+00 0.  1.
         13    1    5    5    0    0 -0.15715914496E+01  0.22985844200E+02 -0.15315544383E+01  0.23090357127E+02  0.00000000000E+00 0. -1.
        -13    1    5    5    0    0 -0.25974443355E+03  0.19997216867E+03 -0.25966485014E+03  0.41818880114E+03  0.00000000000E+00 0.  1.
          3    1    6    6  503    0  0.14308762357E+03  0.28093547413E+02 -0.24446129049E+03  0.28464827063E+03  0.00000000000E+00 0. -1.
         -3    1    6    6    0  503  0.39170102324E+03 -0.50586066388E+01 -0.92468586917E+03  0.10042406274E+04  0.00000000000E+00 0.  1.
<mgrwt>
<rscale>  0 0.13508425E+04</rscale>
<asrwt>0</asrwt>
<pdfrwt beam="1">  1        2 0.32846892E+00 0.13508425E+04</pdfrwt>
<pdfrwt beam="2">  1       -1 0.32872175E-01 0.13508425E+04</pdfrwt>
<totfact> 0.54314874E+01</totfact>
</mgrwt>
</event>
<event>
12    7  0.1740517E-007  0.2349093E+04  0.7818608E-02  0.8458812E-01
         -1   -1    0    0    0  501 -0.00000000000E+00  0.00000000000E+00  0.96713395822E+03  0.96713395822E+03  0.00000000000E+00 0.  1.
          2   -1    0    0  501    0  0.00000000000E+00 -0.00000000000E+00 -0.14264408555E+04  0.14264408555E+04  0.00000000000E+00 0. -1.
         24    2    1    2    0    0  0.41453362716E+03 -0.60458869139E+03 -0.88728161266E+03  0.11558199006E+04  0.10623261599E+03 0.  0.
        254    2    1    2    0    0 -0.41453362716E+03  0.60458869139E+03  0.42797471542E+03  0.12377549131E+04  0.90083808420E+03 0.  0.
         23    2    4    4    0    0 -0.47144251229E+03  0.33351472182E+03 -0.13808625352E+03  0.60100447726E+03  0.92997076341E+02 0.  0.
         23    2    4    4    0    0  0.56908885134E+02  0.27107396957E+03  0.56606096895E+03  0.63675043579E+03  0.91139336883E+02 0.  0.
          4    1    3    3  502    0  0.31877932686E+03 -0.48436107835E+03 -0.76197770984E+03  0.95751550575E+03  0.00000000000E+00 0. -1.
         -3    1    3    3    0  502  0.95754300299E+02 -0.12022761304E+03 -0.12530390281E+03  0.19830439487E+03  0.00000000000E+00 0.  1.
         13    1    5    5    0    0 -0.45866816724E+03  0.31416647003E+03 -0.11388884807E+03  0.56749249180E+03  0.00000000000E+00 0.  1.
        -13    1    5    5    0    0 -0.12774345048E+02  0.19348251792E+02 -0.24197405457E+02  0.33511985463E+02  0.00000000000E+00 0. -1.
          2    1    6    6  503    0  0.54135150217E+02  0.16319239327E+03  0.42991006225E+03  0.46301731429E+03  0.00000000000E+00 0.  1.
         -2    1    6    6    0  503  0.27737349168E+01  0.10788157630E+03  0.13615090669E+03  0.17373312150E+03  0.00000000000E+00 0. -1.
<mgrwt>
<rscale>  0 0.23490929E+04</rscale>
<asrwt>0</asrwt>
<pdfrwt beam="1">  1        2 0.21945244E+00 0.23490929E+04</pdfrwt>
<pdfrwt beam="2">  1       -1 0.14878984E+00 0.23490929E+04</pdfrwt>
<totfact> 0.51272758E+00</totfact>
</mgrwt>
</event>
<event>
12    7  0.1740517E-007  0.1153182E+04  0.7818608E-02  0.9154853E-01
         -1   -1    0    0    0  501 -0.00000000000E+00  0.00000000000E+00  0.91534792269E+03  0.91534792269E+03  0.00000000000E+00 0.  1.
          2   -1    0    0  501    0  0.00000000000E+00 -0.00000000000E+00 -0.36320338935E+03  0.36320338935E+03  0.00000000000E+00 0. -1.
         24    2    1    2    0    0  0.54359425281E+02  0.96769418066E+02 -0.10386572260E+03  0.17332625673E+03  0.83274459184E+02 0.  0.
        254    2    1    2    0    0 -0.54359425281E+02 -0.96769418066E+02  0.65601025594E+03  0.11052250553E+04  0.88252688321E+03 0.  0.
         23    2    4    4    0    0 -0.43553525197E+03 -0.12019580943E+03  0.19657352489E+03  0.50069682596E+03  0.88984113866E+02 0.  0.
         23    2    4    4    0    0  0.38117582669E+03  0.23426391359E+02  0.45943673105E+03  0.60452822935E+03  0.92349681002E+02 0.  0.
          2    1    3    3  502    0  0.60810007850E+02  0.90567361099E+02 -0.52277952937E+02  0.12096812933E+03  0.00000000000E+00 0. -1.
         -1    1    3    3    0  502 -0.64505825685E+01  0.62020569672E+01 -0.51587769663E+02  0.52358127400E+02  0.00000000000E+00 0.  1.
         13    1    5    5    0    0 -0.32281958500E+03 -0.66455937521E+02  0.17759623536E+03  0.37439190550E+03  0.00000000000E+00 0. -1.
        -13    1    5    5    0    0 -0.11271566697E+03 -0.53739871905E+02  0.18977289535E+02  0.12630492046E+03  0.00000000000E+00 0.  1.
          3    1    6    6  503    0  0.26142654960E+03  0.37723994425E+02  0.25481859810E+03  0.36701424840E+03  0.00000000000E+00 0. -1.
         -3    1    6    6    0  503  0.11974927710E+03 -0.14297603065E+02  0.20461813294E+03  0.23751398095E+03  0.00000000000E+00 0.  1.
<mgrwt>
<rscale>  0 0.11531825E+04</rscale>
<asrwt>0</asrwt>
<pdfrwt beam="1">  1        2 0.55877445E-01 0.11531825E+04</pdfrwt>
<pdfrwt beam="2">  1       -1 0.14082276E+00 0.11531825E+04</pdfrwt>
<totfact> 0.41471852E+01</totfact>
</mgrwt>
</event>
<event>
12    7  0.1740517E-007  0.2223586E+04  0.7818608E-02  0.8508675E-01
          2   -1    0    0  501    0  0.00000000000E+00  0.00000000000E+00  0.31411256145E+04  0.31411256145E+04  0.00000000000E+00 0. -1.
         -1   -1    0    0    0  501 -0.00000000000E+00 -0.00000000000E+00 -0.39351605047E+03  0.39351605047E+03  0.00000000000E+00 0.  1.
         24    2    1    2    0    0  0.78298399837E+03  0.25101621782E+03  0.47455622952E+03  0.95258185027E+03  0.78329325121E+02 0.  0.
        254    2    1    2    0    0 -0.78298399837E+03 -0.25101621782E+03  0.22730533345E+04  0.25820598147E+04  0.90784819318E+03 0.  0.
         23    2    4    4    0    0 -0.83183850109E+03  0.80901442241E+02  0.18663024661E+04  0.20469717973E+04  0.92240495152E+02 0.  0.
         23    2    4    4    0    0  0.48854502721E+02 -0.33191766006E+03  0.40675086839E+03  0.53508801733E+03  0.91196610986E+02 0.  0.
          2    1    3    3  502    0  0.26275361620E+02  0.23629025616E+00  0.29782197391E+02  0.39716869750E+02  0.00000000000E+00 0. -1.
         -1    1    3    3    0  502  0.75670863675E+03  0.25077992757E+03  0.44477403213E+03  0.91286498052E+03  0.00000000000E+00 0.  1.
         13    1    5    5    0    0 -0.71847056779E+03  0.97887928182E+02  0.15738359085E+04  0.17328420211E+04  0.00000000000E+00 0. -1.
        -13    1    5    5    0    0 -0.11336793330E+03 -0.16986485941E+02  0.29246655761E+03  0.31412977624E+03  0.00000000000E+00 0.  1.
          3    1    6    6  503    0  0.11153271893E+02 -0.15968331885E+03  0.26171672381E+03  0.30678787673E+03  0.00000000000E+00 0. -1.
         -3    1    6    6    0  503  0.37701230829E+02 -0.17223434122E+03  0.14503414458E+03  0.22830014059E+03  0.00000000000E+00 0.  1.
<mgrwt>
<rscale>  0 0.22235857E+04</rscale>
<asrwt>0</asrwt>
<pdfrwt beam="1">  1        2 0.48325008E+00 0.22235857E+04</pdfrwt>
<pdfrwt beam="2">  1       -1 0.60540933E-01 0.22235857E+04</pdfrwt>
<totfact> 0.40732841E+00</totfact>
</mgrwt>
</event>
<event>
12    7  0.1740517E-007  0.1391178E+04  0.7818608E-02  0.8960229E-01
          2   -1    0    0  501    0  0.00000000000E+00  0.00000000000E+00  0.47693951543E+04  0.47693951543E+04  0.00000000000E+00 0. -1.
         -1   -1    0    0    0  501 -0.00000000000E+00 -0.00000000000E+00 -0.10144768264E+03  0.10144768264E+03  0.00000000000E+00 0.  1.
         24    2    1    2    0    0  0.32852885549E+03 -0.17951462967E+03  0.18965296485E+04  0.19347169498E+04  0.78410821545E+02 0.  0.
        254    2    1    2    0    0 -0.32852885549E+03  0.17951462967E+03  0.27714178231E+04  0.29361258871E+04  0.89438345445E+03 0.  0.
         23    2    4    4    0    0 -0.34912141986E+03  0.50848575510E+03  0.16602974704E+04  0.17735019500E+04  0.90983225957E+02 0.  0.
         23    2    4    4    0    0  0.20592564367E+02 -0.32897112543E+03  0.11111203527E+04  0.11626239371E+04  0.91977855691E+02 0.  0.
          2    1    3    3  502    0  0.23461929685E+03 -0.96247787311E+02  0.13841799026E+04  0.14072184812E+04  0.00000000000E+00 0. -1.
         -1    1    3    3    0  502  0.93909558639E+02 -0.83266842359E+02  0.51234974592E+03  0.52749846861E+03  0.00000000000E+00 0.  1.
         13    1    5    5    0    0 -0.60406331693E+02  0.78805128735E+02  0.37368230466E+03  0.38664924420E+03  0.00000000000E+00 0. -1.
        -13    1    5    5    0    0 -0.28871508816E+03  0.42968062637E+03  0.12866151658E+04  0.13868527058E+04  0.00000000000E+00 0.  1.
          3    1    6    6  503    0 -0.12557731679E+02 -0.12993174745E+02  0.24081783921E+02  0.30107333520E+02  0.00000000000E+00 0. -1.
         -3    1    6    6    0  503  0.33150296045E+02 -0.31597795069E+03  0.10870385687E+04  0.11325166036E+04  0.00000000000E+00 0.  1.
<mgrwt>
<rscale>  0 0.13911780E+04</rscale>
<asrwt>0</asrwt>
<pdfrwt beam="1">  1        2 0.73375292E+00 0.13911780E+04</pdfrwt>
<pdfrwt beam="2">  1       -1 0.15607340E-01 0.13911780E+04</pdfrwt>
<totfact> 0.23204069E+00</totfact>
</mgrwt>
</event>
<event>
12    7  0.1740517E-007  0.1880826E+04  0.7818608E-02  0.8664460E-01
          2   -1    0    0  501    0  0.00000000000E+00  0.00000000000E+00  0.65189085257E+03  0.65189085257E+03  0.00000000000E+00 0. -1.
         -1   -1    0    0    0  501 -0.00000000000E+00 -0.00000000000E+00 -0.13566334414E+04  0.13566334414E+04  0.00000000000E+00 0.  1.
         24    2    1    2    0    0  0.33059493410E+03  0.45137401116E+03  0.21512511505E+03  0.60492413427E+03  0.81381107679E+02 0.  0.
        254    2    1    2    0    0 -0.33059493410E+03 -0.45137401116E+03 -0.91986770393E+03  0.14036001597E+04  0.90050280805E+03 0.  0.
         23    2    4    4    0    0  0.22048456912E+03 -0.27182467995E+02  0.77589132683E+01  0.24052162283E+03  0.91859232116E+02 0.  0.
         23    2    4    4    0    0 -0.55107950323E+03 -0.42419154316E+03 -0.92762661720E+03  0.11630785369E+04  0.92916402920E+02 0.  0.
          4    1    3    3  502    0  0.58342710088E+02  0.53356426411E+02  0.56892024311E+02  0.97403708811E+02  0.00000000000E+00 0. -1.
         -3    1    3    3    0  502  0.27225222401E+03  0.39801758475E+03  0.15823309074E+03  0.50752042546E+03  0.00000000000E+00 0.  1.
         13    1    5    5    0    0  0.48604865493E+02 -0.39260344728E+02  0.25129655049E+02  0.67344689328E+02  0.00000000000E+00 0. -1.
        -13    1    5    5    0    0  0.17187970363E+03  0.12077876733E+02 -0.17370741781E+02  0.17317693350E+03  0.00000000000E+00 0.  1.
          3    1    6    6  503    0 -0.51415287980E+03 -0.39893636973E+03 -0.89952703681E+03  0.11102487563E+04  0.00000000000E+00 0. -1.
         -3    1    6    6    0  503 -0.36926623423E+02 -0.25255173432E+02 -0.28099580394E+02  0.52829780624E+02  0.00000000000E+00 0.  1.
<mgrwt>
<rscale>  0 0.18808263E+04</rscale>
<asrwt>0</asrwt>
<pdfrwt beam="1">  1        2 0.10029090E+00 0.18808263E+04</pdfrwt>
<pdfrwt beam="2">  1       -1 0.20871283E+00 0.18808263E+04</pdfrwt>
<totfact> 0.62937084E+00</totfact>
</mgrwt>
</event>
<event>
12    7  0.1740517E-007  0.1946939E+04  0.7818608E-02  0.8631838E-01
          2   -1    0    0  501    0  0.00000000000E+00  0.00000000000E+00  0.48174344173E+03  0.48174344173E+03  0.00000000000E+00 0. -1.
         -1   -1    0    0    0  501 -0.00000000000E+00 -0.00000000000E+00 -0.19671111510E+04  0.19671111510E+04  0.00000000000E+00 0.  1.
         24    2    1    2    0    0  0.45597025095E+03  0.55584674695E+03 -0.83424623130E+03  0.11040267877E+04  0.77678167605E+02 0.  0.
        254    2    1    2    0    0 -0.45597025095E+03 -0.55584674695E+03 -0.65112147802E+03  0.13448278050E+04  0.93151928067E+03 0.  0.
         23    2    4    4    0    0 -0.54504414074E+03 -0.65736816367E+03 -0.22370838287E+03  0.88734805276E+03  0.90194834698E+02 0.  0.
         23    2    4    4    0    0  0.89073889792E+02  0.10152141672E+03 -0.42741309515E+03  0.45747975229E+03  0.91460450254E+02 0.  0.
          2    1    3    3  502    0  0.12104579647E+03  0.12776226835E+03 -0.15885097386E+03  0.23708419170E+03  0.00000000000E+00 0. -1.
         -1    1    3    3    0  502  0.33492445447E+03  0.42808447860E+03 -0.67539525743E+03  0.86694259601E+03  0.00000000000E+00 0.  1.
         13    1    5    5    0    0 -0.11763970461E+03 -0.13246988462E+03 -0.84490681361E+02  0.19628052799E+03  0.00000000000E+00 0. -1.
        -13    1    5    5    0    0 -0.42740443612E+03 -0.52489827905E+03 -0.13921770151E+03  0.69106752476E+03  0.00000000000E+00 0.  1.
          4    1    6    6  503    0  0.70885757343E+02  0.14207142981E+02 -0.15972344166E+03  0.17532316254E+03  0.00000000000E+00 0. -1.
         -4    1    6    6    0  503  0.18188132449E+02  0.87314273734E+02 -0.26768965348E+03  0.28215658976E+03  0.00000000000E+00 0.  1.
<mgrwt>
<rscale>  0 0.19469390E+04</rscale>
<asrwt>0</asrwt>
<pdfrwt beam="1">  1        2 0.74114375E-01 0.19469390E+04</pdfrwt>
<pdfrwt beam="2">  1       -1 0.30263249E+00 0.19469390E+04</pdfrwt>
<totfact> 0.21782935E+00</totfact>
</mgrwt>
</event>
<event>
12    7  0.1817480E-007  0.2105715E+04  0.7818608E-02  0.8558730E-01
         -1   -1    0    0    0  501 -0.00000000000E+00  0.00000000000E+00  0.43796632410E+03  0.43796632410E+03  0.00000000000E+00 0.  1.
          2   -1    0    0  501    0  0.00000000000E+00 -0.00000000000E+00 -0.25310362189E+04  0.25310362189E+04  0.00000000000E+00 0. -1.
         24    2    1    2    0    0  0.10481307476E+03  0.41231336061E+03 -0.19056992045E+04  0.19554969181E+04  0.10625747255E+03 0.  0.
        254    2    1    2    0    0 -0.10481307476E+03 -0.41231336061E+03 -0.18737069029E+03  0.10135056249E+04  0.90060967585E+03 0.  0.
         23    2    4    4    0    0 -0.34078031607E+03 -0.57972675619E+03 -0.20422654735E+03  0.70856976949E+03  0.90267934128E+02 0.  0.
         23    2    4    4    0    0  0.23596724131E+03  0.16741339558E+03  0.16855857060E+02  0.30493585545E+03  0.94836554276E+02 0.  0.
          2    1    3    3  502    0  0.12246138960E+03  0.39577653887E+03 -0.18048830479E+04  0.18518203685E+04  0.00000000000E+00 0. -1.
         -1    1    3    3    0  502 -0.17648314845E+02  0.16536821741E+02 -0.10081615666E+03  0.10367654958E+03  0.00000000000E+00 0.  1.
         13    1    5    5    0    0 -0.33674527549E+03 -0.55022004750E+03 -0.20964462725E+03  0.67829960266E+03  0.00000000000E+00 0. -1.
        -13    1    5    5    0    0 -0.40350405822E+01 -0.29506708691E+02  0.54180798995E+01  0.30270166832E+02  0.00000000000E+00 0.  1.
          3    1    6    6  503    0  0.20508662701E+03  0.16514048658E+03  0.39929904613E+02  0.26631992446E+03  0.00000000000E+00 0. -1.
         -3    1    6    6    0  503  0.30880614307E+02  0.22729090058E+01 -0.23074047553E+02  0.38615930985E+02  0.00000000000E+00 0.  1.
<mgrwt>
<rscale>  0 0.21057147E+04</rscale>
<asrwt>0</asrwt>
<pdfrwt beam="1">  1        2 0.38939020E+00 0.21057147E+04</pdfrwt>
<pdfrwt beam="2">  1       -1 0.67379432E-01 0.21057147E+04</pdfrwt>
<totfact> 0.78130349E+00</totfact>
</mgrwt>
</event>
<event>
12    7  0.1740517E-007  0.2606265E+04  0.7818608E-02  0.8366076E-01
          2   -1    0    0  501    0  0.00000000000E+00  0.00000000000E+00  0.24232134394E+04  0.24232134394E+04  0.00000000000E+00 0. -1.
         -1   -1    0    0    0  501 -0.00000000000E+00 -0.00000000000E+00 -0.70078615784E+03  0.70078615784E+03  0.00000000000E+00 0.  1.
         24    2    1    2    0    0 -0.34021007614E+03  0.84950002559E+03  0.15835035910E+04  0.18306751484E+04  0.80589621031E+02 0.  0.
        254    2    1    2    0    0  0.34021007614E+03 -0.84950002559E+03  0.13892369062E+03  0.12933244489E+04  0.90332449806E+03 0.  0.
         23    2    4    4    0    0  0.49651542992E+03 -0.94686220511E+03  0.68858721410E+02  0.10752365538E+04  0.91194931462E+02 0.  0.
         23    2    4    4    0    0 -0.15630535379E+03  0.97362179516E+02  0.70064969208E+02  0.21808789504E+03  0.93501189467E+02 0.  0.
          4    1    3    3  502    0 -0.22953166778E+03  0.66290162997E+03  0.12240712544E+04  0.14108415196E+04  0.00000000000E+00 0. -1.
         -3    1    3    3    0  502 -0.11067840835E+03  0.18659839562E+03  0.35943233657E+03  0.41983362883E+03  0.00000000000E+00 0.  1.
         13    1    5    5    0    0  0.76921227779E+02 -0.12648671393E+03  0.39927870025E+02  0.15332970648E+03  0.00000000000E+00 0. -1.
        -13    1    5    5    0    0  0.41959420214E+03 -0.82037549118E+03  0.28930851385E+02  0.92190684733E+03  0.00000000000E+00 0.  1.
          1    1    6    6  503    0 -0.12965962368E+02 -0.18065113810E+02  0.10973448392E+02  0.24796795896E+02  0.00000000000E+00 0. -1.
         -1    1    6    6    0  503 -0.14333939142E+03  0.11542729333E+03  0.59091520816E+02  0.19329109915E+03  0.00000000000E+00 0.  1.
<mgrwt>
<rscale>  0 0.26062651E+04</rscale>
<asrwt>0</asrwt>
<pdfrwt beam="1">  1        2 0.37280206E+00 0.26062651E+04</pdfrwt>
<pdfrwt beam="2">  1       -1 0.10781326E+00 0.26062651E+04</pdfrwt>
<totfact> 0.31011950E+00</totfact>
</mgrwt>
</event>
<event>
12    7  0.1740517E-007  0.1570387E+04  0.7818608E-02  0.8838950E-01
          2   -1    0    0  501    0  0.00000000000E+00  0.00000000000E+00  0.63956355060E+03  0.63956355060E+03  0.00000000000E+00 0. -1.
         -1   -1    0    0    0  501 -0.00000000000E+00 -0.00000000000E+00 -0.96398343971E+03  0.96398343971E+03  0.00000000000E+00 0.  1.
         24    2    1    2    0    0 -0.82964187243E+02 -0.12201691058E+02 -0.63173801157E+03  0.64227918137E+03  0.79985585794E+02 0.  0.
        254    2    1    2    0    0  0.82964187243E+02  0.12201691058E+02  0.30731812247E+03  0.96126780894E+03  0.90695062405E+03 0.  0.
         23    2    4    4    0    0 -0.36103412042E+03  0.68448689829E+02  0.33290833035E+03  0.50400744810E+03  0.90358685696E+02 0.  0.
         23    2    4    4    0    0  0.44399830766E+03 -0.56246998770E+02 -0.25590207884E+02  0.45726036084E+03  0.90188451462E+02 0.  0.
          4    1    3    3  502    0 -0.39997350888E+01  0.23188336708E+02 -0.68408868845E+02  0.72342727186E+02  0.00000000000E+00 0. -1.
         -3    1    3    3    0  502 -0.78964452154E+02 -0.35390027766E+02 -0.56332914272E+03  0.56993645419E+03  0.00000000000E+00 0.  1.
         13    1    5    5    0    0 -0.31229994195E+03  0.41863121129E+02  0.31533043445E+03  0.44577691454E+03  0.00000000000E+00 0. -1.
        -13    1    5    5    0    0 -0.48734178468E+02  0.26585568700E+02  0.17577895905E+02  0.58230533558E+02  0.00000000000E+00 0.  1.
          2    1    6    6  503    0  0.33260537691E+03 -0.22179482358E+02  0.15593089429E+02  0.33370857140E+03  0.00000000000E+00 0. -1.
         -2    1    6    6    0  503  0.11139293075E+03 -0.34067516413E+02 -0.41183297313E+02  0.12355178943E+03  0.00000000000E+00 0.  1.
<mgrwt>
<rscale>  0 0.15703868E+04</rscale>
<asrwt>0</asrwt>
<pdfrwt beam="1">  1        2 0.98394393E-01 0.15703868E+04</pdfrwt>
<pdfrwt beam="2">  1       -1 0.14830514E+00 0.15703868E+04</pdfrwt>
<totfact> 0.18119730E+01</totfact>
</mgrwt>
</event>
<event>
12    7  0.1740517E-007  0.1622591E+04  0.7818608E-02  0.8806788E-01
         -1   -1    0    0    0  501 -0.00000000000E+00  0.00000000000E+00  0.26625562027E+03  0.26625562027E+03  0.00000000000E+00 0.  1.
          2   -1    0    0  501    0  0.00000000000E+00 -0.00000000000E+00 -0.24720618435E+04  0.24720618435E+04  0.00000000000E+00 0. -1.
         24    2    1    2    0    0  0.38584838859E+03  0.36542184887E+03 -0.10438218325E+04  0.11740439214E+04  0.80018777299E+02 0.  0.
        254    2    1    2    0    0 -0.38584838859E+03 -0.36542184887E+03 -0.11619843907E+04  0.15642735424E+04  0.90240339342E+03 0.  0.
         23    2    4    4    0    0  0.80984495660E+02 -0.41360495050E+03 -0.17003742775E+03  0.46310420739E+03  0.89023797099E+02 0.  0.
         23    2    4    4    0    0 -0.46683288425E+03  0.48183101628E+02 -0.99194696295E+03  0.11011693350E+04  0.91436173674E+02 0.  0.
          2    1    3    3  502    0  0.23025862086E+03  0.19977518196E+03 -0.67798504121E+03  0.74336590715E+03  0.00000000000E+00 0. -1.
         -1    1    3    3    0  502  0.15558976773E+03  0.16564666691E+03 -0.36583679127E+03  0.43067801422E+03  0.00000000000E+00 0.  1.
         13    1    5    5    0    0  0.38648085751E+02 -0.31717717227E+03 -0.93516848865E+02  0.33292707034E+03  0.00000000000E+00 0. -1.
        -13    1    5    5    0    0  0.42336409909E+02 -0.96427778232E+02 -0.76520578883E+02  0.13017713705E+03  0.00000000000E+00 0.  1.
          1    1    6    6  503    0 -0.39656074900E+03  0.34807354069E+02 -0.90424719207E+03  0.98799542707E+03  0.00000000000E+00 0. -1.
         -1    1    6    6    0  503 -0.70272135248E+02  0.13375747559E+02 -0.87699770882E+02  0.11317390789E+03  0.00000000000E+00 0.  1.
<mgrwt>
<rscale>  0 0.16225910E+04</rscale>
<asrwt>0</asrwt>
<pdfrwt beam="1">  1        2 0.38031719E+00 0.16225910E+04</pdfrwt>
<pdfrwt beam="2">  1       -1 0.40962405E-01 0.16225910E+04</pdfrwt>
<totfact> 0.23009537E+01</totfact>
</mgrwt>
</event>
<event>
12    7  0.1740517E-007  0.1192891E+04  0.7818608E-02  0.9119102E-01
          2   -1    0    0  501    0  0.00000000000E+00  0.00000000000E+00  0.15601046016E+04  0.15601046016E+04  0.00000000000E+00 0. -1.
         -1   -1    0    0    0  501 -0.00000000000E+00 -0.00000000000E+00 -0.22802796002E+03  0.22802796002E+03  0.00000000000E+00 0.  1.
         24    2    1    2    0    0 -0.23882198143E+02 -0.13010839490E+03 -0.25345932492E+02  0.15887624630E+03  0.84265601140E+02 0.  0.
        254    2    1    2    0    0  0.23882198143E+02  0.13010839490E+03  0.13574225741E+04  0.16292563153E+04  0.89128084385E+03 0.  0.
         23    2    4    4    0    0  0.20017510217E+03 -0.37400910484E+02 -0.22874405998E+02  0.22462791211E+03  0.92008482308E+02 0.  0.
         23    2    4    4    0    0 -0.17629290403E+03  0.16750930538E+03  0.13802969801E+04  0.14046284032E+04  0.92858184980E+02 0.  0.
          2    1    3    3  502    0 -0.12478197026E+02  0.42742005182E+01  0.13148896129E+02  0.18624383493E+02  0.00000000000E+00 0. -1.
         -1    1    3    3    0  502 -0.11404001117E+02 -0.13438259541E+03 -0.38494828620E+02  0.14025186281E+03  0.00000000000E+00 0.  1.
         13    1    5    5    0    0  0.15544066481E+03 -0.70667833747E+00 -0.46323583999E+02  0.16219794729E+03  0.00000000000E+00 0.  1.
        -13    1    5    5    0    0  0.44734437361E+02 -0.36694232147E+02  0.23449178002E+02  0.62429964823E+02  0.00000000000E+00 0. -1.
          1    1    6    6  503    0  0.52728409935E+01 -0.65006955853E+01  0.31907397343E+02  0.32987026244E+02  0.00000000000E+00 0. -1.
         -1    1    6    6    0  503 -0.18156574502E+03  0.17401000097E+03  0.13483895827E+04  0.13716413770E+04  0.00000000000E+00 0.  1.
<mgrwt>
<rscale>  0 0.11928914E+04</rscale>
<asrwt>0</asrwt>
<pdfrwt beam="1">  1        2 0.24001609E+00 0.11928914E+04</pdfrwt>
<pdfrwt beam="2">  1       -1 0.35081226E-01 0.11928914E+04</pdfrwt>
<totfact> 0.10201087E+02</totfact>
</mgrwt>
</event>
<event>
12    7  0.1740517E-007  0.2161990E+04  0.7818608E-02  0.8534417E-01
         -1   -1    0    0    0  501 -0.00000000000E+00  0.00000000000E+00  0.45333218764E+03  0.45333218764E+03  0.00000000000E+00 0.  1.
          2   -1    0    0  501    0  0.00000000000E+00 -0.00000000000E+00 -0.25776899147E+04  0.25776899147E+04  0.00000000000E+00 0. -1.
         24    2    1    2    0    0  0.17754840227E+03 -0.35214173125E+03 -0.19999140243E+04  0.20400060061E+04  0.80256876763E+02 0.  0.
        254    2    1    2    0    0 -0.17754840227E+03  0.35214173125E+03 -0.12444370271E+03  0.99101609619E+03  0.90061058939E+03 0.  0.
         23    2    4    4    0    0  0.19919105975E+02 -0.16320464127E+03 -0.34307676767E+03  0.39029331050E+03  0.87147426755E+02 0.  0.
         23    2    4    4    0    0 -0.19746750825E+03  0.51534637252E+03  0.21863306496E+03  0.60072278569E+03  0.92152849477E+02 0.  0.
          2    1    3    3  502    0  0.10608783399E+03 -0.24978188740E+03 -0.11917875398E+04  0.12222942198E+04  0.00000000000E+00 0. -1.
         -1    1    3    3    0  502  0.71460568283E+02 -0.10235984385E+03 -0.80812648451E+03  0.81771178628E+03  0.00000000000E+00 0.  1.
         13    1    5    5    0    0  0.46658251644E+01 -0.11509113336E+03 -0.14130465301E+03  0.18230398752E+03  0.00000000000E+00 0.  1.
        -13    1    5    5    0    0  0.15253280811E+02 -0.48113507906E+02 -0.20177211466E+03  0.20798932298E+03  0.00000000000E+00 0. -1.
          4    1    6    6  503    0 -0.14711640754E+03  0.34199790795E+03  0.10275819487E+03  0.38621891852E+03  0.00000000000E+00 0.  1.
         -4    1    6    6    0  503 -0.50351100707E+02  0.17334846457E+03  0.11587487009E+03  0.21450386717E+03  0.00000000000E+00 0. -1.
<mgrwt>
<rscale>  0 0.21619896E+04</rscale>
<asrwt>0</asrwt>
<pdfrwt beam="1">  1        2 0.39656768E+00 0.21619896E+04</pdfrwt>
<pdfrwt beam="2">  1       -1 0.69743413E-01 0.21619896E+04</pdfrwt>
<totfact> 0.68054034E+00</totfact>
</mgrwt>
</event>
<event>
12    7  0.1740517E-007  0.3372317E+04  0.7818608E-02  0.8144734E-01
         -1   -1    0    0    0  501 -0.00000000000E+00  0.00000000000E+00  0.13598697544E+04  0.13598697544E+04  0.00000000000E+00 0.  1.
          2   -1    0    0  501    0  0.00000000000E+00 -0.00000000000E+00 -0.20907374278E+04  0.20907374278E+04  0.00000000000E+00 0. -1.
         24    2    1    2    0    0  0.14576272975E+03 -0.13620154691E+04  0.43589917956E+03  0.14399234530E+04  0.83896032590E+02 0.  0.
        254    2    1    2    0    0 -0.14576272975E+03  0.13620154691E+04 -0.11667668529E+04  0.20106837292E+04  0.89731335584E+03 0.  0.
         23    2    4    4    0    0 -0.41224317408E+03  0.52858643932E+03 -0.82484649672E+03  0.10668540180E+04  0.91965723029E+02 0.  0.
         23    2    4    4    0    0  0.26648044433E+03  0.83342902975E+03 -0.34192035622E+03  0.94382971122E+03  0.91045147897E+02 0.  0.
          4    1    3    3  502    0  0.14939195070E+03 -0.11520742915E+04  0.35285249416E+03  0.12141243803E+04  0.00000000000E+00 0. -1.
         -3    1    3    3    0  502 -0.36292209549E+01 -0.20994117753E+03  0.83046685406E+02  0.22579907268E+03  0.00000000000E+00 0.  1.
         13    1    5    5    0    0 -0.84064940384E+02  0.83817814381E+02 -0.20034444910E+03  0.23287386821E+03  0.00000000000E+00 0. -1.
        -13    1    5    5    0    0 -0.32817823369E+03  0.44476862494E+03 -0.62450204761E+03  0.83398014981E+03  0.00000000000E+00 0.  1.
          1    1    6    6  503    0  0.21962857347E+02  0.19194307161E+03 -0.77397507133E+02  0.20812228125E+03  0.00000000000E+00 0. -1.
         -1    1    6    6    0  503  0.24451758698E+03  0.64148595814E+03 -0.26452284909E+03  0.73570742997E+03  0.00000000000E+00 0.  1.
<mgrwt>
<rscale>  0 0.33723171E+04</rscale>
<asrwt>0</asrwt>
<pdfrwt beam="1">  1        2 0.32165191E+00 0.33723171E+04</pdfrwt>
<pdfrwt beam="2">  1       -1 0.20921073E+00 0.33723171E+04</pdfrwt>
<totfact> 0.73083238E-01</totfact>
</mgrwt>
</event>
<event>
12    7  0.1740517E-007  0.1370043E+04  0.7818608E-02  0.8975793E-01
          2   -1    0    0  501    0  0.00000000000E+00  0.00000000000E+00  0.44188750020E+03  0.44188750020E+03  0.00000000000E+00 0. -1.
         -1   -1    0    0    0  501 -0.00000000000E+00 -0.00000000000E+00 -0.10619325834E+04  0.10619325834E+04  0.00000000000E+00 0.  1.
         24    2    1    2    0    0 -0.56527527838E+02  0.28064081438E+03 -0.44170049727E+03  0.53341251142E+03  0.86457792888E+02 0.  0.
        254    2    1    2    0    0  0.56527527838E+02 -0.28064081438E+03 -0.17834458593E+03  0.97040757217E+03  0.90990627907E+03 0.  0.
         23    2    4    4    0    0  0.27683131308E+03 -0.48133807881E+03 -0.29608701677E+03  0.63675772992E+03  0.97318873323E+02 0.  0.
         23    2    4    4    0    0 -0.22030378525E+03  0.20069726442E+03  0.11774243085E+03  0.33364984225E+03  0.92982726719E+02 0.  0.
          4    1    3    3  502    0  0.14907838909E+02  0.10721059867E+02 -0.16230600828E+02  0.24507492505E+02  0.00000000000E+00 0. -1.
         -1    1    3    3    0  502 -0.71435366747E+02  0.26991975451E+03 -0.42546989644E+03  0.50890501892E+03  0.00000000000E+00 0.  1.
         13    1    5    5    0    0  0.12700397361E+03 -0.29355263303E+03 -0.20462613080E+03  0.37970384654E+03  0.00000000000E+00 0. -1.
        -13    1    5    5    0    0  0.14982733948E+03 -0.18778544578E+03 -0.91460885969E+02  0.25705388339E+03  0.00000000000E+00 0.  1.
          4    1    6    6  503    0 -0.19868469763E+03  0.19835088639E+03  0.83170101311E+02  0.29280701658E+03  0.00000000000E+00 0. -1.
         -4    1    6    6    0  503 -0.21619087615E+02  0.23463780343E+01  0.34572329535E+02  0.40842825669E+02  0.00000000000E+00 0.  1.
<mgrwt>
<rscale>  0 0.13700434E+04</rscale>
<asrwt>0</asrwt>
<pdfrwt beam="1">  1        2 0.67982694E-01 0.13700434E+04</pdfrwt>
<pdfrwt beam="2">  1       -1 0.16337424E+00 0.13700434E+04</pdfrwt>
<totfact> 0.21835955E+01</totfact>
</mgrwt>
</event>
<event>
12    7  0.1740517E-007  0.1650383E+04  0.7818608E-02  0.8790180E-01
         -1   -1    0    0    0  501 -0.00000000000E+00  0.00000000000E+00  0.30219312891E+03  0.30219312891E+03  0.00000000000E+00 0.  1.
          2   -1    0    0  501    0  0.00000000000E+00 -0.00000000000E+00 -0.22533309293E+04  0.22533309293E+04  0.00000000000E+00 0. -1.
         24    2    1    2    0    0 -0.13306381273E+03  0.33530533355E+03 -0.13976561725E+04  0.14457744716E+04  0.81764303830E+02 0.  0.
        254    2    1    2    0    0  0.13306381273E+03 -0.33530533355E+03 -0.55348162794E+03  0.11097495866E+04  0.89166506467E+03 0.  0.
         23    2    4    4    0    0  0.42684999323E+03 -0.15755395666E+03 -0.59227193579E+03  0.75218397922E+03  0.89277806233E+02 0.  0.
         23    2    4    4    0    0 -0.29378618050E+03 -0.17775137689E+03  0.38790307852E+02  0.35756560739E+03  0.91883642560E+02 0.  0.
          4    1    3    3  502    0 -0.94214619568E+02  0.26462854336E+03 -0.94025762684E+03  0.98132006263E+03  0.00000000000E+00 0. -1.
         -3    1    3    3    0  502 -0.38849193164E+02  0.70676790196E+02 -0.45739854565E+03  0.46445440900E+03  0.00000000000E+00 0.  1.
         13    1    5    5    0    0 -0.85250284439E+00 -0.84362823426E+01 -0.24162974459E+02  0.25607556610E+02  0.00000000000E+00 0.  1.
        -13    1    5    5    0    0  0.42770249607E+03 -0.14911767432E+03 -0.56810896133E+03  0.72657642261E+03  0.00000000000E+00 0. -1.
          1    1    6    6  503    0 -0.29612220447E+03 -0.18395651485E+03  0.36344616213E+02  0.35049863119E+03  0.00000000000E+00 0. -1.
         -1    1    6    6    0  503  0.23360239728E+01  0.62051379607E+01  0.24456916395E+01  0.70669762069E+01  0.00000000000E+00 0.  1.
<mgrwt>
<rscale>  0 0.16503831E+04</rscale>
<asrwt>0</asrwt>
<pdfrwt beam="1">  1        2 0.34666629E+00 0.16503831E+04</pdfrwt>
<pdfrwt beam="2">  1       -1 0.46491251E-01 0.16503831E+04</pdfrwt>
<totfact> 0.24166886E+01</totfact>
</mgrwt>
</event>
<event>
12    7  0.1740517E-007  0.1556596E+04  0.7818608E-02  0.8847666E-01
         -1   -1    0    0    0  501 -0.00000000000E+00  0.00000000000E+00  0.52054494747E+03  0.52054494747E+03  0.00000000000E+00 0.  1.
          2   -1    0    0  501    0  0.00000000000E+00 -0.00000000000E+00 -0.11636800875E+04  0.11636800875E+04  0.00000000000E+00 0. -1.
         24    2    1    2    0    0 -0.50646509124E+03 -0.78443258647E+02 -0.22560573208E+03  0.56553999761E+03  0.79229470986E+02 0.  0.
        254    2    1    2    0    0  0.50646509124E+03  0.78443258647E+02 -0.41752940800E+03  0.11186850374E+04  0.90247724232E+03 0.  0.
         23    2    4    4    0    0 -0.17880162256E+03  0.16673569161E+03  0.67988628917E+02  0.26919411634E+03  0.89845464686E+02 0.  0.
         23    2    4    4    0    0  0.68526671381E+03 -0.88292432962E+02 -0.48551803691E+03  0.84949092107E+03  0.92309468828E+02 0.  0.
          4    1    3    3  502    0 -0.24569052672E+03 -0.84792385769E+01 -0.78482105706E+02  0.25806040635E+03  0.00000000000E+00 0. -1.
         -3    1    3    3    0  502 -0.26077456452E+03 -0.69964020070E+02 -0.14712362637E+03  0.30747959126E+03  0.00000000000E+00 0.  1.
         13    1    5    5    0    0 -0.13519082546E+03  0.16881498335E+03  0.50042963787E+02  0.22198954056E+03  0.00000000000E+00 0. -1.
        -13    1    5    5    0    0 -0.43610797098E+02 -0.20792917455E+01  0.17945665129E+02  0.47204575780E+02  0.00000000000E+00 0.  1.
          2    1    6    6  503    0  0.39880927322E+02  0.16547541919E+02 -0.27726896996E+02  0.51313646573E+02  0.00000000000E+00 0.  1.
         -2    1    6    6    0  503  0.64538578649E+03 -0.10483997488E+03 -0.45779113992E+03  0.79817727449E+03  0.00000000000E+00 0. -1.
<mgrwt>
<rscale>  0 0.15565960E+04</rscale>
<asrwt>0</asrwt>
<pdfrwt beam="1">  1        2 0.17902770E+00 0.15565960E+04</pdfrwt>
<pdfrwt beam="2">  1       -1 0.80083839E-01 0.15565960E+04</pdfrwt>
<totfact> 0.34017620E+01</totfact>
</mgrwt>
</event>
<event>
12    7  0.1740517E-007  0.3841683E+04  0.7818608E-02  0.8037269E-01
         -1   -1    0    0    0  501 -0.00000000000E+00  0.00000000000E+00  0.16974950925E+04  0.16974950925E+04  0.00000000000E+00 0.  1.
          2   -1    0    0  501    0  0.00000000000E+00 -0.00000000000E+00 -0.21735741010E+04  0.21735741010E+04  0.00000000000E+00 0. -1.
         24    2    1    2    0    0  0.15202684968E+04 -0.23143525213E+03  0.74553791364E+03  0.17108521059E+04  0.80059785322E+02 0.  0.
        254    2    1    2    0    0 -0.15202684968E+04  0.23143525213E+03 -0.12216169221E+04  0.21602170876E+04  0.89967293089E+03 0.  0.
         23    2    4    4    0    0 -0.11698152069E+04 -0.19298397436E+03 -0.10208723155E+04  0.15675618263E+04  0.96743795342E+02 0.  0.
         23    2    4    4    0    0 -0.35045328993E+03  0.42441922649E+03 -0.20074460658E+03  0.59265526127E+03  0.89401752812E+02 0.  0.
          4    1    3    3  502    0  0.73948894589E+02 -0.26128210975E+02  0.27576702810E+02  0.83136014804E+02  0.00000000000E+00 0. -1.
         -3    1    3    3    0  502  0.14463196023E+04 -0.20530704116E+03  0.71796121083E+03  0.16277160911E+04  0.00000000000E+00 0.  1.
         13    1    5    5    0    0 -0.37044564595E+03 -0.78409954138E+02 -0.38195900711E+03  0.53783899136E+03  0.00000000000E+00 0.  1.
        -13    1    5    5    0    0 -0.79936956097E+03 -0.11457402022E+03 -0.63891330844E+03  0.10297228349E+04  0.00000000000E+00 0. -1.
          4    1    6    6  503    0 -0.21687505466E+02  0.40053262737E+02  0.65829360985E+01  0.46021155971E+02  0.00000000000E+00 0. -1.
         -4    1    6    6    0  503 -0.32876578446E+03  0.38436596375E+03 -0.20732754267E+03  0.54663410530E+03  0.00000000000E+00 0.  1.
<mgrwt>
<rscale>  0 0.38416826E+04</rscale>
<asrwt>0</asrwt>
<pdfrwt beam="1">  1        2 0.33439601E+00 0.38416826E+04</pdfrwt>
<pdfrwt beam="2">  1       -1 0.26115309E+00 0.38416826E+04</pdfrwt>
<totfact> 0.28638854E-01</totfact>
</mgrwt>
</event>
<event>
12    7  0.1740517E-007  0.2796603E+04  0.7818608E-02  0.8304324E-01
         -1   -1    0    0    0  501 -0.00000000000E+00  0.00000000000E+00  0.98442289015E+03  0.98442289015E+03  0.00000000000E+00 0.  1.
          2   -1    0    0  501    0  0.00000000000E+00 -0.00000000000E+00 -0.19861861967E+04  0.19861861967E+04  0.00000000000E+00 0. -1.
         24    2    1    2    0    0 -0.28052568610E+03 -0.29223834117E+03 -0.17232123402E+04  0.17721618419E+04  0.83659524079E+02 0.  0.
        254    2    1    2    0    0  0.28052568610E+03  0.29223834117E+03  0.72144903366E+03  0.11984472449E+04  0.86700010499E+03 0.  0.
         23    2    4    4    0    0  0.27211477524E+03 -0.10031867407E+03  0.73471288913E+03  0.79507345387E+03  0.90710971418E+02 0.  0.
         23    2    4    4    0    0  0.84109108583E+01  0.39255701525E+03 -0.13263855465E+02  0.40337379104E+03  0.91447973140E+02 0.  0.
          2    1    3    3  502    0 -0.12649466382E+03 -0.13809948745E+03 -0.62136965537E+03  0.64897813293E+03  0.00000000000E+00 0. -1.
         -1    1    3    3    0  502 -0.15403102228E+03 -0.15413885373E+03 -0.11018426848E+04  0.11231837090E+04  0.00000000000E+00 0.  1.
         13    1    5    5    0    0  0.23670382381E+03 -0.54299207609E+02  0.54467455438E+03  0.59636186526E+03  0.00000000000E+00 0. -1.
        -13    1    5    5    0    0  0.35410951435E+02 -0.46019466465E+02  0.19003833475E+03  0.19871158861E+03  0.00000000000E+00 0.  1.
          2    1    6    6  503    0  0.33615774396E+02  0.28514671455E+03  0.20890060681E+02  0.28788029412E+03  0.00000000000E+00 0. -1.
         -2    1    6    6    0  503 -0.25204863538E+02  0.10741030070E+03 -0.34153916146E+02  0.11549349691E+03  0.00000000000E+00 0.  1.
<mgrwt>
<rscale>  0 0.27966031E+04</rscale>
<asrwt>0</asrwt>
<pdfrwt beam="1">  1        2 0.30556711E+00 0.27966031E+04</pdfrwt>
<pdfrwt beam="2">  1       -1 0.15144968E+00 0.27966031E+04</pdfrwt>
<totfact> 0.22891246E+00</totfact>
</mgrwt>
</event>
<event>
12    7  0.1740517E-007  0.1647347E+04  0.7818608E-02  0.8791978E-01
          2   -1    0    0  501    0  0.00000000000E+00  0.00000000000E+00  0.15393646796E+04  0.15393646796E+04  0.00000000000E+00 0. -1.
         -1   -1    0    0    0  501 -0.00000000000E+00 -0.00000000000E+00 -0.44072577789E+03  0.44072577789E+03  0.00000000000E+00 0.  1.
         24    2    1    2    0    0  0.38938467781E+03 -0.42832181824E+03  0.49029584662E+03  0.76235136381E+03  0.75561745618E+02 0.  0.
        254    2    1    2    0    0 -0.38938467781E+03  0.42832181824E+03  0.60834305512E+03  0.12177390937E+04  0.88188843985E+03 0.  0.
         23    2    4    4    0    0 -0.37046269924E+03 -0.18848225314E+03  0.18485486805E+03  0.46380819560E+03  0.90435329335E+02 0.  0.
         23    2    4    4    0    0 -0.18921978576E+02  0.61680407138E+03  0.42348818707E+03  0.75393089811E+03  0.90907924823E+02 0.  0.
          4    1    3    3  502    0  0.30629534346E+03 -0.32937246618E+03  0.41935812117E+03  0.61495064249E+03  0.00000000000E+00 0. -1.
         -3    1    3    3    0  502  0.83089334348E+02 -0.98949352053E+02  0.70937725448E+02  0.14740072132E+03  0.00000000000E+00 0.  1.
         13    1    5    5    0    0  0.33632007229E+01 -0.45857449895E+01 -0.34144020180E+01  0.66331227451E+01  0.00000000000E+00 0. -1.
        -13    1    5    5    0    0 -0.37382589996E+03 -0.18389650815E+03  0.18826927007E+03  0.45717507286E+03  0.00000000000E+00 0.  1.
          4    1    6    6  503    0 -0.34771270631E+02  0.20999693790E+03  0.10680952136E+03  0.23815127344E+03  0.00000000000E+00 0. -1.
         -4    1    6    6    0  503  0.15849292054E+02  0.40680713348E+03  0.31667866571E+03  0.51577962467E+03  0.00000000000E+00 0.  1.
<mgrwt>
<rscale>  0 0.16473466E+04</rscale>
<asrwt>0</asrwt>
<pdfrwt beam="1">  1        2 0.23682533E+00 0.16473466E+04</pdfrwt>
<pdfrwt beam="2">  1       -1 0.67803966E-01 0.16473466E+04</pdfrwt>
<totfact> 0.28919346E+01</totfact>
</mgrwt>
</event>
<event>
12    7  0.1740517E-007  0.2097060E+04  0.7818608E-02  0.8562540E-01
          2   -1    0    0  501    0  0.00000000000E+00  0.00000000000E+00  0.15964617154E+04  0.15964617154E+04  0.00000000000E+00 0. -1.
         -1   -1    0    0    0  501 -0.00000000000E+00 -0.00000000000E+00 -0.68865706431E+03  0.68865706431E+03  0.00000000000E+00 0.  1.
         24    2    1    2    0    0 -0.24415166975E+03  0.29098274772E+03  0.12219374202E+04  0.12818383147E+04  0.75481181992E+02 0.  0.
        254    2    1    2    0    0  0.24415166975E+03 -0.29098274772E+03 -0.31413276909E+03  0.10032804650E+04  0.87384855529E+03 0.  0.
         23    2    4    4    0    0  0.51278246792E+03  0.35507164022E+01 -0.62267109165E+02  0.52308425952E+03  0.82349758211E+02 0.  0.
         23    2    4    4    0    0 -0.26863079817E+03 -0.29453346413E+03 -0.25186565993E+03  0.48019620551E+03  0.90772341185E+02 0.  0.
          2    1    3    3  502    0 -0.17485781156E+03  0.15091549987E+03  0.73554804568E+03  0.77096152295E+03  0.00000000000E+00 0. -1.
         -1    1    3    3    0  502 -0.69293858191E+02  0.14006724785E+03  0.48638937448E+03  0.51087679171E+03  0.00000000000E+00 0.  1.
         13    1    5    5    0    0  0.28538860086E+03 -0.38607645994E+02 -0.39831045648E+02  0.29072962702E+03  0.00000000000E+00 0. -1.
        -13    1    5    5    0    0  0.22739386706E+03  0.42158362396E+02 -0.22436063517E+02  0.23235463250E+03  0.00000000000E+00 0.  1.
          2    1    6    6  503    0 -0.10055833416E+03 -0.17743977096E+03 -0.12940156162E+03  0.24154008991E+03  0.00000000000E+00 0. -1.
         -2    1    6    6    0  503 -0.16807246401E+03 -0.11709369317E+03 -0.12246409831E+03  0.23865611560E+03  0.00000000000E+00 0.  1.
<mgrwt>
<rscale>  0 0.20970595E+04</rscale>
<asrwt>0</asrwt>
<pdfrwt beam="1">  1        2 0.24560949E+00 0.20970595E+04</pdfrwt>
<pdfrwt beam="2">  1       -1 0.10594724E+00 0.20970595E+04</pdfrwt>
<totfact> 0.98063642E+00</totfact>
</mgrwt>
</event>
<event>
12    7  0.1740517E-007  0.1345645E+04  0.7818608E-02  0.8994131E-01
          2   -1    0    0  501    0  0.00000000000E+00  0.00000000000E+00  0.49318890985E+03  0.49318890985E+03  0.00000000000E+00 0. -1.
         -1   -1    0    0    0  501 -0.00000000000E+00 -0.00000000000E+00 -0.91788443475E+03  0.91788443475E+03  0.00000000000E+00 0.  1.
         24    2    1    2    0    0  0.62937552956E+02 -0.10119847136E+03  0.24800873077E+03  0.28634674464E+03  0.79270810817E+02 0.  0.
        254    2    1    2    0    0 -0.62937552956E+02  0.10119847136E+03 -0.67270425567E+03  0.11247266000E+04  0.89346328570E+03 0.  0.
         23    2    4    4    0    0 -0.37751014312E+03  0.11402991134E+03 -0.68725224518E+03  0.79737662270E+03  0.89314618490E+02 0.  0.
         23    2    4    4    0    0  0.31457259017E+03 -0.12831439979E+02  0.14547989513E+02  0.32734997727E+03  0.88463570358E+02 0.  0.
          4    1    3    3  502    0  0.23199491707E+02 -0.50965432513E+02  0.19599268299E+03  0.20383528525E+03  0.00000000000E+00 0. -1.
         -3    1    3    3    0  502  0.39738061248E+02 -0.50233038846E+02  0.52016047782E+02  0.82511459388E+02  0.00000000000E+00 0.  1.
         13    1    5    5    0    0 -0.23617795616E+03  0.25516839888E+02 -0.39900434211E+03  0.46436580529E+03  0.00000000000E+00 0. -1.
        -13    1    5    5    0    0 -0.14133218696E+03  0.88513071450E+02 -0.28824790307E+03  0.33301081741E+03  0.00000000000E+00 0.  1.
          3    1    6    6  503    0  0.21472593364E+03  0.24649094082E+02 -0.15079642524E+02  0.21666148720E+03  0.00000000000E+00 0. -1.
         -3    1    6    6    0  503  0.99846656528E+02 -0.37480534061E+02  0.29627632036E+02  0.11068849007E+03  0.00000000000E+00 0.  1.
<mgrwt>
<rscale>  0 0.13456455E+04</rscale>
<asrwt>0</asrwt>
<pdfrwt beam="1">  1        2 0.75875217E-01 0.13456455E+04</pdfrwt>
<pdfrwt beam="2">  1       -1 0.14121299E+00 0.13456455E+04</pdfrwt>
<totfact> 0.28652879E+01</totfact>
</mgrwt>
</event>
<event>
12    7  0.1740517E-007  0.1478465E+04  0.7818608E-02  0.8898901E-01
          2   -1    0    0  501    0  0.00000000000E+00  0.00000000000E+00  0.13866418870E+04  0.13866418870E+04  0.00000000000E+00 0. -1.
         -1   -1    0    0    0  501 -0.00000000000E+00 -0.00000000000E+00 -0.39409204959E+03  0.39409204959E+03  0.00000000000E+00 0.  1.
         24    2    1    2    0    0 -0.37069275247E+03  0.12501152589E+02 -0.20951646404E+02  0.38017068829E+03  0.80755093956E+02 0.  0.
        254    2    1    2    0    0  0.37069275247E+03 -0.12501152589E+02  0.10135014838E+04  0.14005632482E+04  0.89264929238E+03 0.  0.
         23    2    4    4    0    0  0.90351229129E+02 -0.54942745692E+01  0.10893051830E+04  0.10968569414E+04  0.91191208549E+02 0.  0.
         23    2    4    4    0    0  0.28034152334E+03 -0.70068780197E+01 -0.75803699256E+02  0.30370630683E+03  0.88605044634E+02 0.  0.
          4    1    3    3  502    0 -0.21215082051E+03  0.97576435227E+01  0.28018685103E+02  0.21421537986E+03  0.00000000000E+00 0. -1.
         -3    1    3    3    0  502 -0.15854193196E+03  0.27435090661E+01 -0.48970331508E+02  0.16595530844E+03  0.00000000000E+00 0.  1.
         13    1    5    5    0    0  0.23279774085E+02 -0.15840298836E+02  0.76544041735E+03  0.76595815516E+03  0.00000000000E+00 0. -1.
        -13    1    5    5    0    0  0.67071455044E+02  0.10346024267E+02  0.32386476568E+03  0.33089878626E+03  0.00000000000E+00 0.  1.
          4    1    6    6  503    0  0.19909187892E+03 -0.82601240820E+01 -0.94174062206E+02  0.22039636997E+03  0.00000000000E+00 0. -1.
         -4    1    6    6    0  503  0.81249644420E+02  0.12532460624E+01  0.18370362951E+02  0.83309936856E+02  0.00000000000E+00 0.  1.
<mgrwt>
<rscale>  0 0.14784648E+04</rscale>
<asrwt>0</asrwt>
<pdfrwt beam="1">  1        2 0.21332952E+00 0.14784648E+04</pdfrwt>
<pdfrwt beam="2">  1       -1 0.60629547E-01 0.14784648E+04</pdfrwt>
<totfact> 0.44813997E+01</totfact>
</mgrwt>
</event>
<event>
12    7  0.1740517E-007  0.1216916E+04  0.7818608E-02  0.9098177E-01
          2   -1    0    0  501    0  0.00000000000E+00  0.00000000000E+00  0.95331191053E+03  0.95331191053E+03  0.00000000000E+00 0. -1.
         -1   -1    0    0    0  501 -0.00000000000E+00 -0.00000000000E+00 -0.38835274022E+03  0.38835274022E+03  0.00000000000E+00 0.  1.
         24    2    1    2    0    0  0.13301677117E+03  0.38714655606E+02  0.37339988445E+03  0.40554504336E+03  0.76465825791E+02 0.  0.
        254    2    1    2    0    0 -0.13301677117E+03 -0.38714655606E+02  0.19155928586E+03  0.93611960740E+03  0.90577738622E+03 0.  0.
         23    2    4    4    0    0 -0.37928770050E+02 -0.46237741381E+03  0.97694440681E+02  0.48274043975E+03  0.90899197072E+02 0.  0.
         23    2    4    4    0    0 -0.95088001122E+02  0.42366275820E+03  0.93864845176E+02  0.45337916765E+03  0.90610153156E+02 0.  0.
          2    1    3    3  502    0  0.10421508253E+03  0.37512100602E+02  0.35368226615E+03  0.37061986793E+03  0.00000000000E+00 0. -1.
         -1    1    3    3    0  502  0.28801688640E+02  0.12025550046E+01  0.19717618302E+02  0.34925175426E+02  0.00000000000E+00 0.  1.
         13    1    5    5    0    0 -0.53469628027E+02 -0.43710874405E+03  0.10384256395E+03  0.45244484010E+03  0.00000000000E+00 0. -1.
        -13    1    5    5    0    0  0.15540857977E+02 -0.25268669761E+02 -0.61481232727E+01  0.30295599647E+02  0.00000000000E+00 0.  1.
          4    1    6    6  503    0 -0.79419277548E+02  0.36722957712E+03  0.11201774687E+03  0.39206244346E+03  0.00000000000E+00 0. -1.
         -4    1    6    6    0  503 -0.15668723574E+02  0.56433181086E+02 -0.18152901696E+02  0.61316724194E+02  0.00000000000E+00 0.  1.
<mgrwt>
<rscale>  0 0.12169163E+04</rscale>
<asrwt>0</asrwt>
<pdfrwt beam="1">  1        2 0.14666337E+00 0.12169163E+04</pdfrwt>
<pdfrwt beam="2">  1       -1 0.59746576E-01 0.12169163E+04</pdfrwt>
<totfact> 0.86283709E+01</totfact>
</mgrwt>
</event>
<event>
12    7  0.1740517E-007  0.1974557E+04  0.7818608E-02  0.8618609E-01
         -1   -1    0    0    0  501 -0.00000000000E+00  0.00000000000E+00  0.70486648709E+03  0.70486648709E+03  0.00000000000E+00 0.  1.
          2   -1    0    0  501    0  0.00000000000E+00 -0.00000000000E+00 -0.13828421104E+04  0.13828421104E+04  0.00000000000E+00 0. -1.
         24    2    1    2    0    0 -0.58872527080E+03  0.43081785986E+03  0.21313267680E+02  0.73438200911E+03  0.81616218277E+02 0.  0.
        254    2    1    2    0    0  0.58872527080E+03 -0.43081785986E+03 -0.69928889099E+03  0.13533265884E+04  0.90015911309E+03 0.  0.
         23    2    4    4    0    0  0.57147456613E+03 -0.11182436679E+03 -0.81083934489E+03  0.10024460137E+04  0.91376684332E+02 0.  0.
         23    2    4    4    0    0  0.17250704669E+02 -0.31899349307E+03  0.11155045390E+03  0.35088057466E+03  0.92839853915E+02 0.  0.
          4    1    3    3  502    0 -0.24968306710E+03  0.18604085167E+03 -0.31185655006E+02  0.31293030784E+03  0.00000000000E+00 0. -1.
         -3    1    3    3    0  502 -0.33904220370E+03  0.24477700819E+03  0.52498922686E+02  0.42145170128E+03  0.00000000000E+00 0.  1.
         13    1    5    5    0    0  0.48066006767E+03 -0.12717407308E+03 -0.69181194692E+03  0.85194548852E+03  0.00000000000E+00 0. -1.
        -13    1    5    5    0    0  0.90814498456E+02  0.15349706288E+02 -0.11902739798E+03  0.15050052519E+03  0.00000000000E+00 0.  1.
          1    1    6    6  503    0 -0.93710368160E+01 -0.28182995478E+03  0.11607675600E+03  0.30494221260E+03  0.00000000000E+00 0. -1.
         -1    1    6    6    0  503  0.26621741485E+02 -0.37163538289E+02 -0.45263020986E+01  0.45938362058E+02  0.00000000000E+00 0.  1.
<mgrwt>
<rscale>  0 0.19745572E+04</rscale>
<asrwt>0</asrwt>
<pdfrwt beam="1">  1        2 0.21274494E+00 0.19745572E+04</pdfrwt>
<pdfrwt beam="2">  1       -1 0.10844100E+00 0.19745572E+04</pdfrwt>
<totfact> 0.12397901E+01</totfact>
</mgrwt>
</event>
<event>
12    7  0.1740517E-007  0.1329133E+04  0.7818608E-02  0.9006776E-01
         -1   -1    0    0    0  501 -0.00000000000E+00  0.00000000000E+00  0.53846697631E+03  0.53846697631E+03  0.00000000000E+00 0.  1.
          2   -1    0    0  501    0  0.00000000000E+00 -0.00000000000E+00 -0.82019585889E+03  0.82019585889E+03  0.00000000000E+00 0. -1.
         24    2    1    2    0    0 -0.33188523200E+03 -0.13918341806E+03 -0.10899711102E+03  0.38506278633E+03  0.82904451747E+02 0.  0.
        254    2    1    2    0    0  0.33188523200E+03  0.13918341806E+03 -0.17273177156E+03  0.97360004888E+03  0.88799828782E+03 0.  0.
         23    2    4    4    0    0  0.31759971645E+03  0.46951931220E+03 -0.24227542757E+03  0.62331304225E+03  0.92216058325E+02 0.  0.
         23    2    4    4    0    0  0.14285515555E+02 -0.33033589414E+03  0.69543656002E+02  0.35028700663E+03  0.92405562664E+02 0.  0.
          2    1    3    3  502    0 -0.27370768854E+03 -0.11216120100E+03 -0.12137770211E+03  0.31973204460E+03  0.00000000000E+00 0. -1.
         -1    1    3    3    0  502 -0.58177543465E+02 -0.27022217059E+02  0.12380591098E+02  0.65330741725E+02  0.00000000000E+00 0.  1.
         13    1    5    5    0    0  0.30073686687E+03  0.45336758985E+03 -0.24997570783E+03  0.59872588814E+03  0.00000000000E+00 0. -1.
        -13    1    5    5    0    0  0.16862849580E+02  0.16151722350E+02  0.77002802679E+01  0.24587154106E+02  0.00000000000E+00 0.  1.
          4    1    6    6  503    0  0.37234441767E+02 -0.30657118463E+03  0.52997473661E+02  0.31333851840E+03  0.00000000000E+00 0. -1.
         -4    1    6    6    0  503 -0.22948926212E+02 -0.23764709512E+02  0.16546182341E+02  0.36948488230E+02  0.00000000000E+00 0.  1.
<mgrwt>
<rscale>  0 0.13291326E+04</rscale>
<asrwt>0</asrwt>
<pdfrwt beam="1">  1        2 0.12618398E+00 0.13291326E+04</pdfrwt>
<pdfrwt beam="2">  1       -1 0.82841073E-01 0.13291326E+04</pdfrwt>
<totfact> 0.53871440E+01</totfact>
</mgrwt>
</event>
<event>
12    7  0.1740517E-007  0.2392807E+04  0.7818608E-02  0.8442201E-01
         -1   -1    0    0    0  501 -0.00000000000E+00  0.00000000000E+00  0.91149045587E+03  0.91149045587E+03  0.00000000000E+00 0.  1.
          2   -1    0    0  501    0  0.00000000000E+00 -0.00000000000E+00 -0.15703751066E+04  0.15703751066E+04  0.00000000000E+00 0. -1.
         24    2    1    2    0    0 -0.70734545268E+02 -0.54116406652E+03  0.61672839834E+03  0.82753941694E+03  0.81275128251E+02 0.  0.
        254    2    1    2    0    0  0.70734545268E+02  0.54116406652E+03 -0.12756130490E+04  0.16543261455E+04  0.90096860213E+03 0.  0.
         23    2    4    4    0    0  0.21992276548E+03  0.59167331783E+03 -0.13209482500E+04  0.14669631967E+04  0.92916110934E+02 0.  0.
         23    2    4    4    0    0 -0.14918822021E+03 -0.50509251313E+02  0.45335200914E+02  0.18736294878E+03  0.90781521323E+02 0.  0.
          2    1    3    3  502    0  0.10644023396E+02 -0.20135763218E+03  0.24641658142E+03  0.31840119797E+03  0.00000000000E+00 0. -1.
         -1    1    3    3    0  502 -0.81378568663E+02 -0.33980643434E+03  0.37031181692E+03  0.50913821896E+03  0.00000000000E+00 0.  1.
         13    1    5    5    0    0  0.11223874719E+01  0.65088050381E+01 -0.10583948540E+01  0.66891327038E+01  0.00000000000E+00 0.  1.
        -13    1    5    5    0    0  0.21880037801E+03  0.58516451280E+03 -0.13198898551E+04  0.14602740640E+04  0.00000000000E+00 0. -1.
          3    1    6    6  503    0 -0.85736307023E+02  0.13773895522E+02  0.43260286763E+02  0.97014880048E+02  0.00000000000E+00 0. -1.
         -3    1    6    6    0  503 -0.63451913189E+02 -0.64283146834E+02  0.20749141518E+01  0.90348068729E+02  0.00000000000E+00 0.  1.
<mgrwt>
<rscale>  0 0.23928075E+04</rscale>
<asrwt>0</asrwt>
<pdfrwt beam="1">  1        2 0.24159617E+00 0.23928075E+04</pdfrwt>
<pdfrwt beam="2">  1       -1 0.14022930E+00 0.23928075E+04</pdfrwt>
<totfact> 0.49556982E+00</totfact>
</mgrwt>
</event>
<event>
12    7  0.1740517E-007  0.1378787E+04  0.7818608E-02  0.8969319E-01
         -1   -1    0    0    0  501 -0.00000000000E+00  0.00000000000E+00  0.27377080305E+03  0.27377080305E+03  0.00000000000E+00 0.  1.
          2   -1    0    0  501    0  0.00000000000E+00 -0.00000000000E+00 -0.17359888903E+04  0.17359888903E+04  0.00000000000E+00 0. -1.
         24    2    1    2    0    0  0.16502669978E+03 -0.65651314976E+01  0.97015160800E+02  0.20734096686E+03  0.79381499889E+02 0.  0.
        254    2    1    2    0    0 -0.16502669978E+03  0.65651314976E+01 -0.15592332481E+04  0.18024187265E+04  0.88894771005E+03 0.  0.
         23    2    4    4    0    0 -0.84126250891E+02 -0.41159872237E+03 -0.51630988932E+03  0.67194415627E+03  0.91882060195E+02 0.  0.
         23    2    4    4    0    0 -0.80900448886E+02  0.41816385387E+03 -0.10429233588E+04  0.11304745702E+04  0.94221708897E+02 0.  0.
          2    1    3    3  502    0  0.87245233664E+02 -0.35095086656E+02  0.24350497041E+02  0.97140839046E+02  0.00000000000E+00 0. -1.
         -1    1    3    3    0  502  0.77781466113E+02  0.28529955159E+02  0.72664663759E+02  0.11020012782E+03  0.00000000000E+00 0.  1.
         13    1    5    5    0    0  0.16532486251E+02 -0.42706433589E+02 -0.76429684369E+02  0.89099153892E+02  0.00000000000E+00 0. -1.
        -13    1    5    5    0    0 -0.10065873714E+03 -0.36889228878E+03 -0.43988020495E+03  0.58284500238E+03  0.00000000000E+00 0.  1.
          4    1    6    6  503    0 -0.25200921928E+02  0.11967090152E+03 -0.19886234953E+03  0.23345758758E+03  0.00000000000E+00 0. -1.
         -4    1    6    6    0  503 -0.55699526958E+02  0.29849295235E+03 -0.84406100922E+03  0.89701698267E+03  0.00000000000E+00 0.  1.
<mgrwt>
<rscale>  0 0.13787865E+04</rscale>
<asrwt>0</asrwt>
<pdfrwt beam="1">  1        2 0.26707521E+00 0.13787865E+04</pdfrwt>
<pdfrwt beam="2">  1       -1 0.42118586E-01 0.13787865E+04</pdfrwt>
<totfact> 0.57603067E+01</totfact>
</mgrwt>
</event>
<event>
12    7  0.1740517E-007  0.1693475E+04  0.7818608E-02  0.8765095E-01
         -1   -1    0    0    0  501 -0.00000000000E+00  0.00000000000E+00  0.47678483784E+03  0.47678483784E+03  0.00000000000E+00 0.  1.
          2   -1    0    0  501    0  0.00000000000E+00 -0.00000000000E+00 -0.15037475901E+04  0.15037475901E+04  0.00000000000E+00 0. -1.
         24    2    1    2    0    0  0.45211901477E+03  0.40089094268E+03 -0.31560400754E+03  0.68641591785E+03  0.80223258907E+02 0.  0.
        254    2    1    2    0    0 -0.45211901477E+03 -0.40089094268E+03 -0.71135874472E+03  0.12941165101E+04  0.89642686626E+03 0.  0.
         23    2    4    4    0    0  0.12095854082E+02  0.25164698921E+03 -0.11669865195E+03  0.29211478785E+03  0.90774209157E+02 0.  0.
         23    2    4    4    0    0 -0.46421486885E+03 -0.65253793189E+03 -0.59466009278E+03  0.10020017222E+04  0.95318562802E+02 0.  0.
          4    1    3    3  502    0  0.54845838453E+01  0.20941010991E+02 -0.21111831429E+02  0.30237659096E+02  0.00000000000E+00 0. -1.
         -3    1    3    3    0  502  0.44663443092E+03  0.37994993169E+03 -0.29449217611E+03  0.65617825875E+03  0.00000000000E+00 0.  1.
         13    1    5    5    0    0 -0.86379625436E+01  0.24036408548E+03 -0.11909243709E+03  0.26838874149E+03  0.00000000000E+00 0.  1.
        -13    1    5    5    0    0  0.20733816626E+02  0.11282903727E+02  0.23937851420E+01  0.23726046356E+02  0.00000000000E+00 0. -1.
          4    1    6    6  503    0 -0.11926101107E+03 -0.14712044902E+03 -0.19075911345E+03  0.26880597956E+03  0.00000000000E+00 0. -1.
         -4    1    6    6    0  503 -0.34495385778E+03 -0.50541748287E+03 -0.40390097933E+03  0.73319574268E+03  0.00000000000E+00 0.  1.
<mgrwt>
<rscale>  0 0.16934746E+04</rscale>
<asrwt>0</asrwt>
<pdfrwt beam="1">  1        2 0.23134578E+00 0.16934746E+04</pdfrwt>
<pdfrwt beam="2">  1       -1 0.73351514E-01 0.16934746E+04</pdfrwt>
<totfact> 0.25664966E+01</totfact>
</mgrwt>
</event>
<event>
12    7  0.1740517E-007  0.1367335E+04  0.7818608E-02  0.8977808E-01
          2   -1    0    0  501    0  0.00000000000E+00  0.00000000000E+00  0.12571416339E+04  0.12571416339E+04  0.00000000000E+00 0. -1.
         -1   -1    0    0    0  501 -0.00000000000E+00 -0.00000000000E+00 -0.37179694106E+03  0.37179694106E+03  0.00000000000E+00 0.  1.
         24    2    1    2    0    0  0.11386587663E+03 -0.34396757762E+03  0.25959567054E+03  0.45269687737E+03  0.79154395350E+02 0.  0.
        254    2    1    2    0    0 -0.11386587663E+03  0.34396757762E+03  0.62574902232E+03  0.11762416976E+04  0.92774110610E+03 0.  0.
         23    2    4    4    0    0  0.24131748797E+02 -0.20092758791E+03  0.55988889990E+03  0.60241090760E+03  0.92027628920E+02 0.  0.
         23    2    4    4    0    0 -0.13799762543E+03  0.54489516552E+03  0.65860122424E+02  0.57383079001E+03  0.94816316095E+02 0.  0.
          2    1    3    3  502    0 -0.94076834974E+01 -0.23287666323E+02  0.31616335689E+02  0.40378367896E+02  0.00000000000E+00 0. -1.
         -1    1    3    3    0  502  0.12327356013E+03 -0.32067991129E+03  0.22797933486E+03  0.41231850947E+03  0.00000000000E+00 0.  1.
         13    1    5    5    0    0  0.32438175189E+02 -0.55163867768E+02  0.90501341619E+02  0.11084123940E+03  0.00000000000E+00 0.  1.
        -13    1    5    5    0    0 -0.83064263922E+01 -0.14576372014E+03  0.46938755828E+03  0.49156966820E+03  0.00000000000E+00 0. -1.
          3    1    6    6  503    0 -0.90766537246E+02  0.48272311096E+03  0.46432094635E+02  0.49337217752E+03  0.00000000000E+00 0. -1.
         -3    1    6    6    0  503 -0.47231088181E+02  0.62172054567E+02  0.19428027789E+02  0.80458612489E+02  0.00000000000E+00 0.  1.
<mgrwt>
<rscale>  0 0.13673352E+04</rscale>
<asrwt>0</asrwt>
<pdfrwt beam="1">  1        2 0.19340640E+00 0.13673352E+04</pdfrwt>
<pdfrwt beam="2">  1       -1 0.57199530E-01 0.13673352E+04</pdfrwt>
<totfact> 0.60290203E+01</totfact>
</mgrwt>
</event>
<event>
12    7  0.1740517E-007  0.1784180E+04  0.7818608E-02  0.8714758E-01
         -1   -1    0    0    0  501 -0.00000000000E+00  0.00000000000E+00  0.26762382978E+03  0.26762382978E+03  0.00000000000E+00 0.  1.
          2   -1    0    0  501    0  0.00000000000E+00 -0.00000000000E+00 -0.29736689645E+04  0.29736689645E+04  0.00000000000E+00 0. -1.
         24    2    1    2    0    0 -0.66856735542E+01 -0.60018257996E+02 -0.21939867778E+04  0.21962040016E+04  0.78020163567E+02 0.  0.
        254    2    1    2    0    0  0.66856735542E+01  0.60018257996E+02 -0.51205835687E+03  0.10450887926E+04  0.90904341709E+03 0.  0.
         23    2    4    4    0    0 -0.28847586123E+03  0.20563916184E+03  0.67976354001E+02  0.37211783610E+03  0.91351583716E+02 0.  0.
         23    2    4    4    0    0  0.29516153478E+03 -0.14562090384E+03 -0.58003471087E+03  0.67297095655E+03  0.90132476351E+02 0.  0.
          2    1    3    3  502    0 -0.14836436077E+02 -0.13824986271E+02 -0.16696820238E+04  0.16698051715E+04  0.00000000000E+00 0. -1.
         -1    1    3    3    0  502  0.81507625232E+01 -0.46193271725E+02 -0.52430475402E+03  0.52639883014E+03  0.00000000000E+00 0.  1.
         13    1    5    5    0    0 -0.25800647191E+03  0.21290254424E+03  0.60901469655E+02  0.34000562039E+03  0.00000000000E+00 0. -1.
        -13    1    5    5    0    0 -0.30469389316E+02 -0.72633824002E+01  0.70748843453E+01  0.32112215709E+02  0.00000000000E+00 0.  1.
          4    1    6    6  503    0  0.18491349419E+02 -0.35745628911E+02 -0.42646273609E+02  0.58637740767E+02  0.00000000000E+00 0. -1.
         -4    1    6    6    0  503  0.27667018536E+03 -0.10987527493E+03 -0.53738843727E+03  0.61433321578E+03  0.00000000000E+00 0.  1.
<mgrwt>
<rscale>  0 0.17841801E+04</rscale>
<asrwt>0</asrwt>
<pdfrwt beam="1">  1        2 0.45748752E+00 0.17841801E+04</pdfrwt>
<pdfrwt beam="2">  1       -1 0.41172898E-01 0.17841801E+04</pdfrwt>
<totfact> 0.11284369E+01</totfact>
</mgrwt>
</event>
<event>
12    7  0.1740517E-007  0.1257149E+04  0.7818608E-02  0.9064254E-01
          2   -1    0    0  501    0  0.00000000000E+00  0.00000000000E+00  0.87208950691E+03  0.87208950691E+03  0.00000000000E+00 0. -1.
         -1   -1    0    0    0  501 -0.00000000000E+00 -0.00000000000E+00 -0.45305629141E+03  0.45305629141E+03  0.00000000000E+00 0.  1.
         24    2    1    2    0    0 -0.10670334296E+03 -0.14372346771E+03  0.35967395604E+03  0.40928412741E+03  0.78141562106E+02 0.  0.
        254    2    1    2    0    0  0.10670334296E+03  0.14372346771E+03  0.59359259468E+02  0.91586167090E+03  0.89623492455E+03 0.  0.
         23    2    4    4    0    0 -0.24032924665E+03 -0.18008134765E+03 -0.19543556375E+03  0.36935262357E+03  0.89659703290E+02 0.  0.
         23    2    4    4    0    0  0.34703258962E+03  0.32380481536E+03  0.25479482322E+03  0.54650904733E+03  0.92035646191E+02 0.  0.
          2    1    3    3  502    0 -0.10361951492E+03 -0.14579400545E+03  0.36275686621E+03  0.40445696913E+03  0.00000000000E+00 0. -1.
         -1    1    3    3    0  502 -0.30838280469E+01  0.20705377324E+01 -0.30829101737E+01  0.48271582803E+01  0.00000000000E+00 0.  1.
         13    1    5    5    0    0 -0.20436222376E+03 -0.11163424001E+03 -0.16865326920E+03  0.28752399422E+03  0.00000000000E+00 0. -1.
        -13    1    5    5    0    0 -0.35967022896E+02 -0.68447107638E+02 -0.26782294549E+02  0.81828629350E+02  0.00000000000E+00 0.  1.
          1    1    6    6  503    0  0.28317687139E+03  0.26350852648E+03  0.16386810619E+03  0.42009360890E+03  0.00000000000E+00 0. -1.
         -1    1    6    6    0  503  0.63855718229E+02  0.60296288882E+02  0.90926717027E+02  0.12641543843E+03  0.00000000000E+00 0.  1.
<mgrwt>
<rscale>  0 0.12571486E+04</rscale>
<asrwt>0</asrwt>
<pdfrwt beam="1">  1        2 0.13416762E+00 0.12571486E+04</pdfrwt>
<pdfrwt beam="2">  1       -1 0.69700968E-01 0.12571486E+04</pdfrwt>
<totfact> 0.71567583E+01</totfact>
</mgrwt>
</event>
<event>
12    7  0.1740517E-007  0.2610406E+04  0.7818608E-02  0.8364675E-01
         -1   -1    0    0    0  501 -0.00000000000E+00  0.00000000000E+00  0.16445046733E+04  0.16445046733E+04  0.00000000000E+00 0.  1.
          2   -1    0    0  501    0  0.00000000000E+00 -0.00000000000E+00 -0.10359075142E+04  0.10359075142E+04  0.00000000000E+00 0. -1.
         24    2    1    2    0    0 -0.36941594714E+03  0.26060869010E+03 -0.77525614794E+03  0.90060411925E+03  0.75370109070E+02 0.  0.
        254    2    1    2    0    0  0.36941594714E+03 -0.26060869010E+03  0.13838533070E+04  0.17798080682E+04  0.10238563146E+04 0.  0.
         23    2    4    4    0    0  0.51769007953E+03  0.22777844431E+03  0.52665148586E+03  0.77849753002E+03  0.93864682166E+02 0.  0.
         23    2    4    4    0    0 -0.14827413238E+03 -0.48838713441E+03  0.85720182117E+03  0.10013105382E+04  0.85560623159E+02 0.  0.
          2    1    3    3  502    0 -0.31604289850E+03  0.22561058751E+03 -0.71046545655E+03  0.80965697418E+03  0.00000000000E+00 0. -1.
         -1    1    3    3    0  502 -0.53373048641E+02  0.34998102591E+02 -0.64790691388E+02  0.90947145072E+02  0.00000000000E+00 0.  1.
         13    1    5    5    0    0  0.46974284146E+03  0.19828115366E+03  0.43157448573E+03  0.66800470787E+03  0.00000000000E+00 0. -1.
        -13    1    5    5    0    0  0.47947238065E+02  0.29497290652E+02  0.95077000126E+02  0.11049282215E+03  0.00000000000E+00 0.  1.
          2    1    6    6  503    0 -0.87745502431E+02 -0.22065531299E+03  0.32519397213E+03  0.40266507157E+03  0.00000000000E+00 0.  1.
         -2    1    6    6    0  503 -0.60528629952E+02 -0.26773182142E+03  0.53200784904E+03  0.59864546660E+03  0.00000000000E+00 0. -1.
<mgrwt>
<rscale>  0 0.26104059E+04</rscale>
<asrwt>0</asrwt>
<pdfrwt beam="1">  1        2 0.15937039E+00 0.26104059E+04</pdfrwt>
<pdfrwt beam="2">  1       -1 0.25300072E+00 0.26104059E+04</pdfrwt>
<totfact> 0.16041041E+00</totfact>
</mgrwt>
</event>
<event>
12    7  0.1740517E-007  0.3681193E+04  0.7818608E-02  0.8072143E-01
          2   -1    0    0  501    0  0.00000000000E+00  0.00000000000E+00  0.29958075998E+04  0.29958075998E+04  0.00000000000E+00 0. -1.
         -1   -1    0    0    0  501 -0.00000000000E+00 -0.00000000000E+00 -0.11308454558E+04  0.11308454558E+04  0.00000000000E+00 0.  1.
         24    2    1    2    0    0  0.78009969578E+03  0.15163200472E+04  0.70444292983E+03  0.18466496138E+04  0.78057247367E+02 0.  0.
        254    2    1    2    0    0 -0.78009969578E+03 -0.15163200472E+04  0.11605192142E+04  0.22800034418E+04  0.97150853183E+03 0.  0.
         23    2    4    4    0    0 -0.26961930730E+03  0.52448326255E+02  0.30157717900E+03  0.41782489323E+03  0.90462416035E+02 0.  0.
         23    2    4    4    0    0 -0.51048038848E+03 -0.15687683734E+04  0.85894203522E+03  0.18621785486E+04  0.91121295876E+02 0.  0.
          4    1    3    3  502    0  0.49173882190E+03  0.95536791513E+03  0.40292214682E+03  0.11475544338E+04  0.00000000000E+00 0. -1.
         -3    1    3    3    0  502  0.28836087387E+03  0.56095213203E+03  0.30152078301E+03  0.69909517993E+03  0.00000000000E+00 0.  1.
         13    1    5    5    0    0 -0.95376645746E+01  0.34746364390E+01  0.55582983029E+02  0.56502284434E+02  0.00000000000E+00 0.  1.
        -13    1    5    5    0    0 -0.26008164272E+03  0.48973689816E+02  0.24599419597E+03  0.36132260879E+03  0.00000000000E+00 0. -1.
          1    1    6    6  503    0 -0.26170578106E+03 -0.87937281719E+03  0.52118497164E+03  0.10551873019E+04  0.00000000000E+00 0. -1.
         -1    1    6    6    0  503 -0.24877460742E+03 -0.68939555623E+03  0.33775706359E+03  0.80699124670E+03  0.00000000000E+00 0.  1.
<mgrwt>
<rscale>  0 0.36811930E+04</rscale>
<asrwt>0</asrwt>
<pdfrwt beam="1">  1        2 0.46089347E+00 0.36811930E+04</pdfrwt>
<pdfrwt beam="2">  1       -1 0.17397622E+00 0.36811930E+04</pdfrwt>
<totfact> 0.37035982E-01</totfact>
</mgrwt>
</event>
<event>
12    7  0.1740517E-007  0.2076287E+04  0.7818608E-02  0.8571762E-01
          2   -1    0    0  501    0  0.00000000000E+00  0.00000000000E+00  0.15786429829E+04  0.15786429829E+04  0.00000000000E+00 0. -1.
         -1   -1    0    0    0  501 -0.00000000000E+00 -0.00000000000E+00 -0.68270147144E+03  0.68270147144E+03  0.00000000000E+00 0.  1.
         24    2    1    2    0    0  0.74249291918E+03  0.36957815599E+03  0.21399971459E+03  0.86025540941E+03  0.79747997866E+02 0.  0.
        254    2    1    2    0    0 -0.74249291918E+03 -0.36957815599E+03  0.68194179687E+03  0.14010890449E+04  0.90006785803E+03 0.  0.
         23    2    4    4    0    0 -0.91501596200E+02 -0.36036898351E+03 -0.84022108341E+02  0.39180635473E+03  0.90631995047E+02 0.  0.
         23    2    4    4    0    0 -0.65099132298E+03 -0.92091724748E+01  0.76596390521E+03  0.10092826902E+04  0.89868421505E+02 0.  0.
          2    1    3    3  502    0  0.58427363564E+02  0.54286353866E+02  0.14601140984E+02  0.81079950340E+02  0.00000000000E+00 0. -1.
         -1    1    3    3    0  502  0.68406555562E+03  0.31529180212E+03  0.19939857360E+03  0.77917545907E+03  0.00000000000E+00 0.  1.
         13    1    5    5    0    0 -0.38406308931E+02 -0.38077887617E+02  0.17004561074E+01  0.54109718555E+02  0.00000000000E+00 0.  1.
        -13    1    5    5    0    0 -0.53095287269E+02 -0.32229109590E+03 -0.85722564448E+02  0.33769663617E+03  0.00000000000E+00 0. -1.
          4    1    6    6  503    0 -0.63677580764E+03 -0.19447498522E+02  0.75763448481E+03  0.98988466347E+03  0.00000000000E+00 0. -1.
         -4    1    6    6    0  503 -0.14215515342E+02  0.10238326047E+02  0.83294204012E+01  0.19398026727E+02  0.00000000000E+00 0.  1.
<mgrwt>
<rscale>  0 0.20762870E+04</rscale>
<asrwt>0</asrwt>
<pdfrwt beam="1">  1        2 0.24286815E+00 0.20762870E+04</pdfrwt>
<pdfrwt beam="2">  1       -1 0.10503100E+00 0.20762870E+04</pdfrwt>
<totfact> 0.10258092E+01</totfact>
</mgrwt>
</event>
<event>
12    7  0.1740517E-007  0.1337303E+04  0.7818608E-02  0.9000496E-01
          2   -1    0    0  501    0  0.00000000000E+00  0.00000000000E+00  0.48761343418E+03  0.48761343418E+03  0.00000000000E+00 0. -1.
         -1   -1    0    0    0  501 -0.00000000000E+00 -0.00000000000E+00 -0.91690365291E+03  0.91690365291E+03  0.00000000000E+00 0.  1.
         24    2    1    2    0    0 -0.11094343730E+03  0.15728237390E+03  0.19892619711E+03  0.28798167916E+03  0.79470901678E+02 0.  0.
        254    2    1    2    0    0  0.11094343730E+03 -0.15728237390E+03 -0.62821641585E+03  0.11165354079E+04  0.90274540188E+03 0.  0.
         23    2    4    4    0    0  0.43342342547E+03 -0.15312305151E+03 -0.62538443022E+03  0.78160718247E+03  0.92203944998E+02 0.  0.
         23    2    4    4    0    0 -0.32247998817E+03 -0.41593223895E+01 -0.28319856213E+01  0.33492822547E+03  0.90323049886E+02 0.  0.
          2    1    3    3  502    0 -0.10141273923E+03  0.82951128691E+02  0.14641214924E+03  0.19647379183E+03  0.00000000000E+00 0. -1.
         -1    1    3    3    0  502 -0.95306980720E+01  0.74331245208E+02  0.52514047863E+02  0.91507887326E+02  0.00000000000E+00 0.  1.
         13    1    5    5    0    0  0.85077893467E+02 -0.32853089465E+02 -0.69512233871E+02  0.11467137438E+03  0.00000000000E+00 0. -1.
        -13    1    5    5    0    0  0.34834553200E+03 -0.12026996204E+03 -0.55587219635E+03  0.66693580809E+03  0.00000000000E+00 0.  1.
          4    1    6    6  503    0 -0.14370558112E+03  0.42443861755E+02  0.60656395433E+01  0.14996522073E+03  0.00000000000E+00 0. -1.
         -4    1    6    6    0  503 -0.17877440705E+03 -0.46603184144E+02 -0.88976251646E+01  0.18496300474E+03  0.00000000000E+00 0.  1.
<mgrwt>
<rscale>  0 0.13373026E+04</rscale>
<asrwt>0</asrwt>
<pdfrwt beam="1">  1        2 0.75017452E-01 0.13373026E+04</pdfrwt>
<pdfrwt beam="2">  1       -1 0.14106210E+00 0.13373026E+04</pdfrwt>
<totfact> 0.29133715E+01</totfact>
</mgrwt>
</event>
<event>
12    7  0.1740517E-007  0.2733410E+04  0.7818608E-02  0.8324245E-01
         -1   -1    0    0    0  501 -0.00000000000E+00  0.00000000000E+00  0.62910746605E+03  0.62910746605E+03  0.00000000000E+00 0.  1.
          2   -1    0    0  501    0  0.00000000000E+00 -0.00000000000E+00 -0.29690982976E+04  0.29690982976E+04  0.00000000000E+00 0. -1.
         24    2    1    2    0    0  0.72626895215E+03  0.96977357427E+03 -0.11888024325E+04  0.16992665810E+04  0.79550699542E+02 0.  0.
        254    2    1    2    0    0 -0.72626895215E+03 -0.96977357427E+03 -0.11511883991E+04  0.18989391826E+04  0.90155860198E+03 0.  0.
         23    2    4    4    0    0 -0.85624667345E+02 -0.80040058332E+03 -0.43710619838E+03  0.92042127353E+03  0.90226463192E+02 0.  0.
         23    2    4    4    0    0 -0.64064428481E+03 -0.16937299095E+03 -0.71408220070E+03  0.97851790907E+03  0.92041291203E+02 0.  0.
          2    1    3    3  502    0  0.66927621734E+03  0.92086644409E+03 -0.11285710439E+04  0.16029966513E+04  0.00000000000E+00 0. -1.
         -1    1    3    3    0  502  0.56992734814E+02  0.48907130184E+02 -0.60231388548E+02  0.96269929733E+02  0.00000000000E+00 0.  1.
         13    1    5    5    0    0 -0.42850006676E+02 -0.64908044760E+03 -0.37854838081E+03  0.75262236689E+03  0.00000000000E+00 0.  1.
        -13    1    5    5    0    0 -0.42774660669E+02 -0.15132013572E+03 -0.58557817567E+02  0.16779890664E+03  0.00000000000E+00 0. -1.
          4    1    6    6  503    0 -0.12992086415E+03 -0.65075072745E+02 -0.12256191972E+03  0.19009371425E+03  0.00000000000E+00 0. -1.
         -4    1    6    6    0  503 -0.51072342066E+03 -0.10429791820E+03 -0.59152028099E+03  0.78842419481E+03  0.00000000000E+00 0.  1.
<mgrwt>
<rscale>  0 0.27334095E+04</rscale>
<asrwt>0</asrwt>
<pdfrwt beam="1">  1        2 0.45678435E+00 0.27334095E+04</pdfrwt>
<pdfrwt beam="2">  1       -1 0.96785765E-01 0.27334095E+04</pdfrwt>
<totfact> 0.18581212E+00</totfact>
</mgrwt>
</event>
<event>
12    7  0.1740517E-007  0.2346800E+04  0.7818608E-02  0.8459694E-01
          2   -1    0    0  501    0  0.00000000000E+00  0.00000000000E+00  0.13491652232E+04  0.13491652232E+04  0.00000000000E+00 0. -1.
         -1   -1    0    0    0  501 -0.00000000000E+00 -0.00000000000E+00 -0.10205327806E+04  0.10205327806E+04  0.00000000000E+00 0.  1.
         24    2    1    2    0    0  0.76794865773E+02  0.99429505552E+03  0.17031271579E+03  0.10145010070E+04  0.75404000382E+02 0.  0.
        254    2    1    2    0    0 -0.76794865773E+02 -0.99429505552E+03  0.15831972683E+03  0.13551969967E+04  0.90386594978E+03 0.  0.
         23    2    4    4    0    0 -0.44991279441E+03 -0.31390640330E+03  0.14100499497E+03  0.57365611782E+03  0.90775438888E+02 0.  0.
         23    2    4    4    0    0  0.37311792863E+03 -0.68038865222E+03  0.17314731861E+02  0.78154087890E+03  0.91436528363E+02 0.  0.
          4    1    3    3  502    0  0.22332192087E+02  0.33408362693E+03  0.93301924426E+02  0.34758573861E+03  0.00000000000E+00 0. -1.
         -3    1    3    3    0  502  0.54462673686E+02  0.66021142859E+03  0.77010791361E+02  0.66691526842E+03  0.00000000000E+00 0.  1.
         13    1    5    5    0    0 -0.12843562706E+03 -0.14211005003E+03  0.47317021770E+02  0.19730655632E+03  0.00000000000E+00 0. -1.
        -13    1    5    5    0    0 -0.32147716734E+03 -0.17179635328E+03  0.93687973201E+02  0.37634956151E+03  0.00000000000E+00 0.  1.
          2    1    6    6  503    0  0.19294951728E+03 -0.26299575079E+03  0.21651529543E+02  0.32690223291E+03  0.00000000000E+00 0. -1.
         -2    1    6    6    0  503  0.18016841135E+03 -0.41739290142E+03 -0.43367976815E+01  0.45463864598E+03  0.00000000000E+00 0.  1.
<mgrwt>
<rscale>  0 0.23467998E+04</rscale>
<asrwt>0</asrwt>
<pdfrwt beam="1">  1        2 0.20756388E+00 0.23467998E+04</pdfrwt>
<pdfrwt beam="2">  1       -1 0.15700504E+00 0.23467998E+04</pdfrwt>
<totfact> 0.49068458E+00</totfact>
</mgrwt>
</event>
<event>
12    7  0.1740517E-007  0.1484036E+04  0.7818608E-02  0.8895139E-01
          2   -1    0    0  501    0  0.00000000000E+00  0.00000000000E+00  0.28788749199E+04  0.28788749199E+04  0.00000000000E+00 0. -1.
         -1   -1    0    0    0  501 -0.00000000000E+00 -0.00000000000E+00 -0.19125198588E+03  0.19125198588E+03  0.00000000000E+00 0.  1.
         24    2    1    2    0    0 -0.14904807656E+03 -0.42268268293E+03  0.10901607116E+04  0.11813182120E+04  0.78653426052E+02 0.  0.
        254    2    1    2    0    0  0.14904807656E+03  0.42268268293E+03  0.15974622224E+04  0.18888086937E+04  0.90268308385E+03 0.  0.
         23    2    4    4    0    0 -0.31859050739E+02  0.87923495124E+02  0.14718837256E+04  0.14776802871E+04  0.91388123730E+02 0.  0.
         23    2    4    4    0    0  0.18090712730E+03  0.33475918781E+03  0.12557849679E+03  0.41112840658E+03  0.92008180677E+02 0.  0.
          4    1    3    3  502    0 -0.39317193418E+02 -0.19029185664E+03  0.54541253755E+03  0.57899194167E+03  0.00000000000E+00 0. -1.
         -3    1    3    3    0  502 -0.10973088314E+03 -0.23239082630E+03  0.54474817403E+03  0.60232627037E+03  0.00000000000E+00 0.  1.
         13    1    5    5    0    0 -0.64030348518E+02  0.57157645023E+02  0.91215833064E+03  0.91618759110E+03  0.00000000000E+00 0. -1.
        -13    1    5    5    0    0  0.32171297779E+02  0.30765850100E+02  0.55972539496E+03  0.56149269603E+03  0.00000000000E+00 0.  1.
          1    1    6    6  503    0  0.14216698054E+03  0.30076202673E+03  0.13447978550E+03  0.35882315949E+03  0.00000000000E+00 0. -1.
         -1    1    6    6    0  503  0.38740146759E+02  0.33997161082E+02 -0.89012887132E+01  0.52305247092E+02  0.00000000000E+00 0.  1.
<mgrwt>
<rscale>  0 0.14840358E+04</rscale>
<asrwt>0</asrwt>
<pdfrwt beam="1">  1        2 0.44290380E+00 0.14840358E+04</pdfrwt>
<pdfrwt beam="2">  1       -1 0.29423385E-01 0.14840358E+04</pdfrwt>
<totfact> 0.24226502E+01</totfact>
</mgrwt>
</event>
<event>
12    7  0.2424121E-007  0.1361267E+04  0.7818608E-02  0.8982342E-01
          2   -1    0    0  501    0  0.00000000000E+00  0.00000000000E+00  0.14641888612E+04  0.14641888612E+04  0.00000000000E+00 0. -1.
         -1   -1    0    0    0  501 -0.00000000000E+00 -0.00000000000E+00 -0.31639510253E+03  0.31639510253E+03  0.00000000000E+00 0.  1.
         24    2    1    2    0    0 -0.97859552658E+02  0.25006138374E+03  0.67505986887E+03  0.73087316999E+03  0.79765759343E+02 0.  0.
        254    2    1    2    0    0  0.97859552658E+02 -0.25006138374E+03  0.47273388982E+03  0.10497107938E+04  0.89794667563E+03 0.  0.
         23    2    4    4    0    0 -0.12277648264E+03 -0.11747269098E+03  0.67974484542E+03  0.70710863580E+03  0.95266311591E+02 0.  0.
         23    2    4    4    0    0  0.22063603530E+03 -0.13258869276E+03 -0.20701095560E+03  0.34260215797E+03  0.90899292570E+02 0.  0.
          2    1    3    3  502    0 -0.11025634626E+03  0.23372738621E+03  0.64075918755E+03  0.69091047856E+03  0.00000000000E+00 0. -1.
         -1    1    3    3    0  502  0.12396793606E+02  0.16333997525E+02  0.34300681324E+02  0.39962691428E+02  0.00000000000E+00 0.  1.
         13    1    5    5    0    0 -0.10651006679E+03 -0.78029306997E+02  0.61869952514E+03  0.63263106902E+03  0.00000000000E+00 0. -1.
        -13    1    5    5    0    0 -0.16266415852E+02 -0.39443383987E+02  0.61045320281E+02  0.74477566778E+02  0.00000000000E+00 0.  1.
          1    1    6    6  503    0  0.21124613517E+03 -0.10248815063E+03 -0.20380162499E+03  0.31090811021E+03  0.00000000000E+00 0. -1.
         -1    1    6    6    0  503  0.93899001272E+01 -0.30100542127E+02 -0.32093306091E+01  0.31694047764E+02  0.00000000000E+00 0.  1.
<mgrwt>
<rscale>  0 0.13612673E+04</rscale>
<asrwt>0</asrwt>
<pdfrwt beam="1">  1        2 0.22525982E+00 0.13612673E+04</pdfrwt>
<pdfrwt beam="2">  1       -1 0.48676170E-01 0.13612673E+04</pdfrwt>
<totfact> 0.62475484E+01</totfact>
</mgrwt>
</event>
<event>
12    7  0.1740517E-007  0.1238978E+04  0.7818608E-02  0.9079407E-01
         -1   -1    0    0    0  501 -0.00000000000E+00  0.00000000000E+00  0.76282857398E+03  0.76282857398E+03  0.00000000000E+00 0.  1.
          2   -1    0    0  501    0  0.00000000000E+00 -0.00000000000E+00 -0.50308346007E+03  0.50308346007E+03  0.00000000000E+00 0. -1.
         24    2    1    2    0    0  0.11961352818E+03 -0.62577534895E+02  0.31598045807E+03  0.35242338943E+03  0.78327846501E+02 0.  0.
        254    2    1    2    0    0 -0.11961352818E+03  0.62577534895E+02 -0.56235344153E+02  0.91348864463E+03  0.90170712869E+03 0.  0.
         23    2    4    4    0    0 -0.46132487706E+03  0.22444079230E+03 -0.52985534713E+02  0.52454504385E+03  0.95633282357E+02 0.  0.
         23    2    4    4    0    0  0.34171134888E+03 -0.16186325740E+03 -0.32498094397E+01  0.38894360078E+03  0.91105451397E+02 0.  0.
          4    1    3    3  502    0  0.35636250035E+02  0.77421094616E+01  0.14383856587E+03  0.14838940530E+03  0.00000000000E+00 0. -1.
         -3    1    3    3    0  502  0.83977278146E+02 -0.70319644357E+02  0.17214189220E+03  0.20403398412E+03  0.00000000000E+00 0.  1.
         13    1    5    5    0    0 -0.83160556242E+02  0.75866936323E+02 -0.34843111436E+02  0.11783680476E+03  0.00000000000E+00 0.  1.
        -13    1    5    5    0    0 -0.37816432082E+03  0.14857385597E+03 -0.18142423277E+02  0.40670823909E+03  0.00000000000E+00 0. -1.
          1    1    6    6  503    0  0.32584143082E+03 -0.17326968701E+03 -0.66510463598E+01  0.36910602663E+03  0.00000000000E+00 0. -1.
         -1    1    6    6    0  503  0.15869918059E+02  0.11406429606E+02  0.34012369201E+01  0.19837574149E+02  0.00000000000E+00 0.  1.
<mgrwt>
<rscale>  0 0.12389777E+04</rscale>
<asrwt>0</asrwt>
<pdfrwt beam="1">  1        2 0.77397455E-01 0.12389777E+04</pdfrwt>
<pdfrwt beam="2">  1       -1 0.11735824E+00 0.12389777E+04</pdfrwt>
<totfact> 0.44996666E+01</totfact>
</mgrwt>
</event>
<event>
12    7  0.1740517E-007  0.2198050E+04  0.7818608E-02  0.8519240E-01
          2   -1    0    0  501    0  0.00000000000E+00  0.00000000000E+00  0.99085465535E+03  0.99085465535E+03  0.00000000000E+00 0. -1.
         -1   -1    0    0    0  501 -0.00000000000E+00 -0.00000000000E+00 -0.12190041093E+04  0.12190041093E+04  0.00000000000E+00 0.  1.
         24    2    1    2    0    0 -0.65899174339E+03  0.11442774020E+03  0.53526069177E+03  0.86013752889E+03  0.77257587768E+02 0.  0.
        254    2    1    2    0    0  0.65899174339E+03 -0.11442774020E+03 -0.76341014572E+03  0.13497212358E+04  0.88971261545E+03 0.  0.
         23    2    4    4    0    0  0.37306197727E+03 -0.40173682944E+03 -0.97368142686E+02  0.56455109145E+03  0.93111012399E+02 0.  0.
         23    2    4    4    0    0  0.28592976612E+03  0.28730908925E+03 -0.66604200303E+03  0.78517014431E+03  0.92616746833E+02 0.  0.
          2    1    3    3  502    0 -0.32261297931E+03  0.32972578346E+02  0.29889011147E+03  0.44102338269E+03  0.00000000000E+00 0. -1.
         -1    1    3    3    0  502 -0.33637876408E+03  0.81455161849E+02  0.23637058030E+03  0.41911414620E+03  0.00000000000E+00 0.  1.
         13    1    5    5    0    0  0.31505629808E+03 -0.28115121486E+03 -0.75768650366E+02  0.42900741830E+03  0.00000000000E+00 0. -1.
        -13    1    5    5    0    0  0.58005679191E+02 -0.12058561458E+03 -0.21599492320E+02  0.13554367315E+03  0.00000000000E+00 0.  1.
          1    1    6    6  503    0  0.29175020531E+03  0.28709932716E+03 -0.65043134232E+03  0.76850838449E+03  0.00000000000E+00 0. -1.
         -1    1    6    6    0  503 -0.58204391917E+01  0.20976208953E+00 -0.15610660713E+02  0.16661759823E+02  0.00000000000E+00 0.  1.
<mgrwt>
<rscale>  0 0.21980500E+04</rscale>
<asrwt>0</asrwt>
<pdfrwt beam="1">  1        2 0.15243918E+00 0.21980500E+04</pdfrwt>
<pdfrwt beam="2">  1       -1 0.18753909E+00 0.21980500E+04</pdfrwt>
<totfact> 0.48953989E+00</totfact>
</mgrwt>
</event>
<event>
12    7  0.1740517E-007  0.1287264E+04  0.7818608E-02  0.9039726E-01
          2   -1    0    0  501    0  0.00000000000E+00  0.00000000000E+00  0.45297978435E+03  0.45297978435E+03  0.00000000000E+00 0. -1.
         -1   -1    0    0    0  501 -0.00000000000E+00 -0.00000000000E+00 -0.91452653993E+03  0.91452653993E+03  0.00000000000E+00 0.  1.
         24    2    1    2    0    0  0.95030018518E+02 -0.21184957768E+03 -0.26388015861E+03  0.36065544121E+03  0.80800131095E+02 0.  0.
        254    2    1    2    0    0 -0.95030018518E+02  0.21184957768E+03 -0.19766659697E+03  0.10068508831E+04  0.95956535431E+03 0.  0.
         23    2    4    4    0    0  0.15230789014E+03 -0.27063783170E+03  0.14925803233E+03  0.35645045068E+03  0.91304075660E+02 0.  0.
         23    2    4    4    0    0 -0.24733790866E+03  0.48248740938E+03 -0.34692462929E+03  0.65040043238E+03  0.93240992943E+02 0.  0.
          2    1    3    3  502    0  0.19203192667E+01 -0.37501867328E+02 -0.99101471275E+01  0.38836692640E+02  0.00000000000E+00 0. -1.
         -1    1    3    3    0  502  0.93109699251E+02 -0.17434771035E+03 -0.25397001148E+03  0.32181874857E+03  0.00000000000E+00 0.  1.
         13    1    5    5    0    0  0.12432574277E+03 -0.24665020399E+03  0.15849306499E+03  0.31845449454E+03  0.00000000000E+00 0.  1.
        -13    1    5    5    0    0  0.27982147372E+02 -0.23987627713E+02 -0.92350326677E+01  0.37995956143E+02  0.00000000000E+00 0. -1.
          4    1    6    6  503    0 -0.72774462280E+02  0.16608382288E+03 -0.67042160723E+02  0.19332514036E+03  0.00000000000E+00 0. -1.
         -4    1    6    6    0  503 -0.17456344638E+03  0.31640358650E+03 -0.27988246857E+03  0.45707529202E+03  0.00000000000E+00 0.  1.
<mgrwt>
<rscale>  0 0.12872638E+04</rscale>
<asrwt>0</asrwt>
<pdfrwt beam="1">  1        2 0.69689199E-01 0.12872638E+04</pdfrwt>
<pdfrwt beam="2">  1       -1 0.14069639E+00 0.12872638E+04</pdfrwt>
<totfact> 0.32054091E+01</totfact>
</mgrwt>
</event>
<event>
12    7  0.1740517E-007  0.1474087E+04  0.7818608E-02  0.8901870E-01
          2   -1    0    0  501    0  0.00000000000E+00  0.00000000000E+00  0.24258687790E+04  0.24258687790E+04  0.00000000000E+00 0. -1.
         -1   -1    0    0    0  501 -0.00000000000E+00 -0.00000000000E+00 -0.22393356706E+03  0.22393356706E+03  0.00000000000E+00 0.  1.
         24    2    1    2    0    0  0.13984618387E+03  0.27140152431E+03  0.81958882178E+02  0.32519934707E+03  0.76299504769E+02 0.  0.
        254    2    1    2    0    0 -0.13984618387E+03 -0.27140152431E+03  0.21199763298E+04  0.23246029990E+04  0.90347314382E+03 0.  0.
         23    2    4    4    0    0  0.18613727179E+03 -0.31181472224E+03  0.31976524022E+03  0.49235364514E+03  0.91031851969E+02 0.  0.
         23    2    4    4    0    0 -0.32598345567E+03  0.40413197933E+02  0.18002110895E+04  0.18322493539E+04  0.92083048572E+02 0.  0.
          2    1    3    3  502    0  0.16523201910E+02  0.18739055294E+02 -0.13355993895E+02  0.28329330517E+02  0.00000000000E+00 0. -1.
         -1    1    3    3    0  502  0.12332298196E+03  0.25266246901E+03  0.95314876073E+02  0.29687001655E+03  0.00000000000E+00 0.  1.
         13    1    5    5    0    0 -0.66297838255E+01  0.37566168976E+00  0.10835556775E+02  0.12708439948E+02  0.00000000000E+00 0. -1.
        -13    1    5    5    0    0  0.19276705562E+03 -0.31219038393E+03  0.30892968345E+03  0.47964520519E+03  0.00000000000E+00 0.  1.
          3    1    6    6  503    0 -0.96110331297E+02 -0.22581442258E+02  0.66477340908E+03  0.67206458227E+03  0.00000000000E+00 0. -1.
         -3    1    6    6    0  503 -0.22987312437E+03  0.62994640191E+02  0.11354376805E+04  0.11601847716E+04  0.00000000000E+00 0.  1.
<mgrwt>
<rscale>  0 0.14740874E+04</rscale>
<asrwt>0</asrwt>
<pdfrwt beam="1">  1        2 0.37321056E+00 0.14740874E+04</pdfrwt>
<pdfrwt beam="2">  1       -1 0.34451320E-01 0.14740874E+04</pdfrwt>
<totfact> 0.33896596E+01</totfact>
</mgrwt>
</event>
<event>
12    7  0.1740517E-007  0.1488205E+04  0.7818608E-02  0.8892335E-01
          2   -1    0    0  501    0  0.00000000000E+00  0.00000000000E+00  0.21865505703E+04  0.21865505703E+04  0.00000000000E+00 0. -1.
         -1   -1    0    0    0  501 -0.00000000000E+00 -0.00000000000E+00 -0.25322452938E+03  0.25322452938E+03  0.00000000000E+00 0.  1.
         24    2    1    2    0    0 -0.74576097320E+02  0.39313840652E+03  0.10238711074E+04  0.11022769780E+04  0.81136246641E+02 0.  0.
        254    2    1    2    0    0  0.74576097320E+02 -0.39313840652E+03  0.90945493346E+03  0.13374981217E+04  0.89536224434E+03 0.  0.
         23    2    4    4    0    0  0.29779445513E+03 -0.58345356617E+03  0.72220419277E+03  0.97892062926E+03  0.87218696110E+02 0.  0.
         23    2    4    4    0    0 -0.22321835781E+03  0.19031515965E+03  0.18725074069E+03  0.35857749244E+03  0.86421542098E+02 0.  0.
          4    1    3    3  502    0 -0.61368217080E+02  0.33900154626E+03  0.94389760840E+03  0.10048038622E+04  0.00000000000E+00 0. -1.
         -3    1    3    3    0  502 -0.13207880240E+02  0.54136860258E+02  0.79973499044E+02  0.97473115721E+02  0.00000000000E+00 0.  1.
         13    1    5    5    0    0  0.28492606392E+03 -0.50594524311E+03  0.61258349192E+03  0.84405093774E+03  0.00000000000E+00 0.  1.
        -13    1    5    5    0    0  0.12868391217E+02 -0.77508323056E+02  0.10962070085E+03  0.13486969152E+03  0.00000000000E+00 0. -1.
          3    1    6    6  503    0 -0.14621766879E+02 -0.76724442733E+01  0.23692283676E+01  0.16681597970E+02  0.00000000000E+00 0. -1.
         -3    1    6    6    0  503 -0.20859659093E+03  0.19798760393E+03  0.18488151233E+03  0.34189589447E+03  0.00000000000E+00 0.  1.
<mgrwt>
<rscale>  0 0.14882046E+04</rscale>
<asrwt>0</asrwt>
<pdfrwt beam="1">  1        2 0.33639238E+00 0.14882046E+04</pdfrwt>
<pdfrwt beam="2">  1       -1 0.38957621E-01 0.14882046E+04</pdfrwt>
<totfact> 0.37036415E+01</totfact>
</mgrwt>
</event>
<event>
12    7  0.1740517E-007  0.2450388E+04  0.7818608E-02  0.8420876E-01
          2   -1    0    0  501    0  0.00000000000E+00  0.00000000000E+00  0.94547171313E+03  0.94547171313E+03  0.00000000000E+00 0. -1.
         -1   -1    0    0    0  501 -0.00000000000E+00 -0.00000000000E+00 -0.15876737732E+04  0.15876737732E+04  0.00000000000E+00 0.  1.
         24    2    1    2    0    0  0.44885261741E+03 -0.13259127460E+03  0.70231720983E+03  0.84766037089E+03  0.78927326707E+02 0.  0.
        254    2    1    2    0    0 -0.44885261741E+03  0.13259127460E+03 -0.13445192699E+04  0.16854851154E+04  0.90226320382E+03 0.  0.
         23    2    4    4    0    0 -0.13375585914E+03  0.34764340126E+03 -0.12398120285E+03  0.40298304551E+03  0.90980393560E+02 0.  0.
         23    2    4    4    0    0 -0.31509675827E+03 -0.21505212666E+03 -0.12205380670E+04  0.12825020699E+04  0.97800828270E+02 0.  0.
          4    1    3    3  502    0  0.19851136259E+03 -0.36128381230E+02  0.24426856705E+03  0.31682669372E+03  0.00000000000E+00 0. -1.
         -3    1    3    3    0  502  0.25034125482E+03 -0.96462893372E+02  0.45804864278E+03  0.53083367717E+03  0.00000000000E+00 0.  1.
         13    1    5    5    0    0 -0.11427324701E+03  0.27307276122E+03 -0.13459611920E+03  0.32518183099E+03  0.00000000000E+00 0.  1.
        -13    1    5    5    0    0 -0.19482612129E+02  0.74570640041E+02  0.10614916347E+02  0.77801214518E+02  0.00000000000E+00 0. -1.
          2    1    6    6  503    0 -0.25969179893E+03 -0.21631257966E+03 -0.10684053726E+04  0.11205895782E+04  0.00000000000E+00 0.  1.
         -2    1    6    6    0  503 -0.55404959339E+02  0.12604529998E+01 -0.15213269443E+03  0.16191249172E+03  0.00000000000E+00 0. -1.
<mgrwt>
<rscale>  0 0.24503882E+04</rscale>
<asrwt>0</asrwt>
<pdfrwt beam="1">  1        2 0.14545719E+00 0.24503882E+04</pdfrwt>
<pdfrwt beam="2">  1       -1 0.24425750E+00 0.24503882E+04</pdfrwt>
<totfact> 0.21220811E+00</totfact>
</mgrwt>
</event>
<event>
12    7  0.1740517E-007  0.1611682E+04  0.7818608E-02  0.8813403E-01
          2   -1    0    0  501    0  0.00000000000E+00  0.00000000000E+00  0.12479835710E+04  0.12479835710E+04  0.00000000000E+00 0. -1.
         -1   -1    0    0    0  501 -0.00000000000E+00 -0.00000000000E+00 -0.52034319943E+03  0.52034319943E+03  0.00000000000E+00 0.  1.
         24    2    1    2    0    0  0.21400114350E+03  0.50436267006E+03  0.28340716878E+03  0.62196881335E+03  0.79670503299E+02 0.  0.
        254    2    1    2    0    0 -0.21400114350E+03 -0.50436267006E+03  0.44423320283E+03  0.11463579571E+04  0.90366765737E+03 0.  0.
         23    2    4    4    0    0  0.24991640697E+03 -0.49065480848E+03  0.11651835303E+03  0.57093351778E+03  0.95855117585E+02 0.  0.
         23    2    4    4    0    0 -0.46391755048E+03 -0.13707861577E+02  0.32771484980E+03  0.57542443934E+03  0.91152967594E+02 0.  0.
          2    1    3    3  502    0  0.74312974428E+02  0.16847070190E+03  0.13842779714E+03  0.23036286721E+03  0.00000000000E+00 0. -1.
         -3    1    3    3    0  502  0.13968816908E+03  0.33589196816E+03  0.14497937164E+03  0.39160594614E+03  0.00000000000E+00 0.  1.
         13    1    5    5    0    0  0.17484057886E+03 -0.37591433912E+03  0.12649009723E+03  0.43345191552E+03  0.00000000000E+00 0. -1.
        -13    1    5    5    0    0  0.75075828110E+02 -0.11474046937E+03 -0.99717442000E+01  0.13748160226E+03  0.00000000000E+00 0.  1.
          4    1    6    6  503    0 -0.46648155714E+03 -0.17677548319E+02  0.32824609815E+03  0.57066894065E+03  0.00000000000E+00 0. -1.
         -4    1    6    6    0  503  0.25640066650E+01  0.39696867425E+01 -0.53124835060E+00  0.47554986933E+01  0.00000000000E+00 0.  1.
<mgrwt>
<rscale>  0 0.16116821E+04</rscale>
<asrwt>0</asrwt>
<pdfrwt beam="1">  1        2 0.19199747E+00 0.16116821E+04</pdfrwt>
<pdfrwt beam="2">  1       -1 0.80052800E-01 0.16116821E+04</pdfrwt>
<totfact> 0.30181625E+01</totfact>
</mgrwt>
</event>
<event>
12    7  0.1740517E-007  0.1816387E+04  0.7818608E-02  0.8697633E-01
          2   -1    0    0  501    0  0.00000000000E+00  0.00000000000E+00  0.16959465755E+04  0.16959465755E+04  0.00000000000E+00 0. -1.
         -1   -1    0    0    0  501 -0.00000000000E+00 -0.00000000000E+00 -0.48634498145E+03  0.48634498145E+03  0.00000000000E+00 0.  1.
         24    2    1    2    0    0  0.30584258546E+03 -0.51873613677E+03  0.78465537503E+03  0.99233384140E+03  0.80096994647E+02 0.  0.
        254    2    1    2    0    0 -0.30584258546E+03  0.51873613677E+03  0.42494621900E+03  0.11899577155E+04  0.93423402263E+03 0.  0.
         23    2    4    4    0    0  0.24304676685E+03  0.16370474213E+02  0.34984325786E+03  0.43628764171E+03  0.92827140088E+02 0.  0.
         23    2    4    4    0    0 -0.54888935231E+03  0.50236566256E+03  0.75102961148E+02  0.75367007383E+03  0.93420262346E+02 0.  0.
          4    1    3    3  502    0  0.14905248838E+03 -0.26715678878E+03  0.46272100986E+03  0.55470724445E+03  0.00000000000E+00 0. -1.
         -3    1    3    3    0  502  0.15679009708E+03 -0.25157934799E+03  0.32193436517E+03  0.43762659694E+03  0.00000000000E+00 0.  1.
         13    1    5    5    0    0  0.95323394566E+02  0.42479659047E+02  0.98055541250E+02  0.14319902288E+03  0.00000000000E+00 0.  1.
        -13    1    5    5    0    0  0.14772337228E+03 -0.26109184833E+02  0.25178771661E+03  0.29308861883E+03  0.00000000000E+00 0. -1.
          3    1    6    6  503    0 -0.48139986383E+03  0.46992098567E+03  0.49588505491E+02  0.67455954633E+03  0.00000000000E+00 0. -1.
         -3    1    6    6    0  503 -0.67489488482E+02  0.32444676887E+02  0.25514455657E+02  0.79110527500E+02  0.00000000000E+00 0.  1.
<mgrwt>
<rscale>  0 0.18163866E+04</rscale>
<asrwt>0</asrwt>
<pdfrwt beam="1">  1        2 0.26091485E+00 0.18163866E+04</pdfrwt>
<pdfrwt beam="2">  1       -1 0.74822306E-01 0.18163866E+04</pdfrwt>
<totfact> 0.19022420E+01</totfact>
</mgrwt>
</event>
<event>
12    7  0.1740517E-007  0.2769012E+04  0.7818608E-02  0.8312954E-01
          2   -1    0    0  501    0  0.00000000000E+00  0.00000000000E+00  0.25899006458E+04  0.25899006458E+04  0.00000000000E+00 0. -1.
         -1   -1    0    0    0  501 -0.00000000000E+00 -0.00000000000E+00 -0.74012782997E+03  0.74012782997E+03  0.00000000000E+00 0.  1.
         24    2    1    2    0    0 -0.11196533170E+04 -0.23510772485E+03  0.26538081090E+03  0.11771111356E+04  0.79148330683E+02 0.  0.
        254    2    1    2    0    0  0.11196533170E+04  0.23510772485E+03  0.15843920049E+04  0.21529173402E+04  0.90324739462E+03 0.  0.
         23    2    4    4    0    0  0.27239539694E+03 -0.22802596809E+03  0.99643862816E+02  0.37940916547E+03  0.88472148422E+02 0.  0.
         23    2    4    4    0    0  0.84725792002E+03  0.46313369294E+03  0.14847481421E+04  0.17735081747E+04  0.92278923269E+02 0.  0.
          4    1    3    3  502    0 -0.16523854277E+03 -0.10784558680E+02  0.53876415035E+02  0.17413428961E+03  0.00000000000E+00 0. -1.
         -3    1    3    3    0  502 -0.95441477419E+03 -0.22432316617E+03  0.21150439586E+03  0.10029768460E+04  0.00000000000E+00 0.  1.
         13    1    5    5    0    0  0.23265344657E+03 -0.15950524361E+03  0.51585968412E+02  0.28675889015E+03  0.00000000000E+00 0.  1.
        -13    1    5    5    0    0  0.39741950365E+02 -0.68520724481E+02  0.48057894405E+02  0.92650275320E+02  0.00000000000E+00 0. -1.
          2    1    6    6  503    0  0.53359355158E+03  0.34001526882E+03  0.98952301897E+03  0.11745161840E+04  0.00000000000E+00 0.  1.
         -2    1    6    6    0  503  0.31366436845E+03  0.12311842412E+03  0.49522512316E+03  0.59899199077E+03  0.00000000000E+00 0. -1.
<mgrwt>
<rscale>  0 0.27690125E+04</rscale>
<asrwt>0</asrwt>
<pdfrwt beam="1">  1        2 0.39844625E+00 0.27690125E+04</pdfrwt>
<pdfrwt beam="2">  1       -1 0.11386582E+00 0.27690125E+04</pdfrwt>
<totfact> 0.21499915E+00</totfact>
</mgrwt>
</event>
<event>
12    7  0.1740517E-007  0.1632010E+04  0.7818608E-02  0.8801121E-01
          2   -1    0    0  501    0  0.00000000000E+00  0.00000000000E+00  0.15861952343E+04  0.15861952343E+04  0.00000000000E+00 0. -1.
         -1   -1    0    0    0  501 -0.00000000000E+00 -0.00000000000E+00 -0.41978678239E+03  0.41978678239E+03  0.00000000000E+00 0.  1.
         24    2    1    2    0    0 -0.31794329722E+03  0.21346203185E+03  0.90655188005E+03  0.98742330906E+03  0.80712457309E+02 0.  0.
        254    2    1    2    0    0  0.31794329722E+03 -0.21346203185E+03  0.25985657181E+03  0.10185587076E+04  0.90734911890E+03 0.  0.
         23    2    4    4    0    0  0.80781520870E+02 -0.22388740321E+03 -0.30610214857E+03  0.39800264434E+03  0.89757206475E+02 0.  0.
         23    2    4    4    0    0  0.23716177635E+03  0.10425371353E+02  0.56595872038E+03  0.62055606323E+03  0.91794106052E+02 0.  0.
          2    1    3    3  502    0 -0.17902720414E+03  0.72078667343E+02  0.43287228545E+03  0.47394566104E+03  0.00000000000E+00 0. -1.
         -1    1    3    3    0  502 -0.13891609308E+03  0.14138336451E+03  0.47367959460E+03  0.51347764802E+03  0.00000000000E+00 0.  1.
         13    1    5    5    0    0  0.65685001052E+02 -0.63195383039E+02 -0.13397574703E+03  0.16204220621E+03  0.00000000000E+00 0.  1.
        -13    1    5    5    0    0  0.15096519817E+02 -0.16069202017E+03 -0.17212640154E+03  0.23596043813E+03  0.00000000000E+00 0. -1.
          2    1    6    6  503    0  0.63309638495E+01  0.55536372725E+01 -0.91141954856E+00  0.84708131730E+01  0.00000000000E+00 0. -1.
         -2    1    6    6    0  503  0.23083081250E+03  0.48717340805E+01  0.56687013993E+03  0.61208525006E+03  0.00000000000E+00 0.  1.
<mgrwt>
<rscale>  0 0.16320096E+04</rscale>
<asrwt>0</asrwt>
<pdfrwt beam="1">  1        2 0.24403003E+00 0.16320096E+04</pdfrwt>
<pdfrwt beam="2">  1       -1 0.64582582E-01 0.16320096E+04</pdfrwt>
<totfact> 0.30078112E+01</totfact>
</mgrwt>
</event>
<event>
12    7  0.1740517E-007  0.1353120E+04  0.7818608E-02  0.8988470E-01
         -1   -1    0    0    0  501 -0.00000000000E+00  0.00000000000E+00  0.27952768412E+03  0.27952768412E+03  0.00000000000E+00 0.  1.
          2   -1    0    0  501    0  0.00000000000E+00 -0.00000000000E+00 -0.16375237487E+04  0.16375237487E+04  0.00000000000E+00 0. -1.
         24    2    1    2    0    0  0.31110181626E+03  0.18692281391E+03 -0.46368400787E+03  0.59420758063E+03  0.79720206226E+02 0.  0.
        254    2    1    2    0    0 -0.31110181626E+03 -0.18692281391E+03 -0.89431205672E+03  0.13228438522E+04  0.90465315126E+03 0.  0.
         23    2    4    4    0    0 -0.47011724105E+03 -0.21193464801E+03 -0.98608555216E+03  0.11165325531E+04  0.91398635539E+02 0.  0.
         23    2    4    4    0    0  0.15901542479E+03  0.25011834095E+02  0.91773495433E+02  0.20631129912E+03  0.90721995749E+02 0.  0.
          2    1    3    3  502    0  0.30174768911E+03  0.18260099397E+03 -0.46520702405E+03  0.58379137208E+03  0.00000000000E+00 0. -1.
         -1    1    3    3    0  502  0.93541271512E+01  0.43218199420E+01  0.15230161807E+01  0.10416208555E+02  0.00000000000E+00 0.  1.
         13    1    5    5    0    0 -0.46625481035E+03 -0.20484655864E+03 -0.93394707718E+03  0.10637729099E+04  0.00000000000E+00 0.  1.
        -13    1    5    5    0    0 -0.38624306997E+01 -0.70880893725E+01 -0.52138474971E+02  0.52759643234E+02  0.00000000000E+00 0. -1.
          3    1    6    6  503    0  0.13197060165E+02 -0.22396251184E+02  0.33215659295E+02  0.42178602235E+02  0.00000000000E+00 0. -1.
         -3    1    6    6    0  503  0.14581836463E+03  0.47408085279E+02  0.58557836138E+02  0.16413269688E+03  0.00000000000E+00 0.  1.
<mgrwt>
<rscale>  0 0.13531197E+04</rscale>
<asrwt>0</asrwt>
<pdfrwt beam="1">  1        2 0.25192674E+00 0.13531197E+04</pdfrwt>
<pdfrwt beam="2">  1       -1 0.43004258E-01 0.13531197E+04</pdfrwt>
<totfact> 0.62997607E+01</totfact>
</mgrwt>
</event>
<event>
12    7  0.1740517E-007  0.2373841E+04  0.7818608E-02  0.8449363E-01
          2   -1    0    0  501    0  0.00000000000E+00  0.00000000000E+00  0.94663644317E+03  0.94663644317E+03  0.00000000000E+00 0. -1.
         -1   -1    0    0    0  501 -0.00000000000E+00 -0.00000000000E+00 -0.14881954403E+04  0.14881954403E+04  0.00000000000E+00 0.  1.
         24    2    1    2    0    0  0.89213065510E+03  0.46643045977E+03 -0.35927939812E+03  0.10718217843E+04  0.79156628612E+02 0.  0.
        254    2    1    2    0    0 -0.89213065510E+03 -0.46643045977E+03 -0.18227959902E+03  0.13630100992E+04  0.90061989687E+03 0.  0.
         23    2    4    4    0    0 -0.27621381438E+01  0.20876751378E+03 -0.63488261195E+02  0.23645348681E+03  0.91038386930E+02 0.  0.
         23    2    4    4    0    0 -0.88936851695E+03 -0.67519797355E+03 -0.11879133783E+03  0.11265566124E+04  0.90276001620E+02 0.  0.
          4    1    3    3  502    0  0.58121824835E+03  0.29375678202E+03 -0.19304720701E+03  0.67924584896E+03  0.00000000000E+00 0. -1.
         -3    1    3    3    0  502  0.31091240675E+03  0.17267367775E+03 -0.16623219111E+03  0.39257593536E+03  0.00000000000E+00 0.  1.
         13    1    5    5    0    0  0.57912362743E+01  0.22851310690E+02  0.21452444859E+02  0.31873628728E+02  0.00000000000E+00 0.  1.
        -13    1    5    5    0    0 -0.85533744181E+01  0.18591620309E+03 -0.84940706054E+02  0.20457985808E+03  0.00000000000E+00 0. -1.
          2    1    6    6  503    0 -0.50100049075E+03 -0.41186378925E+03 -0.31862458728E+02  0.64934466110E+03  0.00000000000E+00 0. -1.
         -2    1    6    6    0  503 -0.38836802621E+03 -0.26333418431E+03 -0.86928879101E+02  0.47721195126E+03  0.00000000000E+00 0.  1.
<mgrwt>
<rscale>  0 0.23738408E+04</rscale>
<asrwt>0</asrwt>
<pdfrwt beam="1">  1        2 0.14563638E+00 0.23738408E+04</pdfrwt>
<pdfrwt beam="2">  1       -1 0.22895314E+00 0.23738408E+04</pdfrwt>
<totfact> 0.26896855E+00</totfact>
</mgrwt>
</event>
<event>
12    7  0.1740517E-007  0.2736630E+04  0.7818608E-02  0.8323217E-01
         -1   -1    0    0    0  501 -0.00000000000E+00  0.00000000000E+00  0.14161036390E+04  0.14161036390E+04  0.00000000000E+00 0.  1.
          2   -1    0    0  501    0  0.00000000000E+00 -0.00000000000E+00 -0.13221389703E+04  0.13221389703E+04  0.00000000000E+00 0. -1.
         24    2    1    2    0    0  0.21792244316E+03  0.35425017352E+03  0.11897649666E+04  0.12629890125E+04  0.81346131710E+02 0.  0.
        254    2    1    2    0    0 -0.21792244316E+03 -0.35425017352E+03 -0.10958002979E+04  0.14752535968E+04  0.89588587738E+03 0.  0.
         23    2    4    4    0    0 -0.47533062181E+03 -0.15903807232E+03 -0.25230819465E+03  0.56738262397E+03  0.83852897478E+02 0.  0.
         23    2    4    4    0    0  0.25740817865E+03 -0.19521210120E+03 -0.84349210324E+03  0.90787097281E+03  0.91564404388E+02 0.  0.
          4    1    3    3  502    0  0.57022485528E+02  0.15730449624E+03  0.41111586072E+03  0.44386092341E+03  0.00000000000E+00 0. -1.
         -3    1    3    3    0  502  0.16089995763E+03  0.19694567728E+03  0.77864910592E+03  0.81912808908E+03  0.00000000000E+00 0.  1.
         13    1    5    5    0    0 -0.10949095084E+03 -0.28327498223E+02 -0.97013121134E+02  0.14900423196E+03  0.00000000000E+00 0. -1.
        -13    1    5    5    0    0 -0.36583967098E+03 -0.13071057410E+03 -0.15529507352E+03  0.41837839201E+03  0.00000000000E+00 0.  1.
          1    1    6    6  503    0  0.46911221476E+02 -0.25513925658E+02 -0.25074762482E+03  0.25637081436E+03  0.00000000000E+00 0. -1.
         -1    1    6    6    0  503  0.21049695718E+03 -0.16969817554E+03 -0.59274447842E+03  0.65150015845E+03  0.00000000000E+00 0.  1.
<mgrwt>
<rscale>  0 0.27366299E+04</rscale>
<asrwt>0</asrwt>
<pdfrwt beam="1">  1        2 0.20340600E+00 0.27366299E+04</pdfrwt>
<pdfrwt beam="2">  1       -1 0.21786210E+00 0.27366299E+04</pdfrwt>
<totfact> 0.18189186E+00</totfact>
</mgrwt>
</event>
<event>
12    7  0.1740517E-007  0.1361771E+04  0.7818608E-02  0.8981966E-01
          2   -1    0    0  501    0  0.00000000000E+00  0.00000000000E+00  0.48198907702E+03  0.48198907702E+03  0.00000000000E+00 0. -1.
         -1   -1    0    0    0  501 -0.00000000000E+00 -0.00000000000E+00 -0.96185736030E+03  0.96185736030E+03  0.00000000000E+00 0.  1.
         24    2    1    2    0    0  0.13772399921E+03  0.54753857048E+02  0.23633069468E+03  0.29003673469E+03  0.79392854835E+02 0.  0.
        254    2    1    2    0    0 -0.13772399921E+03 -0.54753857048E+02 -0.71619897796E+03  0.11538097026E+04  0.89239563480E+03 0.  0.
         23    2    4    4    0    0 -0.18376694078E+03  0.39274387071E+03 -0.39377411978E+03  0.59276660878E+03  0.91083250788E+02 0.  0.
         23    2    4    4    0    0  0.46042941562E+02 -0.44749772776E+03 -0.32242485818E+03  0.56104309384E+03  0.91855294636E+02 0.  0.
          2    1    3    3  502    0  0.61589385048E+02  0.59127788974E+02  0.16418858200E+03  0.18506009359E+03  0.00000000000E+00 0. -1.
         -1    1    3    3    0  502  0.76134614166E+02 -0.43739319263E+01  0.72142112685E+02  0.10497664110E+03  0.00000000000E+00 0.  1.
         13    1    5    5    0    0 -0.32645978061E+02  0.29251734546E+02 -0.14609049184E+02  0.46204417273E+02  0.00000000000E+00 0. -1.
        -13    1    5    5    0    0 -0.15112096271E+03  0.36349213617E+03 -0.37916507060E+03  0.54656219151E+03  0.00000000000E+00 0.  1.
          4    1    6    6  503    0  0.92558274842E+01 -0.12901851085E+02  0.38728677714E+01  0.16344026695E+02  0.00000000000E+00 0. -1.
         -4    1    6    6    0  503  0.36787114078E+02 -0.43459587668E+03 -0.32629772595E+03  0.54469906714E+03  0.00000000000E+00 0.  1.
<mgrwt>
<rscale>  0 0.13617705E+04</rscale>
<asrwt>0</asrwt>
<pdfrwt beam="1">  1        2 0.74152166E-01 0.13617705E+04</pdfrwt>
<pdfrwt beam="2">  1       -1 0.14797806E+00 0.13617705E+04</pdfrwt>
<totfact> 0.25957473E+01</totfact>
</mgrwt>
</event>
<event>
12    7  0.1740517E-007  0.1105987E+04  0.7818608E-02  0.9199376E-01
         -1   -1    0    0    0  501 -0.00000000000E+00  0.00000000000E+00  0.14975985516E+03  0.14975985516E+03  0.00000000000E+00 0.  1.
          2   -1    0    0  501    0  0.00000000000E+00 -0.00000000000E+00 -0.20419467357E+04  0.20419467357E+04  0.00000000000E+00 0. -1.
         24    2    1    2    0    0  0.12885789905E+03 -0.26241164462E+01 -0.94521224972E+02  0.17654249361E+03  0.74978303166E+02 0.  0.
        254    2    1    2    0    0 -0.12885789905E+03  0.26241164462E+01 -0.17976656556E+04  0.20151640973E+04  0.90148393525E+03 0.  0.
         23    2    4    4    0    0 -0.44128308037E+03  0.10722341767E+03 -0.14687608700E+04  0.15398805119E+04  0.88010677363E+02 0.  0.
         23    2    4    4    0    0  0.31242518132E+03 -0.10459930122E+03 -0.32890478554E+03  0.47528358534E+03  0.95737248765E+02 0.  0.
          2    1    3    3  502    0  0.70453669804E+01 -0.45661112788E+01 -0.43767064462E+02  0.44565036741E+02  0.00000000000E+00 0. -1.
         -1    1    3    3    0  502  0.12181253207E+03  0.19419948326E+01 -0.50754160510E+02  0.13197745687E+03  0.00000000000E+00 0.  1.
         13    1    5    5    0    0 -0.39386161426E+03  0.66127830215E+02 -0.12450583623E+04  0.13075435697E+04  0.00000000000E+00 0.  1.
        -13    1    5    5    0    0 -0.47421466108E+02  0.41095587454E+02 -0.22370250769E+03  0.23233694219E+03  0.00000000000E+00 0. -1.
          1    1    6    6  503    0  0.19978542724E+03 -0.96485441486E+02 -0.16612908295E+03  0.27716877450E+03  0.00000000000E+00 0. -1.
         -1    1    6    6    0  503  0.11263975409E+03 -0.81138597365E+01 -0.16277570260E+03  0.19811481085E+03  0.00000000000E+00 0.  1.
<mgrwt>
<rscale>  0 0.11059867E+04</rscale>
<asrwt>0</asrwt>
<pdfrwt beam="1">  1        2 0.31414565E+00 0.11059867E+04</pdfrwt>
<pdfrwt beam="2">  1       -1 0.23039978E-01 0.11059867E+04</pdfrwt>
<totfact> 0.11558222E+02</totfact>
</mgrwt>
</event>
<event>
12    7  0.1740517E-007  0.1978832E+04  0.7818608E-02  0.8616582E-01
          2   -1    0    0  501    0  0.00000000000E+00  0.00000000000E+00  0.15079467363E+04  0.15079467363E+04  0.00000000000E+00 0. -1.
         -1   -1    0    0    0  501 -0.00000000000E+00 -0.00000000000E+00 -0.64918995479E+03  0.64918995479E+03  0.00000000000E+00 0.  1.
         24    2    1    2    0    0  0.45755485501E+03  0.36330569754E+03  0.90307879036E+03  0.10785690226E+04  0.80077210741E+02 0.  0.
        254    2    1    2    0    0 -0.45755485501E+03 -0.36330569754E+03 -0.44322008868E+02  0.10785676685E+04  0.90553647074E+03 0.  0.
         23    2    4    4    0    0 -0.62761721709E+03 -0.75226584578E+02 -0.23741526645E+03  0.68159604128E+03  0.92977118319E+02 0.  0.
         23    2    4    4    0    0  0.17006236208E+03 -0.28807911296E+03  0.19309325758E+03  0.39697162722E+03  0.91600678885E+02 0.  0.
          2    1    3    3  502    0  0.35503615483E+03  0.25227567194E+03  0.71618707513E+03  0.83822288950E+03  0.00000000000E+00 0. -1.
         -3    1    3    3    0  502  0.10251870018E+03  0.11103002560E+03  0.18689171523E+03  0.24034613309E+03  0.00000000000E+00 0.  1.
         13    1    5    5    0    0 -0.59709342370E+03 -0.56600940923E+02 -0.23939896073E+03  0.64578331160E+03  0.00000000000E+00 0.  1.
        -13    1    5    5    0    0 -0.30523793383E+02 -0.18625643654E+02  0.19836942755E+01  0.35812729678E+02  0.00000000000E+00 0. -1.
          3    1    6    6  503    0  0.12655762420E+02 -0.10334080363E+03  0.60302870662E+02  0.12031594336E+03  0.00000000000E+00 0. -1.
         -3    1    6    6    0  503  0.15740659966E+03 -0.18473830933E+03  0.13279038692E+03  0.27665568385E+03  0.00000000000E+00 0.  1.
<mgrwt>
<rscale>  0 0.19788319E+04</rscale>
<asrwt>0</asrwt>
<pdfrwt beam="1">  1        2 0.23199181E+00 0.19788319E+04</pdfrwt>
<pdfrwt beam="2">  1       -1 0.99875378E-01 0.19788319E+04</pdfrwt>
<totfact> 0.12733568E+01</totfact>
</mgrwt>
</event>
<event>
12    7  0.1740517E-007  0.1880062E+04  0.7818608E-02  0.8664845E-01
          2   -1    0    0  501    0  0.00000000000E+00  0.00000000000E+00  0.21276860070E+04  0.21276860070E+04  0.00000000000E+00 0. -1.
         -1   -1    0    0    0  501 -0.00000000000E+00 -0.00000000000E+00 -0.41531424128E+03  0.41531424128E+03  0.00000000000E+00 0.  1.
         24    2    1    2    0    0  0.21139649973E+03  0.54559141970E+03  0.13309452068E+04  0.14560861249E+04  0.80082347179E+02 0.  0.
        254    2    1    2    0    0 -0.21139649973E+03 -0.54559141970E+03  0.38142655891E+03  0.10869141234E+04  0.83278905755E+03 0.  0.
         23    2    4    4    0    0  0.13002216421E+03 -0.47505322731E+03 -0.74007049493E+02  0.50620361655E+03  0.90463948980E+02 0.  0.
         23    2    4    4    0    0 -0.34141866394E+03 -0.70538192382E+02  0.45543360841E+03  0.58071050681E+03  0.90898736978E+02 0.  0.
          4    1    3    3  502    0  0.80605421445E+02  0.14203946858E+03  0.43911739855E+03  0.46850457235E+03  0.00000000000E+00 0. -1.
         -3    1    3    3    0  502  0.13079107828E+03  0.40355195112E+03  0.89182780824E+03  0.98758155256E+03  0.00000000000E+00 0.  1.
         13    1    5    5    0    0  0.61291213431E+02 -0.36970753342E+03 -0.61999436317E+02  0.37984760525E+03  0.00000000000E+00 0.  1.
        -13    1    5    5    0    0  0.68730950779E+02 -0.10534569390E+03 -0.12007613176E+02  0.12635601130E+03  0.00000000000E+00 0. -1.
          2    1    6    6  503    0 -0.25829502375E+03 -0.49785524841E+02  0.39973518140E+03  0.47852182085E+03  0.00000000000E+00 0.  1.
         -2    1    6    6    0  503 -0.83123640187E+02 -0.20752667541E+02  0.55698427009E+02  0.10218868596E+03  0.00000000000E+00 0. -1.
<mgrwt>
<rscale>  0 0.18800620E+04</rscale>
<asrwt>0</asrwt>
<pdfrwt beam="1">  1        2 0.32733630E+00 0.18800620E+04</pdfrwt>
<pdfrwt beam="2">  1       -1 0.63894500E-01 0.18800620E+04</pdfrwt>
<totfact> 0.15045373E+01</totfact>
</mgrwt>
</event>
<event>
12    7  0.1740517E-007  0.1315631E+04  0.7818608E-02  0.9017261E-01
          2   -1    0    0  501    0  0.00000000000E+00  0.00000000000E+00  0.15030141252E+04  0.15030141252E+04  0.00000000000E+00 0. -1.
         -1   -1    0    0    0  501 -0.00000000000E+00 -0.00000000000E+00 -0.28790227074E+03  0.28790227074E+03  0.00000000000E+00 0.  1.
         24    2    1    2    0    0 -0.86816535685E+02 -0.18879595246E+02 -0.12758887217E+03  0.17475354708E+03  0.79789297106E+02 0.  0.
        254    2    1    2    0    0  0.86816535685E+02  0.18879595246E+02  0.13427007266E+04  0.16161628489E+04  0.89512209377E+03 0.  0.
         23    2    4    4    0    0 -0.18954126172E+03 -0.22675661930E+03  0.11439887896E+04  0.11852197805E+04  0.93226192572E+02 0.  0.
         23    2    4    4    0    0  0.27635779741E+03  0.24563621455E+03  0.19871193703E+03  0.43094306839E+03  0.97543386202E+02 0.  0.
          4    1    3    3  502    0  0.82255788449E+01 -0.10597937128E+01  0.57140106886E+01  0.10071406466E+02  0.00000000000E+00 0. -1.
         -3    1    3    3    0  502 -0.95042114530E+02 -0.17819801533E+02 -0.13330288286E+03  0.16468214062E+03  0.00000000000E+00 0.  1.
         13    1    5    5    0    0 -0.18423261737E+03 -0.16818024817E+03  0.96983779037E+03  0.10014048097E+04  0.00000000000E+00 0. -1.
        -13    1    5    5    0    0 -0.53086443531E+01 -0.58576371129E+02  0.17415099924E+03  0.18381497082E+03  0.00000000000E+00 0.  1.
          3    1    6    6  503    0  0.25918774039E+03  0.23189028222E+03  0.15246586301E+03  0.37973309987E+03  0.00000000000E+00 0. -1.
         -3    1    6    6    0  503  0.17170057023E+02  0.13745932327E+02  0.46246074020E+02  0.51209968521E+02  0.00000000000E+00 0.  1.
<mgrwt>
<rscale>  0 0.13156309E+04</rscale>
<asrwt>0</asrwt>
<pdfrwt beam="1">  1        2 0.23123294E+00 0.13156309E+04</pdfrwt>
<pdfrwt beam="2">  1       -1 0.44292658E-01 0.13156309E+04</pdfrwt>
<totfact> 0.71143351E+01</totfact>
</mgrwt>
</event>
<event>
12    7  0.1740517E-007  0.1343245E+04  0.7818608E-02  0.8995958E-01
          2   -1    0    0  501    0  0.00000000000E+00  0.00000000000E+00  0.14886255038E+04  0.14886255038E+04  0.00000000000E+00 0. -1.
         -1   -1    0    0    0  501 -0.00000000000E+00 -0.00000000000E+00 -0.30301552521E+03  0.30301552521E+03  0.00000000000E+00 0.  1.
         24    2    1    2    0    0 -0.26245250927E+03  0.16604898685E+03  0.77443940537E+02  0.33004083138E+03  0.80472360454E+02 0.  0.
        254    2    1    2    0    0  0.26245250927E+03 -0.16604898685E+03  0.11081660381E+04  0.14616001976E+04  0.90099366488E+03 0.  0.
         23    2    4    4    0    0  0.13196809363E+03  0.16945002778E+03 -0.54829055613E+02  0.24000694230E+03  0.92022917588E+02 0.  0.
         23    2    4    4    0    0  0.13048441564E+03 -0.33549901463E+03  0.11629950937E+04  0.12215932553E+04  0.10073093882E+03 0.  0.
          4    1    3    3  502    0 -0.12127500348E+03  0.55312269137E+02  0.69773954541E+02  0.15045091664E+03  0.00000000000E+00 0. -1.
         -3    1    3    3    0  502 -0.14117750580E+03  0.11073671771E+03  0.76699859963E+01  0.17958991474E+03  0.00000000000E+00 0.  1.
         13    1    5    5    0    0  0.39633275842E+02  0.37619645241E+01 -0.27460001607E+02  0.48363215560E+02  0.00000000000E+00 0. -1.
        -13    1    5    5    0    0  0.92334817789E+02  0.16568806325E+03 -0.27369054005E+02  0.19164372674E+03  0.00000000000E+00 0.  1.
          2    1    6    6  503    0 -0.11555459968E+02 -0.20436029562E+02  0.37597142186E+02  0.44324993625E+02  0.00000000000E+00 0. -1.
         -2    1    6    6    0  503  0.14203987561E+03 -0.31506298506E+03  0.11253979515E+04  0.11772682617E+04  0.00000000000E+00 0.  1.
<mgrwt>
<rscale>  0 0.13432448E+04</rscale>
<asrwt>0</asrwt>
<pdfrwt beam="1">  1        2 0.22901930E+00 0.13432448E+04</pdfrwt>
<pdfrwt beam="2">  1       -1 0.46617774E-01 0.13432448E+04</pdfrwt>
<totfact> 0.65741065E+01</totfact>
</mgrwt>
</event>
<event>
12    7  0.1740517E-007  0.1623242E+04  0.7818608E-02  0.8806395E-01
         -1   -1    0    0    0  501 -0.00000000000E+00  0.00000000000E+00  0.36323393372E+03  0.36323393372E+03  0.00000000000E+00 0.  1.
          2   -1    0    0  501    0  0.00000000000E+00 -0.00000000000E+00 -0.18135111073E+04  0.18135111073E+04  0.00000000000E+00 0. -1.
         24    2    1    2    0    0  0.31453471565E+03  0.34138451537E+03 -0.91344053758E+02  0.47984863428E+03  0.80221574258E+02 0.  0.
        254    2    1    2    0    0 -0.31453471565E+03 -0.34138451537E+03 -0.13589331198E+04  0.16968964067E+04  0.90403689987E+03 0.  0.
         23    2    4    4    0    0 -0.15810037384E+03 -0.66534776012E+02 -0.13535255034E+04  0.13674803787E+04  0.92459143942E+02 0.  0.
         23    2    4    4    0    0 -0.15643434182E+03 -0.27484973936E+03 -0.54076164507E+01  0.32941602800E+03  0.92041266088E+02 0.  0.
          2    1    3    3  502    0  0.44210113108E+01  0.79283203144E+01 -0.15844084170E+02  0.18260301400E+02  0.00000000000E+00 0. -1.
         -1    1    3    3    0  502  0.31011370434E+03  0.33345619506E+03 -0.75499969588E+02  0.46158833288E+03  0.00000000000E+00 0.  1.
         13    1    5    5    0    0 -0.35295412191E+02 -0.51314742524E+02 -0.27980751224E+03  0.28665521594E+03  0.00000000000E+00 0.  1.
        -13    1    5    5    0    0 -0.12280496165E+03 -0.15220033488E+02 -0.10737179911E+04  0.10808251628E+04  0.00000000000E+00 0. -1.
          3    1    6    6  503    0 -0.95904486483E+02 -0.20119055589E+03 -0.42898398877E+02  0.22697044507E+03  0.00000000000E+00 0. -1.
         -3    1    6    6    0  503 -0.60529855334E+02 -0.73659183468E+02  0.37490782427E+02  0.10244558294E+03  0.00000000000E+00 0.  1.
<mgrwt>
<rscale>  0 0.16232422E+04</rscale>
<asrwt>0</asrwt>
<pdfrwt beam="1">  1        2 0.27900170E+00 0.16232422E+04</pdfrwt>
<pdfrwt beam="2">  1       -1 0.55882144E-01 0.16232422E+04</pdfrwt>
<totfact> 0.29954616E+01</totfact>
</mgrwt>
</event>
<event>
12    7  0.1740517E-007  0.1558756E+04  0.7818608E-02  0.8846294E-01
          2   -1    0    0  501    0  0.00000000000E+00  0.00000000000E+00  0.16489155868E+04  0.16489155868E+04  0.00000000000E+00 0. -1.
         -1   -1    0    0    0  501 -0.00000000000E+00 -0.00000000000E+00 -0.36838175327E+03  0.36838175327E+03  0.00000000000E+00 0.  1.
         24    2    1    2    0    0  0.12712396812E+03 -0.37112513185E+03 -0.58731983408E+01  0.40084786052E+03  0.82159272531E+02 0.  0.
        254    2    1    2    0    0 -0.12712396812E+03  0.37112513185E+03  0.12864070318E+04  0.16164494795E+04  0.89675609923E+03 0.  0.
         23    2    4    4    0    0 -0.37543973051E+03 -0.55361080140E+02  0.25105389053E+03  0.46555324203E+03  0.98447573714E+02 0.  0.
         23    2    4    4    0    0  0.24831576239E+03  0.42648621199E+03  0.10353531413E+04  0.11508962375E+04  0.95156793634E+02 0.  0.
          4    1    3    3  502    0 -0.42544327279E+01 -0.80488970094E+02 -0.13925055487E+02  0.81795364630E+02  0.00000000000E+00 0. -1.
         -3    1    3    3    0  502  0.13137840085E+03 -0.29063616175E+03  0.80518571466E+01  0.31905249589E+03  0.00000000000E+00 0.  1.
         13    1    5    5    0    0 -0.99367395912E+02 -0.97343526944E+01  0.18126642002E+02  0.10147517994E+03  0.00000000000E+00 0.  1.
        -13    1    5    5    0    0 -0.27607233460E+03 -0.45626727445E+02  0.23292724853E+03  0.36407806209E+03  0.00000000000E+00 0. -1.
          3    1    6    6  503    0  0.80266692772E+02  0.20042371717E+03  0.37018016809E+03  0.42853910583E+03  0.00000000000E+00 0. -1.
         -3    1    6    6    0  503  0.16804906962E+03  0.22606249482E+03  0.66517297322E+03  0.72235713166E+03  0.00000000000E+00 0.  1.
<mgrwt>
<rscale>  0 0.15587564E+04</rscale>
<asrwt>0</asrwt>
<pdfrwt beam="1">  1        2 0.25367932E+00 0.15587564E+04</pdfrwt>
<pdfrwt beam="2">  1       -1 0.56674117E-01 0.15587564E+04</pdfrwt>
<totfact> 0.36162657E+01</totfact>
</mgrwt>
</event>
<event>
12    7  0.1740517E-007  0.1668924E+04  0.7818608E-02  0.8779289E-01
         -1   -1    0    0    0  501 -0.00000000000E+00  0.00000000000E+00  0.15475525800E+04  0.15475525800E+04  0.00000000000E+00 0.  1.
          2   -1    0    0  501    0  0.00000000000E+00 -0.00000000000E+00 -0.44995353171E+03  0.44995353171E+03  0.00000000000E+00 0. -1.
         24    2    1    2    0    0 -0.12211190367E+03 -0.51981837578E+02 -0.29259738902E+03  0.33092173597E+03  0.79262442672E+02 0.  0.
        254    2    1    2    0    0  0.12211190367E+03  0.51981837578E+02  0.13901964373E+04  0.16665843757E+04  0.90952950402E+03 0.  0.
         23    2    4    4    0    0  0.19707661039E+02  0.45421705029E+03  0.50979477281E+03  0.68909888970E+03  0.90912313418E+02 0.  0.
         23    2    4    4    0    0  0.10240424263E+03 -0.40223521272E+03  0.88040166446E+03  0.97748548599E+03  0.89949926578E+02 0.  0.
          4    1    3    3  502    0 -0.11874490999E+03 -0.22755375162E+02 -0.19940933529E+03  0.23320000804E+03  0.00000000000E+00 0. -1.
         -3    1    3    3    0  502 -0.33669936778E+01 -0.29226462416E+02 -0.93188053729E+02  0.97721727930E+02  0.00000000000E+00 0.  1.
         13    1    5    5    0    0  0.13963440131E+02  0.45647727595E+03  0.49743703914E+03  0.67528519088E+03  0.00000000000E+00 0. -1.
        -13    1    5    5    0    0  0.57442209082E+01 -0.22602256521E+01  0.12357733664E+02  0.13813698822E+02  0.00000000000E+00 0.  1.
          1    1    6    6  503    0  0.10544303393E+03 -0.39324457594E+03  0.81120950166E+03  0.90764551754E+03  0.00000000000E+00 0. -1.
         -1    1    6    6    0  503 -0.30387913072E+01 -0.89906367760E+01  0.69192162791E+02  0.69839968456E+02  0.00000000000E+00 0.  1.
<mgrwt>
<rscale>  0 0.16689239E+04</rscale>
<asrwt>0</asrwt>
<pdfrwt beam="1">  1        2 0.69223621E-01 0.16689239E+04</pdfrwt>
<pdfrwt beam="2">  1       -1 0.23808501E+00 0.16689239E+04</pdfrwt>
<totfact> 0.63315481E+00</totfact>
</mgrwt>
</event>
<event>
12    7  0.1740517E-007  0.1219882E+04  0.7818608E-02  0.9095629E-01
         -1   -1    0    0    0  501 -0.00000000000E+00  0.00000000000E+00  0.13818811362E+04  0.13818811362E+04  0.00000000000E+00 0.  1.
          2   -1    0    0  501    0  0.00000000000E+00 -0.00000000000E+00 -0.26921869221E+03  0.26921869221E+03  0.00000000000E+00 0. -1.
         24    2    1    2    0    0  0.20562153930E+02 -0.24324844879E+03  0.41125617489E+03  0.48486529791E+03  0.79812942019E+02 0.  0.
        254    2    1    2    0    0 -0.20562153930E+02  0.24324844879E+03  0.70140626911E+03  0.11662345305E+04  0.89918830941E+03 0.  0.
         23    2    4    4    0    0  0.56571854870E+02  0.52888967721E+03  0.66182457857E+03  0.85418861610E+03  0.93283190609E+02 0.  0.
         23    2    4    4    0    0 -0.77134008800E+02 -0.28564122842E+03  0.39581690536E+02  0.31204591441E+03  0.90914112147E+02 0.  0.
          4    1    3    3  502    0  0.39603616579E+02 -0.55842795821E+02  0.10906626658E+03  0.12877233708E+03  0.00000000000E+00 0. -1.
         -3    1    3    3    0  502 -0.19041462649E+02 -0.18740565297E+03  0.30218990831E+03  0.35609296082E+03  0.00000000000E+00 0.  1.
         13    1    5    5    0    0  0.21907423362E+02  0.13752809106E+03  0.11362568405E+03  0.17973510259E+03  0.00000000000E+00 0. -1.
        -13    1    5    5    0    0  0.34664431508E+02  0.39136158615E+03  0.54819889452E+03  0.67445351350E+03  0.00000000000E+00 0.  1.
          1    1    6    6  503    0 -0.67859851686E+02 -0.12524712863E+03  0.50193757924E+02  0.15103382414E+03  0.00000000000E+00 0. -1.
         -1    1    6    6    0  503 -0.92741571140E+01 -0.16039409979E+03 -0.10612067388E+02  0.16101209027E+03  0.00000000000E+00 0.  1.
<mgrwt>
<rscale>  0 0.12198823E+04</rscale>
<asrwt>0</asrwt>
<pdfrwt beam="1">  1        2 0.41418261E-01 0.12198823E+04</pdfrwt>
<pdfrwt beam="2">  1       -1 0.21259709E+00 0.12198823E+04</pdfrwt>
<totfact> 0.17285359E+01</totfact>
</mgrwt>
</event>
<event>
12    7  0.1740517E-007  0.2380591E+04  0.7818608E-02  0.8446806E-01
         -1   -1    0    0    0  501 -0.00000000000E+00  0.00000000000E+00  0.83659880804E+03  0.83659880804E+03  0.00000000000E+00 0.  1.
          2   -1    0    0  501    0  0.00000000000E+00 -0.00000000000E+00 -0.16935276250E+04  0.16935276250E+04  0.00000000000E+00 0. -1.
         24    2    1    2    0    0  0.57218427371E+03 -0.32276672172E+03 -0.11934062434E+04  0.13644103006E+04  0.76313870594E+02 0.  0.
        254    2    1    2    0    0 -0.57218427371E+03  0.32276672172E+03  0.33647742648E+03  0.11657161324E+04  0.90227703235E+03 0.  0.
         23    2    4    4    0    0 -0.67044345097E+03 -0.39710748558E+02  0.41966796120E+02  0.67912090441E+03  0.91502056460E+02 0.  0.
         23    2    4    4    0    0  0.98259177255E+02  0.36247747028E+03  0.29451063036E+03  0.48659522801E+03  0.94834709615E+02 0.  0.
          2    1    3    3  502    0  0.36536627832E+03 -0.16927711433E+03 -0.68846519997E+03  0.79757857942E+03  0.00000000000E+00 0. -1.
         -1    1    3    3    0  502  0.20681799539E+03 -0.15348960739E+03 -0.50494104344E+03  0.56683172119E+03  0.00000000000E+00 0.  1.
         13    1    5    5    0    0 -0.75065396854E+01  0.10546642857E+02 -0.18787420196E+00  0.12946625441E+02  0.00000000000E+00 0.  1.
        -13    1    5    5    0    0 -0.66293691128E+03 -0.50257391414E+02  0.42154670322E+02  0.66617427897E+03  0.00000000000E+00 0. -1.
          4    1    6    6  503    0  0.32136285576E+02  0.28365807476E+02  0.57213612631E+02  0.71489561159E+02  0.00000000000E+00 0. -1.
         -4    1    6    6    0  503  0.66122891678E+02  0.33411166280E+03  0.23729701773E+03  0.41510566685E+03  0.00000000000E+00 0.  1.
<mgrwt>
<rscale>  0 0.23805908E+04</rscale>
<asrwt>0</asrwt>
<pdfrwt beam="1">  1        2 0.26054271E+00 0.23805908E+04</pdfrwt>
<pdfrwt beam="2">  1       -1 0.12870751E+00 0.23805908E+04</pdfrwt>
<totfact> 0.52743431E+00</totfact>
</mgrwt>
</event>
<event>
12    7  0.1740517E-007  0.1554924E+04  0.7818608E-02  0.8848729E-01
         -1   -1    0    0    0  501 -0.00000000000E+00  0.00000000000E+00  0.67130557440E+03  0.67130557440E+03  0.00000000000E+00 0.  1.
          2   -1    0    0  501    0  0.00000000000E+00 -0.00000000000E+00 -0.90040541507E+03  0.90040541507E+03  0.00000000000E+00 0. -1.
         24    2    1    2    0    0 -0.39354986294E+03  0.24160494780E+03  0.13063298132E+03  0.48657799098E+03  0.80241635578E+02 0.  0.
        254    2    1    2    0    0  0.39354986294E+03 -0.24160494780E+03 -0.35973282199E+03  0.10851329985E+04  0.91370207166E+03 0.  0.
         23    2    4    4    0    0 -0.25098448793E+02  0.27148034212E+03  0.63373768304E+02  0.29459525466E+03  0.91861968558E+02 0.  0.
         23    2    4    4    0    0  0.41864831173E+03 -0.51308528992E+03 -0.42310659030E+03  0.79053774382E+03  0.86068658641E+02 0.  0.
          2    1    3    3  502    0 -0.52473477119E+02  0.27540715340E+02 -0.98806923092E+01  0.60079820930E+02  0.00000000000E+00 0. -1.
         -1    1    3    3    0  502 -0.34107638582E+03  0.21406423246E+03  0.14051367363E+03  0.42649817005E+03  0.00000000000E+00 0.  1.
         13    1    5    5    0    0 -0.51293672896E+02  0.17276387439E+03  0.12920789795E+02  0.18068022576E+03  0.00000000000E+00 0.  1.
        -13    1    5    5    0    0  0.26195224103E+02  0.98716467734E+02  0.50452978509E+02  0.11391502890E+03  0.00000000000E+00 0. -1.
          1    1    6    6  503    0  0.34433316895E+03 -0.39697530343E+03 -0.29657712589E+03  0.60341752905E+03  0.00000000000E+00 0.  1.
         -1    1    6    6    0  503  0.74315142785E+02 -0.11610998650E+03 -0.12652946441E+03  0.18712021477E+03  0.00000000000E+00 0. -1.
<mgrwt>
<rscale>  0 0.15549240E+04</rscale>
<asrwt>0</asrwt>
<pdfrwt beam="1">  1        2 0.13852391E+00 0.15549240E+04</pdfrwt>
<pdfrwt beam="2">  1       -1 0.10327778E+00 0.15549240E+04</pdfrwt>
<totfact> 0.28479347E+01</totfact>
</mgrwt>
</event>
<event>
12    7  0.1740517E-007  0.1571565E+04  0.7818608E-02  0.8838210E-01
         -1   -1    0    0    0  501 -0.00000000000E+00  0.00000000000E+00  0.96588265851E+03  0.96588265851E+03  0.00000000000E+00 0.  1.
          2   -1    0    0  501    0  0.00000000000E+00 -0.00000000000E+00 -0.63926395450E+03  0.63926395450E+03  0.00000000000E+00 0. -1.
         24    2    1    2    0    0  0.38817114263E+03  0.22017516248E+02 -0.23922859774E+03  0.46208699244E+03  0.71641186632E+02 0.  0.
        254    2    1    2    0    0 -0.38817114263E+03 -0.22017516248E+02  0.56584730175E+03  0.11430596206E+04  0.91391494149E+03 0.  0.
         23    2    4    4    0    0 -0.28463350250E+03 -0.44676817380E+03  0.23296236925E+03  0.58600377689E+03  0.92254697298E+02 0.  0.
         23    2    4    4    0    0 -0.10353764012E+03  0.42475065755E+03  0.33288493250E+03  0.55705584367E+03  0.91464040296E+02 0.  0.
          2    1    3    3  502    0  0.35017627762E+03  0.40516074525E+02 -0.20566777951E+03  0.40812279186E+03  0.00000000000E+00 0. -1.
         -1    1    3    3    0  502  0.37994865001E+02 -0.18498558277E+02 -0.33560818229E+02  0.53964200587E+02  0.00000000000E+00 0.  1.
         13    1    5    5    0    0 -0.11695356741E+03 -0.11587394332E+03  0.95946630134E+02  0.19055357122E+03  0.00000000000E+00 0.  1.
        -13    1    5    5    0    0 -0.16767993510E+03 -0.33089423049E+03  0.13701573912E+03  0.39545020568E+03  0.00000000000E+00 0. -1.
          1    1    6    6  503    0 -0.29693902848E+02  0.25048319621E+03  0.14788968095E+03  0.29239513878E+03  0.00000000000E+00 0. -1.
         -1    1    6    6    0  503 -0.73843737274E+02  0.17426746134E+03  0.18499525154E+03  0.26466070489E+03  0.00000000000E+00 0.  1.
<mgrwt>
<rscale>  0 0.15715648E+04</rscale>
<asrwt>0</asrwt>
<pdfrwt beam="1">  1        2 0.98348301E-01 0.15715648E+04</pdfrwt>
<pdfrwt beam="2">  1       -1 0.14859733E+00 0.15715648E+04</pdfrwt>
<totfact> 0.18032910E+01</totfact>
</mgrwt>
</event>
<event>
12    7  0.1740517E-007  0.1237612E+04  0.7818608E-02  0.9080557E-01
          2   -1    0    0  501    0  0.00000000000E+00  0.00000000000E+00  0.55506796927E+03  0.55506796927E+03  0.00000000000E+00 0. -1.
         -1   -1    0    0    0  501 -0.00000000000E+00 -0.00000000000E+00 -0.68986279788E+03  0.68986279788E+03  0.00000000000E+00 0.  1.
         24    2    1    2    0    0 -0.54497951216E+02  0.17612707876E+03  0.16969195837E+03  0.26301712985E+03  0.79949204483E+02 0.  0.
        254    2    1    2    0    0  0.54497951216E+02 -0.17612707876E+03 -0.30448678699E+03  0.98191363729E+03  0.91512371464E+03 0.  0.
         23    2    4    4    0    0 -0.21017939069E+03 -0.14797664477E+03  0.24315607179E+03  0.36623789831E+03  0.94513804518E+02 0.  0.
         23    2    4    4    0    0  0.26467734190E+03 -0.28150433985E+02 -0.54764285877E+03  0.61567573898E+03  0.91089914677E+02 0.  0.
          2    1    3    3  502    0 -0.68255909158E+02  0.14821525341E+03  0.16406210740E+03  0.23139361608E+03  0.00000000000E+00 0. -1.
         -3    1    3    3    0  502  0.13757957943E+02  0.27911825345E+02  0.56298509755E+01  0.31623513765E+02  0.00000000000E+00 0.  1.
         13    1    5    5    0    0 -0.13174791736E+03 -0.76133649181E+02  0.81187555012E+02  0.17246815751E+03  0.00000000000E+00 0. -1.
        -13    1    5    5    0    0 -0.78431473330E+02 -0.71842995591E+02  0.16196851678E+03  0.19376974080E+03  0.00000000000E+00 0.  1.
          3    1    6    6  503    0  0.37052480940E+02  0.18596075022E+01 -0.16766020983E+03  0.17171572567E+03  0.00000000000E+00 0. -1.
         -3    1    6    6    0  503  0.22762486096E+03 -0.30010041488E+02 -0.37998264895E+03  0.44396001331E+03  0.00000000000E+00 0.  1.
<mgrwt>
<rscale>  0 0.12376118E+04</rscale>
<asrwt>0</asrwt>
<pdfrwt beam="1">  1        2 0.85395072E-01 0.12376118E+04</pdfrwt>
<pdfrwt beam="2">  1       -1 0.10613274E+00 0.12376118E+04</pdfrwt>
<totfact> 0.50900684E+01</totfact>
</mgrwt>
</event>
<event>
12    7  0.1740517E-007  0.1553130E+04  0.7818608E-02  0.8849871E-01
         -1   -1    0    0    0  501 -0.00000000000E+00  0.00000000000E+00  0.33707505040E+03  0.33707505040E+03  0.00000000000E+00 0.  1.
          2   -1    0    0  501    0  0.00000000000E+00 -0.00000000000E+00 -0.17890773929E+04  0.17890773929E+04  0.00000000000E+00 0. -1.
         24    2    1    2    0    0 -0.12090213340E+03  0.44231973792E+03 -0.18948456667E+03  0.50076166013E+03  0.67777303255E+02 0.  0.
        254    2    1    2    0    0  0.12090213340E+03 -0.44231973792E+03 -0.12625177758E+04  0.16253907831E+04  0.91524859315E+03 0.  0.
         23    2    4    4    0    0 -0.62756472557E+02 -0.30812813059E+02  0.12036623242E+03  0.16827641354E+03  0.94557480678E+02 0.  0.
         23    2    4    4    0    0  0.18365860596E+03 -0.41150692486E+03 -0.13828840082E+04  0.14571143696E+04  0.88009505985E+02 0.  0.
          4    1    3    3  502    0  0.16271068772E+01  0.30995371063E+02 -0.29221065522E+02  0.42628994527E+02  0.00000000000E+00 0. -1.
         -3    1    3    3    0  502 -0.12252924028E+03  0.41132436686E+03 -0.16026350115E+03  0.45813266560E+03  0.00000000000E+00 0.  1.
         13    1    5    5    0    0 -0.29112693518E+02  0.32829390005E+02  0.59972384370E+02  0.74310192161E+02  0.00000000000E+00 0. -1.
        -13    1    5    5    0    0 -0.33643779039E+02 -0.63642203063E+02  0.60393848046E+02  0.93966221381E+02  0.00000000000E+00 0.  1.
          3    1    6    6  503    0 -0.23495510366E+01 -0.21550852182E+02 -0.30689197503E+02  0.37573746995E+02  0.00000000000E+00 0. -1.
         -3    1    6    6    0  503  0.18600815699E+03 -0.38995607268E+03 -0.13521948107E+04  0.14195406226E+04  0.00000000000E+00 0.  1.
<mgrwt>
<rscale>  0 0.15531302E+04</rscale>
<asrwt>0</asrwt>
<pdfrwt beam="1">  1        2 0.27524267E+00 0.15531302E+04</pdfrwt>
<pdfrwt beam="2">  1       -1 0.51857700E-01 0.15531302E+04</pdfrwt>
<totfact> 0.35906995E+01</totfact>
</mgrwt>
</event>
<event>
12    7  0.1740517E-007  0.1168951E+04  0.7818608E-02  0.9140476E-01
         -1   -1    0    0    0  501 -0.00000000000E+00  0.00000000000E+00  0.25127927600E+03  0.25127927600E+03  0.00000000000E+00 0.  1.
          2   -1    0    0  501    0  0.00000000000E+00 -0.00000000000E+00 -0.13594907647E+04  0.13594907647E+04  0.00000000000E+00 0. -1.
         24    2    1    2    0    0  0.19742742009E+02 -0.12589394692E+03  0.79814223477E+01  0.14843018831E+03  0.75688545802E+02 0.  0.
        254    2    1    2    0    0 -0.19742742009E+02  0.12589394692E+03 -0.11161929110E+04  0.14623398523E+04  0.93611546694E+03 0.  0.
         23    2    4    4    0    0 -0.12125049628E+03 -0.18363726496E+02  0.12980161912E+03  0.20067045395E+03  0.91549229733E+02 0.  0.
         23    2    4    4    0    0  0.10150775427E+03  0.14425767342E+03 -0.12459945301E+04  0.12616693984E+04  0.90516303722E+02 0.  0.
          4    1    3    3  502    0 -0.93926466805E+01 -0.66000896070E+02 -0.28485634831E+02  0.72496699824E+02  0.00000000000E+00 0. -1.
         -3    1    3    3    0  502  0.29135388690E+02 -0.59893050853E+02  0.36467057178E+02  0.75933488487E+02  0.00000000000E+00 0.  1.
         13    1    5    5    0    0 -0.79987867511E+02  0.32965932868E+02  0.82868567184E+02  0.11979987941E+03  0.00000000000E+00 0.  1.
        -13    1    5    5    0    0 -0.41262628766E+02 -0.51329659364E+02  0.46933051932E+02  0.80870574542E+02  0.00000000000E+00 0. -1.
          2    1    6    6  503    0  0.43570109374E+02  0.85173294898E+02 -0.38505610158E+03  0.39676321145E+03  0.00000000000E+00 0. -1.
         -2    1    6    6    0  503  0.57937644894E+02  0.59084378521E+02 -0.86093842854E+03  0.86490618695E+03  0.00000000000E+00 0.  1.
<mgrwt>
<rscale>  0 0.11689514E+04</rscale>
<asrwt>0</asrwt>
<pdfrwt beam="1">  1        2 0.20915242E+00 0.11689514E+04</pdfrwt>
<pdfrwt beam="2">  1       -1 0.38658351E-01 0.11689514E+04</pdfrwt>
<totfact> 0.11145158E+02</totfact>
</mgrwt>
</event>
<event>
12    7  0.1740517E-007  0.1631549E+04  0.7818608E-02  0.8801398E-01
          2   -1    0    0  501    0  0.00000000000E+00  0.00000000000E+00  0.74169406053E+03  0.74169406053E+03  0.00000000000E+00 0. -1.
         -1   -1    0    0    0  501 -0.00000000000E+00 -0.00000000000E+00 -0.89725364283E+03  0.89725364283E+03  0.00000000000E+00 0.  1.
         24    2    1    2    0    0 -0.17672012687E+03  0.41591210430E+03 -0.39415632111E+03  0.60481010823E+03  0.78887133278E+02 0.  0.
        254    2    1    2    0    0  0.17672012687E+03 -0.41591210430E+03  0.23859673881E+03  0.10341375951E+04  0.89905465915E+03 0.  0.
         23    2    4    4    0    0  0.10196662518E+03  0.11205553018E+03  0.42595815679E+03  0.46175175704E+03  0.93918578030E+02 0.  0.
         23    2    4    4    0    0  0.74753501695E+02 -0.52796763449E+03 -0.18736141799E+03  0.57238583809E+03  0.90461801956E+02 0.  0.
          2    1    3    3  502    0 -0.82529221447E+02  0.14535353070E+03 -0.18979410076E+03  0.25290417545E+03  0.00000000000E+00 0. -1.
         -1    1    3    3    0  502 -0.94190905425E+02  0.27055857360E+03 -0.20436222036E+03  0.35190593278E+03  0.00000000000E+00 0.  1.
         13    1    5    5    0    0  0.93341187001E+02  0.12832480277E+03  0.39569424794E+03  0.42632589652E+03  0.00000000000E+00 0.  1.
        -13    1    5    5    0    0  0.86254381763E+01 -0.16269272587E+02  0.30263908855E+02  0.35425860518E+02  0.00000000000E+00 0. -1.
          4    1    6    6  503    0  0.74916172938E+02 -0.52899739965E+03 -0.17826657657E+03  0.56323143922E+03  0.00000000000E+00 0.  1.
         -4    1    6    6    0  503 -0.16267124284E+00  0.10297651641E+01 -0.90948414171E+01  0.91543988677E+01  0.00000000000E+00 0. -1.
<mgrwt>
<rscale>  0 0.16315486E+04</rscale>
<asrwt>0</asrwt>
<pdfrwt beam="1">  1        2 0.11410678E+00 0.16315486E+04</pdfrwt>
<pdfrwt beam="2">  1       -1 0.13803902E+00 0.16315486E+04</pdfrwt>
<totfact> 0.18076004E+01</totfact>
</mgrwt>
</event>
<event>
12    7  0.1740517E-007  0.1791858E+04  0.7818608E-02  0.8710641E-01
         -1   -1    0    0    0  501 -0.00000000000E+00  0.00000000000E+00  0.54684875708E+03  0.54684875708E+03  0.00000000000E+00 0.  1.
          2   -1    0    0  501    0  0.00000000000E+00 -0.00000000000E+00 -0.14678447509E+04  0.14678447509E+04  0.00000000000E+00 0. -1.
         24    2    1    2    0    0 -0.46704046327E+03  0.46043706817E+03 -0.19771003363E+03  0.68927553247E+03  0.76696898179E+02 0.  0.
        254    2    1    2    0    0  0.46704046327E+03 -0.46043706817E+03 -0.72328596021E+03  0.13254179755E+04  0.89635993972E+03 0.  0.
         23    2    4    4    0    0  0.39447508980E+03  0.17874126869E+03 -0.41463125338E+03  0.60613105070E+03  0.88976045876E+02 0.  0.
         23    2    4    4    0    0  0.72565373476E+02 -0.63917833686E+03 -0.30865470682E+03  0.71928692482E+03  0.91056424473E+02 0.  0.
          4    1    3    3  502    0 -0.15149954374E+03  0.16979613056E+03 -0.10382866006E+03  0.25012642475E+03  0.00000000000E+00 0. -1.
         -3    1    3    3    0  502 -0.31554091953E+03  0.29064093761E+03 -0.93881373569E+02  0.43914910772E+03  0.00000000000E+00 0.  1.
         13    1    5    5    0    0  0.71829655127E+02  0.20302773349E+02 -0.12018829700E+03  0.14148119556E+03  0.00000000000E+00 0. -1.
        -13    1    5    5    0    0  0.32264543467E+03  0.15843849534E+03 -0.29444295638E+03  0.46464985514E+03  0.00000000000E+00 0.  1.
          1    1    6    6  503    0  0.60064968915E+01 -0.52579163234E+02 -0.56246101708E+02  0.77228688767E+02  0.00000000000E+00 0. -1.
         -1    1    6    6    0  503  0.66558876584E+02 -0.58659917362E+03 -0.25240860511E+03  0.64205823605E+03  0.00000000000E+00 0.  1.
<mgrwt>
<rscale>  0 0.17918583E+04</rscale>
<asrwt>0</asrwt>
<pdfrwt beam="1">  1        2 0.22582227E+00 0.17918583E+04</pdfrwt>
<pdfrwt beam="2">  1       -1 0.84130579E-01 0.17918583E+04</pdfrwt>
<totfact> 0.19949791E+01</totfact>
</mgrwt>
</event>
<event>
12    7  0.1740517E-007  0.1420455E+04  0.7818608E-02  0.8939144E-01
          2   -1    0    0  501    0  0.00000000000E+00  0.00000000000E+00  0.27920220559E+04  0.27920220559E+04  0.00000000000E+00 0. -1.
         -1   -1    0    0    0  501 -0.00000000000E+00 -0.00000000000E+00 -0.18066583902E+03  0.18066583902E+03  0.00000000000E+00 0.  1.
         24    2    1    2    0    0  0.19519528571E+03  0.36441819948E+03  0.95400071934E+03  0.10428700829E+04  0.80986502827E+02 0.  0.
        254    2    1    2    0    0 -0.19519528571E+03 -0.36441819948E+03  0.16573554976E+04  0.19298178120E+04  0.89803547739E+03 0.  0.
         23    2    4    4    0    0  0.26330677503E+03 -0.43333093932E+03  0.82763013392E+03  0.97486841043E+03  0.91052832605E+02 0.  0.
         23    2    4    4    0    0 -0.45850206075E+03  0.68912739842E+02  0.82972536363E+03  0.95494940160E+03  0.92255488336E+02 0.  0.
          4    1    3    3  502    0  0.14982458309E+03  0.23398572452E+03  0.71116382471E+03  0.76351208933E+03  0.00000000000E+00 0. -1.
         -3    1    3    3    0  502  0.45370702618E+02  0.13043247496E+03  0.24283689464E+03  0.27935799358E+03  0.00000000000E+00 0.  1.
         13    1    5    5    0    0  0.11370511583E+02 -0.55742726985E+02  0.13788971638E+03  0.14916472113E+03  0.00000000000E+00 0.  1.
        -13    1    5    5    0    0  0.25193626345E+03 -0.37758821234E+03  0.68974041754E+03  0.82570368930E+03  0.00000000000E+00 0. -1.
          3    1    6    6  503    0 -0.20691920528E+03 -0.14973491755E+02  0.37298736303E+03  0.42680128391E+03  0.00000000000E+00 0. -1.
         -3    1    6    6    0  503 -0.25158285547E+03  0.83886231598E+02  0.45673800060E+03  0.52814811768E+03  0.00000000000E+00 0.  1.
<mgrwt>
<rscale>  0 0.14204549E+04</rscale>
<asrwt>0</asrwt>
<pdfrwt beam="1">  1        2 0.42954182E+00 0.14204549E+04</pdfrwt>
<pdfrwt beam="2">  1       -1 0.27794746E-01 0.14204549E+04</pdfrwt>
<totfact> 0.30371103E+01</totfact>
</mgrwt>
</event>
<event>
12    7  0.1740517E-007  0.1627606E+04  0.7818608E-02  0.8803766E-01
          2   -1    0    0  501    0  0.00000000000E+00  0.00000000000E+00  0.55211570850E+03  0.55211570850E+03  0.00000000000E+00 0. -1.
         -1   -1    0    0    0  501 -0.00000000000E+00 -0.00000000000E+00 -0.11995231314E+04  0.11995231314E+04  0.00000000000E+00 0.  1.
         24    2    1    2    0    0  0.67116573344E+02 -0.30811237384E+03  0.27744669948E+03  0.42794571104E+03  0.81993848665E+02 0.  0.
        254    2    1    2    0    0 -0.67116573344E+02  0.30811237384E+03 -0.92485412233E+03  0.13236931288E+04  0.89295603608E+03 0.  0.
         23    2    4    4    0    0  0.17021968156E+03  0.42063674433E+03 -0.93795422783E+03  0.10457599560E+04  0.89138888055E+02 0.  0.
         23    2    4    4    0    0 -0.23733625490E+03 -0.11252437049E+03  0.13100105497E+02  0.27793317284E+03  0.89916650060E+02 0.  0.
          4    1    3    3  502    0  0.68800272776E+02 -0.31012292110E+03  0.26055337386E+03  0.41085005093E+03  0.00000000000E+00 0. -1.
         -3    1    3    3    0  502 -0.16836994321E+01  0.20105472587E+01  0.16893325619E+02  0.17095660108E+02  0.00000000000E+00 0.  1.
         13    1    5    5    0    0  0.16718672248E+03  0.42478955258E+03 -0.91924866329E+03  0.10263603992E+04  0.00000000000E+00 0.  1.
        -13    1    5    5    0    0  0.30329590719E+01 -0.41528082573E+01 -0.18705564544E+02  0.19399556750E+02  0.00000000000E+00 0. -1.
          2    1    6    6  503    0 -0.13800159948E+03 -0.73931923798E+02 -0.35928772759E+02  0.16062766738E+03  0.00000000000E+00 0. -1.
         -2    1    6    6    0  503 -0.99334655419E+02 -0.38592446693E+02  0.49028878256E+02  0.11730550546E+03  0.00000000000E+00 0.  1.
<mgrwt>
<rscale>  0 0.16276063E+04</rscale>
<asrwt>0</asrwt>
<pdfrwt beam="1">  1        2 0.84940879E-01 0.16276063E+04</pdfrwt>
<pdfrwt beam="2">  1       -1 0.18454202E+00 0.16276063E+04</pdfrwt>
<totfact> 0.11570914E+01</totfact>
</mgrwt>
</event>
<event>
12    7  0.1740517E-007  0.1577825E+04  0.7818608E-02  0.8834288E-01
          2   -1    0    0  501    0  0.00000000000E+00  0.00000000000E+00  0.25194255428E+03  0.25194255428E+03  0.00000000000E+00 0. -1.
         -1   -1    0    0    0  501 -0.00000000000E+00 -0.00000000000E+00 -0.24703358140E+04  0.24703358140E+04  0.00000000000E+00 0.  1.
         24    2    1    2    0    0 -0.50673797098E+03 -0.12231980349E+03 -0.88758055050E+03  0.10329129365E+04  0.85816053856E+02 0.  0.
        254    2    1    2    0    0  0.50673797098E+03  0.12231980349E+03 -0.13308127092E+04  0.16893654318E+04  0.90063732417E+03 0.  0.
         23    2    4    4    0    0  0.45468889426E+03  0.31674531479E+03 -0.13547768936E+04  0.14664619691E+04  0.89558308558E+02 0.  0.
         23    2    4    4    0    0  0.52049076720E+02 -0.19442551130E+03  0.23964184328E+02  0.22290346270E+03  0.92743116829E+02 0.  0.
          2    1    3    3  502    0 -0.15568562464E+03 -0.78811774869E+02 -0.28516650371E+03  0.33431907576E+03  0.00000000000E+00 0. -1.
         -1    1    3    3    0  502 -0.35105234634E+03 -0.43508028618E+02 -0.60241404679E+03  0.69859386069E+03  0.00000000000E+00 0.  1.
         13    1    5    5    0    0  0.42798865126E+03  0.31492749533E+03 -0.12486258117E+04  0.13569893259E+04  0.00000000000E+00 0. -1.
        -13    1    5    5    0    0  0.26700243005E+02  0.18178194608E+01 -0.10615108181E+03  0.10947264322E+03  0.00000000000E+00 0.  1.
          1    1    6    6  503    0  0.51390818112E+02 -0.20029971017E+03  0.91908103939E+01  0.20699145169E+03  0.00000000000E+00 0. -1.
         -1    1    6    6    0  503  0.65825860762E+00  0.58741988655E+01  0.14773373934E+02  0.15912011001E+02  0.00000000000E+00 0.  1.
<mgrwt>
<rscale>  0 0.15778247E+04</rscale>
<asrwt>0</asrwt>
<pdfrwt beam="1">  1        2 0.38760394E-01 0.15778247E+04</pdfrwt>
<pdfrwt beam="2">  1       -1 0.38005165E+00 0.15778247E+04</pdfrwt>
<totfact> 0.14426818E+00</totfact>
</mgrwt>
</event>
<event>
12    7  0.1740517E-007  0.1030111E+04  0.7818608E-02  0.9276122E-01
         -1   -1    0    0    0  501 -0.00000000000E+00  0.00000000000E+00  0.35348257921E+03  0.35348257921E+03  0.00000000000E+00 0.  1.
          2   -1    0    0  501    0  0.00000000000E+00 -0.00000000000E+00 -0.75048220262E+03  0.75048220262E+03  0.00000000000E+00 0. -1.
         24    2    1    2    0    0  0.46301889765E+02  0.35487092020E+02 -0.13343925332E+03  0.16639119700E+03  0.80478552536E+02 0.  0.
        254    2    1    2    0    0 -0.46301889765E+02 -0.35487092020E+02 -0.26356037008E+03  0.93757358482E+03  0.89787357661E+03 0.  0.
         23    2    4    4    0    0 -0.42274885512E+03  0.13232393990E+02 -0.32714408117E+03  0.54204862570E+03  0.88891912008E+02 0.  0.
         23    2    4    4    0    0  0.37644696536E+03 -0.48719486010E+02  0.63583711090E+02  0.39552495912E+03  0.91165777166E+02 0.  0.
          4    1    3    3  502    0  0.66812298289E+02  0.11460793516E+02 -0.92559999846E+02  0.11472831630E+03  0.00000000000E+00 0. -1.
         -3    1    3    3    0  502 -0.20510408524E+02  0.24026298504E+02 -0.40879253474E+02  0.51662880700E+02  0.00000000000E+00 0.  1.
         13    1    5    5    0    0 -0.64948187242E+02 -0.12866926488E+02 -0.91057407369E+02  0.11258452940E+03  0.00000000000E+00 0. -1.
        -13    1    5    5    0    0 -0.35780066788E+03  0.26099320478E+02 -0.23608667380E+03  0.42946409630E+03  0.00000000000E+00 0.  1.
          4    1    6    6  503    0  0.10419248402E+03  0.39545386100E+01  0.55467205396E+02  0.11810301849E+03  0.00000000000E+00 0. -1.
         -4    1    6    6    0  503  0.27225448134E+03 -0.52674024620E+02  0.81165056935E+01  0.27742194063E+03  0.00000000000E+00 0.  1.
<mgrwt>
<rscale>  0 0.10301114E+04</rscale>
<asrwt>0</asrwt>
<pdfrwt beam="1">  1        2 0.11545880E+00 0.10301114E+04</pdfrwt>
<pdfrwt beam="2">  1       -1 0.54381936E-01 0.10301114E+04</pdfrwt>
<totfact> 0.14560053E+02</totfact>
</mgrwt>
</event>
<event>
12    7  0.1740517E-007  0.1124194E+04  0.7818608E-02  0.9181926E-01
          2   -1    0    0  501    0  0.00000000000E+00  0.00000000000E+00  0.15200718287E+04  0.15200718287E+04  0.00000000000E+00 0. -1.
         -1   -1    0    0    0  501 -0.00000000000E+00 -0.00000000000E+00 -0.20785398588E+03  0.20785398588E+03  0.00000000000E+00 0.  1.
         24    2    1    2    0    0 -0.11466804426E+03 -0.22241340454E+01  0.32970831325E+02  0.14367147702E+03  0.80004440143E+02 0.  0.
        254    2    1    2    0    0  0.11466804426E+03  0.22241340454E+01  0.12792470115E+04  0.15842543376E+04  0.92748864279E+03 0.  0.
         23    2    4    4    0    0  0.11106755023E+03  0.44848283610E+03  0.74446129185E+03  0.88126054971E+03  0.94470558508E+02 0.  0.
         23    2    4    4    0    0  0.36004940316E+01 -0.44625870205E+03  0.53478571965E+03  0.70299378785E+03  0.95103665037E+02 0.  0.
          4    1    3    3  502    0 -0.45588263196E+00  0.17019263015E+02  0.21292398397E+02  0.27262233438E+02  0.00000000000E+00 0. -1.
         -3    1    3    3    0  502 -0.11421216163E+03 -0.19243397060E+02  0.11678432928E+02  0.11640924358E+03  0.00000000000E+00 0.  1.
         13    1    5    5    0    0  0.94915837767E+02  0.44240562280E+03  0.72945320988E+03  0.85839020076E+03  0.00000000000E+00 0.  1.
        -13    1    5    5    0    0  0.16151712466E+02  0.60772132983E+01  0.15008081970E+02  0.22870348958E+02  0.00000000000E+00 0. -1.
          1    1    6    6  503    0  0.23669420274E+02 -0.48291331491E+02  0.97773293575E+02  0.11158813149E+03  0.00000000000E+00 0. -1.
         -1    1    6    6    0  503 -0.20068926243E+02 -0.39796737056E+03  0.43701242607E+03  0.59140565636E+03  0.00000000000E+00 0.  1.
<mgrwt>
<rscale>  0 0.11241939E+04</rscale>
<asrwt>0</asrwt>
<pdfrwt beam="1">  1        2 0.23385720E+00 0.11241939E+04</pdfrwt>
<pdfrwt beam="2">  1       -1 0.31977537E-01 0.11241939E+04</pdfrwt>
<totfact> 0.12727497E+02</totfact>
</mgrwt>
</event>
<event>
12    7  0.1740517E-007  0.1432553E+04  0.7818608E-02  0.8930587E-01
          2   -1    0    0  501    0  0.00000000000E+00  0.00000000000E+00  0.17350177171E+04  0.17350177171E+04  0.00000000000E+00 0. -1.
         -1   -1    0    0    0  501 -0.00000000000E+00 -0.00000000000E+00 -0.29570407242E+03  0.29570407242E+03  0.00000000000E+00 0.  1.
         24    2    1    2    0    0 -0.17428634247E+02 -0.22976106158E+03  0.92250338882E+03  0.95387171943E+03  0.75926622597E+02 0.  0.
        254    2    1    2    0    0  0.17428634247E+02  0.22976106158E+03  0.51681025587E+03  0.10768500701E+04  0.91619830288E+03 0.  0.
         23    2    4    4    0    0  0.25364728990E+03 -0.23731509845E+03  0.36796351310E+02  0.36118406530E+03  0.91894254062E+02 0.  0.
         23    2    4    4    0    0 -0.23621865566E+03  0.46707616002E+03  0.48001390456E+03  0.71566600480E+03  0.88346416551E+02 0.  0.
          2    1    3    3  502    0 -0.67176012492E+00 -0.15245309359E+03  0.72999850166E+03  0.74574808711E+03  0.00000000000E+00 0. -1.
         -1    1    3    3    0  502 -0.16756874122E+02 -0.77307967992E+02  0.19250488717E+03  0.20812363232E+03  0.00000000000E+00 0.  1.
         13    1    5    5    0    0  0.30800671618E+02  0.37226874625E+01  0.40102144796E+01  0.31282928159E+02  0.00000000000E+00 0.  1.
        -13    1    5    5    0    0  0.22284661829E+03 -0.24103778591E+03  0.32786136831E+02  0.32990113714E+03  0.00000000000E+00 0. -1.
          1    1    6    6  503    0 -0.13729600983E+03  0.25481872869E+03  0.32301977878E+03  0.43373327782E+03  0.00000000000E+00 0. -1.
         -1    1    6    6    0  503 -0.98922645825E+02  0.21225743133E+03  0.15699412577E+03  0.28193272698E+03  0.00000000000E+00 0.  1.
<mgrwt>
<rscale>  0 0.14325527E+04</rscale>
<asrwt>0</asrwt>
<pdfrwt beam="1">  1        2 0.26692580E+00 0.14325527E+04</pdfrwt>
<pdfrwt beam="2">  1       -1 0.45492935E-01 0.14325527E+04</pdfrwt>
<totfact> 0.49773306E+01</totfact>
</mgrwt>
</event>
<event>
12    7  0.1740517E-007  0.1364107E+04  0.7818608E-02  0.8980218E-01
         -1   -1    0    0    0  501 -0.00000000000E+00  0.00000000000E+00  0.25381757611E+03  0.25381757611E+03  0.00000000000E+00 0.  1.
          2   -1    0    0  501    0  0.00000000000E+00 -0.00000000000E+00 -0.18327997145E+04  0.18327997145E+04  0.00000000000E+00 0. -1.
         24    2    1    2    0    0 -0.88387564164E+02  0.10363137156E+03 -0.96121854129E+03  0.97396530543E+03  0.78201722449E+02 0.  0.
        254    2    1    2    0    0  0.88387564164E+02 -0.10363137156E+03 -0.61776359706E+03  0.11126519851E+04  0.91532002901E+03 0.  0.
         23    2    4    4    0    0  0.25629638150E+03  0.33353992423E+03 -0.40329616222E+03  0.58969324369E+03  0.90297347501E+02 0.  0.
         23    2    4    4    0    0 -0.16790881734E+03 -0.43717129579E+03 -0.21446743484E+03  0.52295874145E+03  0.90429264351E+02 0.  0.
          4    1    3    3  502    0 -0.64103648175E+02  0.23592632415E+02 -0.55782779600E+03  0.56199443058E+03  0.00000000000E+00 0. -1.
         -3    1    3    3    0  502 -0.24283915989E+02  0.80038739143E+02 -0.40339074529E+03  0.41197087485E+03  0.00000000000E+00 0.  1.
         13    1    5    5    0    0  0.18417492119E+03  0.16828679897E+03 -0.22096253953E+03  0.33326459785E+03  0.00000000000E+00 0. -1.
        -13    1    5    5    0    0  0.72121460316E+02  0.16525312526E+03 -0.18233362269E+03  0.25642864584E+03  0.00000000000E+00 0.  1.
          1    1    6    6  503    0 -0.42687216150E+02 -0.33359804637E+02 -0.24045787936E+02  0.59272885079E+02  0.00000000000E+00 0. -1.
         -1    1    6    6    0  503 -0.12522160119E+03 -0.40381149115E+03 -0.19042164690E+03  0.46368585637E+03  0.00000000000E+00 0.  1.
<mgrwt>
<rscale>  0 0.13641067E+04</rscale>
<asrwt>0</asrwt>
<pdfrwt beam="1">  1        2 0.28196918E+00 0.13641067E+04</pdfrwt>
<pdfrwt beam="2">  1       -1 0.39048858E-01 0.13641067E+04</pdfrwt>
<totfact> 0.58557506E+01</totfact>
</mgrwt>
</event>
<event>
12    7  0.1740517E-007  0.2289700E+04  0.7818608E-02  0.8481993E-01
         -1   -1    0    0    0  501 -0.00000000000E+00  0.00000000000E+00  0.21057772323E+04  0.21057772323E+04  0.00000000000E+00 0.  1.
          2   -1    0    0  501    0  0.00000000000E+00 -0.00000000000E+00 -0.62242160933E+03  0.62242160933E+03  0.00000000000E+00 0. -1.
         24    2    1    2    0    0 -0.25616901567E+03  0.75049035229E+03  0.12746644344E+04  0.15031740041E+04  0.76839657717E+02 0.  0.
        254    2    1    2    0    0  0.25616901567E+03 -0.75049035229E+03  0.20869118857E+03  0.12250248375E+04  0.91009642716E+03 0.  0.
         23    2    4    4    0    0 -0.57032474102E+02 -0.84932350487E+03  0.76226445002E+02  0.85949030937E+03  0.91159212102E+02 0.  0.
         23    2    4    4    0    0  0.31320148977E+03  0.98833152581E+02  0.13246474356E+03  0.36553452809E+03  0.90583760641E+02 0.  0.
          4    1    3    3  502    0  0.40620854997E+01  0.29902649990E+01  0.10851848706E+02  0.11966822624E+02  0.00000000000E+00 0. -1.
         -3    1    3    3    0  502 -0.26023110117E+03  0.74750008729E+03  0.12638125857E+04  0.14912071815E+04  0.00000000000E+00 0.  1.
         13    1    5    5    0    0 -0.28161213978E+02 -0.11224834887E+03  0.34107010765E+02  0.12064838988E+03  0.00000000000E+00 0. -1.
        -13    1    5    5    0    0 -0.28871260124E+02 -0.73707515601E+03  0.42119434236E+02  0.73884191950E+03  0.00000000000E+00 0.  1.
          2    1    6    6  503    0  0.15340483770E+03  0.15322762962E+02  0.26588201671E+02  0.15644412345E+03  0.00000000000E+00 0. -1.
         -2    1    6    6    0  503  0.15979665208E+03  0.83510389619E+02  0.10587654189E+03  0.20909040464E+03  0.00000000000E+00 0.  1.
<mgrwt>
<rscale>  0 0.22896998E+04</rscale>
<asrwt>0</asrwt>
<pdfrwt beam="1">  1        2 0.95757172E-01 0.22896998E+04</pdfrwt>
<pdfrwt beam="2">  1       -1 0.32396572E+00 0.22896998E+04</pdfrwt>
<totfact> 0.11330850E+00</totfact>
</mgrwt>
</event>
<event>
12    7  0.1740517E-007  0.1451533E+04  0.7818608E-02  0.8917338E-01
         -1   -1    0    0    0  501 -0.00000000000E+00  0.00000000000E+00  0.14562066909E+03  0.14562066909E+03  0.00000000000E+00 0.  1.
          2   -1    0    0  501    0  0.00000000000E+00 -0.00000000000E+00 -0.36171863231E+04  0.36171863231E+04  0.00000000000E+00 0. -1.
         24    2    1    2    0    0 -0.20906510008E+03  0.75552040160E+02 -0.85819169337E+02  0.25147055420E+03  0.80350376241E+02 0.  0.
        254    2    1    2    0    0  0.20906510008E+03 -0.75552040160E+02 -0.33857464847E+04  0.35113364380E+04  0.90376324079E+03 0.  0.
         23    2    4    4    0    0 -0.50745576915E+02  0.11516505701E+03 -0.29855735661E+04  0.29895645301E+04  0.89489984056E+02 0.  0.
         23    2    4    4    0    0  0.25981067699E+03 -0.19071709717E+03 -0.40017291860E+03  0.52177190788E+03  0.90735660263E+02 0.  0.
          4    1    3    3  502    0 -0.13903353121E+02  0.33611887285E+02 -0.18493920189E+02  0.40805480990E+02  0.00000000000E+00 0. -1.
         -3    1    3    3    0  502 -0.19516174696E+03  0.41940152875E+02 -0.67325249147E+02  0.21066507321E+03  0.00000000000E+00 0.  1.
         13    1    5    5    0    0 -0.27853559134E+02 -0.16682118788E+01 -0.10248506863E+04  0.10252304780E+04  0.00000000000E+00 0.  1.
        -13    1    5    5    0    0 -0.22892017781E+02  0.11683326889E+03 -0.19607228798E+04  0.19643340522E+04  0.00000000000E+00 0. -1.
          4    1    6    6  503    0  0.18589476731E+02 -0.51672166520E+02 -0.48841940032E+02  0.73492289011E+02  0.00000000000E+00 0. -1.
         -4    1    6    6    0  503  0.24122120026E+03 -0.13904493065E+03 -0.35133097857E+03  0.44827961887E+03  0.00000000000E+00 0.  1.
<mgrwt>
<rscale>  0 0.14515331E+04</rscale>
<asrwt>0</asrwt>
<pdfrwt beam="1">  1        2 0.55649018E+00 0.14515331E+04</pdfrwt>
<pdfrwt beam="2">  1       -1 0.22403181E-01 0.14515331E+04</pdfrwt>
<totfact> 0.12739272E+01</totfact>
</mgrwt>
</event>
<event>
12    7  0.1740517E-007  0.1701770E+04  0.7818608E-02  0.8760355E-01
          2   -1    0    0  501    0  0.00000000000E+00  0.00000000000E+00  0.19401041386E+04  0.19401041386E+04  0.00000000000E+00 0. -1.
         -1   -1    0    0    0  501 -0.00000000000E+00 -0.00000000000E+00 -0.37317878608E+03  0.37317878608E+03  0.00000000000E+00 0.  1.
         24    2    1    2    0    0 -0.49277018465E+03 -0.36472021481E+03  0.55429565088E+03  0.83170862079E+03  0.93017586224E+02 0.  0.
        254    2    1    2    0    0  0.49277018465E+03  0.36472021481E+03  0.10126297016E+04  0.14815743039E+04  0.89095466512E+03 0.  0.
         23    2    4    4    0    0  0.10619096785E+03 -0.24143241136E+03  0.60180558538E+02  0.28495404728E+03  0.89504069896E+02 0.  0.
         23    2    4    4    0    0  0.38657921680E+03  0.60615262617E+03  0.95244914308E+03  0.11966202566E+04  0.88747795684E+02 0.  0.
          2    1    3    3  502    0 -0.28344029885E+03 -0.18714547066E+03  0.36301906142E+03  0.49713646935E+03  0.00000000000E+00 0. -1.
         -1    1    3    3    0  502 -0.20932988580E+03 -0.17757474414E+03  0.19127658946E+03  0.33457215145E+03  0.00000000000E+00 0.  1.
         13    1    5    5    0    0  0.75623932943E+02 -0.15586936545E+03 -0.46966561209E+01  0.17330982920E+03  0.00000000000E+00 0.  1.
        -13    1    5    5    0    0  0.30567034909E+02 -0.85563045910E+02  0.64877214659E+02  0.11164421808E+03  0.00000000000E+00 0. -1.
          1    1    6    6  503    0  0.19974053992E+03  0.32855602850E+03  0.43694196222E+03  0.58203404153E+03  0.00000000000E+00 0. -1.
         -1    1    6    6    0  503  0.18683867689E+03  0.27759659767E+03  0.51550718086E+03  0.61458621505E+03  0.00000000000E+00 0.  1.
<mgrwt>
<rscale>  0 0.17017705E+04</rscale>
<asrwt>0</asrwt>
<pdfrwt beam="1">  1        2 0.29847755E+00 0.17017705E+04</pdfrwt>
<pdfrwt beam="2">  1       -1 0.57412122E-01 0.17017705E+04</pdfrwt>
<totfact> 0.24019315E+01</totfact>
</mgrwt>
</event>
<event>
12    7  0.1740517E-007  0.2191564E+04  0.7818608E-02  0.8521948E-01
         -1   -1    0    0    0  501 -0.00000000000E+00  0.00000000000E+00  0.13627979757E+04  0.13627979757E+04  0.00000000000E+00 0.  1.
          2   -1    0    0  501    0  0.00000000000E+00 -0.00000000000E+00 -0.88108316962E+03  0.88108316962E+03  0.00000000000E+00 0. -1.
         24    2    1    2    0    0 -0.20263310347E+03 -0.89477678924E+02 -0.70434958267E+03  0.74271874802E+03  0.80351567555E+02 0.  0.
        254    2    1    2    0    0  0.20263310347E+03  0.89477678924E+02  0.11860643887E+04  0.15011623973E+04  0.89312562338E+03 0.  0.
         23    2    4    4    0    0 -0.24450182810E+03  0.29748749975E+02  0.94846924327E+03  0.98380562060E+03  0.87255152418E+02 0.  0.
         23    2    4    4    0    0  0.44713493156E+03  0.59728928949E+02  0.23759514544E+03  0.51735677667E+03  0.87803127769E+02 0.  0.
          2    1    3    3  502    0 -0.10199144538E+03 -0.66351235327E+02 -0.26817696715E+03  0.29448875542E+03  0.00000000000E+00 0. -1.
         -1    1    3    3    0  502 -0.10064165809E+03 -0.23126443597E+02 -0.43617261552E+03  0.44822999260E+03  0.00000000000E+00 0.  1.
         13    1    5    5    0    0 -0.23150273312E+03  0.39767448961E+02  0.78165408376E+03  0.81618507221E+03  0.00000000000E+00 0.  1.
        -13    1    5    5    0    0 -0.12999094975E+02 -0.10018698986E+02  0.16681515951E+03  0.16762054839E+03  0.00000000000E+00 0. -1.
          3    1    6    6  503    0  0.10832246283E+03  0.50164910555E+02  0.78943856313E+02  0.14311675882E+03  0.00000000000E+00 0. -1.
         -3    1    6    6    0  503  0.33881246874E+03  0.95640183942E+01  0.15865128913E+03  0.37424001785E+03  0.00000000000E+00 0.  1.
<mgrwt>
<rscale>  0 0.21915642E+04</rscale>
<asrwt>0</asrwt>
<pdfrwt beam="1">  1        2 0.13555126E+00 0.21915642E+04</pdfrwt>
<pdfrwt beam="2">  1       -1 0.20966123E+00 0.21915642E+04</pdfrwt>
<totfact> 0.40729978E+00</totfact>
</mgrwt>
</event>
<event>
12    7  0.1740517E-007  0.1711153E+04  0.7818608E-02  0.8755029E-01
         -1   -1    0    0    0  501 -0.00000000000E+00  0.00000000000E+00  0.29521738523E+03  0.29521738523E+03  0.00000000000E+00 0.  1.
          2   -1    0    0  501    0  0.00000000000E+00 -0.00000000000E+00 -0.24795666041E+04  0.24795666041E+04  0.00000000000E+00 0. -1.
         24    2    1    2    0    0 -0.48807309274E+01 -0.49615679912E+03 -0.13642873683E+04  0.14538663851E+04  0.79069914704E+02 0.  0.
        254    2    1    2    0    0  0.48807309274E+01  0.49615679912E+03 -0.82006185051E+03  0.13209176042E+04  0.90891500574E+03 0.  0.
         23    2    4    4    0    0  0.26437456126E+03  0.62210299272E+03 -0.74285403051E+03  0.10084639405E+04  0.90892059500E+02 0.  0.
         23    2    4    4    0    0 -0.25949383034E+03 -0.12594619360E+03 -0.77207820001E+02  0.31245366372E+03  0.92014959860E+02 0.  0.
          4    1    3    3  502    0 -0.23940777863E+02 -0.36689080452E+03 -0.10830739144E+04  0.11437793176E+04  0.00000000000E+00 0. -1.
         -3    1    3    3    0  502  0.19060046935E+02 -0.12926599460E+03 -0.28121345387E+03  0.31008706743E+03  0.00000000000E+00 0.  1.
         13    1    5    5    0    0  0.14928612371E+03  0.28778830413E+03 -0.41173568105E+03  0.52405603305E+03  0.00000000000E+00 0. -1.
        -13    1    5    5    0    0  0.11508843755E+03  0.33431468859E+03 -0.33111834946E+03  0.48440790746E+03  0.00000000000E+00 0.  1.
          3    1    6    6  503    0 -0.21971893066E+03 -0.74453866948E+02 -0.34297031351E+02  0.23451241578E+03  0.00000000000E+00 0. -1.
         -3    1    6    6    0  503 -0.39774899673E+02 -0.51492326651E+02 -0.42910788650E+02  0.77941247940E+02  0.00000000000E+00 0.  1.
<mgrwt>
<rscale>  0 0.17111530E+04</rscale>
<asrwt>0</asrwt>
<pdfrwt beam="1">  1        2 0.38147177E+00 0.17111530E+04</pdfrwt>
<pdfrwt beam="2">  1       -1 0.45418061E-01 0.17111530E+04</pdfrwt>
<totfact> 0.18668892E+01</totfact>
</mgrwt>
</event>
<event>
12    7  0.1740517E-007  0.1286524E+04  0.7818608E-02  0.9040320E-01
          4   -1    0    0  501    0  0.00000000000E+00  0.00000000000E+00  0.23870256199E+03  0.23870256199E+03  0.00000000000E+00 0. -1.
         -3   -1    0    0    0  501 -0.00000000000E+00 -0.00000000000E+00 -0.17334801813E+04  0.17334801813E+04  0.00000000000E+00 0.  1.
         24    2    1    2    0    0  0.24506393976E+03 -0.19128718522E+03 -0.27559074170E+03  0.42290786422E+03  0.79080230812E+02 0.  0.
        254    2    1    2    0    0 -0.24506393976E+03  0.19128718522E+03 -0.12191868776E+04  0.15492748791E+04  0.90398500353E+03 0.  0.
         23    2    4    4    0    0 -0.37607801863E+03  0.36228728857E+03 -0.31719782198E+03  0.61746130942E+03  0.89203446164E+02 0.  0.
         23    2    4    4    0    0  0.13101407887E+03 -0.17100010335E+03 -0.90198905566E+03  0.93181356968E+03  0.91030477888E+02 0.  0.
          2    1    3    3  502    0  0.19089635765E+02 -0.48807051130E+02 -0.32154317803E+02  0.61485303830E+02  0.00000000000E+00 0. -1.
         -1    1    3    3    0  502  0.22597430400E+03 -0.14248013409E+03 -0.24343642390E+03  0.36142256039E+03  0.00000000000E+00 0.  1.
         13    1    5    5    0    0 -0.57260298204E+02  0.19739932398E+02 -0.23454358081E+02  0.64950085408E+02  0.00000000000E+00 0.  1.
        -13    1    5    5    0    0 -0.31881772043E+03  0.34254735617E+03 -0.29374346389E+03  0.55251122401E+03  0.00000000000E+00 0. -1.
          3    1    6    6  503    0  0.61088328326E+02 -0.13040687356E+03 -0.69136580773E+03  0.70620423153E+03  0.00000000000E+00 0. -1.
         -3    1    6    6    0  503  0.69925750540E+02 -0.40593229787E+02 -0.21062324793E+03  0.22560933815E+03  0.00000000000E+00 0.  1.
<mgrwt>
<rscale>  0 0.12865242E+04</rscale>
<asrwt>0</asrwt>
<pdfrwt beam="1">  1        4 0.36723471E-01 0.12865242E+04</pdfrwt>
<pdfrwt beam="2">  1       -3 0.26668926E+00 0.12865242E+04</pdfrwt>
<totfact> 0.95813382E-01</totfact>
</mgrwt>
</event>
<event>
12    7  0.1740517E-007  0.2646414E+04  0.7818608E-02  0.8352604E-01
         -1   -1    0    0    0  501 -0.00000000000E+00  0.00000000000E+00  0.10673804046E+04  0.10673804046E+04  0.00000000000E+00 0.  1.
          2   -1    0    0  501    0  0.00000000000E+00 -0.00000000000E+00 -0.16403488090E+04  0.16403488090E+04  0.00000000000E+00 0. -1.
         24    2    1    2    0    0 -0.58192199238E+03 -0.27664668756E+03 -0.12505861731E+04  0.14090587260E+04  0.79461449558E+02 0.  0.
        254    2    1    2    0    0  0.58192199238E+03  0.27664668756E+03  0.67761776880E+03  0.12986704876E+04  0.90122838385E+03 0.  0.
         23    2    4    4    0    0  0.37722160882E+03  0.49231130069E+03  0.89756942463E+02  0.63313745436E+03  0.90222882075E+02 0.  0.
         23    2    4    4    0    0  0.20470038356E+03 -0.21566461313E+03  0.58786082634E+03  0.66553303325E+03  0.94553661050E+02 0.  0.
          2    1    3    3  502    0 -0.47286288015E+03 -0.22848782822E+03 -0.94648177662E+03  0.10824203179E+04  0.00000000000E+00 0. -1.
         -1    1    3    3    0  502 -0.10905911223E+03 -0.48158859344E+02 -0.30410439653E+03  0.32663840816E+03  0.00000000000E+00 0.  1.
         13    1    5    5    0    0  0.21874352129E+02  0.15915112035E+02  0.22177547834E+02  0.34980304460E+02  0.00000000000E+00 0. -1.
        -13    1    5    5    0    0  0.35534725669E+03  0.47639618866E+03  0.67579394629E+02  0.59815714990E+03  0.00000000000E+00 0.  1.
          3    1    6    6  503    0  0.99368968290E+01  0.88017396375E+01  0.14037195543E+02  0.19319818787E+02  0.00000000000E+00 0. -1.
         -3    1    6    6    0  503  0.19476348673E+03 -0.22446635277E+03  0.57382363079E+03  0.64621321446E+03  0.00000000000E+00 0.  1.
<mgrwt>
<rscale>  0 0.26464136E+04</rscale>
<asrwt>0</asrwt>
<pdfrwt beam="1">  1        2 0.25236135E+00 0.26464136E+04</pdfrwt>
<pdfrwt beam="2">  1       -1 0.16421237E+00 0.26464136E+04</pdfrwt>
<totfact> 0.28855007E+00</totfact>
</mgrwt>
</event>
<event>
12    7  0.1740517E-007  0.1432710E+04  0.7818608E-02  0.8930476E-01
          2   -1    0    0  501    0  0.00000000000E+00  0.00000000000E+00  0.77204109934E+03  0.77204109934E+03  0.00000000000E+00 0. -1.
         -1   -1    0    0    0  501 -0.00000000000E+00 -0.00000000000E+00 -0.66468573095E+03  0.66468573095E+03  0.00000000000E+00 0.  1.
         24    2    1    2    0    0 -0.20884756203E+03 -0.55542941146E+02  0.40637557131E+03  0.46713883372E+03  0.79845241132E+02 0.  0.
        254    2    1    2    0    0  0.20884756203E+03  0.55542941146E+02 -0.29902020293E+03  0.96958799657E+03  0.89665237347E+03 0.  0.
         23    2    4    4    0    0 -0.17424854222E+03  0.27662466693E+03 -0.37925485484E+03  0.51060696810E+03  0.10000735038E+03 0.  0.
         23    2    4    4    0    0  0.38309610425E+03 -0.22108172579E+03  0.80234651915E+02  0.45898102847E+03  0.92661915352E+02 0.  0.
          2    1    3    3  502    0 -0.16451002547E+03 -0.75478379182E+02  0.30389783278E+03  0.35371517775E+03  0.00000000000E+00 0. -1.
         -1    1    3    3    0  502 -0.44337536556E+02  0.19935438036E+02  0.10247773854E+03  0.11342365597E+03  0.00000000000E+00 0.  1.
         13    1    5    5    0    0  0.76858265754E+01  0.51391431077E+02 -0.66746010091E+02  0.84588302864E+02  0.00000000000E+00 0. -1.
        -13    1    5    5    0    0 -0.18193436879E+03  0.22523323586E+03 -0.31250884475E+03  0.42601866524E+03  0.00000000000E+00 0.  1.
          4    1    6    6  503    0  0.38641146442E+02 -0.57986039190E+02  0.24219124985E+02  0.73770488370E+02  0.00000000000E+00 0. -1.
         -4    1    6    6    0  503  0.34445495781E+03 -0.16309568660E+03  0.56015526930E+02  0.38521054010E+03  0.00000000000E+00 0.  1.
<mgrwt>
<rscale>  0 0.14327103E+04</rscale>
<asrwt>0</asrwt>
<pdfrwt beam="1">  1        2 0.11877555E+00 0.14327103E+04</pdfrwt>
<pdfrwt beam="2">  1       -1 0.10225934E+00 0.14327103E+04</pdfrwt>
<totfact> 0.36256992E+01</totfact>
</mgrwt>
</event>
<event>
12    7  0.1740517E-007  0.1620854E+04  0.7818608E-02  0.8807838E-01
         -1   -1    0    0    0  501 -0.00000000000E+00  0.00000000000E+00  0.37977760671E+03  0.37977760671E+03  0.00000000000E+00 0.  1.
          2   -1    0    0  501    0  0.00000000000E+00 -0.00000000000E+00 -0.17294125526E+04  0.17294125526E+04  0.00000000000E+00 0. -1.
         24    2    1    2    0    0 -0.45800147877E+03 -0.21411747366E+03 -0.16326624025E+03  0.53699211738E+03  0.78057810924E+02 0.  0.
        254    2    1    2    0    0  0.45800147877E+03  0.21411747366E+03 -0.11863687057E+04  0.15721980419E+04  0.89929101534E+03 0.  0.
         23    2    4    4    0    0  0.38589768967E+03 -0.28379414844E+03 -0.38478182719E+03  0.62129484376E+03  0.92163348259E+02 0.  0.
         23    2    4    4    0    0  0.72103789099E+02  0.49791162210E+03 -0.80158687846E+03  0.95090319819E+03  0.92522585324E+02 0.  0.
          4    1    3    3  502    0 -0.23818311259E+03 -0.13479702037E+03 -0.12218236332E+03  0.29971646890E+03  0.00000000000E+00 0. -1.
         -3    1    3    3    0  502 -0.21981836617E+03 -0.79320453291E+02 -0.41083876926E+02  0.23727564848E+03  0.00000000000E+00 0.  1.
         13    1    5    5    0    0  0.34706266822E+03 -0.24677467499E+03 -0.29981551113E+03  0.52080665952E+03  0.00000000000E+00 0. -1.
        -13    1    5    5    0    0  0.38835021446E+02 -0.37019473445E+02 -0.84966316065E+02  0.10048818423E+03  0.00000000000E+00 0.  1.
          1    1    6    6  503    0  0.21512581319E+02  0.27320936294E+03 -0.51355533590E+03  0.58210414033E+03  0.00000000000E+00 0. -1.
         -1    1    6    6    0  503  0.50591207780E+02  0.22470225915E+03 -0.28803154255E+03  0.36879905786E+03  0.00000000000E+00 0.  1.
<mgrwt>
<rscale>  0 0.16208543E+04</rscale>
<asrwt>0</asrwt>
<pdfrwt beam="1">  1        2 0.26606348E+00 0.16208543E+04</pdfrwt>
<pdfrwt beam="2">  1       -1 0.58427323E-01 0.16208543E+04</pdfrwt>
<totfact> 0.30574193E+01</totfact>
</mgrwt>
</event>
<event>
12    7  0.1740517E-007  0.1527485E+04  0.7818608E-02  0.8866379E-01
         -1   -1    0    0    0  501 -0.00000000000E+00  0.00000000000E+00  0.91747016100E+03  0.91747016100E+03  0.00000000000E+00 0.  1.
          2   -1    0    0  501    0  0.00000000000E+00 -0.00000000000E+00 -0.63577298818E+03  0.63577298818E+03  0.00000000000E+00 0. -1.
         24    2    1    2    0    0 -0.38966165522E+03 -0.26617966939E+03 -0.56415758964E+02  0.48197544289E+03  0.80185832548E+02 0.  0.
        254    2    1    2    0    0  0.38966165522E+03  0.26617966939E+03  0.33811293178E+03  0.10712677063E+04  0.90033678252E+03 0.  0.
         23    2    4    4    0    0 -0.17286995211E+03  0.38217130124E+03  0.19197682794E+03  0.47097569195E+03  0.94995137251E+02 0.  0.
         23    2    4    4    0    0  0.56253160733E+03 -0.11599163185E+03  0.14613610384E+03  0.60029201434E+03  0.95388016719E+02 0.  0.
          2    1    3    3  502    0 -0.35154743435E+03 -0.25848182741E+03 -0.35411595706E+02  0.43778126366E+03  0.00000000000E+00 0. -1.
         -1    1    3    3    0  502 -0.38114220868E+02 -0.76978419823E+01 -0.21004163258E+02  0.44194179229E+02  0.00000000000E+00 0.  1.
         13    1    5    5    0    0 -0.12228401461E+03  0.16262739247E+03  0.10943539050E+03  0.23103496209E+03  0.00000000000E+00 0. -1.
        -13    1    5    5    0    0 -0.50585937494E+02  0.21954390877E+03  0.82541437445E+02  0.23994072986E+03  0.00000000000E+00 0.  1.
          4    1    6    6  503    0  0.54097441539E+03 -0.11558416182E+03  0.11936157605E+03  0.56591536682E+03  0.00000000000E+00 0. -1.
         -4    1    6    6    0  503  0.21557191941E+02 -0.40747003184E+00  0.26774527794E+02  0.34376647522E+02  0.00000000000E+00 0.  1.
<mgrwt>
<rscale>  0 0.15274852E+04</rscale>
<asrwt>0</asrwt>
<pdfrwt beam="1">  1        2 0.97811229E-01 0.15274852E+04</pdfrwt>
<pdfrwt beam="2">  1       -1 0.14114926E+00 0.15274852E+04</pdfrwt>
<totfact> 0.20886072E+01</totfact>
</mgrwt>
</event>
<event>
12    7  0.1740517E-007  0.1445031E+04  0.7818608E-02  0.8921853E-01
          2   -1    0    0  501    0  0.00000000000E+00  0.00000000000E+00  0.45645987071E+03  0.45645987071E+03  0.00000000000E+00 0. -1.
         -1   -1    0    0    0  501 -0.00000000000E+00 -0.00000000000E+00 -0.11436464621E+04  0.11436464621E+04  0.00000000000E+00 0.  1.
         24    2    1    2    0    0 -0.40116116048E+03  0.20440522408E+03 -0.25595485981E+03  0.52434819284E+03  0.81953430488E+02 0.  0.
        254    2    1    2    0    0  0.40116116048E+03 -0.20440522408E+03 -0.43123173161E+03  0.10757581400E+04  0.87668865462E+03 0.  0.
         23    2    4    4    0    0 -0.17864994255E+03 -0.21115431104E+03 -0.39092371596E+03  0.48754649661E+03  0.91532997406E+02 0.  0.
         23    2    4    4    0    0  0.57981110302E+03  0.67490869620E+01 -0.40308015657E+02  0.58821164340E+03  0.90231568441E+02 0.  0.
          2    1    3    3  502    0 -0.34078980401E+03  0.15612557431E+03 -0.17945526273E+03  0.41559244072E+03  0.00000000000E+00 0. -1.
         -1    1    3    3    0  502 -0.60371356473E+02  0.48279649772E+02 -0.76499597089E+02  0.10875575212E+03  0.00000000000E+00 0.  1.
         13    1    5    5    0    0 -0.10483913222E+03 -0.17994351274E+03 -0.24948598293E+03  0.32498333358E+03  0.00000000000E+00 0.  1.
        -13    1    5    5    0    0 -0.73810810331E+02 -0.31210798298E+02 -0.14143773302E+03  0.16256316303E+03  0.00000000000E+00 0. -1.
          4    1    6    6  503    0  0.22472176629E+03  0.46470579340E+02 -0.12074467582E+02  0.22979377659E+03  0.00000000000E+00 0.  1.
         -4    1    6    6    0  503  0.35508933673E+03 -0.39721492378E+02 -0.28233548075E+02  0.35841786682E+03  0.00000000000E+00 0. -1.
<mgrwt>
<rscale>  0 0.14450311E+04</rscale>
<asrwt>0</asrwt>
<pdfrwt beam="1">  1        2 0.70224596E-01 0.14450311E+04</pdfrwt>
<pdfrwt beam="2">  1       -1 0.17594561E+00 0.14450311E+04</pdfrwt>
<totfact> 0.16899200E+01</totfact>
</mgrwt>
</event>
<event>
12    7  0.1740517E-007  0.1827477E+04  0.7818608E-02  0.8691822E-01
         -1   -1    0    0    0  501 -0.00000000000E+00  0.00000000000E+00  0.57387557387E+03  0.57387557387E+03  0.00000000000E+00 0.  1.
          2   -1    0    0  501    0  0.00000000000E+00 -0.00000000000E+00 -0.14548770538E+04  0.14548770538E+04  0.00000000000E+00 0. -1.
         24    2    1    2    0    0  0.28668520252E+03  0.17910621798E+03  0.34051258914E+03  0.48634573733E+03  0.79472700953E+02 0.  0.
        254    2    1    2    0    0 -0.28668520252E+03 -0.17910621798E+03 -0.12215140691E+04  0.15424068903E+04  0.87900793611E+03 0.  0.
         23    2    4    4    0    0 -0.59082520453E+03 -0.86259231572E+02 -0.69719313541E+03  0.92250994022E+03  0.91821807904E+02 0.  0.
         23    2    4    4    0    0  0.30414000201E+03 -0.92846986408E+02 -0.52432093365E+03  0.61989695010E+03  0.90763889153E+02 0.  0.
          4    1    3    3  502    0  0.35311528972E+02  0.90458721331E+01  0.73794083501E+02  0.82306127601E+02  0.00000000000E+00 0. -1.
         -3    1    3    3    0  502  0.25137367355E+03  0.17006034585E+03  0.26671850564E+03  0.40403960973E+03  0.00000000000E+00 0.  1.
         13    1    5    5    0    0 -0.20530900379E+03  0.12933279259E+02 -0.25186877449E+03  0.32520291560E+03  0.00000000000E+00 0.  1.
        -13    1    5    5    0    0 -0.38551620073E+03 -0.99192510831E+02 -0.44532436092E+03  0.59730702462E+03  0.00000000000E+00 0. -1.
          1    1    6    6  503    0  0.23459109782E+03 -0.35627812932E+02 -0.33826233157E+03  0.41318728102E+03  0.00000000000E+00 0. -1.
         -1    1    6    6    0  503  0.69548904189E+02 -0.57219173476E+02 -0.18605860208E+03  0.20670966909E+03  0.00000000000E+00 0.  1.
<mgrwt>
<rscale>  0 0.18274774E+04</rscale>
<asrwt>0</asrwt>
<pdfrwt beam="1">  1        2 0.22382723E+00 0.18274774E+04</pdfrwt>
<pdfrwt beam="2">  1       -1 0.88288553E-01 0.18274774E+04</pdfrwt>
<totfact> 0.18213165E+01</totfact>
</mgrwt>
</event>
<event>
12    7  0.1740517E-007  0.1800516E+04  0.7818608E-02  0.8706025E-01
          2   -1    0    0  501    0  0.00000000000E+00  0.00000000000E+00  0.15896739519E+04  0.15896739519E+04  0.00000000000E+00 0. -1.
         -1   -1    0    0    0  501 -0.00000000000E+00 -0.00000000000E+00 -0.50983043427E+03  0.50983043427E+03  0.00000000000E+00 0.  1.
         24    2    1    2    0    0  0.60219307510E+03  0.29693658848E+03  0.47486557686E+03  0.82625835307E+03  0.79985702861E+02 0.  0.
        254    2    1    2    0    0 -0.60219307510E+03 -0.29693658848E+03  0.60497794079E+03  0.12732460331E+04  0.89685523619E+03 0.  0.
         23    2    4    4    0    0 -0.29981445039E+02  0.32224930523E+02 -0.20259624947E+03  0.22614336912E+03  0.90323030857E+02 0.  0.
         23    2    4    4    0    0 -0.57221163006E+03 -0.32916151900E+03  0.80757419026E+03  0.10471026640E+04  0.92056835576E+02 0.  0.
          2    1    3    3  502    0  0.44698308927E+03  0.18901930809E+03  0.36843590270E+03  0.60931699083E+03  0.00000000000E+00 0. -1.
         -1    1    3    3    0  502  0.15520998583E+03  0.10791728039E+03  0.10642967416E+03  0.21694136224E+03  0.00000000000E+00 0.  1.
         13    1    5    5    0    0  0.27028225836E+02  0.68641814176E+01 -0.11664372118E+03  0.11993081201E+03  0.00000000000E+00 0. -1.
        -13    1    5    5    0    0 -0.57009670875E+02  0.25360749105E+02 -0.85952528293E+02  0.10621255711E+03  0.00000000000E+00 0.  1.
          4    1    6    6  503    0 -0.23051683360E+03 -0.91609012055E+02  0.26016131686E+03  0.35946367334E+03  0.00000000000E+00 0. -1.
         -4    1    6    6    0  503 -0.34169479647E+03 -0.23755250695E+03  0.54741287339E+03  0.68763899064E+03  0.00000000000E+00 0.  1.
<mgrwt>
<rscale>  0 0.18005157E+04</rscale>
<asrwt>0</asrwt>
<pdfrwt beam="1">  1        2 0.24456522E+00 0.18005157E+04</pdfrwt>
<pdfrwt beam="2">  1       -1 0.78435452E-01 0.18005157E+04</pdfrwt>
<totfact> 0.19773389E+01</totfact>
</mgrwt>
</event>
<event>
12    7  0.1740517E-007  0.2498897E+04  0.7818608E-02  0.8403379E-01
         -1   -1    0    0    0  501 -0.00000000000E+00  0.00000000000E+00  0.57789268566E+03  0.57789268566E+03  0.00000000000E+00 0.  1.
          2   -1    0    0  501    0  0.00000000000E+00 -0.00000000000E+00 -0.27014030540E+04  0.27014030540E+04  0.00000000000E+00 0. -1.
         24    2    1    2    0    0  0.58521072149E+03 -0.11372517986E+03  0.26607617767E+03  0.65831658571E+03  0.84730098602E+02 0.  0.
        254    2    1    2    0    0 -0.58521072149E+03  0.11372517986E+03 -0.23895865461E+04  0.26209791540E+04  0.89666206537E+03 0.  0.
         23    2    4    4    0    0  0.50518576345E+02  0.35795812653E+03 -0.62807720059E+03  0.73014834917E+03  0.89159940473E+02 0.  0.
         23    2    4    4    0    0 -0.63572929784E+03 -0.24423294668E+03 -0.17615093455E+04  0.18908308048E+04  0.92328142642E+02 0.  0.
          2    1    3    3  502    0  0.15745709561E+03 -0.11672765307E+02  0.35727669431E+02  0.16188099570E+03  0.00000000000E+00 0. -1.
         -1    1    3    3    0  502  0.42775362589E+03 -0.10205241455E+03  0.23034850824E+03  0.49643559001E+03  0.00000000000E+00 0.  1.
         13    1    5    5    0    0  0.65406303054E+02  0.34796231566E+03 -0.60407325698E+03  0.70018587346E+03  0.00000000000E+00 0. -1.
        -13    1    5    5    0    0 -0.14887726708E+02  0.99958108712E+01 -0.24003943612E+02  0.29962475706E+02  0.00000000000E+00 0.  1.
          1    1    6    6  503    0 -0.57291232115E+02 -0.12803071309E+02 -0.95022174494E+02  0.11169340875E+03  0.00000000000E+00 0. -1.
         -1    1    6    6    0  503 -0.57843806572E+03 -0.23142987537E+03 -0.16664871710E+04  0.17791373961E+04  0.00000000000E+00 0.  1.
<mgrwt>
<rscale>  0 0.24988966E+04</rscale>
<asrwt>0</asrwt>
<pdfrwt beam="1">  1        2 0.41560046E+00 0.24988966E+04</pdfrwt>
<pdfrwt beam="2">  1       -1 0.88906569E-01 0.24988966E+04</pdfrwt>
<totfact> 0.33360906E+00</totfact>
</mgrwt>
</event>
<event>
12    7  0.1740517E-007  0.2067091E+04  0.7818608E-02  0.8575880E-01
         -1   -1    0    0    0  501 -0.00000000000E+00  0.00000000000E+00  0.10483931433E+04  0.10483931433E+04  0.00000000000E+00 0.  1.
          2   -1    0    0  501    0  0.00000000000E+00 -0.00000000000E+00 -0.10189079884E+04  0.10189079884E+04  0.00000000000E+00 0. -1.
         24    2    1    2    0    0  0.21948763379E+03 -0.54596487821E+03  0.59736904303E+03  0.84238207969E+03  0.80655594840E+02 0.  0.
        254    2    1    2    0    0 -0.21948763379E+03  0.54596487821E+03 -0.56788388811E+03  0.12249190520E+04  0.91196606516E+03 0.  0.
         23    2    4    4    0    0 -0.27837756237E+03  0.16196194233E+03  0.17767872338E+03  0.37933021837E+03  0.92714334561E+02 0.  0.
         23    2    4    4    0    0  0.58889928577E+02  0.38400293588E+03 -0.74556261149E+03  0.84558883365E+03  0.90722596422E+02 0.  0.
          2    1    3    3  502    0  0.36544160018E+02 -0.50816714512E+02  0.37783467766E+02  0.73112273536E+02  0.00000000000E+00 0. -1.
         -3    1    3    3    0  502  0.18294347378E+03 -0.49514816370E+03  0.55958557526E+03  0.76926980615E+03  0.00000000000E+00 0.  1.
         13    1    5    5    0    0 -0.61165218063E+02 -0.14077311552E+01  0.50138257096E+02  0.79101266945E+02  0.00000000000E+00 0. -1.
        -13    1    5    5    0    0 -0.21721234431E+03  0.16336967349E+03  0.12754046628E+03  0.30022895143E+03  0.00000000000E+00 0.  1.
          3    1    6    6  503    0 -0.17765710075E+02  0.15409584118E+03 -0.25608557480E+03  0.29940101928E+03  0.00000000000E+00 0. -1.
         -3    1    6    6    0  503  0.76655638652E+02  0.22990709470E+03 -0.48947703668E+03  0.54618781437E+03  0.00000000000E+00 0.  1.
<mgrwt>
<rscale>  0 0.20670909E+04</rscale>
<asrwt>0</asrwt>
<pdfrwt beam="1">  1        2 0.15675507E+00 0.20670909E+04</pdfrwt>
<pdfrwt beam="2">  1       -1 0.16129125E+00 0.20670909E+04</pdfrwt>
<totfact> 0.73768771E+00</totfact>
</mgrwt>
</event>
<event>
12    7  0.1740517E-007  0.1280917E+04  0.7818608E-02  0.9044836E-01
         -1   -1    0    0    0  501 -0.00000000000E+00  0.00000000000E+00  0.17827038744E+03  0.17827038744E+03  0.00000000000E+00 0.  1.
          2   -1    0    0  501    0  0.00000000000E+00 -0.00000000000E+00 -0.23009273557E+04  0.23009273557E+04  0.00000000000E+00 0. -1.
         24    2    1    2    0    0 -0.19829437228E+02  0.13951263716E+03 -0.50011213840E+00  0.16156061407E+03  0.79022777722E+02 0.  0.
        254    2    1    2    0    0  0.19829437228E+02 -0.13951263716E+03 -0.21221568561E+04  0.23176371290E+04  0.92088824379E+03 0.  0.
         23    2    4    4    0    0 -0.17019901426E+03 -0.23592547592E+03 -0.20520168867E+04  0.20745903999E+04  0.92322746117E+02 0.  0.
         23    2    4    4    0    0  0.19002845149E+03  0.96412838766E+02 -0.70139969410E+02  0.24304672915E+03  0.93519246079E+02 0.  0.
          2    1    3    3  502    0  0.19784505164E+02  0.40895888106E+02 -0.25896296122E+02  0.52292623394E+02  0.00000000000E+00 0. -1.
         -1    1    3    3    0  502 -0.39613942392E+02  0.98616749050E+02  0.25396183984E+02  0.10926799067E+03  0.00000000000E+00 0.  1.
         13    1    5    5    0    0 -0.42390467472E+02 -0.85872575663E+01 -0.36066666821E+03  0.36325079254E+03  0.00000000000E+00 0. -1.
        -13    1    5    5    0    0 -0.12780854679E+03 -0.22733821836E+03 -0.16913502185E+04  0.17113396073E+04  0.00000000000E+00 0.  1.
          1    1    6    6  503    0 -0.59872697255E+01  0.21812424051E+02 -0.29243076707E+01  0.22807472835E+02  0.00000000000E+00 0. -1.
         -1    1    6    6    0  503  0.19601572122E+03  0.74600414714E+02 -0.67215661739E+02  0.22023925632E+03  0.00000000000E+00 0.  1.
<mgrwt>
<rscale>  0 0.12809172E+04</rscale>
<asrwt>0</asrwt>
<pdfrwt beam="1">  1        2 0.35398883E+00 0.12809172E+04</pdfrwt>
<pdfrwt beam="2">  1       -1 0.27426213E-01 0.12809172E+04</pdfrwt>
<totfact> 0.60604429E+01</totfact>
</mgrwt>
</event>
<event>
12    7  0.1740517E-007  0.2166404E+04  0.7818608E-02  0.8532543E-01
          2   -1    0    0  501    0  0.00000000000E+00  0.00000000000E+00  0.17120672234E+04  0.17120672234E+04  0.00000000000E+00 0. -1.
         -1   -1    0    0    0  501 -0.00000000000E+00 -0.00000000000E+00 -0.68532767196E+03  0.68532767196E+03  0.00000000000E+00 0.  1.
         24    2    1    2    0    0 -0.26627916844E+03  0.84266330419E+02  0.13703669315E+04  0.14012218474E+04  0.86670230536E+02 0.  0.
        254    2    1    2    0    0  0.26627916844E+03 -0.84266330419E+02 -0.34362738003E+03  0.99617304794E+03  0.89234273413E+03 0.  0.
         23    2    4    4    0    0  0.24097212089E+02 -0.33225097649E+03 -0.49848136001E+03  0.60655426631E+03  0.91940332229E+02 0.  0.
         23    2    4    4    0    0  0.24218195635E+03  0.24798464607E+03  0.15485397998E+03  0.38961878163E+03  0.87604538762E+02 0.  0.
          2    1    3    3  502    0 -0.26049214001E+03  0.61011054865E+02  0.12232396834E+04  0.12521556719E+04  0.00000000000E+00 0. -1.
         -1    1    3    3    0  502 -0.57870284315E+01  0.23255275554E+02  0.14712724809E+03  0.14906617547E+03  0.00000000000E+00 0.  1.
         13    1    5    5    0    0  0.54097643404E+02 -0.22901721794E+03 -0.30518845411E+03  0.38537700199E+03  0.00000000000E+00 0. -1.
        -13    1    5    5    0    0 -0.30000431315E+02 -0.10323375855E+03 -0.19329290590E+03  0.22117726432E+03  0.00000000000E+00 0.  1.
          1    1    6    6  503    0  0.24294739993E+03  0.25301538981E+03  0.14714969227E+03  0.38038567080E+03  0.00000000000E+00 0. -1.
         -1    1    6    6    0  503 -0.76544358200E+00 -0.50307437359E+01  0.77042877151E+01  0.92331108306E+01  0.00000000000E+00 0.  1.
<mgrwt>
<rscale>  0 0.21664044E+04</rscale>
<asrwt>0</asrwt>
<pdfrwt beam="1">  1        2 0.26339496E+00 0.21664044E+04</pdfrwt>
<pdfrwt beam="2">  1       -1 0.10543503E+00 0.21664044E+04</pdfrwt>
<totfact> 0.84981508E+00</totfact>
</mgrwt>
</event>
<event>
12    7  0.1740517E-007  0.1297954E+04  0.7818608E-02  0.9031189E-01
          2   -1    0    0  501    0  0.00000000000E+00  0.00000000000E+00  0.13880524769E+04  0.13880524769E+04  0.00000000000E+00 0. -1.
         -1   -1    0    0    0  501 -0.00000000000E+00 -0.00000000000E+00 -0.30342602786E+03  0.30342602786E+03  0.00000000000E+00 0.  1.
         24    2    1    2    0    0  0.56688798537E+02 -0.28936957902E+03  0.85691877961E+02  0.31721721093E+03  0.79594521300E+02 0.  0.
        254    2    1    2    0    0 -0.56688798537E+02  0.28936957902E+03  0.99893457112E+03  0.13742612939E+04  0.89653524932E+03 0.  0.
         23    2    4    4    0    0 -0.29340684192E+03  0.27345188375E+03  0.10389356686E+04  0.11173208375E+04  0.90305165310E+02 0.  0.
         23    2    4    4    0    0  0.23671804338E+03  0.15917695271E+02 -0.40001097467E+02  0.25694045634E+03  0.90163768895E+02 0.  0.
          4    1    3    3  502    0  0.19416783377E+02 -0.48101919295E+02 -0.13666355525E+02  0.53643036733E+02  0.00000000000E+00 0. -1.
         -3    1    3    3    0  502  0.37272015161E+02 -0.24126765973E+03  0.99358233486E+02  0.26357417420E+03  0.00000000000E+00 0.  1.
         13    1    5    5    0    0  0.10931560625E+00  0.23704367530E+02  0.91032496407E+02  0.94068190117E+02  0.00000000000E+00 0.  1.
        -13    1    5    5    0    0 -0.29351615752E+03  0.24974751622E+03  0.94790317218E+03  0.10232526474E+04  0.00000000000E+00 0. -1.
          2    1    6    6  503    0  0.22637885797E+03  0.14474147740E+02 -0.59770957570E+02  0.23458357925E+03  0.00000000000E+00 0. -1.
         -2    1    6    6    0  503  0.10339185412E+02  0.14435475305E+01  0.19769860103E+02  0.22356877084E+02  0.00000000000E+00 0.  1.
<mgrwt>
<rscale>  0 0.12979542E+04</rscale>
<asrwt>0</asrwt>
<pdfrwt beam="1">  1        2 0.21354653E+00 0.12979542E+04</pdfrwt>
<pdfrwt beam="2">  1       -1 0.46680928E-01 0.12979542E+04</pdfrwt>
<totfact> 0.75064488E+01</totfact>
</mgrwt>
</event>
<event>
12    7  0.1740517E-007  0.1557726E+04  0.7818608E-02  0.8846948E-01
          2   -1    0    0  501    0  0.00000000000E+00  0.00000000000E+00  0.64370347433E+03  0.64370347433E+03  0.00000000000E+00 0. -1.
         -1   -1    0    0    0  501 -0.00000000000E+00 -0.00000000000E+00 -0.94240173033E+03  0.94240173033E+03  0.00000000000E+00 0.  1.
         24    2    1    2    0    0  0.38283139636E+03 -0.14308102454E+03 -0.42843208027E+03  0.59749737956E+03  0.80106264149E+02 0.  0.
        254    2    1    2    0    0 -0.38283139636E+03  0.14308102454E+03  0.12973382427E+03  0.98860782510E+03  0.89077635187E+03 0.  0.
         23    2    4    4    0    0 -0.43298762101E+03 -0.19247091346E+03 -0.18394586807E+03  0.51722099225E+03  0.95698171194E+02 0.  0.
         23    2    4    4    0    0  0.50156224646E+02  0.33555193800E+03  0.31367969234E+03  0.47138683285E+03  0.93272969445E+02 0.  0.
          4    1    3    3  502    0  0.76244121171E+02 -0.44766627408E+02 -0.53691723387E+02  0.10344089183E+03  0.00000000000E+00 0. -1.
         -1    1    3    3    0  502  0.30658727519E+03 -0.98314397136E+02 -0.37474035688E+03  0.49405648773E+03  0.00000000000E+00 0.  1.
         13    1    5    5    0    0 -0.39421659109E+03 -0.19035873796E+03 -0.14238447702E+03  0.46034390308E+03  0.00000000000E+00 0. -1.
        -13    1    5    5    0    0 -0.38771029912E+02 -0.21121755029E+01 -0.41561391050E+02  0.56877089165E+02  0.00000000000E+00 0.  1.
          3    1    6    6  503    0  0.52688624455E+02  0.31940024531E+03  0.25978599291E+03  0.41506791006E+03  0.00000000000E+00 0. -1.
         -3    1    6    6    0  503 -0.25323998095E+01  0.16151692694E+02  0.53893699434E+02  0.56318922791E+02  0.00000000000E+00 0.  1.
<mgrwt>
<rscale>  0 0.15577256E+04</rscale>
<asrwt>0</asrwt>
<pdfrwt beam="1">  1        2 0.99031304E-01 0.15577256E+04</pdfrwt>
<pdfrwt beam="2">  1       -1 0.14498488E+00 0.15577256E+04</pdfrwt>
<totfact> 0.19116129E+01</totfact>
</mgrwt>
</event>
<event>
12    7  0.1740517E-007  0.2884768E+04  0.7818608E-02  0.8277424E-01
          2   -1    0    0  501    0  0.00000000000E+00  0.00000000000E+00  0.13686257099E+04  0.13686257099E+04  0.00000000000E+00 0. -1.
         -1   -1    0    0    0  501 -0.00000000000E+00 -0.00000000000E+00 -0.15201170113E+04  0.15201170113E+04  0.00000000000E+00 0.  1.
         24    2    1    2    0    0  0.19233894325E+03 -0.94413850005E+03 -0.91825619046E+03  0.13334268244E+04  0.80255145842E+02 0.  0.
        254    2    1    2    0    0 -0.19233894325E+03  0.94413850005E+03  0.76676488908E+03  0.15553158967E+04  0.95009860913E+03 0.  0.
         23    2    4    4    0    0 -0.45983304200E+03  0.23572298440E+03  0.83388953816E+02  0.53120064402E+03  0.90601626418E+02 0.  0.
         23    2    4    4    0    0  0.26749409875E+03  0.70841551565E+03  0.68337593526E+03  0.10241152527E+04  0.91671948846E+02 0.  0.
          4    1    3    3  502    0  0.14284189216E+02 -0.14731446206E+03 -0.10865615186E+03  0.18360759279E+03  0.00000000000E+00 0. -1.
         -3    1    3    3    0  502  0.17805475403E+03 -0.79682403799E+03 -0.80960003860E+03  0.11498192316E+04  0.00000000000E+00 0.  1.
         13    1    5    5    0    0 -0.15951346439E+03  0.10776891434E+03 -0.64774173572E+01  0.19261526719E+03  0.00000000000E+00 0. -1.
        -13    1    5    5    0    0 -0.30031957761E+03  0.12795407006E+03  0.89866371173E+02  0.33858537684E+03  0.00000000000E+00 0.  1.
          3    1    6    6  503    0  0.16984208654E+03  0.37069689713E+03  0.41531927065E+03  0.58202458752E+03  0.00000000000E+00 0. -1.
         -3    1    6    6    0  503  0.97652012207E+02  0.33771861852E+03  0.26805666461E+03  0.44209066516E+03  0.00000000000E+00 0.  1.
<mgrwt>
<rscale>  0 0.28847677E+04</rscale>
<asrwt>0</asrwt>
<pdfrwt beam="1">  1        2 0.21055780E+00 0.28847677E+04</pdfrwt>
<pdfrwt beam="2">  1       -1 0.23386416E+00 0.28847677E+04</pdfrwt>
<totfact> 0.13211666E+00</totfact>
</mgrwt>
</event>
<event>
12    7  0.1740517E-007  0.2177572E+04  0.7818608E-02  0.8527822E-01
          2   -1    0    0  501    0  0.00000000000E+00  0.00000000000E+00  0.17354849374E+04  0.17354849374E+04  0.00000000000E+00 0. -1.
         -1   -1    0    0    0  501 -0.00000000000E+00 -0.00000000000E+00 -0.68306816971E+03  0.68306816971E+03  0.00000000000E+00 0.  1.
         24    2    1    2    0    0  0.83797730526E+03  0.37416366015E+03  0.49753322079E+03  0.10467657574E+04  0.77297066151E+02 0.  0.
        254    2    1    2    0    0 -0.83797730526E+03 -0.37416366015E+03  0.55488354693E+03  0.13717873497E+04  0.85539486408E+03 0.  0.
         23    2    4    4    0    0 -0.81281112141E+03 -0.46213206819E+03  0.70435671780E+03  0.11741740466E+04  0.91314502434E+02 0.  0.
         23    2    4    4    0    0 -0.25166183844E+02  0.87968408043E+02 -0.14947317087E+03  0.19761330308E+03  0.91307234774E+02 0.  0.
          2    1    3    3  502    0  0.36170922255E+03  0.18126026710E+03  0.18083488282E+03  0.44315922753E+03  0.00000000000E+00 0. -1.
         -1    1    3    3    0  502  0.47626808271E+03  0.19290339305E+03  0.31669833798E+03  0.60360652990E+03  0.00000000000E+00 0.  1.
         13    1    5    5    0    0 -0.75268043714E+03 -0.42878048488E+03  0.67987199263E+03  0.11011841222E+04  0.00000000000E+00 0. -1.
        -13    1    5    5    0    0 -0.60130684272E+02 -0.33351583311E+02  0.24484725170E+02  0.72989924421E+02  0.00000000000E+00 0.  1.
          2    1    6    6  503    0  0.26985580653E+02  0.67242420270E+02 -0.94230141006E+02  0.11886582402E+03  0.00000000000E+00 0. -1.
         -2    1    6    6    0  503 -0.52151764497E+02  0.20725987772E+02 -0.55243029862E+02  0.78747479056E+02  0.00000000000E+00 0.  1.
<mgrwt>
<rscale>  0 0.21775716E+04</rscale>
<asrwt>0</asrwt>
<pdfrwt beam="1">  1        2 0.26699768E+00 0.21775716E+04</pdfrwt>
<pdfrwt beam="2">  1       -1 0.10508741E+00 0.21775716E+04</pdfrwt>
<totfact> 0.83028296E+00</totfact>
</mgrwt>
</event>
<event>
12    7  0.1740517E-007  0.2091243E+04  0.7818608E-02  0.8565111E-01
          2   -1    0    0  501    0  0.00000000000E+00  0.00000000000E+00  0.38898532542E+03  0.38898532542E+03  0.00000000000E+00 0. -1.
         -1   -1    0    0    0  501 -0.00000000000E+00 -0.00000000000E+00 -0.28107090984E+04  0.28107090984E+04  0.00000000000E+00 0.  1.
         24    2    1    2    0    0  0.47399083442E+03  0.14883390037E+03 -0.20507805653E+04  0.21117030968E+04  0.82281232765E+02 0.  0.
        254    2    1    2    0    0 -0.47399083442E+03 -0.14883390037E+03 -0.37094320775E+03  0.10879913270E+04  0.89403994502E+03 0.  0.
         23    2    4    4    0    0 -0.60934609713E+03  0.18970574444E+03 -0.26966113605E+03  0.69882136951E+03  0.91341352227E+02 0.  0.
         23    2    4    4    0    0  0.13535526271E+03 -0.33853964482E+03 -0.10128207170E+03  0.38916995751E+03  0.90912372805E+02 0.  0.
          4    1    3    3  502    0  0.10913906650E+03  0.11266415007E+02 -0.56870357148E+03  0.57919083225E+03  0.00000000000E+00 0. -1.
         -3    1    3    3    0  502  0.36485176792E+03  0.13756748536E+03 -0.14820769938E+04  0.15325122646E+04  0.00000000000E+00 0.  1.
         13    1    5    5    0    0 -0.11117758940E+02  0.43385501534E+01 -0.22609825622E+02  0.25566223732E+02  0.00000000000E+00 0.  1.
        -13    1    5    5    0    0 -0.59822833819E+03  0.18536719429E+03 -0.24705131043E+03  0.67325514578E+03  0.00000000000E+00 0. -1.
          1    1    6    6  503    0  0.14628437123E+03 -0.32379896736E+03 -0.86708456475E+02  0.36573657864E+03  0.00000000000E+00 0. -1.
         -1    1    6    6    0  503 -0.10929108519E+02 -0.14740677452E+02 -0.14573615224E+02  0.23433378874E+02  0.00000000000E+00 0.  1.
<mgrwt>
<rscale>  0 0.20912433E+04</rscale>
<asrwt>0</asrwt>
<pdfrwt beam="1">  1        2 0.59843898E-01 0.20912433E+04</pdfrwt>
<pdfrwt beam="2">  1       -1 0.43241677E+00 0.20912433E+04</pdfrwt>
<totfact> 0.37047316E-01</totfact>
</mgrwt>
</event>
<event>
12    7  0.1740517E-007  0.2118738E+04  0.7818608E-02  0.8553034E-01
          2   -1    0    0  501    0  0.00000000000E+00  0.00000000000E+00  0.44433777018E+04  0.44433777018E+04  0.00000000000E+00 0. -1.
         -1   -1    0    0    0  501 -0.00000000000E+00 -0.00000000000E+00 -0.25256971746E+03  0.25256971746E+03  0.00000000000E+00 0.  1.
         24    2    1    2    0    0 -0.28590932388E+03  0.35852770689E+03  0.92287465520E+02  0.47456018001E+03  0.80025808788E+02 0.  0.
        254    2    1    2    0    0  0.28590932388E+03 -0.35852770689E+03  0.40985205189E+04  0.42213872393E+04  0.90108463664E+03 0.  0.
         23    2    4    4    0    0  0.27765319796E+03 -0.59451278918E+03  0.36202421753E+04  0.36803511418E+04  0.91073402291E+02 0.  0.
         23    2    4    4    0    0  0.82561259184E+01  0.23598508229E+03  0.47827834358E+03  0.54103609746E+03  0.90624291131E+02 0.  0.
          4    1    3    3  502    0  0.30533273271E+01  0.90041394093E+01  0.97273264890E+01  0.13602140085E+02  0.00000000000E+00 0. -1.
         -3    1    3    3    0  502 -0.28896265121E+03  0.34952356748E+03  0.82560139031E+02  0.46095803993E+03  0.00000000000E+00 0.  1.
         13    1    5    5    0    0  0.17643584585E+03 -0.34381082268E+03  0.18886840939E+04  0.19278130345E+04  0.00000000000E+00 0. -1.
        -13    1    5    5    0    0  0.10121735211E+03 -0.25070196649E+03  0.17315580814E+04  0.17525381073E+04  0.00000000000E+00 0.  1.
          3    1    6    6  503    0 -0.10222740701E+02 -0.14586144657E+01  0.55973781984E+01  0.11745749286E+02  0.00000000000E+00 0. -1.
         -3    1    6    6    0  503  0.18478866619E+02  0.23744369675E+03  0.47268096538E+03  0.52929034818E+03  0.00000000000E+00 0.  1.
<mgrwt>
<rscale>  0 0.21187380E+04</rscale>
<asrwt>0</asrwt>
<pdfrwt beam="1">  1        2 0.68359651E+00 0.21187380E+04</pdfrwt>
<pdfrwt beam="2">  1       -1 0.38856883E-01 0.21187380E+04</pdfrwt>
<totfact> 0.95124202E-01</totfact>
</mgrwt>
</event>
<event>
12    7  0.1740517E-007  0.1512212E+04  0.7818608E-02  0.8876372E-01
          2   -1    0    0  501    0  0.00000000000E+00  0.00000000000E+00  0.28946022364E+04  0.28946022364E+04  0.00000000000E+00 0. -1.
         -1   -1    0    0    0  501 -0.00000000000E+00 -0.00000000000E+00 -0.19750427468E+03  0.19750427468E+03  0.00000000000E+00 0.  1.
         24    2    1    2    0    0  0.86285974119E+02  0.47029977058E+03  0.10968513017E+04  0.11992193322E+04  0.80106711153E+02 0.  0.
        254    2    1    2    0    0 -0.86285974119E+02 -0.47029977058E+03  0.16002466600E+04  0.18928871789E+04  0.89084530391E+03 0.  0.
         23    2    4    4    0    0 -0.70138689494E+02  0.20258209336E+03  0.84782758522E+03  0.87921782197E+03  0.90848356567E+02 0.  0.
         23    2    4    4    0    0 -0.16147284625E+02 -0.67288186394E+03  0.75241907479E+03  0.10136693569E+04  0.91435022733E+02 0.  0.
          2    1    3    3  502    0  0.38388674852E+02  0.19488394685E+03  0.55561445924E+03  0.59005158284E+03  0.00000000000E+00 0. -1.
         -1    1    3    3    0  502  0.47897299267E+02  0.27541582373E+03  0.54123684248E+03  0.60916774939E+03  0.00000000000E+00 0.  1.
         13    1    5    5    0    0  0.32409730752E+01  0.11371578693E+03  0.50062886209E+03  0.51339170393E+03  0.00000000000E+00 0. -1.
        -13    1    5    5    0    0 -0.73379662569E+02  0.88866306432E+02  0.34719872313E+03  0.36582611804E+03  0.00000000000E+00 0.  1.
          3    1    6    6  503    0 -0.30673813237E+02 -0.12022978020E+03  0.10699538678E+03  0.16384167863E+03  0.00000000000E+00 0.  1.
         -3    1    6    6    0  503  0.14526528612E+02 -0.55265208374E+03  0.64542368801E+03  0.84982767826E+03  0.00000000000E+00 0. -1.
<mgrwt>
<rscale>  0 0.15122120E+04</rscale>
<asrwt>0</asrwt>
<pdfrwt beam="1">  1        2 0.44532339E+00 0.15122120E+04</pdfrwt>
<pdfrwt beam="2">  1       -1 0.30385275E-01 0.15122120E+04</pdfrwt>
<totfact> 0.22338221E+01</totfact>
</mgrwt>
</event>
<event>
12    7  0.1740517E-007  0.1522954E+04  0.7818608E-02  0.8869331E-01
          2   -1    0    0  501    0  0.00000000000E+00  0.00000000000E+00  0.10997032821E+04  0.10997032821E+04  0.00000000000E+00 0. -1.
         -1   -1    0    0    0  501 -0.00000000000E+00 -0.00000000000E+00 -0.52727577043E+03  0.52727577043E+03  0.00000000000E+00 0.  1.
         24    2    1    2    0    0  0.23736204503E+03 -0.25520916025E+03 -0.18470821070E+03  0.40223584637E+03  0.78766091098E+02 0.  0.
        254    2    1    2    0    0 -0.23736204503E+03  0.25520916025E+03  0.75713572237E+03  0.12247432062E+04  0.89736779698E+03 0.  0.
         23    2    4    4    0    0 -0.32107309107E+03  0.51869752761E+01 -0.79112379129E+02  0.34309888345E+03  0.91341342062E+02 0.  0.
         23    2    4    4    0    0  0.83711046043E+02  0.25002218498E+03  0.83624810150E+03  0.88164432272E+03  0.92017347832E+02 0.  0.
          4    1    3    3  502    0 -0.47904118568E+01 -0.90842840288E+00  0.10377488579E+01  0.49849985569E+01  0.00000000000E+00 0. -1.
         -1    1    3    3    0  502  0.24215245688E+03 -0.25430073185E+03 -0.18574595956E+03  0.39725084781E+03  0.00000000000E+00 0.  1.
         13    1    5    5    0    0 -0.22282846957E+03 -0.27201291443E+02 -0.23655145044E+02  0.22572550364E+03  0.00000000000E+00 0.  1.
        -13    1    5    5    0    0 -0.98244621500E+02  0.32388266719E+02 -0.55457234085E+02  0.11737337981E+03  0.00000000000E+00 0. -1.
          4    1    6    6  503    0 -0.28142375090E+00  0.63701300676E+02  0.10925831793E+03  0.12647258574E+03  0.00000000000E+00 0. -1.
         -4    1    6    6    0  503  0.83992469794E+02  0.18632088430E+03  0.72698978357E+03  0.75517173697E+03  0.00000000000E+00 0.  1.
<mgrwt>
<rscale>  0 0.15229536E+04</rscale>
<asrwt>0</asrwt>
<pdfrwt beam="1">  1        2 0.16918512E+00 0.15229536E+04</pdfrwt>
<pdfrwt beam="2">  1       -1 0.81119349E-01 0.15229536E+04</pdfrwt>
<totfact> 0.36314279E+01</totfact>
</mgrwt>
</event>
<event>
12    7  0.1740517E-007  0.2260106E+04  0.7818608E-02  0.8493819E-01
          2   -1    0    0  501    0  0.00000000000E+00  0.00000000000E+00  0.21601107527E+04  0.21601107527E+04  0.00000000000E+00 0. -1.
         -1   -1    0    0    0  501 -0.00000000000E+00 -0.00000000000E+00 -0.59118241688E+03  0.59118241688E+03  0.00000000000E+00 0.  1.
         24    2    1    2    0    0  0.10141724583E+03 -0.36183433415E+03 -0.40331385298E+03  0.55680261474E+03  0.78470023933E+02 0.  0.
        254    2    1    2    0    0 -0.10141724583E+03  0.36183433415E+03  0.19722421888E+04  0.21944905548E+04  0.88591195997E+03 0.  0.
         23    2    4    4    0    0 -0.52590246306E+02  0.10253250876E+03  0.19008503134E+04  0.19065083659E+04  0.90904268285E+02 0.  0.
         23    2    4    4    0    0 -0.48826999528E+02  0.25930182540E+03  0.71391875339E+02  0.28798218886E+03  0.90639002079E+02 0.  0.
          2    1    3    3  502    0  0.29449300115E+02 -0.28050627843E+02 -0.27834439128E+02  0.49283415072E+02  0.00000000000E+00 0. -1.
         -1    1    3    3    0  502  0.71967945720E+02 -0.33378370631E+03 -0.37547941385E+03  0.50751919967E+03  0.00000000000E+00 0.  1.
         13    1    5    5    0    0 -0.40876380998E+02  0.28500262135E+02  0.31765589720E+03  0.32154068559E+03  0.00000000000E+00 0. -1.
        -13    1    5    5    0    0 -0.11713865308E+02  0.74032246620E+02  0.15831944162E+04  0.15849676803E+04  0.00000000000E+00 0.  1.
          1    1    6    6  503    0 -0.22123579363E+02  0.50035537017E+02  0.53078659217E+02  0.76225663609E+02  0.00000000000E+00 0. -1.
         -1    1    6    6    0  503 -0.26703420165E+02  0.20926628838E+03  0.18313216122E+02  0.21175652525E+03  0.00000000000E+00 0.  1.
<mgrwt>
<rscale>  0 0.22601057E+04</rscale>
<asrwt>0</asrwt>
<pdfrwt beam="1">  1        2 0.33232473E+00 0.22601057E+04</pdfrwt>
<pdfrwt beam="2">  1       -1 0.90951142E-01 0.22601057E+04</pdfrwt>
<totfact> 0.66414738E+00</totfact>
</mgrwt>
</event>
<event>
12    7  0.1740517E-007  0.2887434E+04  0.7818608E-02  0.8276626E-01
          2   -1    0    0  501    0  0.00000000000E+00  0.00000000000E+00  0.22560330521E+04  0.22560330521E+04  0.00000000000E+00 0. -1.
         -1   -1    0    0    0  501 -0.00000000000E+00 -0.00000000000E+00 -0.92388638717E+03  0.92388638717E+03  0.00000000000E+00 0.  1.
         24    2    1    2    0    0 -0.72369979999E+03  0.19196121641E+03  0.17740274034E+04  0.19273967847E+04  0.84229618267E+02 0.  0.
        254    2    1    2    0    0  0.72369979999E+03 -0.19196121641E+03 -0.44188073848E+03  0.12525226545E+04  0.90164510979E+03 0.  0.
         23    2    4    4    0    0  0.66526513788E+03 -0.48439780181E+03 -0.18696491689E+03  0.84921223977E+03  0.94797752898E+02 0.  0.
         23    2    4    4    0    0  0.58434662104E+02  0.29243658540E+03 -0.25491582159E+03  0.40331041477E+03  0.93506408101E+02 0.  0.
          2    1    3    3  502    0 -0.39669189286E+03  0.11790588794E+03  0.10814178532E+04  0.11578993175E+04  0.00000000000E+00 0. -1.
         -1    1    3    3    0  502 -0.32700790713E+03  0.74055328470E+02  0.69260955018E+03  0.76949746719E+03  0.00000000000E+00 0.  1.
         13    1    5    5    0    0  0.12258803454E+02 -0.27219646017E+02  0.22096062015E+01  0.29934424180E+02  0.00000000000E+00 0. -1.
        -13    1    5    5    0    0  0.65300633443E+03 -0.45717815579E+03 -0.18917452310E+03  0.81927781559E+03  0.00000000000E+00 0.  1.
          2    1    6    6  503    0 -0.15935739243E+01  0.45049497585E+02 -0.30133272164E+01  0.45178278535E+02  0.00000000000E+00 0. -1.
         -2    1    6    6    0  503  0.60028236028E+02  0.24738708781E+03 -0.25190249437E+03  0.35813213624E+03  0.00000000000E+00 0.  1.
<mgrwt>
<rscale>  0 0.28874336E+04</rscale>
<asrwt>0</asrwt>
<pdfrwt beam="1">  1        2 0.34708201E+00 0.28874336E+04</pdfrwt>
<pdfrwt beam="2">  1       -1 0.14213637E+00 0.28874336E+04</pdfrwt>
<totfact> 0.18997096E+00</totfact>
</mgrwt>
</event>
<event>
12    7  0.1740517E-007  0.1102884E+04  0.7818608E-02  0.9202386E-01
         -1   -1    0    0    0  501 -0.00000000000E+00  0.00000000000E+00  0.45752789216E+03  0.45752789216E+03  0.00000000000E+00 0.  1.
          2   -1    0    0  501    0  0.00000000000E+00 -0.00000000000E+00 -0.66463280981E+03  0.66463280981E+03  0.00000000000E+00 0. -1.
         24    2    1    2    0    0  0.12663383252E+03 -0.85306123899E+02  0.50573613825E+02  0.18034505032E+03  0.81568280883E+02 0.  0.
        254    2    1    2    0    0 -0.12663383252E+03  0.85306123899E+02 -0.25767853147E+03  0.94181565164E+03  0.89291950017E+03 0.  0.
         23    2    4    4    0    0 -0.21660954721E+03 -0.33682831756E+03  0.32625580535E+02  0.41342897757E+03  0.97396506832E+02 0.  0.
         23    2    4    4    0    0  0.89975714689E+02  0.42213444145E+03 -0.29030411201E+03  0.52838667407E+03  0.92859485166E+02 0.  0.
          2    1    3    3  502    0  0.10558355632E+03 -0.56358845242E+02  0.16101895402E+01  0.11969460937E+03  0.00000000000E+00 0. -1.
         -1    1    3    3    0  502  0.21050276203E+02 -0.28947278657E+02  0.48963424284E+02  0.60650440951E+02  0.00000000000E+00 0.  1.
         13    1    5    5    0    0 -0.51270281429E+02 -0.40617541184E+02 -0.23665042240E+02  0.69559044227E+02  0.00000000000E+00 0.  1.
        -13    1    5    5    0    0 -0.16533926578E+03 -0.29621077637E+03  0.56290622774E+02  0.34386993335E+03  0.00000000000E+00 0. -1.
          3    1    6    6  503    0  0.10220067995E+03  0.37608586143E+03 -0.23379396244E+03  0.45447240953E+03  0.00000000000E+00 0. -1.
         -3    1    6    6    0  503 -0.12224965259E+02  0.46048580022E+02 -0.56510149565E+02  0.73914264533E+02  0.00000000000E+00 0.  1.
<mgrwt>
<rscale>  0 0.11028836E+04</rscale>
<asrwt>0</asrwt>
<pdfrwt beam="1">  1        2 0.10225120E+00 0.11028836E+04</pdfrwt>
<pdfrwt beam="2">  1       -1 0.70388907E-01 0.11028836E+04</pdfrwt>
<totfact> 0.10120496E+02</totfact>
</mgrwt>
</event>
<event>
12    7  0.1740517E-007  0.3507151E+04  0.7818608E-02  0.8112097E-01
          2   -1    0    0  501    0  0.00000000000E+00  0.00000000000E+00  0.11649008024E+04  0.11649008024E+04  0.00000000000E+00 0. -1.
         -1   -1    0    0    0  501 -0.00000000000E+00 -0.00000000000E+00 -0.26397325154E+04  0.26397325154E+04  0.00000000000E+00 0.  1.
         24    2    1    2    0    0 -0.97281359156E+03 -0.12473980095E+04 -0.11518382965E+04  0.19584802419E+04  0.80903142853E+02 0.  0.
        254    2    1    2    0    0  0.97281359156E+03  0.12473980095E+04 -0.32299341651E+03  0.18461530759E+04  0.89531466800E+03 0.  0.
         23    2    4    4    0    0  0.18352372319E+03  0.55622990980E+03 -0.50329447772E+03  0.77760468284E+03  0.91055158798E+02 0.  0.
         23    2    4    4    0    0  0.78928986837E+03  0.69116809965E+03  0.18030106121E+03  0.10685483931E+04  0.92711150335E+02 0.  0.
          4    1    3    3  502    0 -0.39878621588E+03 -0.50917502952E+03 -0.42204823273E+03  0.77227868507E+03  0.00000000000E+00 0. -1.
         -3    1    3    3    0  502 -0.57402737568E+03 -0.73822297993E+03 -0.72979006378E+03  0.11862015568E+04  0.00000000000E+00 0.  1.
         13    1    5    5    0    0  0.11486382681E+03  0.32271050584E+03 -0.35119988643E+03  0.49058855421E+03  0.00000000000E+00 0. -1.
        -13    1    5    5    0    0  0.68659896377E+02  0.23351940397E+03 -0.15209459129E+03  0.28701612864E+03  0.00000000000E+00 0.  1.
          3    1    6    6  503    0  0.72229514194E+03  0.64273350577E+03  0.18987401134E+03  0.98532673347E+03  0.00000000000E+00 0. -1.
         -3    1    6    6    0  503  0.66994726436E+02  0.48434593882E+02 -0.95729501351E+01  0.83221659615E+02  0.00000000000E+00 0.  1.
<mgrwt>
<rscale>  0 0.35071507E+04</rscale>
<asrwt>0</asrwt>
<pdfrwt beam="1">  1        2 0.17921551E+00 0.35071507E+04</pdfrwt>
<pdfrwt beam="2">  1       -1 0.40611269E+00 0.35071507E+04</pdfrwt>
<totfact> 0.12074993E-01</totfact>
</mgrwt>
</event>
<event>
12    7  0.1740517E-007  0.1822403E+04  0.7818608E-02  0.8694476E-01
          2   -1    0    0  501    0  0.00000000000E+00  0.00000000000E+00  0.75810384445E+03  0.75810384445E+03  0.00000000000E+00 0. -1.
         -1   -1    0    0    0  501 -0.00000000000E+00 -0.00000000000E+00 -0.10952167704E+04  0.10952167704E+04  0.00000000000E+00 0.  1.
         24    2    1    2    0    0 -0.52477987241E+03 -0.13611535775E+03  0.30246158829E+03  0.62587280785E+03  0.79450954124E+02 0.  0.
        254    2    1    2    0    0  0.52477987241E+03  0.13611535775E+03 -0.63957451422E+03  0.12274478070E+04  0.89646598068E+03 0.  0.
         23    2    4    4    0    0  0.16713412073E+03  0.41174409779E+03 -0.61750272138E+03  0.76638038536E+03  0.92532522785E+02 0.  0.
         23    2    4    4    0    0  0.35764575169E+03 -0.27562874004E+03 -0.22071792833E+02  0.46106742162E+03  0.90632870428E+02 0.  0.
          4    1    3    3  502    0 -0.46001482527E+03 -0.13292668828E+03  0.29011021908E+03  0.55986345044E+03  0.00000000000E+00 0. -1.
         -3    1    3    3    0  502 -0.64765047147E+02 -0.31886694673E+01  0.12351369217E+02  0.66009357416E+02  0.00000000000E+00 0.  1.
         13    1    5    5    0    0  0.16054968777E+03  0.37404784963E+03 -0.59810963463E+03  0.72347987608E+03  0.00000000000E+00 0.  1.
        -13    1    5    5    0    0  0.65844329508E+01  0.37696248160E+02 -0.19393086756E+02  0.42900509281E+02  0.00000000000E+00 0. -1.
          4    1    6    6  503    0  0.33993264834E+03 -0.23196228272E+03 -0.32463031739E+02  0.41281297756E+03  0.00000000000E+00 0.  1.
         -4    1    6    6    0  503  0.17713103344E+02 -0.43666457322E+02  0.10391238906E+02  0.48254444056E+02  0.00000000000E+00 0. -1.
<mgrwt>
<rscale>  0 0.18224029E+04</rscale>
<asrwt>0</asrwt>
<pdfrwt beam="1">  1        2 0.11663136E+00 0.18224029E+04</pdfrwt>
<pdfrwt beam="2">  1       -1 0.16849489E+00 0.18224029E+04</pdfrwt>
<totfact> 0.10042273E+01</totfact>
</mgrwt>
</event>
<event>
12    7  0.1740517E-007  0.1735225E+04  0.7818608E-02  0.8741525E-01
         -1   -1    0    0    0  501 -0.00000000000E+00  0.00000000000E+00  0.22864087432E+03  0.22864087432E+03  0.00000000000E+00 0.  1.
          2   -1    0    0  501    0  0.00000000000E+00 -0.00000000000E+00 -0.32922891735E+04  0.32922891735E+04  0.00000000000E+00 0. -1.
         24    2    1    2    0    0  0.56944644591E+03  0.13877596991E+03 -0.16112610143E+04  0.17164864644E+04  0.81459816226E+02 0.  0.
        254    2    1    2    0    0 -0.56944644591E+03 -0.13877596991E+03 -0.14523872848E+04  0.18044435833E+04  0.89613603647E+03 0.  0.
         23    2    4    4    0    0 -0.71993563779E+03  0.14142636115E+03 -0.97602665304E+03  0.12244291425E+04  0.91049213308E+02 0.  0.
         23    2    4    4    0    0  0.15048919188E+03 -0.28020233106E+03 -0.47636063175E+03  0.58001444089E+03  0.91306938178E+02 0.  0.
          2    1    3    3  502    0  0.45283786465E+03  0.10980344045E+03 -0.13678058582E+04  0.14449954301E+04  0.00000000000E+00 0. -1.
         -1    1    3    3    0  502  0.11660858127E+03  0.28972529464E+02 -0.24345515612E+03  0.27149103435E+03  0.00000000000E+00 0.  1.
         13    1    5    5    0    0 -0.54919195992E+03  0.12580304825E+03 -0.80204721000E+03  0.98016220233E+03  0.00000000000E+00 0.  1.
        -13    1    5    5    0    0 -0.17074367787E+03  0.15623312892E+02 -0.17397944304E+03  0.24426694013E+03  0.00000000000E+00 0. -1.
          2    1    6    6  503    0  0.16488490118E+02 -0.94842816279E+02 -0.19456760940E+03  0.21707967370E+03  0.00000000000E+00 0. -1.
         -2    1    6    6    0  503  0.13400070176E+03 -0.18535951478E+03 -0.28179302235E+03  0.36293476719E+03  0.00000000000E+00 0.  1.
<mgrwt>
<rscale>  0 0.17352255E+04</rscale>
<asrwt>0</asrwt>
<pdfrwt beam="1">  1        2 0.50650601E+00 0.17352255E+04</pdfrwt>
<pdfrwt beam="2">  1       -1 0.35175521E-01 0.17352255E+04</pdfrwt>
<totfact> 0.94312410E+00</totfact>
</mgrwt>
</event>
<event>
12    7  0.1740517E-007  0.1426785E+04  0.7818608E-02  0.8934655E-01
          2   -1    0    0  501    0  0.00000000000E+00  0.00000000000E+00  0.83090637482E+03  0.83090637482E+03  0.00000000000E+00 0. -1.
         -1   -1    0    0    0  501 -0.00000000000E+00 -0.00000000000E+00 -0.61249881642E+03  0.61249881642E+03  0.00000000000E+00 0.  1.
         24    2    1    2    0    0  0.34799909277E+02  0.41755093991E+03 -0.42656557214E+02  0.42883113971E+03  0.80726348891E+02 0.  0.
        254    2    1    2    0    0 -0.34799909277E+02 -0.41755093991E+03  0.26106411561E+03  0.10145740515E+04  0.88636686111E+03 0.  0.
         23    2    4    4    0    0  0.51969238285E+02 -0.36004816820E+03 -0.27118322584E+03  0.46391661845E+03  0.96658169585E+02 0.  0.
         23    2    4    4    0    0 -0.86769147562E+02 -0.57502771711E+02  0.53224734145E+03  0.55065743308E+03  0.95398754691E+02 0.  0.
          2    1    3    3  502    0 -0.24918137725E+02  0.99600967361E+02 -0.12132658325E+01  0.10267783744E+03  0.00000000000E+00 0. -1.
         -1    1    3    3    0  502  0.59718047003E+02  0.31794997255E+03 -0.41443291382E+02  0.32615330227E+03  0.00000000000E+00 0.  1.
         13    1    5    5    0    0  0.30847255142E+02 -0.28058462242E+03 -0.15635489118E+03  0.32268581544E+03  0.00000000000E+00 0. -1.
        -13    1    5    5    0    0  0.21121983143E+02 -0.79463545782E+02 -0.11482833466E+03  0.14123080302E+03  0.00000000000E+00 0.  1.
          3    1    6    6  503    0 -0.35581409831E+02  0.25418910726E+02  0.16064353469E+03  0.16648874732E+03  0.00000000000E+00 0. -1.
         -3    1    6    6    0  503 -0.51187737731E+02 -0.82921682437E+02  0.37160380676E+03  0.38416868575E+03  0.00000000000E+00 0.  1.
<mgrwt>
<rscale>  0 0.14267854E+04</rscale>
<asrwt>0</asrwt>
<pdfrwt beam="1">  1        2 0.12783175E+00 0.14267854E+04</pdfrwt>
<pdfrwt beam="2">  1       -1 0.94230587E-01 0.14267854E+04</pdfrwt>
<totfact> 0.39603095E+01</totfact>
</mgrwt>
</event>
<event>
12    7  0.1740517E-007  0.1636487E+04  0.7818608E-02  0.8798441E-01
          2   -1    0    0  501    0  0.00000000000E+00  0.00000000000E+00  0.15276306709E+04  0.15276306709E+04  0.00000000000E+00 0. -1.
         -1   -1    0    0    0  501 -0.00000000000E+00 -0.00000000000E+00 -0.43827504609E+03  0.43827504609E+03  0.00000000000E+00 0.  1.
         24    2    1    2    0    0  0.49100788045E+03 -0.19244668505E+03  0.63115519206E+03  0.82629712301E+03  0.79281736671E+02 0.  0.
        254    2    1    2    0    0 -0.49100788045E+03  0.19244668505E+03  0.45820043276E+03  0.11396085940E+04  0.90035306724E+03 0.  0.
         23    2    4    4    0    0  0.23401619561E+03  0.30495715338E+02  0.26762996359E+03  0.36810273211E+03  0.90444764992E+02 0.  0.
         23    2    4    4    0    0 -0.72502407606E+03  0.16195096971E+03  0.19057046917E+03  0.77150586189E+03  0.83762543827E+02 0.  0.
          4    1    3    3  502    0  0.61976430064E+00  0.31055517546E+01  0.12991182376E+02  0.13371588500E+02  0.00000000000E+00 0. -1.
         -3    1    3    3    0  502  0.49038811615E+03 -0.19555223680E+03  0.61816400969E+03  0.81292553451E+03  0.00000000000E+00 0.  1.
         13    1    5    5    0    0  0.23656876578E+03  0.23674042458E+02  0.23362145776E+03  0.33332300664E+03  0.00000000000E+00 0. -1.
        -13    1    5    5    0    0 -0.25525701651E+01  0.68216728796E+01  0.34008505830E+02  0.34779725475E+02  0.00000000000E+00 0.  1.
          3    1    6    6  503    0 -0.63460195660E+03  0.16711419036E+03  0.15569441787E+03  0.67445351782E+03  0.00000000000E+00 0. -1.
         -3    1    6    6    0  503 -0.90422119466E+02 -0.51632206510E+01  0.34876051293E+02  0.97052344073E+02  0.00000000000E+00 0.  1.
<mgrwt>
<rscale>  0 0.16364870E+04</rscale>
<asrwt>0</asrwt>
<pdfrwt beam="1">  1        2 0.23502010E+00 0.16364870E+04</pdfrwt>
<pdfrwt beam="2">  1       -1 0.67426931E-01 0.16364870E+04</pdfrwt>
<totfact> 0.29724170E+01</totfact>
</mgrwt>
</event>
<event>
12    7  0.1740517E-007  0.1904156E+04  0.7818608E-02  0.8652790E-01
         -1   -1    0    0    0  501 -0.00000000000E+00  0.00000000000E+00  0.93858169837E+03  0.93858169837E+03  0.00000000000E+00 0.  1.
          2   -1    0    0  501    0  0.00000000000E+00 -0.00000000000E+00 -0.96576884966E+03  0.96576884966E+03  0.00000000000E+00 0. -1.
         24    2    1    2    0    0  0.20334065110E+03 -0.67854723590E+02  0.69692162886E+03  0.73381231285E+03  0.82638186087E+02 0.  0.
        254    2    1    2    0    0 -0.20334065110E+03  0.67854723590E+02 -0.72410878016E+03  0.11705382352E+04  0.89435705991E+03 0.  0.
         23    2    4    4    0    0  0.92437545931E+02 -0.22520616664E+03 -0.69484198636E+03  0.74265467229E+03  0.97303950915E+02 0.  0.
         23    2    4    4    0    0 -0.29577819703E+03  0.29306089023E+03 -0.29266793794E+02  0.42788356289E+03  0.94118919200E+02 0.  0.
          2    1    3    3  502    0 -0.36736417682E+01 -0.75925300827E+01  0.69221034025E+01  0.10911355205E+02  0.00000000000E+00 0. -1.
         -1    1    3    3    0  502  0.20701429287E+03 -0.60262193508E+02  0.68999952546E+03  0.72290095764E+03  0.00000000000E+00 0.  1.
         13    1    5    5    0    0  0.78944890106E+02 -0.88075506055E+02 -0.24277975681E+03  0.27005851358E+03  0.00000000000E+00 0.  1.
        -13    1    5    5    0    0  0.13492655826E+02 -0.13713066059E+03 -0.45206222956E+03  0.47259615871E+03  0.00000000000E+00 0. -1.
          4    1    6    6  503    0 -0.78194035590E+02  0.95351767930E+02  0.32386421055E+02  0.12749567490E+03  0.00000000000E+00 0. -1.
         -4    1    6    6    0  503 -0.21758416144E+03  0.19770912230E+03 -0.61653214849E+02  0.30038788799E+03  0.00000000000E+00 0.  1.
<mgrwt>
<rscale>  0 0.19041565E+04</rscale>
<asrwt>0</asrwt>
<pdfrwt beam="1">  1        2 0.14857982E+00 0.19041565E+04</pdfrwt>
<pdfrwt beam="2">  1       -1 0.14439719E+00 0.19041565E+04</pdfrwt>
<totfact> 0.10940616E+01</totfact>
</mgrwt>
</event>
<event>
12    7  0.1740517E-007  0.1289908E+04  0.7818608E-02  0.9037607E-01
         -1   -1    0    0    0  501 -0.00000000000E+00  0.00000000000E+00  0.11022537554E+03  0.11022537554E+03  0.00000000000E+00 0.  1.
          2   -1    0    0  501    0  0.00000000000E+00 -0.00000000000E+00 -0.37737737983E+04  0.37737737983E+04  0.00000000000E+00 0. -1.
         24    2    1    2    0    0  0.24903106388E+03  0.15509419316E+03 -0.13698790263E+04  0.14028092386E+04  0.72350077092E+02 0.  0.
        254    2    1    2    0    0 -0.24903106388E+03 -0.15509419316E+03 -0.22936693964E+04  0.24811899352E+04  0.89961853858E+03 0.  0.
         23    2    4    4    0    0 -0.10410097939E+03 -0.34477310327E+03 -0.31711658517E+03  0.48817042034E+03  0.89676775475E+02 0.  0.
         23    2    4    4    0    0 -0.14493008449E+03  0.18967891012E+03 -0.19765528112E+04  0.19930195148E+04  0.91558465544E+02 0.  0.
          4    1    3    3  502    0  0.18230008449E+03  0.73326788726E+02 -0.91076930917E+03  0.93172467675E+03  0.00000000000E+00 0. -1.
         -3    1    3    3    0  502  0.66730979391E+02  0.81767404429E+02 -0.45910971718E+03  0.47108456189E+03  0.00000000000E+00 0.  1.
         13    1    5    5    0    0  0.13875763482E+02 -0.59274355429E+02 -0.68464618411E+02  0.91615446284E+02  0.00000000000E+00 0. -1.
        -13    1    5    5    0    0 -0.11797674287E+03 -0.28549874784E+03 -0.24865196676E+03  0.39655497406E+03  0.00000000000E+00 0.  1.
          1    1    6    6  503    0  0.11127479552E+02  0.10641799691E+02 -0.66611030851E+02  0.68367376233E+02  0.00000000000E+00 0. -1.
         -1    1    6    6    0  503 -0.15605756404E+03  0.17903711043E+03 -0.19099417804E+04  0.19246521386E+04  0.00000000000E+00 0.  1.
<mgrwt>
<rscale>  0 0.12899080E+04</rscale>
<asrwt>0</asrwt>
<pdfrwt beam="1">  1        2 0.58058046E+00 0.12899080E+04</pdfrwt>
<pdfrwt beam="2">  1       -1 0.16957754E-01 0.12899080E+04</pdfrwt>
<totfact> 0.15892626E+01</totfact>
</mgrwt>
</event>
<event>
12    7  0.1740517E-007  0.1651489E+04  0.7818608E-02  0.8789526E-01
         -1   -1    0    0    0  501 -0.00000000000E+00  0.00000000000E+00  0.67848041313E+03  0.67848041313E+03  0.00000000000E+00 0.  1.
          2   -1    0    0  501    0  0.00000000000E+00 -0.00000000000E+00 -0.10049721519E+04  0.10049721519E+04  0.00000000000E+00 0. -1.
         24    2    1    2    0    0 -0.19830666415E+03  0.19810216585E+03 -0.62817241973E+03  0.69245754866E+03  0.79541603140E+02 0.  0.
        254    2    1    2    0    0  0.19830666415E+03 -0.19810216585E+03  0.30168068096E+03  0.99099501637E+03  0.90138220975E+03 0.  0.
         23    2    4    4    0    0  0.43572101010E+03  0.18313922175E+03  0.20207535882E+03  0.52187692140E+03  0.90157069979E+02 0.  0.
         23    2    4    4    0    0 -0.23741434595E+03 -0.38124138760E+03  0.99605322138E+02  0.46911809497E+03  0.91869470177E+02 0.  0.
          2    1    3    3  502    0 -0.18281462723E+03  0.13732116595E+03 -0.49398035421E+03  0.54432975382E+03  0.00000000000E+00 0. -1.
         -1    1    3    3    0  502 -0.15492036917E+02  0.60780999898E+02 -0.13419206552E+03  0.14812779485E+03  0.00000000000E+00 0.  1.
         13    1    5    5    0    0  0.28785647173E+02  0.36226816858E+02  0.35316818157E+02  0.58208877223E+02  0.00000000000E+00 0. -1.
        -13    1    5    5    0    0  0.40693536292E+03  0.14691240489E+03  0.16675854066E+03  0.46366804418E+03  0.00000000000E+00 0.  1.
          2    1    6    6  503    0 -0.13913006702E+03 -0.17219051181E+03  0.86727738615E+02  0.23775712093E+03  0.00000000000E+00 0. -1.
         -2    1    6    6    0  503 -0.98284278925E+02 -0.20905087579E+03  0.12877583523E+02  0.23136097404E+03  0.00000000000E+00 0.  1.
<mgrwt>
<rscale>  0 0.16514889E+04</rscale>
<asrwt>0</asrwt>
<pdfrwt beam="1">  1        2 0.15461110E+00 0.16514889E+04</pdfrwt>
<pdfrwt beam="2">  1       -1 0.10438160E+00 0.16514889E+04</pdfrwt>
<totfact> 0.23523624E+01</totfact>
</mgrwt>
</event>
<event>
12    7  0.1740517E-007  0.1064178E+04  0.7818608E-02  0.9240827E-01
          2   -1    0    0  501    0  0.00000000000E+00  0.00000000000E+00  0.82358261337E+03  0.82358261337E+03  0.00000000000E+00 0. -1.
         -1   -1    0    0    0  501 -0.00000000000E+00 -0.00000000000E+00 -0.34376470587E+03  0.34376470587E+03  0.00000000000E+00 0.  1.
         24    2    1    2    0    0  0.46409586545E+02 -0.10692117374E+03  0.81299589178E+01  0.14247416431E+03  0.81527934764E+02 0.  0.
        254    2    1    2    0    0 -0.46409586545E+02  0.10692117374E+03  0.47168794859E+03  0.10248731549E+04  0.90237989546E+03 0.  0.
         23    2    4    4    0    0  0.16084580618E+03 -0.63544695669E+01 -0.22126881416E+03  0.28729446443E+03  0.87558372094E+02 0.  0.
         23    2    4    4    0    0 -0.20725539272E+03  0.11327564331E+03  0.69295676275E+03  0.73757869050E+03  0.89705520765E+02 0.  0.
          4    1    3    3  502    0 -0.12821946268E+02 -0.38248939828E+02  0.28668236213E+02  0.49489912827E+02  0.00000000000E+00 0. -1.
         -3    1    3    3    0  502  0.59231532813E+02 -0.68672233916E+02 -0.20538277295E+02  0.92984251487E+02  0.00000000000E+00 0.  1.
         13    1    5    5    0    0  0.16529435237E+01  0.20471119439E+02 -0.15366254560E+02  0.25649965548E+02  0.00000000000E+00 0. -1.
        -13    1    5    5    0    0  0.15919286266E+03 -0.26825589006E+02 -0.20590255960E+03  0.26164449888E+03  0.00000000000E+00 0.  1.
          2    1    6    6  503    0 -0.19479302668E+03  0.12165024757E+03  0.68003947287E+03  0.71777210216E+03  0.00000000000E+00 0.  1.
         -2    1    6    6    0  503 -0.12462366043E+02 -0.83746042547E+01  0.12917289881E+02  0.19806588340E+02  0.00000000000E+00 0. -1.
<mgrwt>
<rscale>  0 0.10641779E+04</rscale>
<asrwt>0</asrwt>
<pdfrwt beam="1">  1        2 0.12670502E+00 0.10641779E+04</pdfrwt>
<pdfrwt beam="2">  1       -1 0.52886878E-01 0.10641779E+04</pdfrwt>
<totfact> 0.13556041E+02</totfact>
</mgrwt>
</event>
<event>
12    7  0.1740517E-007  0.2076697E+04  0.7818608E-02  0.8571579E-01
          2   -1    0    0  501    0  0.00000000000E+00  0.00000000000E+00  0.26716068117E+04  0.26716068117E+04  0.00000000000E+00 0. -1.
         -1   -1    0    0    0  501 -0.00000000000E+00 -0.00000000000E+00 -0.40356526317E+03  0.40356526317E+03  0.00000000000E+00 0.  1.
         24    2    1    2    0    0 -0.48202447719E+03 -0.45274044470E+03  0.15469342021E+03  0.68381932943E+03  0.79732767180E+02 0.  0.
        254    2    1    2    0    0  0.48202447719E+03  0.45274044470E+03  0.21133481283E+04  0.23913527454E+04  0.90277690202E+03 0.  0.
         23    2    4    4    0    0  0.29862594956E+03  0.12969008023E+03  0.11526175435E+03  0.35700985110E+03  0.90408999014E+02 0.  0.
         23    2    4    4    0    0  0.18339852762E+03  0.32305036448E+03  0.19980863740E+04  0.20343428943E+04  0.90583089188E+02 0.  0.
          2    1    3    3  502    0 -0.96683853958E+02 -0.78634118839E+02  0.60576468889E+02  0.13856623270E+03  0.00000000000E+00 0. -1.
         -1    1    3    3    0  502 -0.38534062323E+03 -0.37410632586E+03  0.94116951320E+02  0.54525309673E+03  0.00000000000E+00 0.  1.
         13    1    5    5    0    0  0.79164593096E+02  0.27088559167E+02  0.73104077914E+02  0.11110818622E+03  0.00000000000E+00 0.  1.
        -13    1    5    5    0    0  0.21946135647E+03  0.10260152106E+03  0.42157676440E+02  0.24590166488E+03  0.00000000000E+00 0. -1.
          4    1    6    6  503    0  0.15904663966E+03  0.20483778228E+03  0.14636578645E+04  0.14864550767E+04  0.00000000000E+00 0. -1.
         -4    1    6    6    0  503  0.24351887966E+02  0.11821258220E+03  0.53442850945E+03  0.54788781767E+03  0.00000000000E+00 0.  1.
<mgrwt>
<rscale>  0 0.20766971E+04</rscale>
<asrwt>0</asrwt>
<pdfrwt beam="1">  1        2 0.41101642E+00 0.20766971E+04</pdfrwt>
<pdfrwt beam="2">  1       -1 0.62086965E-01 0.20766971E+04</pdfrwt>
<totfact> 0.76396476E+00</totfact>
</mgrwt>
</event>
<event>
12    7  0.1740517E-007  0.1462380E+04  0.7818608E-02  0.8909863E-01
         -1   -1    0    0    0  501 -0.00000000000E+00  0.00000000000E+00  0.25149372077E+03  0.25149372077E+03  0.00000000000E+00 0.  1.
          2   -1    0    0  501    0  0.00000000000E+00 -0.00000000000E+00 -0.21258534403E+04  0.21258534403E+04  0.00000000000E+00 0. -1.
         24    2    1    2    0    0 -0.41180393459E+03 -0.81638629752E+02 -0.37028456270E+03  0.56552496435E+03  0.80377120629E+02 0.  0.
        254    2    1    2    0    0  0.41180393459E+03  0.81638629752E+02 -0.15040751568E+04  0.18118221967E+04  0.91880914704E+03 0.  0.
         23    2    4    4    0    0 -0.16954712469E+03  0.27146592156E+03 -0.83822123689E+03  0.90307907290E+03  0.10245484794E+03 0.  0.
         23    2    4    4    0    0  0.58135105928E+03 -0.18982729181E+03 -0.66585391991E+03  0.90874312379E+03  0.91919353433E+02 0.  0.
          4    1    3    3  502    0 -0.34999520015E+03 -0.78275740352E+02 -0.34802241069E+03  0.49974326409E+03  0.00000000000E+00 0. -1.
         -3    1    3    3    0  502 -0.61808734434E+02 -0.33628893999E+01 -0.22262152010E+02  0.65781700264E+02  0.00000000000E+00 0.  1.
         13    1    5    5    0    0 -0.23042307161E+02  0.12729445336E+03 -0.36081016584E+03  0.38329988462E+03  0.00000000000E+00 0.  1.
        -13    1    5    5    0    0 -0.14650481753E+03  0.14417146820E+03 -0.47741107105E+03  0.51977918828E+03  0.00000000000E+00 0. -1.
          1    1    6    6  503    0  0.53166223423E+03 -0.14643635346E+03 -0.60986238069E+03  0.82221679641E+03  0.00000000000E+00 0. -1.
         -1    1    6    6    0  503  0.49688825048E+02 -0.43390938345E+02 -0.55991539225E+02  0.86526327380E+02  0.00000000000E+00 0.  1.
<mgrwt>
<rscale>  0 0.14623800E+04</rscale>
<asrwt>0</asrwt>
<pdfrwt beam="1">  1        2 0.32705438E+00 0.14623800E+04</pdfrwt>
<pdfrwt beam="2">  1       -1 0.38691341E-01 0.14623800E+04</pdfrwt>
<totfact> 0.40635172E+01</totfact>
</mgrwt>
</event>
<event>
12    7  0.1740517E-007  0.1783028E+04  0.7818608E-02  0.8715377E-01
         -1   -1    0    0    0  501 -0.00000000000E+00  0.00000000000E+00  0.41918948812E+03  0.41918948812E+03  0.00000000000E+00 0.  1.
          2   -1    0    0  501    0  0.00000000000E+00 -0.00000000000E+00 -0.18960329324E+04  0.18960329324E+04  0.00000000000E+00 0. -1.
         24    2    1    2    0    0 -0.27983954640E+03 -0.31702649802E+03  0.11383657651E+03  0.44479281771E+03  0.77883967257E+02 0.  0.
        254    2    1    2    0    0  0.27983954640E+03  0.31702649802E+03 -0.15906800208E+04  0.18704296029E+04  0.88849760741E+03 0.  0.
         23    2    4    4    0    0  0.51342242912E+03  0.22585447405E+03 -0.14737942342E+04  0.15796041725E+04  0.92016644217E+02 0.  0.
         23    2    4    4    0    0 -0.23358288272E+03  0.91172023975E+02 -0.11688578665E+03  0.29082543038E+03  0.89687472814E+02 0.  0.
          4    1    3    3  502    0 -0.16891118950E+03 -0.21105510812E+03  0.35831606160E+02  0.27268874674E+03  0.00000000000E+00 0. -1.
         -3    1    3    3    0  502 -0.11092835691E+03 -0.10597138990E+03  0.78004970352E+02  0.17210407097E+03  0.00000000000E+00 0.  1.
         13    1    5    5    0    0  0.59315362681E+02  0.25681919753E+02 -0.10150887473E+03  0.12034086962E+03  0.00000000000E+00 0.  1.
        -13    1    5    5    0    0  0.45410706644E+03  0.20017255429E+03 -0.13722853595E+04  0.14592633029E+04  0.00000000000E+00 0. -1.
          1    1    6    6  503    0 -0.21941630921E+03  0.60066511783E+02 -0.11870452702E+03  0.25659748112E+03  0.00000000000E+00 0. -1.
         -1    1    6    6    0  503 -0.14166573514E+02  0.31105512192E+02  0.18187403701E+01  0.34227949258E+02  0.00000000000E+00 0.  1.
<mgrwt>
<rscale>  0 0.17830278E+04</rscale>
<asrwt>0</asrwt>
<pdfrwt beam="1">  1        2 0.29169738E+00 0.17830278E+04</pdfrwt>
<pdfrwt beam="2">  1       -1 0.64490689E-01 0.17830278E+04</pdfrwt>
<totfact> 0.20033659E+01</totfact>
</mgrwt>
</event>
<event>
12    7  0.1740517E-007  0.1689736E+04  0.7818608E-02  0.8767240E-01
          2   -1    0    0  501    0  0.00000000000E+00  0.00000000000E+00  0.17838231451E+04  0.17838231451E+04  0.00000000000E+00 0. -1.
         -1   -1    0    0    0  501 -0.00000000000E+00 -0.00000000000E+00 -0.40015301978E+03  0.40015301978E+03  0.00000000000E+00 0.  1.
         24    2    1    2    0    0  0.50464192036E+03  0.15975689252E+03  0.76257756600E+03  0.93228589200E+03  0.86294308905E+02 0.  0.
        254    2    1    2    0    0 -0.50464192036E+03 -0.15975689252E+03  0.62109255931E+03  0.12516902729E+04  0.94909790827E+03 0.  0.
         23    2    4    4    0    0  0.14103537536E+03 -0.34397731717E+03  0.36092407233E+03  0.52590580830E+03  0.89996452028E+02 0.  0.
         23    2    4    4    0    0 -0.64567729572E+03  0.18422042465E+03  0.26016848698E+03  0.72578446457E+03  0.90769556205E+02 0.  0.
          4    1    3    3  502    0  0.47137863094E+03  0.14669511915E+03  0.74146526311E+03  0.89077943852E+03  0.00000000000E+00 0. -1.
         -3    1    3    3    0  502  0.33263289429E+02  0.13061773369E+02  0.21112302896E+02  0.41506453483E+02  0.00000000000E+00 0.  1.
         13    1    5    5    0    0  0.19242346892E+02 -0.32910730474E+02  0.83053834368E+02  0.91385575981E+02  0.00000000000E+00 0. -1.
        -13    1    5    5    0    0  0.12179302846E+03 -0.31106658670E+03  0.27787023797E+03  0.43452023232E+03  0.00000000000E+00 0.  1.
          3    1    6    6  503    0 -0.21157625475E+03  0.30089085602E+02  0.50121845884E+02  0.21950413227E+03  0.00000000000E+00 0. -1.
         -3    1    6    6    0  503 -0.43410104097E+03  0.15413133905E+03  0.21004664109E+03  0.50628033231E+03  0.00000000000E+00 0.  1.
<mgrwt>
<rscale>  0 0.16897363E+04</rscale>
<asrwt>0</asrwt>
<pdfrwt beam="1">  1        2 0.27443433E+00 0.16897363E+04</pdfrwt>
<pdfrwt beam="2">  1       -1 0.61562004E-01 0.16897363E+04</pdfrwt>
<totfact> 0.25572771E+01</totfact>
</mgrwt>
</event>
<event>
12    7  0.1740517E-007  0.1197887E+04  0.7818608E-02  0.9114708E-01
         -1   -1    0    0    0  501 -0.00000000000E+00  0.00000000000E+00  0.48601851525E+03  0.48601851525E+03  0.00000000000E+00 0.  1.
          2   -1    0    0  501    0  0.00000000000E+00 -0.00000000000E+00 -0.73810621430E+03  0.73810621430E+03  0.00000000000E+00 0. -1.
         24    2    1    2    0    0 -0.18788767645E+03 -0.15768804436E+03 -0.59354001560E+02  0.26494408955E+03  0.80654663791E+02 0.  0.
        254    2    1    2    0    0  0.18788767645E+03  0.15768804436E+03 -0.19273369749E+03  0.95918064000E+03  0.90703578965E+03 0.  0.
         23    2    4    4    0    0  0.41238040344E+03  0.20357590250E+03  0.18746769265E+03  0.50510450327E+03  0.92117741099E+02 0.  0.
         23    2    4    4    0    0 -0.22449272698E+03 -0.45887858137E+02 -0.38020139014E+03  0.45407613672E+03  0.95547689075E+02 0.  0.
          2    1    3    3  502    0 -0.18865431107E+03 -0.16166171562E+03 -0.48198458702E+02  0.25307716374E+03  0.00000000000E+00 0. -1.
         -1    1    3    3    0  502  0.76663462121E+00  0.39736712577E+01 -0.11155542858E+02  0.11866925818E+02  0.00000000000E+00 0.  1.
         13    1    5    5    0    0  0.27689085511E+03  0.14057824552E+03  0.17174012292E+03  0.35485977312E+03  0.00000000000E+00 0.  1.
        -13    1    5    5    0    0  0.13548954832E+03  0.62997656982E+02  0.15727569729E+02  0.15024473015E+03  0.00000000000E+00 0. -1.
          1    1    6    6  503    0  0.18660876645E+01  0.39868638893E+01  0.36178665312E+01  0.56979228743E+01  0.00000000000E+00 0.  1.
         -1    1    6    6    0  503 -0.22635881465E+03 -0.49874722026E+02 -0.38381925667E+03  0.44837821385E+03  0.00000000000E+00 0. -1.
<mgrwt>
<rscale>  0 0.11978870E+04</rscale>
<asrwt>0</asrwt>
<pdfrwt beam="1">  1        2 0.11355480E+00 0.11978870E+04</pdfrwt>
<pdfrwt beam="2">  1       -1 0.74772079E-01 0.11978870E+04</pdfrwt>
<totfact> 0.77666729E+01</totfact>
</mgrwt>
</event>
<event>
12    7  0.1740517E-007  0.1194687E+04  0.7818608E-02  0.9117520E-01
          2   -1    0    0  501    0  0.00000000000E+00  0.00000000000E+00  0.19299530570E+04  0.19299530570E+04  0.00000000000E+00 0. -1.
         -1   -1    0    0    0  501 -0.00000000000E+00 -0.00000000000E+00 -0.18488492738E+03  0.18488492738E+03  0.00000000000E+00 0.  1.
         24    2    1    2    0    0 -0.91590559934E+02 -0.96616652935E+02  0.80035806878E+03  0.81519782637E+03  0.79062314451E+02 0.  0.
        254    2    1    2    0    0  0.91590559934E+02  0.96616652935E+02  0.94471006081E+03  0.12996401580E+04  0.88253262428E+03 0.  0.
         23    2    4    4    0    0 -0.87429467828E+02  0.12315664864E+02 -0.14020078654E+03  0.19325615128E+03  0.99479103404E+02 0.  0.
         23    2    4    4    0    0  0.17902002776E+03  0.84300988071E+02  0.10849108474E+04  0.11063840067E+04  0.88877424856E+02 0.  0.
          4    1    3    3  502    0 -0.23811593083E+02 -0.59356326117E+02  0.53464425190E+03  0.53845579346E+03  0.00000000000E+00 0. -1.
         -3    1    3    3    0  502 -0.67778966851E+02 -0.37260326818E+02  0.26571381688E+03  0.27674203292E+03  0.00000000000E+00 0.  1.
         13    1    5    5    0    0 -0.12862413006E+02  0.39245886431E+02 -0.12866293574E+02  0.43257632626E+02  0.00000000000E+00 0. -1.
        -13    1    5    5    0    0 -0.74567054821E+02 -0.26930221567E+02 -0.12733449296E+03  0.14999851865E+03  0.00000000000E+00 0.  1.
          3    1    6    6  503    0  0.94594692838E+01  0.27067617998E+02  0.67247096828E+02  0.73104784625E+02  0.00000000000E+00 0. -1.
         -3    1    6    6    0  503  0.16956055848E+03  0.57233370073E+02  0.10176637505E+04  0.10332792221E+04  0.00000000000E+00 0.  1.
<mgrwt>
<rscale>  0 0.11946870E+04</rscale>
<asrwt>0</asrwt>
<pdfrwt beam="1">  1        2 0.29691584E+00 0.11946870E+04</pdfrwt>
<pdfrwt beam="2">  1       -1 0.28443836E-01 0.11946870E+04</pdfrwt>
<totfact> 0.92139745E+01</totfact>
</mgrwt>
</event>
<event>
12    7  0.1740517E-007  0.2242355E+04  0.7818608E-02  0.8501003E-01
         -1   -1    0    0    0  501 -0.00000000000E+00  0.00000000000E+00  0.11426886306E+04  0.11426886306E+04  0.00000000000E+00 0.  1.
          2   -1    0    0  501    0  0.00000000000E+00 -0.00000000000E+00 -0.11000708982E+04  0.11000708982E+04  0.00000000000E+00 0. -1.
         24    2    1    2    0    0  0.44439475657E+03  0.48334948134E+03 -0.63608154241E+03  0.91773499635E+03  0.80773598165E+02 0.  0.
        254    2    1    2    0    0 -0.44439475657E+03 -0.48334948134E+03  0.67869927483E+03  0.13250245324E+04  0.92948581760E+03 0.  0.
         23    2    4    4    0    0 -0.70111582186E+03 -0.25575377397E+03  0.59728187914E+03  0.96090817884E+03  0.98109614453E+02 0.  0.
         23    2    4    4    0    0  0.25672106530E+03 -0.22759570737E+03  0.81417395687E+02  0.36411635359E+03  0.90809775078E+02 0.  0.
          4    1    3    3  502    0  0.41885406234E+03  0.45982882442E+03 -0.62378095401E+03  0.88089951294E+03  0.00000000000E+00 0. -1.
         -3    1    3    3    0  502  0.25540694223E+02  0.23520656918E+02 -0.12300588397E+02  0.36835483411E+02  0.00000000000E+00 0.  1.
         13    1    5    5    0    0 -0.69577218632E+03 -0.26179252364E+03  0.58392318655E+03  0.94530447396E+03  0.00000000000E+00 0. -1.
        -13    1    5    5    0    0 -0.53436355474E+01  0.60387496741E+01  0.13358692591E+02  0.15603704888E+02  0.00000000000E+00 0.  1.
          3    1    6    6  503    0  0.21982035783E+03 -0.22263733029E+03  0.53114218351E+02  0.31734758664E+03  0.00000000000E+00 0. -1.
         -3    1    6    6    0  503  0.36900707471E+02 -0.49583770855E+01  0.28303177336E+02  0.46768766955E+02  0.00000000000E+00 0.  1.
<mgrwt>
<rscale>  0 0.22423546E+04</rscale>
<asrwt>0</asrwt>
<pdfrwt beam="1">  1        2 0.16924168E+00 0.22423546E+04</pdfrwt>
<pdfrwt beam="2">  1       -1 0.17579825E+00 0.22423546E+04</pdfrwt>
<totfact> 0.50494575E+00</totfact>
</mgrwt>
</event>
<event>
12    7  0.1740517E-007  0.1582407E+04  0.7818608E-02  0.8831429E-01
         -1   -1    0    0    0  501 -0.00000000000E+00  0.00000000000E+00  0.44167456561E+03  0.44167456561E+03  0.00000000000E+00 0.  1.
          2   -1    0    0  501    0  0.00000000000E+00 -0.00000000000E+00 -0.14173406584E+04  0.14173406584E+04  0.00000000000E+00 0. -1.
         24    2    1    2    0    0  0.86795795315E+02 -0.10347272572E+02  0.28078123759E+03  0.30457358170E+03  0.79286740069E+02 0.  0.
        254    2    1    2    0    0 -0.86795795315E+02  0.10347272572E+02 -0.12564473304E+04  0.15544416423E+04  0.91103696367E+03 0.  0.
         23    2    4    4    0    0  0.11195523759E+03 -0.34843664544E+03 -0.98640767113E+03  0.10559974802E+04  0.90490404806E+02 0.  0.
         23    2    4    4    0    0 -0.19875103291E+03  0.35878391801E+03 -0.27003965929E+03  0.49844416216E+03  0.85424190318E+02 0.  0.
          2    1    3    3  502    0  0.17981790627E+02  0.77149724020E+01  0.56119882425E+01  0.20355834676E+02  0.00000000000E+00 0. -1.
         -1    1    3    3    0  502  0.68814004687E+02 -0.18062244974E+02  0.27516924935E+03  0.28421774702E+03  0.00000000000E+00 0.  1.
         13    1    5    5    0    0  0.71057347030E+02 -0.91485494217E+02 -0.26975872490E+03  0.29357880012E+03  0.00000000000E+00 0. -1.
        -13    1    5    5    0    0  0.40897890564E+02 -0.25695115123E+03 -0.71664894623E+03  0.76241868006E+03  0.00000000000E+00 0.  1.
          1    1    6    6  503    0 -0.17990513456E+02  0.74796939774E+02 -0.83676033167E+02  0.11366582292E+03  0.00000000000E+00 0. -1.
         -1    1    6    6    0  503 -0.18076051945E+03  0.28398697824E+03 -0.18636362612E+03  0.38477833923E+03  0.00000000000E+00 0.  1.
<mgrwt>
<rscale>  0 0.15824074E+04</rscale>
<asrwt>0</asrwt>
<pdfrwt beam="1">  1        2 0.21805241E+00 0.15824074E+04</pdfrwt>
<pdfrwt beam="2">  1       -1 0.67949933E-01 0.15824074E+04</pdfrwt>
<totfact> 0.33940942E+01</totfact>
</mgrwt>
</event>
<event>
12    7  0.1740517E-007  0.1666640E+04  0.7818608E-02  0.8780623E-01
         -1   -1    0    0    0  501 -0.00000000000E+00  0.00000000000E+00  0.45962500292E+03  0.45962500292E+03  0.00000000000E+00 0.  1.
          2   -1    0    0  501    0  0.00000000000E+00 -0.00000000000E+00 -0.15108444326E+04  0.15108444326E+04  0.00000000000E+00 0. -1.
         24    2    1    2    0    0 -0.49852721590E+03  0.30873570034E+03 -0.27237216505E+03  0.65303303557E+03  0.91752011378E+02 0.  0.
        254    2    1    2    0    0  0.49852721590E+03 -0.30873570034E+03 -0.77884726461E+03  0.13174363999E+04  0.88610862122E+03 0.  0.
         23    2    4    4    0    0  0.14657086680E+03 -0.57486595396E+03 -0.34772039559E+03  0.69361117434E+03  0.90736451555E+02 0.  0.
         23    2    4    4    0    0  0.35195634910E+03  0.26613025362E+03 -0.43112686902E+03  0.62382522559E+03  0.92676595345E+02 0.  0.
          4    1    3    3  502    0 -0.73421434983E+02  0.15079332667E+02 -0.52567105999E+02  0.91549953697E+02  0.00000000000E+00 0. -1.
         -3    1    3    3    0  502 -0.42510578092E+03  0.29365636767E+03 -0.21980505905E+03  0.56148308187E+03  0.00000000000E+00 0.  1.
         13    1    5    5    0    0  0.93818844976E+02 -0.39494298214E+03 -0.28465353582E+03  0.49579186185E+03  0.00000000000E+00 0. -1.
        -13    1    5    5    0    0  0.52752021821E+02 -0.17992297182E+03 -0.63066859767E+02  0.19781931249E+03  0.00000000000E+00 0.  1.
          2    1    6    6  503    0  0.92572568510E+02  0.39681671779E+02 -0.58525676722E+02  0.11648849880E+03  0.00000000000E+00 0. -1.
         -2    1    6    6    0  503  0.25938378059E+03  0.22644858184E+03 -0.37260119230E+03  0.50733672679E+03  0.00000000000E+00 0.  1.
<mgrwt>
<rscale>  0 0.16666396E+04</rscale>
<asrwt>0</asrwt>
<pdfrwt beam="1">  1        2 0.23243760E+00 0.16666396E+04</pdfrwt>
<pdfrwt beam="2">  1       -1 0.70711539E-01 0.16666396E+04</pdfrwt>
<totfact> 0.27493316E+01</totfact>
</mgrwt>
</event>
<event>
12    7  0.1740517E-007  0.1473867E+04  0.7818608E-02  0.8902019E-01
         -1   -1    0    0    0  501 -0.00000000000E+00  0.00000000000E+00  0.66584283536E+03  0.66584283536E+03  0.00000000000E+00 0.  1.
          2   -1    0    0  501    0  0.00000000000E+00 -0.00000000000E+00 -0.81561476258E+03  0.81561476258E+03  0.00000000000E+00 0. -1.
         24    2    1    2    0    0 -0.56547935215E+02  0.11066145664E+03 -0.48681084600E+03  0.50880276287E+03  0.80323251691E+02 0.  0.
        254    2    1    2    0    0  0.56547935215E+02 -0.11066145664E+03  0.33703891878E+03  0.97265483507E+03  0.90389079453E+03 0.  0.
         23    2    4    4    0    0  0.44680528803E+03  0.21343404820E+01  0.31872529316E+03  0.55653592057E+03  0.92232844245E+02 0.  0.
         23    2    4    4    0    0 -0.39025735282E+03 -0.11279579712E+03  0.18313625620E+02  0.41611891450E+03  0.88294217484E+02 0.  0.
          4    1    3    3  502    0  0.41997842649E+00  0.90145377781E+01 -0.18590217441E+03  0.18612108082E+03  0.00000000000E+00 0. -1.
         -3    1    3    3    0  502 -0.56967913642E+02  0.10164691886E+03 -0.30090867159E+03  0.32268168206E+03  0.00000000000E+00 0.  1.
         13    1    5    5    0    0  0.37927955308E+03  0.33788294642E+02  0.27886617294E+03  0.47197560387E+03  0.00000000000E+00 0. -1.
        -13    1    5    5    0    0  0.67525734957E+02 -0.31653954160E+02  0.39859120220E+02  0.84560316699E+02  0.00000000000E+00 0.  1.
          1    1    6    6  503    0 -0.32597934705E+03 -0.64911751600E+02 -0.57573786141E+01  0.33242926707E+03  0.00000000000E+00 0. -1.
         -1    1    6    6    0  503 -0.64278005773E+02 -0.47884045519E+02  0.24071004234E+02  0.83689647425E+02  0.00000000000E+00 0.  1.
<mgrwt>
<rscale>  0 0.14738674E+04</rscale>
<asrwt>0</asrwt>
<pdfrwt beam="1">  1        2 0.12547919E+00 0.14738674E+04</pdfrwt>
<pdfrwt beam="2">  1       -1 0.10243736E+00 0.14738674E+04</pdfrwt>
<totfact> 0.33461746E+01</totfact>
</mgrwt>
</event>
<event>
12    7  0.1740517E-007  0.1306941E+04  0.7818608E-02  0.9024079E-01
          2   -1    0    0  501    0  0.00000000000E+00  0.00000000000E+00  0.77092485336E+03  0.77092485336E+03  0.00000000000E+00 0. -1.
         -1   -1    0    0    0  501 -0.00000000000E+00 -0.00000000000E+00 -0.55391072883E+03  0.55391072883E+03  0.00000000000E+00 0.  1.
         24    2    1    2    0    0  0.33817809455E+02  0.32252239569E+03  0.38495610360E+02  0.33607325805E+03  0.79366131339E+02 0.  0.
        254    2    1    2    0    0 -0.33817809455E+02 -0.32252239569E+03  0.17851851418E+03  0.98876232414E+03  0.91685207846E+03 0.  0.
         23    2    4    4    0    0  0.42046021344E+03 -0.84961260044E+02  0.16049417614E+03  0.46738246268E+03  0.93181430850E+02 0.  0.
         23    2    4    4    0    0 -0.45427802289E+03 -0.23756113564E+03  0.18024338039E+02  0.52137986146E+03  0.93318100716E+02 0.  0.
          2    1    3    3  502    0  0.23121789382E+02  0.31957192265E+03  0.29450204056E+02  0.32175789876E+03  0.00000000000E+00 0. -1.
         -1    1    3    3    0  502  0.10696020073E+02  0.29504730323E+01  0.90454063037E+01  0.14315359294E+02  0.00000000000E+00 0.  1.
         13    1    5    5    0    0  0.28945284874E+03 -0.20313637050E+02  0.13090401409E+03  0.31832602219E+03  0.00000000000E+00 0.  1.
        -13    1    5    5    0    0  0.13100736469E+03 -0.64647622994E+02  0.29590162047E+02  0.14905644049E+03  0.00000000000E+00 0. -1.
          2    1    6    6  503    0 -0.45727281404E+03 -0.22866948729E+03  0.14856798094E+02  0.51147716012E+03  0.00000000000E+00 0.  1.
         -2    1    6    6    0  503  0.29947911485E+01 -0.88916483484E+01  0.31675399454E+01  0.99027013325E+01  0.00000000000E+00 0. -1.
<mgrwt>
<rscale>  0 0.13069408E+04</rscale>
<asrwt>0</asrwt>
<pdfrwt beam="1">  1        2 0.11860382E+00 0.13069408E+04</pdfrwt>
<pdfrwt beam="2">  1       -1 0.85217036E-01 0.13069408E+04</pdfrwt>
<totfact> 0.55124287E+01</totfact>
</mgrwt>
</event>
<event>
12    7  0.1740517E-007  0.2705159E+04  0.7818608E-02  0.8333333E-01
         -1   -1    0    0    0  501 -0.00000000000E+00  0.00000000000E+00  0.78110602576E+03  0.78110602576E+03  0.00000000000E+00 0.  1.
          2   -1    0    0  501    0  0.00000000000E+00 -0.00000000000E+00 -0.23421547441E+04  0.23421547441E+04  0.00000000000E+00 0. -1.
         24    2    1    2    0    0 -0.34234744542E+02 -0.22955893981E+03 -0.20573109894E+04  0.20718489103E+04  0.78486148388E+02 0.  0.
        254    2    1    2    0    0  0.34234744542E+02  0.22955893981E+03  0.49626227106E+03  0.10514118595E+04  0.89739697577E+03 0.  0.
         23    2    4    4    0    0 -0.38197670074E+03  0.27484589478E+03  0.15481692297E+03  0.50346437243E+03  0.89786574040E+02 0.  0.
         23    2    4    4    0    0  0.41621144529E+03 -0.45286954962E+02  0.34144534809E+03  0.54794748711E+03  0.91534951906E+02 0.  0.
          2    1    3    3  502    0  0.51686696195E+01 -0.18072281469E+03 -0.14222898863E+04  0.14337349725E+04  0.00000000000E+00 0. -1.
         -1    1    3    3    0  502 -0.39403414161E+02 -0.48836125121E+02 -0.63502110311E+03  0.63811393776E+03  0.00000000000E+00 0.  1.
         13    1    5    5    0    0 -0.34843376941E+03  0.22508797513E+03  0.11175500146E+03  0.42960431628E+03  0.00000000000E+00 0. -1.
        -13    1    5    5    0    0 -0.33542931330E+02  0.49757919642E+02  0.43061921509E+02  0.73860056143E+02  0.00000000000E+00 0.  1.
          4    1    6    6  503    0  0.41176183197E+03 -0.35671556031E+02  0.31562498353E+03  0.52003787978E+03  0.00000000000E+00 0. -1.
         -4    1    6    6    0  503  0.44496133172E+01 -0.96153989304E+01  0.25820364566E+02  0.27909607335E+02  0.00000000000E+00 0.  1.
<mgrwt>
<rscale>  0 0.27051589E+04</rscale>
<asrwt>0</asrwt>
<pdfrwt beam="1">  1        2 0.36033150E+00 0.27051589E+04</pdfrwt>
<pdfrwt beam="2">  1       -1 0.12017016E+00 0.27051589E+04</pdfrwt>
<totfact> 0.26387934E+00</totfact>
</mgrwt>
</event>
<event>
12    7  0.1740517E-007  0.1454697E+04  0.7818608E-02  0.8915151E-01
         -1   -1    0    0    0  501 -0.00000000000E+00  0.00000000000E+00  0.26655732896E+03  0.26655732896E+03  0.00000000000E+00 0.  1.
          2   -1    0    0  501    0  0.00000000000E+00 -0.00000000000E+00 -0.19846982685E+04  0.19846982685E+04  0.00000000000E+00 0. -1.
         24    2    1    2    0    0  0.39824859881E+03 -0.30767891907E+02 -0.83499384751E+03  0.93002167881E+03  0.90426699886E+02 0.  0.
        254    2    1    2    0    0 -0.39824859881E+03  0.30767891907E+02 -0.88314709207E+03  0.13212339187E+04  0.89786506338E+03 0.  0.
         23    2    4    4    0    0 -0.21916458717E+03  0.37279820354E+03 -0.80271800060E+03  0.91615237757E+03  0.89260145682E+02 0.  0.
         23    2    4    4    0    0 -0.17908401164E+03 -0.34203031164E+03 -0.80429091475E+02  0.40508154112E+03  0.92554842666E+02 0.  0.
          2    1    3    3  502    0  0.60711205051E+02  0.20258687938E+02 -0.18630721443E+03  0.19699401769E+03  0.00000000000E+00 0. -1.
         -1    1    3    3    0  502  0.33753739376E+03 -0.51026579845E+02 -0.64868663308E+03  0.73302766112E+03  0.00000000000E+00 0.  1.
         13    1    5    5    0    0 -0.78212313672E+02  0.19312029420E+03 -0.45093649636E+03  0.49674574764E+03  0.00000000000E+00 0. -1.
        -13    1    5    5    0    0 -0.14095227350E+03  0.17967790934E+03 -0.35178150423E+03  0.41940662993E+03  0.00000000000E+00 0.  1.
          1    1    6    6  503    0 -0.18311501064E+02 -0.30458648542E+01 -0.15802540237E+02  0.24378446256E+02  0.00000000000E+00 0. -1.
         -1    1    6    6    0  503 -0.16077251057E+03 -0.33898444678E+03 -0.64626551238E+02  0.38070309487E+03  0.00000000000E+00 0.  1.
<mgrwt>
<rscale>  0 0.14546970E+04</rscale>
<asrwt>0</asrwt>
<pdfrwt beam="1">  1        2 0.30533821E+00 0.14546970E+04</pdfrwt>
<pdfrwt beam="2">  1       -1 0.41008818E-01 0.14546970E+04</pdfrwt>
<totfact> 0.43798244E+01</totfact>
</mgrwt>
</event>
<event>
12    7  0.1740517E-007  0.1113905E+04  0.7818608E-02  0.9191744E-01
         -1   -1    0    0    0  501 -0.00000000000E+00  0.00000000000E+00  0.28323406826E+03  0.28323406826E+03  0.00000000000E+00 0.  1.
          2   -1    0    0  501    0  0.00000000000E+00 -0.00000000000E+00 -0.10951929691E+04  0.10951929691E+04  0.00000000000E+00 0. -1.
         24    2    1    2    0    0 -0.76622344774E+02 -0.14898841304E+02 -0.51861270143E+03  0.53048080037E+03  0.79735727779E+02 0.  0.
        254    2    1    2    0    0  0.76622344774E+02  0.14898841304E+02 -0.29334619942E+03  0.84794623701E+03  0.79174987777E+03 0.  0.
         23    2    4    4    0    0  0.23302689351E+03 -0.14420239342E+03  0.16129032542E+03  0.33131466530E+03  0.93053613610E+02 0.  0.
         23    2    4    4    0    0 -0.15640454873E+03  0.15910123473E+03 -0.45463652484E+03  0.51663157170E+03  0.10216763386E+03 0.  0.
          4    1    3    3  502    0  0.14506883278E+01 -0.34474647240E+01 -0.26161888345E+03  0.26164561851E+03  0.00000000000E+00 0. -1.
         -3    1    3    3    0  502 -0.78073033102E+02 -0.11451376580E+02 -0.25699381798E+03  0.26883518186E+03  0.00000000000E+00 0.  1.
         13    1    5    5    0    0  0.20516654194E+03 -0.13382175284E+03  0.10269588583E+03  0.26560876573E+03  0.00000000000E+00 0.  1.
        -13    1    5    5    0    0  0.27860351565E+02 -0.10380640584E+02  0.58594439592E+02  0.65705899578E+02  0.00000000000E+00 0. -1.
          3    1    6    6  503    0 -0.28649492879E+02  0.62972329527E+02 -0.23495812198E+03  0.24493188199E+03  0.00000000000E+00 0. -1.
         -3    1    6    6    0  503 -0.12775505585E+03  0.96128905199E+02 -0.21967840285E+03  0.27169968972E+03  0.00000000000E+00 0.  1.
<mgrwt>
<rscale>  0 0.11139048E+04</rscale>
<asrwt>0</asrwt>
<pdfrwt beam="1">  1        2 0.16849122E+00 0.11139048E+04</pdfrwt>
<pdfrwt beam="2">  1       -1 0.43574472E-01 0.11139048E+04</pdfrwt>
<totfact> 0.12895188E+02</totfact>
</mgrwt>
</event>
<event>
12    7  0.1740517E-007  0.3221848E+04  0.7818608E-02  0.8183071E-01
          2   -1    0    0  501    0  0.00000000000E+00  0.00000000000E+00  0.34774129858E+04  0.34774129858E+04  0.00000000000E+00 0. -1.
         -1   -1    0    0    0  501 -0.00000000000E+00 -0.00000000000E+00 -0.74626634827E+03  0.74626634827E+03  0.00000000000E+00 0.  1.
         24    2    1    2    0    0 -0.90441122517E+01  0.57901702353E+03  0.30508475673E+04  0.31063249338E+04  0.79001306187E+02 0.  0.
        254    2    1    2    0    0  0.90441122517E+01 -0.57901702353E+03 -0.31970092974E+03  0.11173544002E+04  0.90051633063E+03 0.  0.
         23    2    4    4    0    0  0.31147405285E+03 -0.35230438356E+03  0.15428956605E+03  0.50443596016E+03  0.97549492223E+02 0.  0.
         23    2    4    4    0    0 -0.30242994060E+03 -0.22671263997E+03 -0.47399049579E+03  0.61291844007E+03  0.90219365907E+02 0.  0.
          2    1    3    3  502    0 -0.17637707175E+02  0.57386083860E+03  0.30099754631E+04  0.30642420987E+04  0.00000000000E+00 0. -1.
         -1    1    3    3    0  502  0.85935949234E+01  0.51561849299E+01  0.40872104126E+02  0.42082835128E+02  0.00000000000E+00 0.  1.
         13    1    5    5    0    0  0.61108332398E+02 -0.28388589424E+02  0.43897440014E+02  0.80418440285E+02  0.00000000000E+00 0. -1.
        -13    1    5    5    0    0  0.25036572045E+03 -0.32391579414E+03  0.11039212604E+03  0.42401751988E+03  0.00000000000E+00 0.  1.
          1    1    6    6  503    0 -0.24961089420E+03 -0.21754913511E+03 -0.37434087157E+03  0.49976425725E+03  0.00000000000E+00 0. -1.
         -1    1    6    6    0  503 -0.52819046403E+02 -0.91635048589E+01 -0.99649624217E+02  0.11315418283E+03  0.00000000000E+00 0.  1.
<mgrwt>
<rscale>  0 0.32218481E+04</rscale>
<asrwt>0</asrwt>
<pdfrwt beam="1">  1        2 0.53498660E+00 0.32218481E+04</pdfrwt>
<pdfrwt beam="2">  1       -1 0.11481021E+00 0.32218481E+04</pdfrwt>
<totfact> 0.55383271E-01</totfact>
</mgrwt>
</event>
<event>
12    7  0.1740517E-007  0.1661601E+04  0.7818608E-02  0.8783573E-01
          2   -1    0    0  501    0  0.00000000000E+00  0.00000000000E+00  0.18438821787E+04  0.18438821787E+04  0.00000000000E+00 0. -1.
         -1   -1    0    0    0  501 -0.00000000000E+00 -0.00000000000E+00 -0.37433475205E+03  0.37433475205E+03  0.00000000000E+00 0.  1.
         24    2    1    2    0    0  0.43372839030E+03 -0.10931967713E+03  0.23753083146E+02  0.45503560236E+03  0.80137894289E+02 0.  0.
        254    2    1    2    0    0 -0.43372839030E+03  0.10931967713E+03  0.14457943435E+04  0.17631813284E+04  0.90466347592E+03 0.  0.
         23    2    4    4    0    0  0.46130030200E+02 -0.23839382730E+03  0.95128784338E+03  0.98569260880E+03  0.87645658776E+02 0.  0.
         23    2    4    4    0    0 -0.47985842050E+03  0.34771350443E+03  0.49450650010E+03  0.77748871955E+03  0.93718970913E+02 0.  0.
          2    1    3    3  502    0  0.29928940116E+03 -0.50436684835E+02  0.44686766311E+02  0.30678153776E+03  0.00000000000E+00 0. -1.
         -1    1    3    3    0  502  0.13443898913E+03 -0.58882992295E+02 -0.20933683165E+02  0.14825406460E+03  0.00000000000E+00 0.  1.
         13    1    5    5    0    0  0.64650714712E+02 -0.20292606206E+03  0.86075684460E+03  0.88671362181E+03  0.00000000000E+00 0.  1.
        -13    1    5    5    0    0 -0.18520684512E+02 -0.35467765239E+02  0.90530998778E+02  0.98978986990E+02  0.00000000000E+00 0. -1.
          1    1    6    6  503    0 -0.23457218427E+03  0.21406856514E+03  0.30206393374E+03  0.43828310518E+03  0.00000000000E+00 0. -1.
         -1    1    6    6    0  503 -0.24528623622E+03  0.13364493929E+03  0.19244256635E+03  0.33920561437E+03  0.00000000000E+00 0.  1.
<mgrwt>
<rscale>  0 0.16616006E+04</rscale>
<asrwt>0</asrwt>
<pdfrwt beam="1">  1        2 0.28367418E+00 0.16616006E+04</pdfrwt>
<pdfrwt beam="2">  1       -1 0.57589963E-01 0.16616006E+04</pdfrwt>
<totfact> 0.27084527E+01</totfact>
</mgrwt>
</event>
<event>
12    7  0.1740517E-007  0.2710500E+04  0.7818608E-02  0.8331606E-01
          2   -1    0    0  501    0  0.00000000000E+00  0.00000000000E+00  0.85630430175E+03  0.85630430175E+03  0.00000000000E+00 0. -1.
         -1   -1    0    0    0  501 -0.00000000000E+00 -0.00000000000E+00 -0.21449174885E+04  0.21449174885E+04  0.00000000000E+00 0.  1.
         24    2    1    2    0    0  0.18008964564E+03  0.35792330100E+02 -0.18893212494E+04  0.19001458697E+04  0.85476145052E+02 0.  0.
        254    2    1    2    0    0 -0.18008964564E+03 -0.35792330100E+02  0.60070806269E+03  0.11010759205E+04  0.90432551371E+03 0.  0.
         23    2    4    4    0    0 -0.50980906369E+03 -0.66706582526E+02  0.54103297347E+03  0.75201099548E+03  0.91917405161E+02 0.  0.
         23    2    4    4    0    0  0.32971941806E+03  0.30914252425E+02  0.59675089228E+02  0.34906492501E+03  0.92814976973E+02 0.  0.
          4    1    3    3  502    0  0.10378674605E+03 -0.22876001345E+02 -0.99786610892E+03  0.10035097266E+04  0.00000000000E+00 0. -1.
         -3    1    3    3    0  502  0.76302899590E+02  0.58668331445E+02 -0.89145514050E+03  0.89663614310E+03  0.00000000000E+00 0.  1.
         13    1    5    5    0    0 -0.11360289126E+02 -0.17410832373E+02  0.29476400621E+02  0.36070090747E+02  0.00000000000E+00 0.  1.
        -13    1    5    5    0    0 -0.49844877457E+03 -0.49295750153E+02  0.51155657284E+03  0.71594090473E+03  0.00000000000E+00 0. -1.
          4    1    6    6  503    0  0.32472115545E+03  0.26820029929E+02  0.73313869442E+02  0.33397315200E+03  0.00000000000E+00 0. -1.
         -4    1    6    6    0  503  0.49982626083E+01  0.40942224958E+01 -0.13638780215E+02  0.15091773013E+02  0.00000000000E+00 0.  1.
<mgrwt>
<rscale>  0 0.27104996E+04</rscale>
<asrwt>0</asrwt>
<pdfrwt beam="1">  1        2 0.13173912E+00 0.27104996E+04</pdfrwt>
<pdfrwt beam="2">  1       -1 0.32998730E+00 0.27104996E+04</pdfrwt>
<totfact> 0.66114413E-01</totfact>
</mgrwt>
</event>
<event>
12    7  0.1740517E-007  0.1017456E+04  0.7818608E-02  0.9289604E-01
          2   -1    0    0  501    0  0.00000000000E+00  0.00000000000E+00  0.73927623153E+03  0.73927623153E+03  0.00000000000E+00 0. -1.
         -1   -1    0    0    0  501 -0.00000000000E+00 -0.00000000000E+00 -0.35007784004E+03  0.35007784004E+03  0.00000000000E+00 0.  1.
         24    2    1    2    0    0 -0.29115215907E+02 -0.77621768773E+01  0.89858448416E+02  0.12467977318E+03  0.81009616105E+02 0.  0.
        254    2    1    2    0    0  0.29115215907E+02  0.77621768773E+01  0.29933994308E+03  0.96467429839E+03  0.91656104721E+03 0.  0.
         23    2    4    4    0    0 -0.32371690444E+03 -0.23108251167E+03 -0.43007511206E+02  0.41084447569E+03  0.93550926010E+02 0.  0.
         23    2    4    4    0    0  0.35283212035E+03  0.23884468855E+03  0.34234745429E+03  0.55382982270E+03  0.89377864472E+02 0.  0.
          2    1    3    3  502    0 -0.22469781369E+00 -0.17242525325E+01  0.94746993355E+02  0.94762947852E+02  0.00000000000E+00 0. -1.
         -1    1    3    3    0  502 -0.28890518093E+02 -0.60379243449E+01 -0.48885449388E+01  0.29916825328E+02  0.00000000000E+00 0.  1.
         13    1    5    5    0    0 -0.27668069877E+03 -0.15643179983E+03 -0.14698873543E+02  0.31818103959E+03  0.00000000000E+00 0.  1.
        -13    1    5    5    0    0 -0.47036205675E+02 -0.74650711847E+02 -0.28308637663E+02  0.92663436100E+02  0.00000000000E+00 0. -1.
          4    1    6    6  503    0  0.25535101720E+02  0.52543869714E+02  0.38908275712E+02  0.70190836890E+02  0.00000000000E+00 0. -1.
         -4    1    6    6    0  503  0.32729701863E+03  0.18630081884E+03  0.30343917858E+03  0.48363898581E+03  0.00000000000E+00 0.  1.
<mgrwt>
<rscale>  0 0.10174561E+04</rscale>
<asrwt>0</asrwt>
<pdfrwt beam="1">  1        2 0.11373480E+00 0.10174561E+04</pdfrwt>
<pdfrwt beam="2">  1       -1 0.53858129E-01 0.10174561E+04</pdfrwt>
<totfact> 0.15138232E+02</totfact>
</mgrwt>
</event>
<event>
12    7  0.1740517E-007  0.1085475E+04  0.7818608E-02  0.9219466E-01
          2   -1    0    0  501    0  0.00000000000E+00  0.00000000000E+00  0.89670945616E+03  0.89670945616E+03  0.00000000000E+00 0. -1.
         -1   -1    0    0    0  501 -0.00000000000E+00 -0.00000000000E+00 -0.32849435603E+03  0.32849435603E+03  0.00000000000E+00 0.  1.
         24    2    1    2    0    0 -0.17097623161E+03  0.75640415909E+02  0.16156478274E+03  0.25948545659E+03  0.79216026568E+02 0.  0.
        254    2    1    2    0    0  0.17097623161E+03 -0.75640415909E+02  0.40665031739E+03  0.96571835560E+03  0.85574126780E+03 0.  0.
         23    2    4    4    0    0 -0.58535846405E+02 -0.42362744118E+03  0.13043061062E+03  0.45657763481E+03  0.92543709621E+02 0.  0.
         23    2    4    4    0    0  0.22951207802E+03  0.34798702527E+03  0.27621970677E+03  0.50914072079E+03  0.95687948307E+02 0.  0.
          4    1    3    3  502    0 -0.11794323250E+03  0.89068698981E+02  0.10925784017E+03  0.18379639515E+03  0.00000000000E+00 0. -1.
         -3    1    3    3    0  502 -0.53032999112E+02 -0.13428283072E+02  0.52306942572E+02  0.75689061444E+02  0.00000000000E+00 0.  1.
         13    1    5    5    0    0  0.14895974542E+02 -0.22920257895E+03  0.65583315755E+02  0.23886582752E+03  0.00000000000E+00 0. -1.
        -13    1    5    5    0    0 -0.73431820947E+02 -0.19442486223E+03  0.64847294866E+02  0.21771180729E+03  0.00000000000E+00 0.  1.
          1    1    6    6  503    0  0.18685096545E+03  0.33286602129E+03  0.23749815810E+03  0.44957585180E+03  0.00000000000E+00 0. -1.
         -1    1    6    6    0  503  0.42661112572E+02  0.15121003976E+02  0.38721548668E+02  0.59564868995E+02  0.00000000000E+00 0.  1.
<mgrwt>
<rscale>  0 0.10854750E+04</rscale>
<asrwt>0</asrwt>
<pdfrwt beam="1">  1        2 0.13795530E+00 0.10854750E+04</pdfrwt>
<pdfrwt beam="2">  1       -1 0.50537594E-01 0.10854750E+04</pdfrwt>
<totfact> 0.13137148E+02</totfact>
</mgrwt>
</event>
<event>
12    7  0.1740517E-007  0.3316381E+04  0.7818608E-02  0.8158740E-01
         -1   -1    0    0    0  501 -0.00000000000E+00  0.00000000000E+00  0.16780374101E+04  0.16780374101E+04  0.00000000000E+00 0.  1.
          2   -1    0    0  501    0  0.00000000000E+00 -0.00000000000E+00 -0.16385781482E+04  0.16385781482E+04  0.00000000000E+00 0. -1.
         24    2    1    2    0    0  0.82107849185E+03 -0.16341618016E+03 -0.12681963821E+04  0.15217222042E+04  0.80259985726E+02 0.  0.
        254    2    1    2    0    0 -0.82107849185E+03  0.16341618016E+03  0.13076556440E+04  0.17948933542E+04  0.90044662914E+03 0.  0.
         23    2    4    4    0    0 -0.63170489989E+03 -0.30761792039E+03  0.66870411681E+03  0.97393145374E+03  0.87734914700E+02 0.  0.
         23    2    4    4    0    0 -0.18937359197E+03  0.47103410055E+03  0.63895152720E+03  0.82096190046E+03  0.89352709439E+02 0.  0.
          2    1    3    3  502    0  0.33013352468E+03 -0.59740292650E+02 -0.43890574354E+03  0.55244483742E+03  0.00000000000E+00 0. -1.
         -1    1    3    3    0  502  0.49094496717E+03 -0.10367588751E+03 -0.82929063858E+03  0.96927736674E+03  0.00000000000E+00 0.  1.
         13    1    5    5    0    0 -0.30833171909E+03 -0.19867459462E+03  0.34054822735E+03  0.50051287565E+03  0.00000000000E+00 0.  1.
        -13    1    5    5    0    0 -0.32337318079E+03 -0.10894332577E+03  0.32815588947E+03  0.47341857809E+03  0.00000000000E+00 0. -1.
          1    1    6    6  503    0 -0.12161288802E+02  0.13446622185E+03  0.16055886247E+03  0.20978133873E+03  0.00000000000E+00 0. -1.
         -1    1    6    6    0  503 -0.17721230316E+03  0.33656787870E+03  0.47839266473E+03  0.61118056173E+03  0.00000000000E+00 0.  1.
<mgrwt>
<rscale>  0 0.33163808E+04</rscale>
<asrwt>0</asrwt>
<pdfrwt beam="1">  1        2 0.25208895E+00 0.33163808E+04</pdfrwt>
<pdfrwt beam="2">  1       -1 0.25815960E+00 0.33163808E+04</pdfrwt>
<totfact> 0.62137405E-01</totfact>
</mgrwt>
</event>
<event>
12    7  0.1740517E-007  0.1918804E+04  0.7818608E-02  0.8645553E-01
          2   -1    0    0  501    0  0.00000000000E+00  0.00000000000E+00  0.21201184016E+04  0.21201184016E+04  0.00000000000E+00 0. -1.
         -1   -1    0    0    0  501 -0.00000000000E+00 -0.00000000000E+00 -0.43415142121E+03  0.43415142121E+03  0.00000000000E+00 0.  1.
         24    2    1    2    0    0  0.37484425411E+03 -0.49463387079E+03  0.10654123140E+03  0.63481462858E+03  0.80421997639E+02 0.  0.
        254    2    1    2    0    0 -0.37484425411E+03  0.49463387079E+03  0.15794257490E+04  0.19194551942E+04  0.89696804019E+03 0.  0.
         23    2    4    4    0    0  0.69676796792E+02  0.24124301388E+03  0.13046246540E+04  0.13317600123E+04  0.92120544651E+02 0.  0.
         23    2    4    4    0    0 -0.44452105091E+03  0.25339085691E+03  0.27480109501E+03  0.58769518196E+03  0.89800300795E+02 0.  0.
          2    1    3    3  502    0  0.21256210597E+02 -0.31618278931E+02  0.27283525278E+02  0.46860781077E+02  0.00000000000E+00 0. -1.
         -1    1    3    3    0  502  0.35358804352E+03 -0.46301559185E+03  0.79257706127E+02  0.58795384751E+03  0.00000000000E+00 0.  1.
         13    1    5    5    0    0 -0.13609536766E+02  0.32721625005E+01  0.10486814068E+03  0.10579817328E+03  0.00000000000E+00 0. -1.
        -13    1    5    5    0    0  0.83286333558E+02  0.23797085138E+03  0.11997565133E+04  0.12259618390E+04  0.00000000000E+00 0.  1.
          3    1    6    6  503    0 -0.49077663872E+02  0.57264844139E+02  0.20002620444E+02  0.78025536141E+02  0.00000000000E+00 0. -1.
         -3    1    6    6    0  503 -0.39544338703E+03  0.19612601277E+03  0.25479847456E+03  0.50966964582E+03  0.00000000000E+00 0.  1.
<mgrwt>
<rscale>  0 0.19188042E+04</rscale>
<asrwt>0</asrwt>
<pdfrwt beam="1">  1        2 0.32617206E+00 0.19188042E+04</pdfrwt>
<pdfrwt beam="2">  1       -1 0.66792528E-01 0.19188042E+04</pdfrwt>
<totfact> 0.13845193E+01</totfact>
</mgrwt>
</event>
<event>
12    7  0.1740517E-007  0.1444918E+04  0.7818608E-02  0.8921932E-01
          2   -1    0    0  501    0  0.00000000000E+00  0.00000000000E+00  0.92636431491E+03  0.92636431491E+03  0.00000000000E+00 0. -1.
         -1   -1    0    0    0  501 -0.00000000000E+00 -0.00000000000E+00 -0.56343579175E+03  0.56343579175E+03  0.00000000000E+00 0.  1.
         24    2    1    2    0    0  0.21554855416E+03  0.28038553716E+03 -0.12810812852E+03  0.38429433939E+03  0.78697001488E+02 0.  0.
        254    2    1    2    0    0 -0.21554855416E+03 -0.28038553716E+03  0.49103665168E+03  0.11055057673E+04  0.92517499942E+03 0.  0.
         23    2    4    4    0    0  0.90058217754E+02 -0.49373864310E+03  0.38346438141E+02  0.51170952605E+03  0.92129579726E+02 0.  0.
         23    2    4    4    0    0 -0.30560677192E+03  0.21335310594E+03  0.45269021354E+03  0.59379624123E+03  0.93544106243E+02 0.  0.
          4    1    3    3  502    0  0.69032579921E+02  0.91635988337E+02 -0.34295893889E+01  0.11477984811E+03  0.00000000000E+00 0. -1.
         -3    1    3    3    0  502  0.14651597424E+03  0.18874954882E+03 -0.12467853913E+03  0.26951449128E+03  0.00000000000E+00 0.  1.
         13    1    5    5    0    0  0.10353862507E+03 -0.47777591714E+03  0.32174753770E+02  0.48992375801E+03  0.00000000000E+00 0. -1.
        -13    1    5    5    0    0 -0.13480407312E+02 -0.15962725957E+02  0.61716843711E+01  0.21785768043E+02  0.00000000000E+00 0.  1.
          2    1    6    6  503    0 -0.79864006531E+02  0.58378389943E+02  0.19068702597E+03  0.21482047813E+03  0.00000000000E+00 0.  1.
         -2    1    6    6    0  503 -0.22574276538E+03  0.15497471600E+03  0.26200318757E+03  0.37897576310E+03  0.00000000000E+00 0. -1.
<mgrwt>
<rscale>  0 0.14449177E+04</rscale>
<asrwt>0</asrwt>
<pdfrwt beam="1">  1        2 0.14251759E+00 0.14449177E+04</pdfrwt>
<pdfrwt beam="2">  1       -1 0.86682429E-01 0.14449177E+04</pdfrwt>
<totfact> 0.40894827E+01</totfact>
</mgrwt>
</event>
<event>
12    7  0.1740517E-007  0.1271875E+04  0.7818608E-02  0.9052171E-01
          2   -1    0    0  501    0  0.00000000000E+00  0.00000000000E+00  0.17047333402E+04  0.17047333402E+04  0.00000000000E+00 0. -1.
         -1   -1    0    0    0  501 -0.00000000000E+00 -0.00000000000E+00 -0.23723141169E+03  0.23723141169E+03  0.00000000000E+00 0.  1.
         24    2    1    2    0    0 -0.14108155628E+03  0.24050134012E+03  0.51132687794E+03  0.59245074101E+03  0.10861769794E+03 0.  0.
        254    2    1    2    0    0  0.14108155628E+03 -0.24050134012E+03  0.95617505061E+03  0.13495140109E+04  0.91058906105E+03 0.  0.
         23    2    4    4    0    0  0.45401544230E+03 -0.34300308558E+03  0.76473516012E+03  0.95760323347E+03  0.91667600921E+02 0.  0.
         23    2    4    4    0    0 -0.31293388602E+03  0.10250174546E+03  0.19143989049E+03  0.39191077744E+03  0.92252918444E+02 0.  0.
          4    1    3    3  502    0 -0.86006957561E+02  0.17910460737E+03  0.44238240821E+03  0.48495139160E+03  0.00000000000E+00 0. -1.
         -3    1    3    3    0  502 -0.55074598719E+02  0.61396732752E+02  0.68944469729E+02  0.10749934941E+03  0.00000000000E+00 0.  1.
         13    1    5    5    0    0  0.27902442910E+03 -0.24594722379E+03  0.55126207002E+03  0.66500717197E+03  0.00000000000E+00 0.  1.
        -13    1    5    5    0    0  0.17499101320E+03 -0.97055861785E+02  0.21347309010E+03  0.29259606150E+03  0.00000000000E+00 0. -1.
          1    1    6    6  503    0 -0.24096610130E+03  0.57962600916E+02  0.18043462880E+03  0.30656317514E+03  0.00000000000E+00 0. -1.
         -1    1    6    6    0  503 -0.71967784721E+02  0.44539144545E+02  0.11005261695E+02  0.85347602306E+02  0.00000000000E+00 0.  1.
<mgrwt>
<rscale>  0 0.12718747E+04</rscale>
<asrwt>0</asrwt>
<pdfrwt beam="1">  1        2 0.26226666E+00 0.12718747E+04</pdfrwt>
<pdfrwt beam="2">  1       -1 0.36497141E-01 0.12718747E+04</pdfrwt>
<totfact> 0.78470453E+01</totfact>
</mgrwt>
</event>
<event>
12    7  0.1740517E-007  0.1592049E+04  0.7818608E-02  0.8825448E-01
         -1   -1    0    0    0  501 -0.00000000000E+00  0.00000000000E+00  0.60946484227E+03  0.60946484227E+03  0.00000000000E+00 0.  1.
          2   -1    0    0  501    0  0.00000000000E+00 -0.00000000000E+00 -0.10396909031E+04  0.10396909031E+04  0.00000000000E+00 0. -1.
         24    2    1    2    0    0  0.12996851633E+03  0.21458294899E+03 -0.66549657845E+03  0.71537713190E+03  0.77078451515E+02 0.  0.
        254    2    1    2    0    0 -0.12996851633E+03 -0.21458294899E+03  0.23527051764E+03  0.93377861346E+03  0.86813168658E+03 0.  0.
         23    2    4    4    0    0 -0.30151386229E+03 -0.42563155722E+03 -0.46312577397E+02  0.53159925569E+03  0.91542788717E+02 0.  0.
         23    2    4    4    0    0  0.17154534597E+03  0.21104860823E+03  0.28158309503E+03  0.40217935777E+03  0.92140521238E+02 0.  0.
          4    1    3    3  502    0  0.13423854829E+03  0.21296087079E+03 -0.66465696206E+03  0.71073285949E+03  0.00000000000E+00 0. -1.
         -3    1    3    3    0  502 -0.42700319598E+01  0.16220782001E+01 -0.83961638887E+00  0.46442724194E+01  0.00000000000E+00 0.  1.
         13    1    5    5    0    0 -0.12484911814E+03 -0.21796019164E+03 -0.61235426115E+02  0.25854153409E+03  0.00000000000E+00 0. -1.
        -13    1    5    5    0    0 -0.17666474415E+03 -0.20767136558E+03  0.14922848717E+02  0.27305772159E+03  0.00000000000E+00 0.  1.
          1    1    6    6  503    0  0.52509252667E+02  0.13542040992E+03  0.15861363662E+03  0.21506788408E+03  0.00000000000E+00 0. -1.
         -1    1    6    6    0  503  0.11903609330E+03  0.75628198303E+02  0.12296945841E+03  0.18711147370E+03  0.00000000000E+00 0.  1.
<mgrwt>
<rscale>  0 0.15920491E+04</rscale>
<asrwt>0</asrwt>
<pdfrwt beam="1">  1        2 0.15995245E+00 0.15920491E+04</pdfrwt>
<pdfrwt beam="2">  1       -1 0.93763821E-01 0.15920491E+04</pdfrwt>
<totfact> 0.28686988E+01</totfact>
</mgrwt>
</event>
<event>
12    7  0.1740517E-007  0.1814889E+04  0.7818608E-02  0.8698422E-01
          2   -1    0    0  501    0  0.00000000000E+00  0.00000000000E+00  0.74553187298E+03  0.74553187298E+03  0.00000000000E+00 0. -1.
         -1   -1    0    0    0  501 -0.00000000000E+00 -0.00000000000E+00 -0.11045207912E+04  0.11045207912E+04  0.00000000000E+00 0.  1.
         24    2    1    2    0    0 -0.51969015094E+03  0.83453846563E+02 -0.56100588490E+03  0.77361373792E+03  0.81903694166E+02 0.  0.
        254    2    1    2    0    0  0.51969015094E+03 -0.83453846563E+02  0.20201696671E+03  0.10764389262E+04  0.91698828212E+03 0.  0.
         23    2    4    4    0    0  0.76745825104E+03 -0.11982906644E+02  0.21649323619E+03  0.80308410401E+03  0.94546283171E+02 0.  0.
         23    2    4    4    0    0 -0.24776810010E+03 -0.71470939919E+02 -0.14476269476E+02  0.27335482221E+03  0.89533065213E+02 0.  0.
          4    1    3    3  502    0 -0.34903709179E+02  0.73077331504E+01 -0.12889806768E+02  0.37918583792E+02  0.00000000000E+00 0. -1.
         -3    1    3    3    0  502 -0.48478644177E+03  0.76146113413E+02 -0.54811607813E+03  0.73569515413E+03  0.00000000000E+00 0.  1.
         13    1    5    5    0    0  0.66080789505E+03  0.19345008783E+02  0.17002067739E+03  0.68260408310E+03  0.00000000000E+00 0. -1.
        -13    1    5    5    0    0  0.10665035599E+03 -0.31327915428E+02  0.46472558796E+02  0.12048002091E+03  0.00000000000E+00 0.  1.
          2    1    6    6  503    0 -0.23310535827E+03 -0.88909212351E+02 -0.18691686953E+02  0.25018460236E+03  0.00000000000E+00 0. -1.
         -2    1    6    6    0  503 -0.14662741823E+02  0.17438272432E+02  0.42154174768E+01  0.23170219846E+02  0.00000000000E+00 0.  1.
<mgrwt>
<rscale>  0 0.18148889E+04</rscale>
<asrwt>0</asrwt>
<pdfrwt beam="1">  1        2 0.11469721E+00 0.18148889E+04</pdfrwt>
<pdfrwt beam="2">  1       -1 0.16992627E+00 0.18148889E+04</pdfrwt>
<totfact> 0.10023005E+01</totfact>
</mgrwt>
</event>
<event>
12    7  0.1740517E-007  0.2109765E+04  0.7818608E-02  0.8556954E-01
          2   -1    0    0  501    0  0.00000000000E+00  0.00000000000E+00  0.10264089792E+04  0.10264089792E+04  0.00000000000E+00 0. -1.
         -1   -1    0    0    0  501 -0.00000000000E+00 -0.00000000000E+00 -0.10841456578E+04  0.10841456578E+04  0.00000000000E+00 0.  1.
         24    2    1    2    0    0 -0.29315279390E+03 -0.37291962234E+03 -0.74297897008E+03  0.88505203211E+03  0.79320516019E+02 0.  0.
        254    2    1    2    0    0  0.29315279390E+03  0.37291962234E+03  0.68524229156E+03  0.12255026049E+04  0.89849431335E+03 0.  0.
         23    2    4    4    0    0  0.15393150949E+03  0.38351149497E+03  0.87528674163E+03  0.97228176934E+03  0.91809490428E+02 0.  0.
         23    2    4    4    0    0  0.13922128441E+03 -0.10591872622E+02 -0.19004445007E+03  0.25322083554E+03  0.92245025623E+02 0.  0.
          2    1    3    3  502    0 -0.96396407626E+02 -0.18568515505E+03 -0.31375043858E+03  0.37710818331E+03  0.00000000000E+00 0. -1.
         -1    1    3    3    0  502 -0.19675638627E+03 -0.18723446730E+03 -0.42922853150E+03  0.50794384880E+03  0.00000000000E+00 0.  1.
         13    1    5    5    0    0  0.62987978756E+02  0.19082415082E+03  0.52671091012E+03  0.56374260514E+03  0.00000000000E+00 0. -1.
        -13    1    5    5    0    0  0.90943530734E+02  0.19268734415E+03  0.34857583151E+03  0.40853916421E+03  0.00000000000E+00 0.  1.
          3    1    6    6  503    0  0.14732190269E+03 -0.30635170260E+01 -0.14460545781E+03  0.20645548328E+03  0.00000000000E+00 0. -1.
         -3    1    6    6    0  503 -0.81006182813E+01 -0.75283555958E+01 -0.45438992256E+02  0.46765352258E+02  0.00000000000E+00 0.  1.
<mgrwt>
<rscale>  0 0.21097648E+04</rscale>
<asrwt>0</asrwt>
<pdfrwt beam="1">  1        2 0.15790907E+00 0.21097648E+04</pdfrwt>
<pdfrwt beam="2">  1       -1 0.16679164E+00 0.21097648E+04</pdfrwt>
<totfact> 0.66123461E+00</totfact>
</mgrwt>
</event>
<event>
12    7  0.1740517E-007  0.1767200E+04  0.7818608E-02  0.8723939E-01
          2   -1    0    0  501    0  0.00000000000E+00  0.00000000000E+00  0.13964579072E+04  0.13964579072E+04  0.00000000000E+00 0. -1.
         -1   -1    0    0    0  501 -0.00000000000E+00 -0.00000000000E+00 -0.55909264993E+03  0.55909264993E+03  0.00000000000E+00 0.  1.
         24    2    1    2    0    0  0.18094557810E+03  0.26246319524E+02  0.10023052187E+04  0.10225303500E+04  0.86731733635E+02 0.  0.
        254    2    1    2    0    0 -0.18094557810E+03 -0.26246319524E+02 -0.16493996147E+03  0.93302020714E+03  0.89993963382E+03 0.  0.
         23    2    4    4    0    0 -0.48575881396E+03  0.16891251402E+03 -0.19855997869E+03  0.55814528460E+03  0.87218294249E+02 0.  0.
         23    2    4    4    0    0  0.30481323587E+03 -0.19515883354E+03  0.33620017217E+02  0.37487492254E+03  0.91666912889E+02 0.  0.
          2    1    3    3  502    0  0.13470398152E+03  0.16562687973E+02  0.89572021841E+03  0.90594381444E+03  0.00000000000E+00 0. -1.
         -1    1    3    3    0  502  0.46241596581E+02  0.96836315509E+01  0.10658500031E+03  0.11658653553E+03  0.00000000000E+00 0.  1.
         13    1    5    5    0    0 -0.28483798865E+03  0.14358669907E+03 -0.11516241878E+03  0.33913449047E+03  0.00000000000E+00 0. -1.
        -13    1    5    5    0    0 -0.20092082532E+03  0.25325814952E+02 -0.83397559909E+02  0.21901079414E+03  0.00000000000E+00 0.  1.
          1    1    6    6  503    0  0.46830414316E+02 -0.12206224439E+02  0.33051209629E+02  0.58604283785E+02  0.00000000000E+00 0. -1.
         -1    1    6    6    0  503  0.25798282155E+03 -0.18295260910E+03  0.56880758819E+00  0.31627063875E+03  0.00000000000E+00 0.  1.
<mgrwt>
<rscale>  0 0.17672004E+04</rscale>
<asrwt>0</asrwt>
<pdfrwt beam="1">  1        2 0.21483968E+00 0.17672004E+04</pdfrwt>
<pdfrwt beam="2">  1       -1 0.86014254E-01 0.17672004E+04</pdfrwt>
<totfact> 0.20926263E+01</totfact>
</mgrwt>
</event>
<event>
12    7  0.1740517E-007  0.1104117E+04  0.7818608E-02  0.9201189E-01
         -1   -1    0    0    0  501 -0.00000000000E+00  0.00000000000E+00  0.16194165722E+03  0.16194165722E+03  0.00000000000E+00 0.  1.
          2   -1    0    0  501    0  0.00000000000E+00 -0.00000000000E+00 -0.18819642823E+04  0.18819642823E+04  0.00000000000E+00 0. -1.
         24    2    1    2    0    0 -0.29264145221E+02  0.13573884929E+03 -0.64468539954E+02  0.17199160216E+03  0.78380438667E+02 0.  0.
        254    2    1    2    0    0  0.29264145221E+02 -0.13573884929E+03 -0.16555540851E+04  0.18719143374E+04  0.86250943892E+03 0.  0.
         23    2    4    4    0    0  0.68020645820E+02  0.13518666795E+03  0.14882281308E+02  0.17666977018E+03  0.89935988076E+02 0.  0.
         23    2    4    4    0    0 -0.38756500599E+02 -0.27092551724E+03 -0.16704363665E+04  0.16952445672E+04  0.92702675233E+02 0.  0.
          2    1    3    3  502    0  0.23433944846E+02  0.35841963627E+02 -0.34893492689E+02  0.55239043798E+02  0.00000000000E+00 0. -1.
         -1    1    3    3    0  502 -0.52698090067E+02  0.99896885666E+02 -0.29575047265E+02  0.11675255836E+03  0.00000000000E+00 0.  1.
         13    1    5    5    0    0  0.66914991628E+02  0.53325884476E+02 -0.19690545194E+02  0.87800817933E+02  0.00000000000E+00 0.  1.
        -13    1    5    5    0    0  0.11056541923E+01  0.81860783470E+02  0.34572826502E+02  0.88868952250E+02  0.00000000000E+00 0. -1.
          1    1    6    6  503    0 -0.21517522551E+02 -0.25469484017E+03 -0.13533777604E+04  0.13773030994E+04  0.00000000000E+00 0. -1.
         -1    1    6    6    0  503 -0.17238978048E+02 -0.16230677065E+02 -0.31705860610E+03  0.31794146779E+03  0.00000000000E+00 0.  1.
<mgrwt>
<rscale>  0 0.11041167E+04</rscale>
<asrwt>0</asrwt>
<pdfrwt beam="1">  1        2 0.28953297E+00 0.11041167E+04</pdfrwt>
<pdfrwt beam="2">  1       -1 0.24914101E-01 0.11041167E+04</pdfrwt>
<totfact> 0.12395013E+02</totfact>
</mgrwt>
</event>
<event>
12    7  0.1740517E-007  0.1476359E+04  0.7818608E-02  0.8900328E-01
         -1   -1    0    0    0  501 -0.00000000000E+00  0.00000000000E+00  0.51933831835E+03  0.51933831835E+03  0.00000000000E+00 0.  1.
          2   -1    0    0  501    0  0.00000000000E+00 -0.00000000000E+00 -0.10492372716E+04  0.10492372716E+04  0.00000000000E+00 0. -1.
         24    2    1    2    0    0 -0.10543843565E+03  0.22299158166E+03  0.24487814594E+03  0.35676291027E+03  0.80448484016E+02 0.  0.
        254    2    1    2    0    0  0.10543843565E+03 -0.22299158166E+03 -0.77477709914E+03  0.12118126796E+04  0.89853653681E+03 0.  0.
         23    2    4    4    0    0  0.38166699985E+03  0.17383577343E+03 -0.44387169182E+03  0.61759068097E+03  0.92236627890E+02 0.  0.
         23    2    4    4    0    0 -0.27622856420E+03 -0.39682735509E+03 -0.33090540732E+03  0.59422199867E+03  0.99132364462E+02 0.  0.
          4    1    3    3  502    0 -0.36477410373E+01  0.33884107094E+02  0.44272763641E+01  0.34366255313E+02  0.00000000000E+00 0. -1.
         -3    1    3    3    0  502 -0.10179069461E+03  0.18910747456E+03  0.24045086958E+03  0.32239665495E+03  0.00000000000E+00 0.  1.
         13    1    5    5    0    0  0.18508578332E+03  0.10956659500E+03 -0.16865093968E+03  0.27332165187E+03  0.00000000000E+00 0.  1.
        -13    1    5    5    0    0  0.19658121653E+03  0.64269178432E+02 -0.27522075214E+03  0.34426902910E+03  0.00000000000E+00 0. -1.
          4    1    6    6  503    0 -0.18852232964E+03 -0.24542795614E+03 -0.15502581290E+03  0.34613372141E+03  0.00000000000E+00 0. -1.
         -4    1    6    6    0  503 -0.87706234561E+02 -0.15139939894E+03 -0.17587959443E+03  0.24808827726E+03  0.00000000000E+00 0.  1.
<mgrwt>
<rscale>  0 0.14763592E+04</rscale>
<asrwt>0</asrwt>
<pdfrwt beam="1">  1        2 0.16142112E+00 0.14763592E+04</pdfrwt>
<pdfrwt beam="2">  1       -1 0.79898204E-01 0.14763592E+04</pdfrwt>
<totfact> 0.40478949E+01</totfact>
</mgrwt>
</event>
<event>
12    7  0.1740517E-007  0.2509857E+04  0.7818608E-02  0.8399482E-01
         -1   -1    0    0    0  501 -0.00000000000E+00  0.00000000000E+00  0.50082720267E+03  0.50082720267E+03  0.00000000000E+00 0.  1.
          2   -1    0    0  501    0  0.00000000000E+00 -0.00000000000E+00 -0.31444878941E+04  0.31444878941E+04  0.00000000000E+00 0. -1.
         24    2    1    2    0    0 -0.87112571668E+03  0.16069244726E+03 -0.22954846255E+03  0.91854461500E+03  0.79684604704E+02 0.  0.
        254    2    1    2    0    0  0.87112571668E+03 -0.16069244726E+03 -0.24141122289E+04  0.27267704818E+04  0.90700459186E+03 0.  0.
         23    2    4    4    0    0  0.60797417149E+03  0.31010426167E+03 -0.10331092168E+04  0.12414191168E+04  0.89495941171E+02 0.  0.
         23    2    4    4    0    0  0.26315154519E+03 -0.47079670894E+03 -0.13810030121E+04  0.14853513649E+04  0.90559820136E+02 0.  0.
          4    1    3    3  502    0 -0.32989452689E+02 -0.89893748924E+01 -0.66662971686E+01  0.34836078534E+02  0.00000000000E+00 0. -1.
         -3    1    3    3    0  502 -0.83813626399E+03  0.16968182215E+03 -0.22288216538E+03  0.88370853647E+03  0.00000000000E+00 0.  1.
         13    1    5    5    0    0  0.73885487886E+02  0.50540910060E+02 -0.19166494125E+03  0.21153935477E+03  0.00000000000E+00 0. -1.
        -13    1    5    5    0    0  0.53408868360E+03  0.25956335161E+03 -0.84144427554E+03  0.10298797621E+04  0.00000000000E+00 0.  1.
          3    1    6    6  503    0  0.33646579541E+02 -0.19065011787E+02 -0.13005237093E+03  0.13568045612E+03  0.00000000000E+00 0. -1.
         -3    1    6    6    0  503  0.22950496565E+03 -0.45173169715E+03 -0.12509506412E+04  0.13496709088E+04  0.00000000000E+00 0.  1.
<mgrwt>
<rscale>  0 0.25098566E+04</rscale>
<asrwt>0</asrwt>
<pdfrwt beam="1">  1        2 0.48376735E+00 0.25098566E+04</pdfrwt>
<pdfrwt beam="2">  1       -1 0.77050341E-01 0.25098566E+04</pdfrwt>
<totfact> 0.24130710E+00</totfact>
</mgrwt>
</event>
<event>
12    7  0.1740517E-007  0.1868716E+04  0.7818608E-02  0.8670587E-01
         -1   -1    0    0    0  501 -0.00000000000E+00  0.00000000000E+00  0.30165161724E+03  0.30165161724E+03  0.00000000000E+00 0.  1.
          2   -1    0    0  501    0  0.00000000000E+00 -0.00000000000E+00 -0.28941486281E+04  0.28941486281E+04  0.00000000000E+00 0. -1.
         24    2    1    2    0    0 -0.50029493279E+03  0.45066724120E+03 -0.13428223672E+04  0.15047033346E+04  0.86972599955E+02 0.  0.
        254    2    1    2    0    0  0.50029493279E+03 -0.45066724120E+03 -0.12496746436E+04  0.16910969107E+04  0.91908980220E+03 0.  0.
         23    2    4    4    0    0  0.17227913410E+03  0.27355472805E+03 -0.43222883590E+03  0.54712251091E+03  0.89492938692E+02 0.  0.
         23    2    4    4    0    0  0.32801579869E+03 -0.72422196925E+03 -0.81744580775E+03  0.11439743998E+04  0.91476521276E+02 0.  0.
          2    1    3    3  502    0 -0.43608529789E+03  0.40331881872E+03 -0.12365202541E+04  0.13717940062E+04  0.00000000000E+00 0. -1.
         -1    1    3    3    0  502 -0.64209634899E+02  0.47348422483E+02 -0.10630211310E+03  0.13290932840E+03  0.00000000000E+00 0.  1.
         13    1    5    5    0    0  0.51750235917E+02  0.14776742967E+03 -0.15951233667E+03  0.22351171275E+03  0.00000000000E+00 0. -1.
        -13    1    5    5    0    0  0.12052889818E+03  0.12578729839E+03 -0.27271649923E+03  0.32361079816E+03  0.00000000000E+00 0.  1.
          1    1    6    6  503    0  0.21939860394E+03 -0.37402408067E+03 -0.44544520180E+03  0.62165198314E+03  0.00000000000E+00 0. -1.
         -1    1    6    6    0  503  0.10861719475E+03 -0.35019788859E+03 -0.37200060595E+03  0.52232241670E+03  0.00000000000E+00 0.  1.
<mgrwt>
<rscale>  0 0.18687157E+04</rscale>
<asrwt>0</asrwt>
<pdfrwt beam="1">  1        2 0.44525364E+00 0.18687157E+04</pdfrwt>
<pdfrwt beam="2">  1       -1 0.46407940E-01 0.18687157E+04</pdfrwt>
<totfact> 0.10035794E+01</totfact>
</mgrwt>
</event>
<event>
12    7  0.1740517E-007  0.1092070E+04  0.7818608E-02  0.9212955E-01
         -1   -1    0    0    0  501 -0.00000000000E+00  0.00000000000E+00  0.41524151577E+03  0.41524151577E+03  0.00000000000E+00 0.  1.
          2   -1    0    0  501    0  0.00000000000E+00 -0.00000000000E+00 -0.71802639267E+03  0.71802639267E+03  0.00000000000E+00 0. -1.
         24    2    1    2    0    0 -0.51842199766E+02  0.94704949846E+02 -0.19161987281E+03  0.23342064535E+03  0.78168924912E+02 0.  0.
        254    2    1    2    0    0  0.51842199766E+02 -0.94704949846E+02 -0.11116500409E+03  0.89984726308E+03  0.88640329283E+03 0.  0.
         23    2    4    4    0    0  0.21218085532E+03  0.33833511536E+03 -0.12994679218E+03  0.42926560547E+03  0.88833696226E+02 0.  0.
         23    2    4    4    0    0 -0.16033865556E+03 -0.43304006521E+03  0.18781788090E+02  0.47058165761E+03  0.88668812878E+02 0.  0.
          2    1    3    3  502    0 -0.69255958660E+02  0.92772703858E+02 -0.16660829120E+03  0.20288293444E+03  0.00000000000E+00 0. -1.
         -1    1    3    3    0  502  0.17413758894E+02  0.19322459877E+01 -0.25011581601E+02  0.30537710909E+02  0.00000000000E+00 0.  1.
         13    1    5    5    0    0  0.15880010276E+03  0.29829564848E+03 -0.83897737207E+02  0.34819046060E+03  0.00000000000E+00 0. -1.
        -13    1    5    5    0    0  0.53380752557E+02  0.40039466881E+02 -0.46049054975E+02  0.81075144871E+02  0.00000000000E+00 0.  1.
          4    1    6    6  503    0 -0.12380633012E+03 -0.40097260327E+03  0.36363109002E+01  0.41966684252E+03  0.00000000000E+00 0. -1.
         -4    1    6    6    0  503 -0.36532325438E+02 -0.32067461938E+02  0.15145477190E+02  0.50914815098E+02  0.00000000000E+00 0.  1.
<mgrwt>
<rscale>  0 0.10920703E+04</rscale>
<asrwt>0</asrwt>
<pdfrwt beam="1">  1        2 0.11046560E+00 0.10920703E+04</pdfrwt>
<pdfrwt beam="2">  1       -1 0.63883311E-01 0.10920703E+04</pdfrwt>
<totfact> 0.11184054E+02</totfact>
</mgrwt>
</event>
<event>
12    7  0.1740517E-007  0.2173734E+04  0.7818608E-02  0.8529441E-01
         -1   -1    0    0    0  501 -0.00000000000E+00  0.00000000000E+00  0.99947929727E+03  0.99947929727E+03  0.00000000000E+00 0.  1.
          2   -1    0    0  501    0  0.00000000000E+00 -0.00000000000E+00 -0.11818951507E+04  0.11818951507E+04  0.00000000000E+00 0. -1.
         24    2    1    2    0    0 -0.59905604466E+03 -0.51633543015E+03 -0.48956797167E+03  0.93358798711E+03  0.80245309673E+02 0.  0.
        254    2    1    2    0    0  0.59905604466E+03  0.51633543015E+03  0.30715211820E+03  0.12477864609E+04  0.91496350048E+03 0.  0.
         23    2    4    4    0    0  0.34651785129E+03  0.44965600381E+02 -0.27166102803E+03  0.45341171306E+03  0.98417177919E+02 0.  0.
         23    2    4    4    0    0  0.25253819337E+03  0.47136982977E+03  0.57881314623E+03  0.79437474784E+03  0.10020741604E+03 0.  0.
          4    1    3    3  502    0 -0.41243645101E+03 -0.36197455674E+03 -0.29562153749E+03  0.62331492785E+03  0.00000000000E+00 0. -1.
         -1    1    3    3    0  502 -0.18661959364E+03 -0.15436087340E+03 -0.19394643419E+03  0.31027305926E+03  0.00000000000E+00 0.  1.
         13    1    5    5    0    0  0.27038050926E+03  0.65980251984E+02 -0.17573712329E+03  0.32915429504E+03  0.00000000000E+00 0.  1.
        -13    1    5    5    0    0  0.76137342031E+02 -0.21014651603E+02 -0.95923904734E+02  0.12425741802E+03  0.00000000000E+00 0. -1.
          4    1    6    6  503    0  0.15538298438E+03  0.35834925977E+03  0.46221307393E+03  0.60514377591E+03  0.00000000000E+00 0.  1.
         -4    1    6    6    0  503  0.97155208987E+02  0.11302056999E+03  0.11660007230E+03  0.18923097193E+03  0.00000000000E+00 0. -1.
<mgrwt>
<rscale>  0 0.21737339E+04</rscale>
<asrwt>0</asrwt>
<pdfrwt beam="1">  1        2 0.18183002E+00 0.21737339E+04</pdfrwt>
<pdfrwt beam="2">  1       -1 0.15376605E+00 0.21737339E+04</pdfrwt>
<totfact> 0.66157255E+00</totfact>
</mgrwt>
</event>
<event>
12    7  0.1740517E-007  0.1790801E+04  0.7818608E-02  0.8711207E-01
          2   -1    0    0  501    0  0.00000000000E+00  0.00000000000E+00  0.65634222273E+03  0.65634222273E+03  0.00000000000E+00 0. -1.
         -3   -1    0    0    0  501 -0.00000000000E+00 -0.00000000000E+00 -0.12215307591E+04  0.12215307591E+04  0.00000000000E+00 0.  1.
         24    2    1    2    0    0  0.35678902502E+03 -0.45685058983E+03 -0.54234100643E+03  0.79783725214E+03  0.79997774028E+02 0.  0.
        254    2    1    2    0    0 -0.35678902502E+03  0.45685058983E+03 -0.22847529932E+02  0.10800357297E+04  0.91101278694E+03 0.  0.
         23    2    4    4    0    0 -0.55950870945E+02 -0.18106198609E+03  0.24242121436E+03  0.32076788730E+03  0.90609323950E+02 0.  0.
         23    2    4    4    0    0 -0.30083815408E+03  0.63791257592E+03 -0.26526874429E+03  0.75926784238E+03  0.93188520275E+02 0.  0.
          2    1    3    3  502    0  0.13313820257E+03 -0.17400603385E+03 -0.15338217751E+03  0.26745087993E+03  0.00000000000E+00 0. -1.
         -1    1    3    3    0  502  0.22365082245E+03 -0.28284455598E+03 -0.38895882892E+03  0.53038637221E+03  0.00000000000E+00 0.  1.
         13    1    5    5    0    0 -0.75584472673E+00 -0.57007688520E+02  0.20464613216E+02  0.60574320019E+02  0.00000000000E+00 0.  1.
        -13    1    5    5    0    0 -0.55195026218E+02 -0.12405429757E+03  0.22195660114E+03  0.26019356728E+03  0.00000000000E+00 0. -1.
          4    1    6    6  503    0 -0.15368880250E+03  0.36525300877E+03 -0.19461997082E+03  0.44148266271E+03  0.00000000000E+00 0. -1.
         -4    1    6    6    0  503 -0.14714935158E+03  0.27265956714E+03 -0.70648773476E+02  0.31778517967E+03  0.00000000000E+00 0.  1.
<mgrwt>
<rscale>  0 0.17908012E+04</rscale>
<asrwt>0</asrwt>
<pdfrwt beam="1">  1        2 0.10097573E+00 0.17908012E+04</pdfrwt>
<pdfrwt beam="2">  1       -3 0.18792781E+00 0.17908012E+04</pdfrwt>
<totfact> 0.46128935E+00</totfact>
</mgrwt>
</event>
<event>
12    7  0.1740517E-007  0.1108902E+04  0.7818608E-02  0.9196559E-01
         -1   -1    0    0    0  501 -0.00000000000E+00  0.00000000000E+00  0.51300039369E+03  0.51300039369E+03  0.00000000000E+00 0.  1.
          2   -1    0    0  501    0  0.00000000000E+00 -0.00000000000E+00 -0.59925057814E+03  0.59925057814E+03  0.00000000000E+00 0. -1.
         24    2    1    2    0    0 -0.86048838342E+01  0.78403888310E+02  0.14337407476E+03  0.18122569146E+03  0.77880756305E+02 0.  0.
        254    2    1    2    0    0  0.86048838342E+01 -0.78403888310E+02 -0.22962425921E+03  0.93102528037E+03  0.89881007924E+03 0.  0.
         23    2    4    4    0    0  0.10193421287E+03  0.37357155510E+03  0.20021856985E+02  0.39823209330E+03  0.90783450314E+02 0.  0.
         23    2    4    4    0    0 -0.93329329032E+02 -0.45197544341E+03 -0.24964611620E+03  0.53279318706E+03  0.92483683703E+02 0.  0.
          2    1    3    3  502    0 -0.12321700481E+02  0.37890579391E+02  0.90266244857E+01  0.40853399600E+02  0.00000000000E+00 0. -1.
         -1    1    3    3    0  502  0.37168166466E+01  0.40513308920E+02  0.13434745028E+03  0.14037229186E+03  0.00000000000E+00 0.  1.
         13    1    5    5    0    0  0.86740076181E+01  0.20224650496E+03  0.17004033843E+02  0.20314532814E+03  0.00000000000E+00 0. -1.
        -13    1    5    5    0    0  0.93260205248E+02  0.17132505013E+03  0.30178231421E+01  0.19508676516E+03  0.00000000000E+00 0.  1.
          4    1    6    6  503    0  0.84334550394E+01 -0.13967584273E+03 -0.50995821176E+02  0.14893299830E+03  0.00000000000E+00 0. -1.
         -4    1    6    6    0  503 -0.10176278407E+03 -0.31229960067E+03 -0.19865029502E+03  0.38386018876E+03  0.00000000000E+00 0.  1.
<mgrwt>
<rscale>  0 0.11089018E+04</rscale>
<asrwt>0</asrwt>
<pdfrwt beam="1">  1        2 0.92192397E-01 0.11089018E+04</pdfrwt>
<pdfrwt beam="2">  1       -1 0.78923138E-01 0.11089018E+04</pdfrwt>
<totfact> 0.90490071E+01</totfact>
</mgrwt>
</event>
<event>
12    7  0.1740517E-007  0.1584248E+04  0.7818608E-02  0.8830284E-01
          2   -1    0    0  501    0  0.00000000000E+00  0.00000000000E+00  0.18720744124E+04  0.18720744124E+04  0.00000000000E+00 0. -1.
         -1   -1    0    0    0  501 -0.00000000000E+00 -0.00000000000E+00 -0.33516848519E+03  0.33516848519E+03  0.00000000000E+00 0.  1.
         24    2    1    2    0    0  0.22345291563E+03  0.14179953305E+03  0.11114791019E+04  0.11455089183E+04  0.82259193178E+02 0.  0.
        254    2    1    2    0    0 -0.22345291563E+03 -0.14179953305E+03  0.42542682522E+03  0.10617339792E+04  0.93608372803E+03 0.  0.
         23    2    4    4    0    0  0.28332364099E+03 -0.89494872077E+02 -0.99217602422E+02  0.32528807657E+03  0.87673156964E+02 0.  0.
         23    2    4    4    0    0 -0.50677655663E+03 -0.52304660976E+02  0.52464442765E+03  0.73644590263E+03  0.86847775643E+02 0.  0.
          4    1    3    3  502    0  0.17400338590E+03  0.95708032388E+02  0.66755626546E+03  0.69646864489E+03  0.00000000000E+00 0. -1.
         -3    1    3    3    0  502  0.49449529738E+02  0.46091500665E+02  0.44392283649E+03  0.44904027345E+03  0.00000000000E+00 0.  1.
         13    1    5    5    0    0  0.27238999740E+03 -0.69344592011E+02 -0.10746899271E+03  0.30092285975E+03  0.00000000000E+00 0.  1.
        -13    1    5    5    0    0  0.10933643590E+02 -0.20150280066E+02  0.82513902845E+01  0.24365216817E+02  0.00000000000E+00 0. -1.
          2    1    6    6  503    0 -0.16666471422E+03  0.20781249822E+02  0.14985313927E+03  0.22508876173E+03  0.00000000000E+00 0. -1.
         -2    1    6    6    0  503 -0.34011184241E+03 -0.73085910798E+02  0.37479128838E+03  0.51135714090E+03  0.00000000000E+00 0.  1.
<mgrwt>
<rscale>  0 0.15842479E+04</rscale>
<asrwt>0</asrwt>
<pdfrwt beam="1">  1        2 0.28801144E+00 0.15842479E+04</pdfrwt>
<pdfrwt beam="2">  1       -1 0.51564383E-01 0.15842479E+04</pdfrwt>
<totfact> 0.32569735E+01</totfact>
</mgrwt>
</event>
<event>
12    7  0.1740517E-007  0.2402090E+04  0.7818608E-02  0.8438722E-01
         -1   -1    0    0    0  501 -0.00000000000E+00  0.00000000000E+00  0.11423181281E+04  0.11423181281E+04  0.00000000000E+00 0.  1.
          2   -1    0    0  501    0  0.00000000000E+00 -0.00000000000E+00 -0.12627910204E+04  0.12627910204E+04  0.00000000000E+00 0. -1.
         24    2    1    2    0    0 -0.81579124175E+03  0.17849721111E+03  0.51863414612E+03  0.98624795726E+03  0.79542763215E+02 0.  0.
        254    2    1    2    0    0  0.81579124175E+03 -0.17849721111E+03 -0.63910703835E+03  0.14188611912E+04  0.95254011410E+03 0.  0.
         23    2    4    4    0    0  0.17474701131E+03 -0.38894239968E+03  0.62674303139E+02  0.44082728851E+03  0.92671040711E+02 0.  0.
         23    2    4    4    0    0  0.64104423044E+03  0.21044518857E+03 -0.70178134149E+03  0.97803390270E+03  0.93959463570E+02 0.  0.
          2    1    3    3  502    0 -0.47153963232E+03  0.63301155813E+02  0.28714271572E+03  0.55570459812E+03  0.00000000000E+00 0. -1.
         -1    1    3    3    0  502 -0.34425160943E+03  0.11519605530E+03  0.23149143040E+03  0.43054335914E+03  0.00000000000E+00 0.  1.
         13    1    5    5    0    0 -0.61072910807E+01 -0.19805964613E+02  0.17809108561E+02  0.27326536303E+02  0.00000000000E+00 0. -1.
        -13    1    5    5    0    0  0.18085430239E+03 -0.36913643507E+03  0.44865194579E+02  0.41350075221E+03  0.00000000000E+00 0.  1.
          2    1    6    6  503    0  0.56821491337E+02 -0.81046544465E+01 -0.55728425747E+02  0.80000154610E+02  0.00000000000E+00 0. -1.
         -2    1    6    6    0  503  0.58422273911E+03  0.21854984302E+03 -0.64605291574E+03  0.89803374809E+03  0.00000000000E+00 0.  1.
<mgrwt>
<rscale>  0 0.24020900E+04</rscale>
<asrwt>0</asrwt>
<pdfrwt beam="1">  1        2 0.19427554E+00 0.24020900E+04</pdfrwt>
<pdfrwt beam="2">  1       -1 0.17574125E+00 0.24020900E+04</pdfrwt>
<totfact> 0.39791252E+00</totfact>
</mgrwt>
</event>
<event>
12    7  0.1740517E-007  0.1694011E+04  0.7818608E-02  0.8764787E-01
         -1   -1    0    0    0  501 -0.00000000000E+00  0.00000000000E+00  0.93402938071E+03  0.93402938071E+03  0.00000000000E+00 0.  1.
          2   -1    0    0  501    0  0.00000000000E+00 -0.00000000000E+00 -0.76808990945E+03  0.76808990945E+03  0.00000000000E+00 0. -1.
         24    2    1    2    0    0 -0.16876098765E+03  0.33936868669E+03 -0.41424368412E+03  0.56703180895E+03  0.79220363988E+02 0.  0.
        254    2    1    2    0    0  0.16876098765E+03 -0.33936868669E+03  0.58018315537E+03  0.11350874812E+04  0.89897704073E+03 0.  0.
         23    2    4    4    0    0  0.48162261190E+03 -0.40982729816E+03  0.42871108706E+03  0.76937447067E+03  0.90692476788E+02 0.  0.
         23    2    4    4    0    0 -0.31286162425E+03  0.70458611466E+02  0.15147206832E+03  0.36571301054E+03  0.89193086840E+02 0.  0.
          4    1    3    3  502    0 -0.13687967086E+03  0.29087592380E+03 -0.30401387831E+03  0.44245823029E+03  0.00000000000E+00 0. -1.
         -3    1    3    3    0  502 -0.31881316792E+02  0.48492762888E+02 -0.11022980580E+03  0.12457357866E+03  0.00000000000E+00 0.  1.
         13    1    5    5    0    0  0.41999928600E+03 -0.38134724291E+03  0.40666470829E+03  0.69799806940E+03  0.00000000000E+00 0. -1.
        -13    1    5    5    0    0  0.61623325896E+02 -0.28480055241E+02  0.22046378768E+02  0.71376401267E+02  0.00000000000E+00 0.  1.
          3    1    6    6  503    0 -0.10397429300E+03  0.40463708404E+02  0.10793977963E+02  0.11209137016E+03  0.00000000000E+00 0. -1.
         -3    1    6    6    0  503 -0.20888733125E+03  0.29994903061E+02  0.14067809036E+03  0.25362164038E+03  0.00000000000E+00 0.  1.
<mgrwt>
<rscale>  0 0.16940113E+04</rscale>
<asrwt>0</asrwt>
<pdfrwt beam="1">  1        2 0.11816768E+00 0.16940113E+04</pdfrwt>
<pdfrwt beam="2">  1       -1 0.14369683E+00 0.16940113E+04</pdfrwt>
<totfact> 0.15463938E+01</totfact>
</mgrwt>
</event>
<event>
12    7  0.1740517E-007  0.1516599E+04  0.7818608E-02  0.8873489E-01
         -1   -1    0    0    0  501 -0.00000000000E+00  0.00000000000E+00  0.30351876764E+03  0.30351876764E+03  0.00000000000E+00 0.  1.
          2   -1    0    0  501    0  0.00000000000E+00 -0.00000000000E+00 -0.18945054924E+04  0.18945054924E+04  0.00000000000E+00 0. -1.
         24    2    1    2    0    0 -0.31839204468E+03 -0.36104865515E+03 -0.51242252349E+03  0.70767790267E+03  0.80632163819E+02 0.  0.
        254    2    1    2    0    0  0.31839204468E+03  0.36104865515E+03 -0.10785642012E+04  0.14903463573E+04  0.90890148154E+03 0.  0.
         23    2    4    4    0    0  0.62430748392E+02 -0.14926323127E+03  0.74138328501E+02  0.20085824290E+03  0.93115151479E+02 0.  0.
         23    2    4    4    0    0  0.25596129629E+03  0.51031188642E+03 -0.11527025297E+04  0.12894881144E+04  0.90122519837E+02 0.  0.
          2    1    3    3  502    0 -0.10598401387E+03 -0.89321006652E+02 -0.19281815598E+03  0.23746514419E+03  0.00000000000E+00 0. -1.
         -3    1    3    3    0  502 -0.21240803081E+03 -0.27172764850E+03 -0.31960436750E+03  0.47021275848E+03  0.00000000000E+00 0.  1.
         13    1    5    5    0    0  0.12846931853E+02 -0.47291108434E+02  0.72438236964E+02  0.87457365438E+02  0.00000000000E+00 0. -1.
        -13    1    5    5    0    0  0.49583816540E+02 -0.10197212284E+03  0.17000915372E+01  0.11340087747E+03  0.00000000000E+00 0.  1.
          2    1    6    6  503    0  0.15666166074E+03  0.22986392467E+03 -0.61450450789E+03  0.67453397989E+03  0.00000000000E+00 0.  1.
         -2    1    6    6    0  503  0.99299635554E+02  0.28044796175E+03 -0.53819802185E+03  0.61495413455E+03  0.00000000000E+00 0. -1.
<mgrwt>
<rscale>  0 0.15165988E+04</rscale>
<asrwt>0</asrwt>
<pdfrwt beam="1">  1        2 0.29146239E+00 0.15165988E+04</pdfrwt>
<pdfrwt beam="2">  1       -1 0.46695194E-01 0.15165988E+04</pdfrwt>
<totfact> 0.38412738E+01</totfact>
</mgrwt>
</event>
<event>
12    7  0.1740517E-007  0.1774789E+04  0.7818608E-02  0.8719822E-01
          2   -1    0    0  501    0  0.00000000000E+00  0.00000000000E+00  0.14071556188E+04  0.14071556188E+04  0.00000000000E+00 0. -1.
         -1   -1    0    0    0  501 -0.00000000000E+00 -0.00000000000E+00 -0.55961767638E+03  0.55961767638E+03  0.00000000000E+00 0.  1.
         24    2    1    2    0    0  0.37613738042E+03 -0.24468659625E+03  0.85156284088E+03  0.96561126943E+03  0.76778853502E+02 0.  0.
        254    2    1    2    0    0 -0.37613738042E+03  0.24468659625E+03 -0.40248984338E+01  0.10011620258E+04  0.89496276052E+03 0.  0.
         23    2    4    4    0    0 -0.54820095936E+03  0.19081857518E+02  0.24989430927E+03  0.60957033775E+03  0.90776768678E+02 0.  0.
         23    2    4    4    0    0  0.17206357893E+03  0.22560473873E+03 -0.25391920771E+03  0.39159168803E+03  0.91464270388E+02 0.  0.
          4    1    3    3  502    0  0.27881602988E+03 -0.20814132237E+03  0.70163548382E+03  0.78316890947E+03  0.00000000000E+00 0. -1.
         -3    1    3    3    0  502  0.97321350544E+02 -0.36545273882E+02  0.14992735706E+03  0.18244235996E+03  0.00000000000E+00 0.  1.
         13    1    5    5    0    0 -0.36858526673E+03 -0.25678705016E+02  0.14583955522E+03  0.39721992725E+03  0.00000000000E+00 0. -1.
        -13    1    5    5    0    0 -0.17961569263E+03  0.44760562534E+02  0.10405475406E+03  0.21235041049E+03  0.00000000000E+00 0.  1.
          3    1    6    6  503    0  0.11621161084E+03  0.14765010613E+03 -0.10724439433E+03  0.21634937590E+03  0.00000000000E+00 0. -1.
         -3    1    6    6    0  503  0.55851968095E+02  0.77954632600E+02 -0.14667481337E+03  0.17524231213E+03  0.00000000000E+00 0.  1.
<mgrwt>
<rscale>  0 0.17747892E+04</rscale>
<asrwt>0</asrwt>
<pdfrwt beam="1">  1        2 0.21648548E+00 0.17747892E+04</pdfrwt>
<pdfrwt beam="2">  1       -1 0.86095028E-01 0.17747892E+04</pdfrwt>
<totfact> 0.20577872E+01</totfact>
</mgrwt>
</event>
<event>
12    7  0.1740517E-007  0.1375106E+04  0.7818608E-02  0.8972038E-01
          2   -1    0    0  501    0  0.00000000000E+00  0.00000000000E+00  0.12118814049E+04  0.12118814049E+04  0.00000000000E+00 0. -1.
         -1   -1    0    0    0  501 -0.00000000000E+00 -0.00000000000E+00 -0.39007845258E+03  0.39007845258E+03  0.00000000000E+00 0.  1.
         24    2    1    2    0    0 -0.14307729647E+03  0.16048887271E+03 -0.14007508700E+03  0.26831437685E+03  0.78382292621E+02 0.  0.
        254    2    1    2    0    0  0.14307729647E+03 -0.16048887271E+03  0.96187803930E+03  0.13336454806E+04  0.89842813539E+03 0.  0.
         23    2    4    4    0    0 -0.48910035965E+02 -0.38530730623E+03  0.92502314202E+02  0.41091968869E+03  0.97182305839E+02 0.  0.
         23    2    4    4    0    0  0.19198733243E+03  0.22481843351E+03  0.86937572510E+03  0.92272579193E+03  0.90588475239E+02 0.  0.
          4    1    3    3  502    0 -0.96770870819E+01  0.54692402597E+02 -0.16518363303E+02  0.57946192648E+02  0.00000000000E+00 0. -1.
         -3    1    3    3    0  502 -0.13340020938E+03  0.10579647011E+03 -0.12355672370E+03  0.21036818420E+03  0.00000000000E+00 0.  1.
         13    1    5    5    0    0 -0.73209529177E+02 -0.34311132653E+03  0.89836872186E+02  0.36215422289E+03  0.00000000000E+00 0.  1.
        -13    1    5    5    0    0  0.24299493212E+02 -0.42195979697E+02  0.26654420162E+01  0.48765465794E+02  0.00000000000E+00 0. -1.
          1    1    6    6  503    0  0.56277383876E+02  0.13457660175E+02  0.17480023341E+03  0.18412868911E+03  0.00000000000E+00 0. -1.
         -1    1    6    6    0  503  0.13570994855E+03  0.21136077334E+03  0.69457549168E+03  0.73859710282E+03  0.00000000000E+00 0.  1.
<mgrwt>
<rscale>  0 0.13751056E+04</rscale>
<asrwt>0</asrwt>
<pdfrwt beam="1">  1        2 0.18644329E+00 0.13751056E+04</pdfrwt>
<pdfrwt beam="2">  1       -1 0.60012070E-01 0.13751056E+04</pdfrwt>
<totfact> 0.58319345E+01</totfact>
</mgrwt>
</event>
<event>
12    7  0.1740517E-007  0.1422044E+04  0.7818608E-02  0.8938014E-01
          2   -1    0    0  501    0  0.00000000000E+00  0.00000000000E+00  0.11304209127E+04  0.11304209127E+04  0.00000000000E+00 0. -1.
         -1   -1    0    0    0  501 -0.00000000000E+00 -0.00000000000E+00 -0.44722507969E+03  0.44722507969E+03  0.00000000000E+00 0.  1.
         24    2    1    2    0    0 -0.15936953988E+03  0.39010272648E+03  0.43062689824E+03  0.60747289646E+03  0.77491980199E+02 0.  0.
        254    2    1    2    0    0  0.15936953988E+03 -0.39010272648E+03  0.25256893473E+03  0.97017309590E+03  0.83657993149E+03 0.  0.
         23    2    4    4    0    0 -0.24198853867E+03 -0.43784979317E+03  0.22169217500E+03  0.55477403782E+03  0.91410712467E+02 0.  0.
         23    2    4    4    0    0  0.40135807855E+03  0.47747066682E+02  0.30876759731E+02  0.41539905809E+03  0.90746424559E+02 0.  0.
          2    1    3    3  502    0 -0.14543203933E+03  0.38801426780E+03  0.41648217445E+03  0.58750570356E+03  0.00000000000E+00 0. -1.
         -1    1    3    3    0  502 -0.13937500551E+02  0.20884586837E+01  0.14144723799E+02  0.19967192908E+02  0.00000000000E+00 0.  1.
         13    1    5    5    0    0 -0.13037043225E+03 -0.28480149158E+03  0.96636632980E+02  0.32779105852E+03  0.00000000000E+00 0.  1.
        -13    1    5    5    0    0 -0.11161810643E+03 -0.15304830158E+03  0.12505554202E+03  0.22698297930E+03  0.00000000000E+00 0. -1.
          4    1    6    6  503    0  0.39749638630E+03  0.43936159067E+02  0.42896834798E+02  0.40221126492E+03  0.00000000000E+00 0. -1.
         -4    1    6    6    0  503  0.38616922548E+01  0.38109076158E+01 -0.12020075067E+02  0.13187793164E+02  0.00000000000E+00 0.  1.
<mgrwt>
<rscale>  0 0.14220444E+04</rscale>
<asrwt>0</asrwt>
<pdfrwt beam="1">  1        2 0.17391091E+00 0.14220444E+04</pdfrwt>
<pdfrwt beam="2">  1       -1 0.68803859E-01 0.14220444E+04</pdfrwt>
<totfact> 0.49438778E+01</totfact>
</mgrwt>
</event>
<event>
12    7  0.1740517E-007  0.2311793E+04  0.7818608E-02  0.8473286E-01
         -1   -1    0    0    0  501 -0.00000000000E+00  0.00000000000E+00  0.37957373812E+03  0.37957373812E+03  0.00000000000E+00 0.  1.
          2   -1    0    0  501    0  0.00000000000E+00 -0.00000000000E+00 -0.35199918597E+04  0.35199918597E+04  0.00000000000E+00 0. -1.
         24    2    1    2    0    0  0.12343775256E+03  0.56755858994E+03 -0.35603401445E+01  0.58614163277E+03  0.78674683854E+02 0.  0.
        254    2    1    2    0    0 -0.12343775256E+03 -0.56755858994E+03 -0.31368577814E+04  0.33134239650E+04  0.89528877990E+03 0.  0.
         23    2    4    4    0    0 -0.74384093784E+02 -0.13129380238E+03 -0.26335847658E+04  0.26393656239E+04  0.87812992523E+02 0.  0.
         23    2    4    4    0    0 -0.49053658780E+02 -0.43626478756E+03 -0.50327301558E+03  0.67405834116E+03  0.91310967444E+02 0.  0.
          4    1    3    3  502    0 -0.10686566401E+02  0.27606833477E+02  0.28878408698E+01  0.29743563690E+02  0.00000000000E+00 0. -1.
         -3    1    3    3    0  502  0.13412431897E+03  0.53995175646E+03 -0.64481810143E+01  0.55639806908E+03  0.00000000000E+00 0.  1.
         13    1    5    5    0    0 -0.28831797093E+02 -0.95747012477E+02 -0.10561631541E+04  0.10608861253E+04  0.00000000000E+00 0. -1.
        -13    1    5    5    0    0 -0.45552296691E+02 -0.35546789903E+02 -0.15774216118E+04  0.15784794985E+04  0.00000000000E+00 0.  1.
          3    1    6    6  503    0 -0.11872899108E+02 -0.17012976498E+02 -0.56791310112E+02  0.60462054272E+02  0.00000000000E+00 0. -1.
         -3    1    6    6    0  503 -0.37180759672E+02 -0.41925181106E+03 -0.44648170547E+03  0.61359628689E+03  0.00000000000E+00 0.  1.
<mgrwt>
<rscale>  0 0.23117928E+04</rscale>
<asrwt>0</asrwt>
<pdfrwt beam="1">  1        2 0.54153722E+00 0.23117928E+04</pdfrwt>
<pdfrwt beam="2">  1       -1 0.58395959E-01 0.23117928E+04</pdfrwt>
<totfact> 0.24165184E+00</totfact>
</mgrwt>
</event>
<event>
12    7  0.1740517E-007  0.2482323E+04  0.7818608E-02  0.8409310E-01
         -1   -1    0    0    0  501 -0.00000000000E+00  0.00000000000E+00  0.96713351984E+03  0.96713351984E+03  0.00000000000E+00 0.  1.
          2   -1    0    0  501    0  0.00000000000E+00 -0.00000000000E+00 -0.15928327632E+04  0.15928327632E+04  0.00000000000E+00 0. -1.
         24    2    1    2    0    0  0.63941861151E+03  0.84780566140E+03 -0.11216960970E+03  0.10704665410E+04  0.75405529569E+02 0.  0.
        254    2    1    2    0    0 -0.63941861151E+03 -0.84780566140E+03 -0.51352963365E+03  0.14894997420E+04  0.90954175083E+03 0.  0.
         23    2    4    4    0    0 -0.54815200807E+03 -0.90885293113E+03 -0.68529864442E+03  0.12664452637E+04  0.88119801801E+02 0.  0.
         23    2    4    4    0    0 -0.91266603444E+02  0.61047269730E+02  0.17176901077E+03  0.22305447832E+03  0.90511574898E+02 0.  0.
          4    1    3    3  502    0  0.33459836831E+03  0.38129860127E+03 -0.50433874547E+02  0.50979237647E+03  0.00000000000E+00 0. -1.
         -3    1    3    3    0  502  0.30482024320E+03  0.46650706013E+03 -0.61735735153E+02  0.56067416457E+03  0.00000000000E+00 0.  1.
         13    1    5    5    0    0 -0.21765049589E+03 -0.35113816818E+03 -0.31799370989E+03  0.52133458646E+03  0.00000000000E+00 0. -1.
        -13    1    5    5    0    0 -0.33050151218E+03 -0.55771476295E+03 -0.36730493453E+03  0.74511067721E+03  0.00000000000E+00 0.  1.
          1    1    6    6  503    0 -0.38548319026E+02 -0.72622463361E+01  0.11240500757E+02  0.40805170981E+02  0.00000000000E+00 0. -1.
         -1    1    6    6    0  503 -0.52718284419E+02  0.68309516066E+02  0.16052851001E+03  0.18224930733E+03  0.00000000000E+00 0.  1.
<mgrwt>
<rscale>  0 0.24823231E+04</rscale>
<asrwt>0</asrwt>
<pdfrwt beam="1">  1        2 0.24505119E+00 0.24823231E+04</pdfrwt>
<pdfrwt beam="2">  1       -1 0.14878977E+00 0.24823231E+04</pdfrwt>
<totfact> 0.40826330E+00</totfact>
</mgrwt>
</event>
<event>
12    7  0.1740517E-007  0.1494664E+04  0.7818608E-02  0.8888009E-01
         -1   -1    0    0    0  501 -0.00000000000E+00  0.00000000000E+00  0.25362554782E+03  0.25362554782E+03  0.00000000000E+00 0.  1.
          2   -1    0    0  501    0  0.00000000000E+00 -0.00000000000E+00 -0.22020865634E+04  0.22020865634E+04  0.00000000000E+00 0. -1.
         24    2    1    2    0    0  0.18750651001E+03  0.39210889449E+03 -0.94163206233E+03  0.10401313914E+04  0.79336587666E+02 0.  0.
        254    2    1    2    0    0 -0.18750651001E+03 -0.39210889449E+03 -0.10068289532E+04  0.14155807198E+04  0.89512912854E+03 0.  0.
         23    2    4    4    0    0  0.27372422183E+02 -0.59915914337E+03 -0.89931216629E+03  0.10848257880E+04  0.91343797409E+02 0.  0.
         23    2    4    4    0    0 -0.21487893219E+03  0.20705024888E+03 -0.10751678694E+03  0.33075493179E+03  0.93788082228E+02 0.  0.
          4    1    3    3  502    0  0.96680077869E+02  0.14402043381E+03 -0.30532943836E+03  0.35116233958E+03  0.00000000000E+00 0. -1.
         -3    1    3    3    0  502  0.90826432138E+02  0.24808846068E+03 -0.63630262397E+03  0.68896905182E+03  0.00000000000E+00 0.  1.
         13    1    5    5    0    0 -0.64090140538E+01 -0.18387935036E+03 -0.20833085125E+03  0.27794681961E+03  0.00000000000E+00 0. -1.
        -13    1    5    5    0    0  0.33781436236E+02 -0.41527979301E+03 -0.69098131504E+03  0.80687896840E+03  0.00000000000E+00 0.  1.
          2    1    6    6  503    0 -0.11734382248E+02  0.42342227002E+02  0.83258995598E+01  0.44720023677E+02  0.00000000000E+00 0. -1.
         -2    1    6    6    0  503 -0.20314454994E+03  0.16470802187E+03 -0.11584268650E+03  0.28603490811E+03  0.00000000000E+00 0.  1.
<mgrwt>
<rscale>  0 0.14946644E+04</rscale>
<asrwt>0</asrwt>
<pdfrwt beam="1">  1        2 0.33878254E+00 0.14946644E+04</pdfrwt>
<pdfrwt beam="2">  1       -1 0.39019316E-01 0.14946644E+04</pdfrwt>
<totfact> 0.36177391E+01</totfact>
</mgrwt>
</event>
<event>
12    7  0.1740517E-007  0.1755813E+04  0.7818608E-02  0.8730157E-01
          2   -1    0    0  501    0  0.00000000000E+00  0.00000000000E+00  0.12505571832E+04  0.12505571832E+04  0.00000000000E+00 0. -1.
         -1   -1    0    0    0  501 -0.00000000000E+00 -0.00000000000E+00 -0.61630143443E+03  0.61630143443E+03  0.00000000000E+00 0.  1.
         24    2    1    2    0    0  0.45347782535E+03 -0.30946499978E+03  0.59929469298E+03  0.81654226033E+03  0.78590137414E+02 0.  0.
        254    2    1    2    0    0 -0.45347782535E+03  0.30946499978E+03  0.34961055766E+02  0.10503163573E+04  0.89472423169E+03 0.  0.
         23    2    4    4    0    0 -0.21878019957E+03  0.98451427410E+02 -0.41798135874E+03  0.49125217539E+03  0.95198867065E+02 0.  0.
         23    2    4    4    0    0 -0.23469762578E+03  0.21101357237E+03  0.45294241451E+03  0.55906418188E+03  0.88239590506E+02 0.  0.
          2    1    3    3  502    0  0.95664364908E+02 -0.63014553381E+02  0.81358828079E+02  0.14050538622E+03  0.00000000000E+00 0. -1.
         -1    1    3    3    0  502  0.35781346044E+03 -0.24645044640E+03  0.51793586490E+03  0.67603687411E+03  0.00000000000E+00 0.  1.
         13    1    5    5    0    0 -0.19649130318E+02 -0.14535155682E+02 -0.17909609332E+02  0.30300382496E+02  0.00000000000E+00 0.  1.
        -13    1    5    5    0    0 -0.19913106925E+03  0.11298658309E+03 -0.40007174941E+03  0.46095179290E+03  0.00000000000E+00 0. -1.
          4    1    6    6  503    0 -0.21979174610E+03  0.21811952703E+03  0.41596086909E+03  0.51856338508E+03  0.00000000000E+00 0. -1.
         -4    1    6    6    0  503 -0.14905879679E+02 -0.71059546595E+01  0.36981545414E+02  0.40500796805E+02  0.00000000000E+00 0.  1.
<mgrwt>
<rscale>  0 0.17558134E+04</rscale>
<asrwt>0</asrwt>
<pdfrwt beam="1">  1        2 0.19239341E+00 0.17558134E+04</pdfrwt>
<pdfrwt beam="2">  1       -1 0.94815606E-01 0.17558134E+04</pdfrwt>
<totfact> 0.20532860E+01</totfact>
</mgrwt>
</event>
<event>
12    7  0.1740517E-007  0.1864524E+04  0.7818608E-02  0.8672719E-01
          2   -1    0    0  501    0  0.00000000000E+00  0.00000000000E+00  0.94544922597E+03  0.94544922597E+03  0.00000000000E+00 0. -1.
         -1   -1    0    0    0  501 -0.00000000000E+00 -0.00000000000E+00 -0.91925864560E+03  0.91925864560E+03  0.00000000000E+00 0.  1.
         24    2    1    2    0    0 -0.17683452908E+03  0.64274661577E+03 -0.26223750490E+03  0.72047861903E+03  0.76988757257E+02 0.  0.
        254    2    1    2    0    0  0.17683452908E+03 -0.64274661577E+03  0.28842808527E+03  0.11442292525E+04  0.88412451570E+03 0.  0.
         23    2    4    4    0    0  0.44436500691E+03 -0.28528043015E+03 -0.99948308433E+02  0.54511051720E+03  0.91162648117E+02 0.  0.
         23    2    4    4    0    0 -0.26753047784E+03 -0.35746618562E+03  0.38837639370E+03  0.59911873534E+03  0.93554291302E+02 0.  0.
          4    1    3    3  502    0  0.51897562057E+01  0.51751007850E+02 -0.12014180402E+02  0.53380154680E+02  0.00000000000E+00 0. -1.
         -3    1    3    3    0  502 -0.18202428528E+03  0.59099560792E+03 -0.25022332450E+03  0.66709846435E+03  0.00000000000E+00 0.  1.
         13    1    5    5    0    0  0.29190052638E+03 -0.13444952658E+03 -0.57224204579E+02  0.32643100663E+03  0.00000000000E+00 0. -1.
        -13    1    5    5    0    0  0.15246448054E+03 -0.15083090357E+03 -0.42724103855E+02  0.21867951058E+03  0.00000000000E+00 0.  1.
          3    1    6    6  503    0 -0.52668021085E+00 -0.55515628198E+01 -0.50916491717E+01  0.75513000917E+01  0.00000000000E+00 0. -1.
         -3    1    6    6    0  503 -0.26700379763E+03 -0.35191462280E+03  0.39346804287E+03  0.59156743525E+03  0.00000000000E+00 0.  1.
<mgrwt>
<rscale>  0 0.18645239E+04</rscale>
<asrwt>0</asrwt>
<pdfrwt beam="1">  1        2 0.14545373E+00 0.18645239E+04</pdfrwt>
<pdfrwt beam="2">  1       -1 0.14142441E+00 0.18645239E+04</pdfrwt>
<totfact> 0.11958980E+01</totfact>
</mgrwt>
</event>
<event>
12    7  0.1740517E-007  0.1554498E+04  0.7818608E-02  0.8849000E-01
         -1   -1    0    0    0  501 -0.00000000000E+00  0.00000000000E+00  0.40752314584E+03  0.40752314584E+03  0.00000000000E+00 0.  1.
          2   -1    0    0  501    0  0.00000000000E+00 -0.00000000000E+00 -0.14824098400E+04  0.14824098400E+04  0.00000000000E+00 0. -1.
         24    2    1    2    0    0 -0.13338503794E+03 -0.35180753134E+03 -0.79023670487E+03  0.87898884564E+03  0.81161774132E+02 0.  0.
        254    2    1    2    0    0  0.13338503794E+03  0.35180753134E+03 -0.28464998933E+03  0.10109441403E+04  0.89410420580E+03 0.  0.
         23    2    4    4    0    0 -0.19796085313E+03 -0.49683226939E+02  0.19508003780E+03  0.29700424180E+03  0.92186637261E+02 0.  0.
         23    2    4    4    0    0  0.33134589107E+03  0.40149075827E+03 -0.47973002713E+03  0.71393989845E+03  0.92651773612E+02 0.  0.
          4    1    3    3  502    0 -0.10937059465E+03 -0.30979937653E+03 -0.73777304491E+03  0.80761788395E+03  0.00000000000E+00 0. -1.
         -3    1    3    3    0  502 -0.24014443290E+02 -0.42008154801E+02 -0.52463659965E+02  0.71370961695E+02  0.00000000000E+00 0.  1.
         13    1    5    5    0    0 -0.25656250038E+02 -0.41978443067E+02  0.62036321684E+02  0.79176625694E+02  0.00000000000E+00 0.  1.
        -13    1    5    5    0    0 -0.17230460309E+03 -0.77047838720E+01  0.13304371612E+03  0.21782761611E+03  0.00000000000E+00 0. -1.
          3    1    6    6  503    0  0.20233590709E+03  0.17267078568E+03 -0.24685035402E+03  0.36289132920E+03  0.00000000000E+00 0. -1.
         -3    1    6    6    0  503  0.12900998397E+03  0.22881997259E+03 -0.23287967311E+03  0.35104856925E+03  0.00000000000E+00 0.  1.
<mgrwt>
<rscale>  0 0.15544984E+04</rscale>
<asrwt>0</asrwt>
<pdfrwt beam="1">  1        2 0.22806305E+00 0.15544984E+04</pdfrwt>
<pdfrwt beam="2">  1       -1 0.62695868E-01 0.15544984E+04</pdfrwt>
<totfact> 0.36747443E+01</totfact>
</mgrwt>
</event>
<event>
12    7  0.1740517E-007  0.1906920E+04  0.7818608E-02  0.8651420E-01
         -1   -1    0    0    0  501 -0.00000000000E+00  0.00000000000E+00  0.14711634110E+04  0.14711634110E+04  0.00000000000E+00 0.  1.
          2   -1    0    0  501    0  0.00000000000E+00 -0.00000000000E+00 -0.61793645683E+03  0.61793645683E+03  0.00000000000E+00 0. -1.
         24    2    1    2    0    0 -0.10977216585E+03 -0.15482771232E+03  0.11189373765E+04  0.11377721999E+04  0.80518180552E+02 0.  0.
        254    2    1    2    0    0  0.10977216585E+03  0.15482771232E+03 -0.26571042231E+03  0.95132766797E+03  0.89353273830E+03 0.  0.
         23    2    4    4    0    0  0.34404760762E+03  0.34416931314E+03 -0.37194716312E+03  0.61931499167E+03  0.91570160774E+02 0.  0.
         23    2    4    4    0    0 -0.23427544177E+03 -0.18934160082E+03  0.10623674081E+03  0.33201267629E+03  0.90614279805E+02 0.  0.
          4    1    3    3  502    0 -0.25318454198E+02 -0.59080135527E+02  0.20175331974E+03  0.21174486667E+03  0.00000000000E+00 0. -1.
         -3    1    3    3    0  502 -0.84453711656E+02 -0.95747576794E+02  0.91718405679E+03  0.92602733324E+03  0.00000000000E+00 0.  1.
         13    1    5    5    0    0  0.22731767053E+03  0.17232137992E+03 -0.24367535504E+03  0.37516084546E+03  0.00000000000E+00 0. -1.
        -13    1    5    5    0    0  0.11672993709E+03  0.17184793322E+03 -0.12827180808E+03  0.24415414621E+03  0.00000000000E+00 0.  1.
          3    1    6    6  503    0 -0.11800820111E+03 -0.69896025039E+02  0.91066645626E+02  0.16463451580E+03  0.00000000000E+00 0. -1.
         -3    1    6    6    0  503 -0.11626724065E+03 -0.11944557578E+03  0.15170095185E+02  0.16737816050E+03  0.00000000000E+00 0.  1.
<mgrwt>
<rscale>  0 0.19069195E+04</rscale>
<asrwt>0</asrwt>
<pdfrwt beam="1">  1        2 0.95067148E-01 0.19069195E+04</pdfrwt>
<pdfrwt beam="2">  1       -1 0.22633283E+00 0.19069195E+04</pdfrwt>
<totfact> 0.51062048E+00</totfact>
</mgrwt>
</event>
<event>
12    7  0.1740517E-007  0.2134510E+04  0.7818608E-02  0.8546192E-01
         -1   -1    0    0    0  501 -0.00000000000E+00  0.00000000000E+00  0.76374552484E+03  0.76374552484E+03  0.00000000000E+00 0.  1.
          2   -1    0    0  501    0  0.00000000000E+00 -0.00000000000E+00 -0.14913775408E+04  0.14913775408E+04  0.00000000000E+00 0. -1.
         24    2    1    2    0    0  0.68310227165E+03 -0.53960071414E+03 -0.20308700016E+03  0.89739403097E+03  0.79209045924E+02 0.  0.
        254    2    1    2    0    0 -0.68310227165E+03  0.53960071414E+03 -0.52454501582E+03  0.13577290347E+04  0.90026830100E+03 0.  0.
         23    2    4    4    0    0 -0.37600229473E+03  0.61062613751E+03 -0.68183658751E+03  0.99371051793E+03  0.91200087358E+02 0.  0.
         23    2    4    4    0    0 -0.30709997692E+03 -0.71025423364E+02  0.15729157169E+03  0.36401851675E+03  0.91726961283E+02 0.  0.
          2    1    3    3  502    0  0.55952948350E+03 -0.47135549329E+03 -0.15171994087E+03  0.74717346341E+03  0.00000000000E+00 0. -1.
         -1    1    3    3    0  502  0.12357278814E+03 -0.68245220851E+02 -0.51367059286E+02  0.15022056756E+03  0.00000000000E+00 0.  1.
         13    1    5    5    0    0 -0.26324964172E+03  0.37718175886E+03 -0.38705155187E+03  0.60114503815E+03  0.00000000000E+00 0. -1.
        -13    1    5    5    0    0 -0.11275265300E+03  0.23344437864E+03 -0.29478503564E+03  0.39256547978E+03  0.00000000000E+00 0.  1.
          4    1    6    6  503    0 -0.18997331684E+03 -0.52775591053E+02  0.14519988213E+03  0.24486349236E+03  0.00000000000E+00 0. -1.
         -4    1    6    6    0  503 -0.11712666008E+03 -0.18249832311E+02  0.12091689563E+02  0.11915502439E+03  0.00000000000E+00 0.  1.
<mgrwt>
<rscale>  0 0.21345097E+04</rscale>
<asrwt>0</asrwt>
<pdfrwt beam="1">  1        2 0.22944270E+00 0.21345097E+04</pdfrwt>
<pdfrwt beam="2">  1       -1 0.11749931E+00 0.21345097E+04</pdfrwt>
<totfact> 0.87594172E+00</totfact>
</mgrwt>
</event>
<event>
12    7  0.1740517E-007  0.3073807E+04  0.7818608E-02  0.8222963E-01
          2   -1    0    0  501    0  0.00000000000E+00  0.00000000000E+00  0.22379299657E+04  0.22379299657E+04  0.00000000000E+00 0. -1.
         -1   -1    0    0    0  501 -0.00000000000E+00 -0.00000000000E+00 -0.10554716633E+04  0.10554716633E+04  0.00000000000E+00 0.  1.
         24    2    1    2    0    0  0.80394545184E+03  0.63837019449E+02 -0.68939307650E+03  0.10639783433E+04  0.79897724658E+02 0.  0.
        254    2    1    2    0    0 -0.80394545184E+03 -0.63837019449E+02  0.18718513789E+04  0.22294232858E+04  0.90338095400E+03 0.  0.
         23    2    4    4    0    0 -0.14191595907E+03 -0.37370253372E+03  0.35050843826E+03  0.53938413604E+03  0.91023940689E+02 0.  0.
         23    2    4    4    0    0 -0.66202949277E+03  0.30986551427E+03  0.15213429406E+04  0.16900391498E+04  0.86303525446E+02 0.  0.
          4    1    3    3  502    0  0.15265010978E+03  0.31317287357E+02 -0.16719278958E+03  0.22855252655E+03  0.00000000000E+00 0. -1.
         -3    1    3    3    0  502  0.65129534206E+03  0.32519732092E+02 -0.52220028692E+03  0.83542581671E+03  0.00000000000E+00 0.  1.
         13    1    5    5    0    0 -0.13707862438E+03 -0.33766229452E+03  0.27830624348E+03  0.45854197143E+03  0.00000000000E+00 0. -1.
        -13    1    5    5    0    0 -0.48373346940E+01 -0.36040239194E+02  0.72202194783E+02  0.80842164615E+02  0.00000000000E+00 0.  1.
          4    1    6    6  503    0 -0.65731800546E+03  0.29817153967E+03  0.14768444474E+04  0.16437891438E+04  0.00000000000E+00 0. -1.
         -4    1    6    6    0  503 -0.47114873084E+01  0.11693974601E+02  0.44498493207E+02  0.46250005971E+02  0.00000000000E+00 0.  1.
<mgrwt>
<rscale>  0 0.30738065E+04</rscale>
<asrwt>0</asrwt>
<pdfrwt beam="1">  1        2 0.34429692E+00 0.30738065E+04</pdfrwt>
<pdfrwt beam="2">  1       -1 0.16238026E+00 0.30738065E+04</pdfrwt>
<totfact> 0.13332727E+00</totfact>
</mgrwt>
</event>
<event>
12    7  0.1740517E-007  0.1898261E+04  0.7818608E-02  0.8655722E-01
         -1   -1    0    0    0  501 -0.00000000000E+00  0.00000000000E+00  0.21040976590E+03  0.21040976590E+03  0.00000000000E+00 0.  1.
          2   -1    0    0  501    0  0.00000000000E+00 -0.00000000000E+00 -0.42814037008E+04  0.42814037008E+04  0.00000000000E+00 0. -1.
         24    2    1    2    0    0  0.36011089719E+03  0.59632186067E+03 -0.10314869874E+04  0.12471819781E+04  0.78853417760E+02 0.  0.
        254    2    1    2    0    0 -0.36011089719E+03 -0.59632186067E+03 -0.30395069475E+04  0.32446314886E+04  0.89652183090E+03 0.  0.
         23    2    4    4    0    0 -0.21237514123E+03  0.19444104058E+03 -0.55611036864E+03  0.63259549749E+03  0.89486325552E+02 0.  0.
         23    2    4    4    0    0 -0.14773575596E+03 -0.79076290124E+03 -0.24833965788E+04  0.26120359911E+04  0.91332532620E+02 0.  0.
          4    1    3    3  502    0  0.29006300192E+03  0.43449134643E+03 -0.81350310207E+03  0.96680224052E+03  0.00000000000E+00 0. -1.
         -3    1    3    3    0  502  0.70047895268E+02  0.16183051424E+03 -0.21798388537E+03  0.28037973759E+03  0.00000000000E+00 0.  1.
         13    1    5    5    0    0 -0.18605437598E+03  0.13448364609E+03 -0.48082631692E+03  0.53281894573E+03  0.00000000000E+00 0.  1.
        -13    1    5    5    0    0 -0.26320765256E+02  0.59957394492E+02 -0.75284051721E+02  0.99776551762E+02  0.00000000000E+00 0. -1.
          2    1    6    6  503    0 -0.11187004299E+03 -0.73349074599E+03 -0.22667860223E+04  0.23851294413E+04  0.00000000000E+00 0.  1.
         -2    1    6    6    0  503 -0.35865712967E+02 -0.57272155258E+02 -0.21661055653E+03  0.22690654978E+03  0.00000000000E+00 0. -1.
<mgrwt>
<rscale>  0 0.18982615E+04</rscale>
<asrwt>0</asrwt>
<pdfrwt beam="1">  1        2 0.65867743E+00 0.18982615E+04</pdfrwt>
<pdfrwt beam="2">  1       -1 0.32370736E-01 0.18982615E+04</pdfrwt>
<totfact> 0.19056177E+00</totfact>
</mgrwt>
</event>
<event>
12    7  0.1740517E-007  0.1352709E+04  0.7818608E-02  0.8988780E-01
          2   -1    0    0  501    0  0.00000000000E+00  0.00000000000E+00  0.18374385050E+04  0.18374385050E+04  0.00000000000E+00 0. -1.
         -1   -1    0    0    0  501 -0.00000000000E+00 -0.00000000000E+00 -0.24896373133E+03  0.24896373133E+03  0.00000000000E+00 0.  1.
         24    2    1    2    0    0  0.19971118415E+03  0.16473252669E+03  0.66476363278E+03  0.71729747046E+03  0.74723565497E+02 0.  0.
        254    2    1    2    0    0 -0.19971118415E+03 -0.16473252669E+03  0.92371114089E+03  0.13691047659E+04  0.97682353866E+03 0.  0.
         23    2    4    4    0    0  0.22607653413E+03  0.26756000067E+03  0.52156646917E+03  0.63517177535E+03  0.93341572696E+02 0.  0.
         23    2    4    4    0    0 -0.42578771828E+03 -0.43229252736E+03  0.40214467172E+03  0.73393299051E+03  0.93623113174E+02 0.  0.
          2    1    3    3  502    0  0.18440138867E+03  0.16173318474E+03  0.65361705752E+03  0.69812373765E+03  0.00000000000E+00 0. -1.
         -1    1    3    3    0  502  0.15309795486E+02  0.29993419499E+01  0.11146575258E+02  0.19173732812E+02  0.00000000000E+00 0.  1.
         13    1    5    5    0    0  0.15122908502E+03  0.16415477109E+03  0.25023562573E+03  0.33531312741E+03  0.00000000000E+00 0.  1.
        -13    1    5    5    0    0  0.74847449111E+02  0.10340522958E+03  0.27133084344E+03  0.29985864794E+03  0.00000000000E+00 0. -1.
          3    1    6    6  503    0 -0.17534434222E+03 -0.13090156052E+03  0.10840963686E+03  0.24419972616E+03  0.00000000000E+00 0. -1.
         -3    1    6    6    0  503 -0.25044337607E+03 -0.30139096684E+03  0.29373503486E+03  0.48973326435E+03  0.00000000000E+00 0.  1.
<mgrwt>
<rscale>  0 0.13527092E+04</rscale>
<asrwt>0</asrwt>
<pdfrwt beam="1">  1        2 0.28268284E+00 0.13527092E+04</pdfrwt>
<pdfrwt beam="2">  1       -1 0.38302114E-01 0.13527092E+04</pdfrwt>
<totfact> 0.60345870E+01</totfact>
</mgrwt>
</event>
<event>
12    7  0.1740517E-007  0.1063702E+04  0.7818608E-02  0.9241311E-01
          2   -1    0    0  501    0  0.00000000000E+00  0.00000000000E+00  0.17429474036E+04  0.17429474036E+04  0.00000000000E+00 0. -1.
         -1   -1    0    0    0  501 -0.00000000000E+00 -0.00000000000E+00 -0.16229140744E+03  0.16229140744E+03  0.00000000000E+00 0.  1.
         24    2    1    2    0    0  0.10557221812E+02 -0.65276165511E+02 -0.36279404520E+01  0.10453881524E+03  0.80887386058E+02 0.  0.
        254    2    1    2    0    0 -0.10557221812E+02  0.65276165511E+02  0.15842839366E+04  0.18006999958E+04  0.85334193052E+03 0.  0.
         23    2    4    4    0    0 -0.24684426631E+03 -0.19920136691E+03  0.24198970089E+03  0.40938904323E+03  0.91799221096E+02 0.  0.
         23    2    4    4    0    0  0.23628704449E+03  0.26447753242E+03  0.13422942357E+04  0.13913109526E+04  0.90622397636E+02 0.  0.
          4    1    3    3  502    0  0.22178491294E+02  0.12315271629E+02 -0.59142774808E+01  0.26048609742E+02  0.00000000000E+00 0. -1.
         -3    1    3    3    0  502 -0.11621269482E+02 -0.77591437140E+02  0.22863370288E+01  0.78490205496E+02  0.00000000000E+00 0.  1.
         13    1    5    5    0    0 -0.24778382794E+03 -0.16908981700E+03  0.21685138883E+03  0.37015228817E+03  0.00000000000E+00 0. -1.
        -13    1    5    5    0    0  0.93956163722E+00 -0.30111549915E+02  0.25138312054E+02  0.39236755056E+02  0.00000000000E+00 0.  1.
          3    1    6    6  503    0  0.22110622102E+03  0.26885726823E+03  0.13084185898E+04  0.13539318290E+04  0.00000000000E+00 0. -1.
         -3    1    6    6    0  503  0.15180823475E+02 -0.43797358099E+01  0.33875645978E+02  0.37379123553E+02  0.00000000000E+00 0.  1.
<mgrwt>
<rscale>  0 0.10637018E+04</rscale>
<asrwt>0</asrwt>
<pdfrwt beam="1">  1        2 0.26814574E+00 0.10637018E+04</pdfrwt>
<pdfrwt beam="2">  1       -1 0.24967910E-01 0.10637018E+04</pdfrwt>
<totfact> 0.14775095E+02</totfact>
</mgrwt>
</event>
<event>
12    7  0.1740517E-007  0.1134688E+04  0.7818608E-02  0.9172027E-01
         -1   -1    0    0    0  501 -0.00000000000E+00  0.00000000000E+00  0.34933074612E+03  0.34933074612E+03  0.00000000000E+00 0.  1.
          2   -1    0    0  501    0  0.00000000000E+00 -0.00000000000E+00 -0.92141628221E+03  0.92141628221E+03  0.00000000000E+00 0. -1.
         24    2    1    2    0    0  0.78939786613E+02 -0.16374350136E+03 -0.51703516503E+02  0.20471661012E+03  0.78690613754E+02 0.  0.
        254    2    1    2    0    0 -0.78939786613E+02  0.16374350136E+03 -0.52038201959E+03  0.10660304182E+04  0.91245820840E+03 0.  0.
         23    2    4    4    0    0 -0.43543552660E+03  0.17467506632E+03 -0.50830730205E+03  0.69770794335E+03  0.91129491810E+02 0.  0.
         23    2    4    4    0    0  0.35649573999E+03 -0.10931564957E+02 -0.12074717540E+02  0.36832247485E+03  0.91142388249E+02 0.  0.
          2    1    3    3  502    0  0.30422990022E+02 -0.44426157926E+02 -0.53493662758E+02  0.75900024935E+02  0.00000000000E+00 0. -1.
         -1    1    3    3    0  502  0.48516796591E+02 -0.11931734343E+03  0.17901462544E+01  0.12881658519E+03  0.00000000000E+00 0.  1.
         13    1    5    5    0    0 -0.13697595202E+03  0.69333699127E+02 -0.22831702137E+03  0.27513312326E+03  0.00000000000E+00 0.  1.
        -13    1    5    5    0    0 -0.29845957458E+03  0.10534136719E+03 -0.27999028068E+03  0.42257482009E+03  0.00000000000E+00 0. -1.
          2    1    6    6  503    0  0.14556376046E+03 -0.37132720534E+02  0.25790303837E+02  0.15242305294E+03  0.00000000000E+00 0.  1.
         -2    1    6    6    0  503  0.21093197953E+03  0.26201155577E+02 -0.37865021376E+02  0.21589942192E+03  0.00000000000E+00 0. -1.
<mgrwt>
<rscale>  0 0.11346877E+04</rscale>
<asrwt>0</asrwt>
<pdfrwt beam="1">  1        2 0.14175635E+00 0.11346877E+04</pdfrwt>
<pdfrwt beam="2">  1       -1 0.53743193E-01 0.11346877E+04</pdfrwt>
<totfact> 0.11201634E+02</totfact>
</mgrwt>
</event>
<event>
12    7  0.1740517E-007  0.1482421E+04  0.7818608E-02  0.8896227E-01
          2   -1    0    0  501    0  0.00000000000E+00  0.00000000000E+00  0.15593077489E+04  0.15593077489E+04  0.00000000000E+00 0. -1.
         -1   -1    0    0    0  501 -0.00000000000E+00 -0.00000000000E+00 -0.35233155173E+03  0.35233155173E+03  0.00000000000E+00 0.  1.
         24    2    1    2    0    0  0.27194976545E+03  0.30613234166E+02  0.86514715279E+03  0.91102590241E+03  0.81208089779E+02 0.  0.
        254    2    1    2    0    0 -0.27194976545E+03 -0.30613234166E+02  0.34182904433E+03  0.10006133982E+04  0.89971452808E+03 0.  0.
         23    2    4    4    0    0  0.28572043490E+03 -0.16535152253E+03  0.22199176168E+03  0.40741830506E+03  0.87932019908E+02 0.  0.
         23    2    4    4    0    0 -0.55767020035E+03  0.13473828836E+03  0.11983728265E+03  0.59319509312E+03  0.91482159301E+02 0.  0.
          4    1    3    3  502    0  0.12130250824E+03  0.37888784870E+02  0.50130809093E+03  0.51716502255E+03  0.00000000000E+00 0. -1.
         -3    1    3    3    0  502  0.15064725721E+03 -0.72755507038E+01  0.36383906186E+03  0.39386087986E+03  0.00000000000E+00 0.  1.
         13    1    5    5    0    0  0.17575478142E+03 -0.82550398396E+02  0.81063515801E+02  0.21041769189E+03  0.00000000000E+00 0.  1.
        -13    1    5    5    0    0  0.10996565348E+03 -0.82801124131E+02  0.14092824588E+03  0.19700061317E+03  0.00000000000E+00 0. -1.
          4    1    6    6  503    0 -0.48376027739E+03  0.92264168411E+02  0.12399101751E+03  0.50784885072E+03  0.00000000000E+00 0.  1.
         -4    1    6    6    0  503 -0.73909922961E+02  0.42474119949E+02 -0.41537348596E+01  0.85346242394E+02  0.00000000000E+00 0. -1.
<mgrwt>
<rscale>  0 0.14824214E+04</rscale>
<asrwt>0</asrwt>
<pdfrwt beam="1">  1        2 0.23989350E+00 0.14824214E+04</pdfrwt>
<pdfrwt beam="2">  1       -1 0.54204855E-01 0.14824214E+04</pdfrwt>
<totfact> 0.44525873E+01</totfact>
</mgrwt>
</event>
<event>
12    7  0.1740517E-007  0.1455361E+04  0.7818608E-02  0.8914692E-01
          2   -1    0    0  501    0  0.00000000000E+00  0.00000000000E+00  0.11136602804E+04  0.11136602804E+04  0.00000000000E+00 0. -1.
         -1   -1    0    0    0  501 -0.00000000000E+00 -0.00000000000E+00 -0.47547626070E+03  0.47547626070E+03  0.00000000000E+00 0.  1.
         24    2    1    2    0    0  0.46221112101E+02 -0.39482841882E+03  0.41748690477E+03  0.58272738577E+03  0.85147043179E+02 0.  0.
        254    2    1    2    0    0 -0.46221112101E+02  0.39482841882E+03  0.22069711492E+03  0.10064091553E+04  0.89784536523E+03 0.  0.
         23    2    4    4    0    0 -0.38003481578E+03  0.45129930213E+03  0.97023984230E+01  0.59749864238E+03  0.93877419027E+02 0.  0.
         23    2    4    4    0    0  0.33381370368E+03 -0.56470883305E+02  0.21099471650E+03  0.40891051294E+03  0.89824761511E+02 0.  0.
          4    1    3    3  502    0  0.44551680816E+02 -0.38648831460E+03  0.42125642457E+03  0.57342396604E+03  0.00000000000E+00 0. -1.
         -3    1    3    3    0  502  0.16694312852E+01 -0.83401042198E+01 -0.37695197996E+01  0.93034197332E+01  0.00000000000E+00 0.  1.
         13    1    5    5    0    0 -0.82833358880E+02  0.15689360019E+03 -0.17515714625E+02  0.17828002520E+03  0.00000000000E+00 0. -1.
        -13    1    5    5    0    0 -0.29720145690E+03  0.29440570193E+03  0.27218113048E+02  0.41921861718E+03  0.00000000000E+00 0.  1.
          2    1    6    6  503    0  0.18133554488E+03 -0.48179802812E+02  0.16383721820E+03  0.24909136337E+03  0.00000000000E+00 0. -1.
         -2    1    6    6    0  503  0.15247815880E+03 -0.82910804928E+01  0.47157498301E+02  0.15981914958E+03  0.00000000000E+00 0.  1.
<mgrwt>
<rscale>  0 0.14553612E+04</rscale>
<asrwt>0</asrwt>
<pdfrwt beam="1">  1        2 0.17133235E+00 0.14553612E+04</pdfrwt>
<pdfrwt beam="2">  1       -1 0.73150194E-01 0.14553612E+04</pdfrwt>
<totfact> 0.44505042E+01</totfact>
</mgrwt>
</event>
<event>
12    7  0.1740517E-007  0.2046324E+04  0.7818608E-02  0.8585264E-01
          2   -1    0    0  501    0  0.00000000000E+00  0.00000000000E+00  0.21086274361E+04  0.21086274361E+04  0.00000000000E+00 0. -1.
         -1   -1    0    0    0  501 -0.00000000000E+00 -0.00000000000E+00 -0.49646537858E+03  0.49646537858E+03  0.00000000000E+00 0.  1.
         24    2    1    2    0    0 -0.61951837640E+03 -0.44029030937E+03  0.10253635027E+04  0.12788708768E+04  0.80509822736E+02 0.  0.
        254    2    1    2    0    0  0.61951837640E+03  0.44029030937E+03  0.58679855479E+03  0.13262219379E+04  0.91480790847E+03 0.  0.
         23    2    4    4    0    0  0.65779434000E+03 -0.17965188137E+02  0.14003053797E+03  0.67904994912E+03  0.92109392077E+02 0.  0.
         23    2    4    4    0    0 -0.38275963601E+02  0.45825549751E+03  0.44676801682E+03  0.64717198877E+03  0.88129290260E+02 0.  0.
          2    1    3    3  502    0 -0.59656337589E+03 -0.43792562092E+03  0.98063654187E+03  0.12285417120E+04  0.00000000000E+00 0. -1.
         -1    1    3    3    0  502 -0.22955000508E+02 -0.23646884583E+01  0.44726960840E+02  0.50329164763E+02  0.00000000000E+00 0.  1.
         13    1    5    5    0    0  0.56111796144E+03  0.89322140890E+01  0.14125757040E+03  0.57869409215E+03  0.00000000000E+00 0. -1.
        -13    1    5    5    0    0  0.96676378563E+02 -0.26897402226E+02 -0.12270324272E+01  0.10035585696E+03  0.00000000000E+00 0.  1.
          2    1    6    6  503    0 -0.16425331282E+02  0.36871408772E+03  0.30867027414E+03  0.48114156766E+03  0.00000000000E+00 0. -1.
         -2    1    6    6    0  503 -0.21850632319E+02  0.89541409789E+02  0.13809774268E+03  0.16603042110E+03  0.00000000000E+00 0.  1.
<mgrwt>
<rscale>  0 0.20463240E+04</rscale>
<asrwt>0</asrwt>
<pdfrwt beam="1">  1        2 0.32440421E+00 0.20463240E+04</pdfrwt>
<pdfrwt beam="2">  1       -1 0.76379290E-01 0.20463240E+04</pdfrwt>
<totfact> 0.10535740E+01</totfact>
</mgrwt>
</event>
<event>
12    7  0.1740517E-007  0.1818373E+04  0.7818608E-02  0.8696590E-01
         -1   -1    0    0    0  501 -0.00000000000E+00  0.00000000000E+00  0.56034907528E+03  0.56034907528E+03  0.00000000000E+00 0.  1.
          2   -1    0    0  501    0  0.00000000000E+00 -0.00000000000E+00 -0.14751877390E+04  0.14751877390E+04  0.00000000000E+00 0. -1.
         24    2    1    2    0    0  0.58254011871E+03  0.13971903691E+03  0.23097584041E+02  0.60476881775E+03  0.79607947851E+02 0.  0.
        254    2    1    2    0    0 -0.58254011871E+03 -0.13971903691E+03 -0.93793624781E+03  0.14307679966E+04  0.89916531065E+03 0.  0.
         23    2    4    4    0    0 -0.14726775814E+03  0.35718575281E+03 -0.23259725016E+03  0.45993357916E+03  0.90376777186E+02 0.  0.
         23    2    4    4    0    0 -0.43527236056E+03 -0.49690478973E+03 -0.70533899765E+03  0.97083441741E+03  0.92951420156E+02 0.  0.
          4    1    3    3  502    0  0.55307860507E+03  0.14605707643E+03  0.33155733589E+02  0.57299905378E+03  0.00000000000E+00 0. -1.
         -3    1    3    3    0  502  0.29461513635E+02 -0.63380395193E+01 -0.10058149548E+02  0.31769763974E+02  0.00000000000E+00 0.  1.
         13    1    5    5    0    0  0.11971982289E+02  0.35012714505E+02 -0.27943251881E+02  0.46368565458E+02  0.00000000000E+00 0.  1.
        -13    1    5    5    0    0 -0.15923974043E+03  0.32217303831E+03 -0.20465399828E+03  0.41356501370E+03  0.00000000000E+00 0. -1.
          4    1    6    6  503    0 -0.42809597955E+03 -0.47177662120E+03 -0.65267936087E+03  0.91204698131E+03  0.00000000000E+00 0. -1.
         -4    1    6    6    0  503 -0.71763810185E+01 -0.25128168529E+02 -0.52659636775E+02  0.58787436102E+02  0.00000000000E+00 0.  1.
<mgrwt>
<rscale>  0 0.18183730E+04</rscale>
<asrwt>0</asrwt>
<pdfrwt beam="1">  1        2 0.22695196E+00 0.18183730E+04</pdfrwt>
<pdfrwt beam="2">  1       -1 0.86207550E-01 0.18183730E+04</pdfrwt>
<totfact> 0.18699407E+01</totfact>
</mgrwt>
</event>
<event>
12    7  0.1740517E-007  0.2147740E+04  0.7818608E-02  0.8540500E-01
          2   -1    0    0  501    0  0.00000000000E+00  0.00000000000E+00  0.31419553218E+04  0.31419553218E+04  0.00000000000E+00 0. -1.
         -1   -1    0    0    0  501 -0.00000000000E+00 -0.00000000000E+00 -0.36703160615E+03  0.36703160615E+03  0.00000000000E+00 0.  1.
         24    2    1    2    0    0 -0.20192157536E+02  0.82000695654E+03  0.16310374089E+04  0.18276346224E+04  0.84534913260E+02 0.  0.
        254    2    1    2    0    0  0.20192157536E+02 -0.82000695654E+03  0.11438863067E+04  0.16813523055E+04  0.91959260584E+03 0.  0.
         23    2    4    4    0    0  0.31118013476E+03 -0.74207583711E+02  0.72226407602E+02  0.34054716295E+03  0.91738075481E+02 0.  0.
         23    2    4    4    0    0 -0.29098797722E+03 -0.74579937283E+03  0.10716598991E+04  0.13408051426E+04  0.91721228085E+02 0.  0.
          4    1    3    3  502    0  0.10732042233E+02  0.59012295732E+03  0.12318713060E+04  0.13659674945E+04  0.00000000000E+00 0. -1.
         -3    1    3    3    0  502 -0.30924199769E+02  0.22988399922E+03  0.39916610297E+03  0.46166712790E+03  0.00000000000E+00 0.  1.
         13    1    5    5    0    0  0.76003765769E+02 -0.14487822990E+02  0.59443093372E+02  0.97570235090E+02  0.00000000000E+00 0. -1.
        -13    1    5    5    0    0  0.23517636899E+03 -0.59719760721E+02  0.12783314230E+02  0.24297692786E+03  0.00000000000E+00 0.  1.
          3    1    6    6  503    0 -0.13741748615E+03 -0.25414847270E+03  0.34283902133E+03  0.44834540951E+03  0.00000000000E+00 0. -1.
         -3    1    6    6    0  503 -0.15357049107E+03 -0.49165090012E+03  0.72882087775E+03  0.89245973307E+03  0.00000000000E+00 0.  1.
<mgrwt>
<rscale>  0 0.21477401E+04</rscale>
<asrwt>0</asrwt>
<pdfrwt beam="1">  1        2 0.48337772E+00 0.21477401E+04</pdfrwt>
<pdfrwt beam="2">  1       -1 0.56466403E-01 0.21477401E+04</pdfrwt>
<totfact> 0.46991373E+00</totfact>
</mgrwt>
</event>
<event>
12    7  0.1740517E-007  0.1574736E+04  0.7818608E-02  0.8836221E-01
          2   -1    0    0  501    0  0.00000000000E+00  0.00000000000E+00  0.31532141094E+04  0.31532141094E+04  0.00000000000E+00 0. -1.
         -1   -1    0    0    0  501 -0.00000000000E+00 -0.00000000000E+00 -0.19660831771E+03  0.19660831771E+03  0.00000000000E+00 0.  1.
         24    2    1    2    0    0 -0.16128460974E+03 -0.49031722373E+03  0.12241826840E+04  0.13309829808E+04  0.80428516594E+02 0.  0.
        254    2    1    2    0    0  0.16128460974E+03  0.49031722373E+03  0.17324231077E+04  0.20188394463E+04  0.89888774634E+03 0.  0.
         23    2    4    4    0    0 -0.63011898269E+02  0.48974805932E+03  0.34373118644E+03  0.60856255368E+03  0.91507334632E+02 0.  0.
         23    2    4    4    0    0  0.22429650801E+03  0.56916441881E+00  0.13886919213E+04  0.14102768926E+04  0.10053066265E+03 0.  0.
          4    1    3    3  502    0 -0.17740740067E+02 -0.22411002311E+02  0.36148373910E+02  0.46083530888E+02  0.00000000000E+00 0. -1.
         -3    1    3    3    0  502 -0.14354386967E+03 -0.46790622142E+03  0.11880343101E+04  0.12848994499E+04  0.00000000000E+00 0.  1.
         13    1    5    5    0    0 -0.80158630505E+02  0.36398480882E+03  0.22879763198E+03  0.43733134292E+03  0.00000000000E+00 0. -1.
        -13    1    5    5    0    0  0.17146732236E+02  0.12576325049E+03  0.11493355446E+03  0.17123121077E+03  0.00000000000E+00 0.  1.
          4    1    6    6  503    0  0.52646315741E+01  0.23887976844E+02  0.10396969041E+03  0.10680846552E+03  0.00000000000E+00 0.  1.
         -4    1    6    6    0  503  0.21903187643E+03 -0.23318812425E+02  0.12847222309E+04  0.13034684271E+04  0.00000000000E+00 0. -1.
<mgrwt>
<rscale>  0 0.15747357E+04</rscale>
<asrwt>0</asrwt>
<pdfrwt beam="1">  1        2 0.48510983E+00 0.15747357E+04</pdfrwt>
<pdfrwt beam="2">  1       -1 0.30247436E-01 0.15747357E+04</pdfrwt>
<totfact> 0.15424937E+01</totfact>
</mgrwt>
</event>
<event>
12    7  0.1740517E-007  0.2222836E+04  0.7818608E-02  0.8508983E-01
          2   -1    0    0  501    0  0.00000000000E+00  0.00000000000E+00  0.14490361957E+04  0.14490361957E+04  0.00000000000E+00 0. -1.
         -1   -1    0    0    0  501 -0.00000000000E+00 -0.00000000000E+00 -0.85246326312E+03  0.85246326312E+03  0.00000000000E+00 0.  1.
         24    2    1    2    0    0  0.11338616599E+03 -0.56975637608E+03  0.99096192326E+03  0.11514513756E+04  0.79724439612E+02 0.  0.
        254    2    1    2    0    0 -0.11338616599E+03  0.56975637608E+03 -0.39438899070E+03  0.11500480832E+04  0.91081785609E+03 0.  0.
         23    2    4    4    0    0  0.15987008366E+03  0.39793673740E+01  0.20638389597E+03  0.27661272846E+03  0.91356499593E+02 0.  0.
         23    2    4    4    0    0 -0.27325624965E+03  0.56577700871E+03 -0.60077288668E+03  0.87343535474E+03  0.84785942190E+02 0.  0.
          2    1    3    3  502    0  0.91160938789E+02 -0.47941920739E+03  0.76893426672E+03  0.91072114267E+03  0.00000000000E+00 0. -1.
         -1    1    3    3    0  502  0.22225227206E+02 -0.90337168693E+02  0.22202765654E+03  0.24073023292E+03  0.00000000000E+00 0.  1.
         13    1    5    5    0    0 -0.43211403639E+01  0.14914798846E+02  0.38582561950E+02  0.41590113793E+02  0.00000000000E+00 0. -1.
        -13    1    5    5    0    0  0.16419122402E+03 -0.10935431472E+02  0.16780133402E+03  0.23502261467E+03  0.00000000000E+00 0.  1.
          4    1    6    6  503    0 -0.85078059010E+02  0.18287992596E+03 -0.14031035131E+03  0.24570376091E+03  0.00000000000E+00 0. -1.
         -4    1    6    6    0  503 -0.18817819064E+03  0.38289708275E+03 -0.46046253537E+03  0.62773159383E+03  0.00000000000E+00 0.  1.
<mgrwt>
<rscale>  0 0.22228361E+04</rscale>
<asrwt>0</asrwt>
<pdfrwt beam="1">  1        2 0.22292865E+00 0.22228361E+04</pdfrwt>
<pdfrwt beam="2">  1       -1 0.13114819E+00 0.22228361E+04</pdfrwt>
<totfact> 0.69946450E+00</totfact>
</mgrwt>
</event>
<event>
12    7  0.1740517E-007  0.3585477E+04  0.7818608E-02  0.8093826E-01
         -3   -1    0    0    0  501 -0.00000000000E+00  0.00000000000E+00  0.12808631120E+04  0.12808631120E+04  0.00000000000E+00 0.  1.
          2   -1    0    0  501    0  0.00000000000E+00 -0.00000000000E+00 -0.25091761316E+04  0.25091761316E+04  0.00000000000E+00 0. -1.
         24    2    1    2    0    0 -0.10889416528E+04 -0.42924572262E+03 -0.18460299013E+04  0.21872657504E+04  0.79115439468E+02 0.  0.
        254    2    1    2    0    0  0.10889416528E+04  0.42924572262E+03  0.61771688167E+03  0.16027734932E+04  0.90402594597E+03 0.  0.
         23    2    4    4    0    0 -0.27735070525E+02 -0.16818040566E+03  0.59687095169E+01  0.19335775240E+03  0.91091777526E+02 0.  0.
         23    2    4    4    0    0  0.11166767233E+04  0.59742612828E+03  0.61174817215E+03  0.14094157408E+04  0.91279905335E+02 0.  0.
          4    1    3    3  502    0 -0.54757317950E+02 -0.97530756013E+01 -0.66012727321E+02  0.86320139719E+02  0.00000000000E+00 0. -1.
         -3    1    3    3    0  502 -0.10341843348E+04 -0.41949264702E+03 -0.17800171740E+04  0.21009456107E+04  0.00000000000E+00 0.  1.
         13    1    5    5    0    0 -0.52593350900E+02 -0.15235118071E+03  0.16605084902E+02  0.16202676219E+03  0.00000000000E+00 0.  1.
        -13    1    5    5    0    0  0.24858280374E+02 -0.15829224953E+02 -0.10636375385E+02  0.31330990203E+02  0.00000000000E+00 0. -1.
          4    1    6    6  503    0  0.65841650903E+03  0.33488434068E+03  0.40345582297E+03  0.84168665315E+03  0.00000000000E+00 0.  1.
         -4    1    6    6    0  503  0.45826021425E+03  0.26254178760E+03  0.20829234918E+03  0.56772908762E+03  0.00000000000E+00 0. -1.
<mgrwt>
<rscale>  0 0.35854769E+04</rscale>
<asrwt>0</asrwt>
<pdfrwt beam="1">  1        2 0.38602710E+00 0.35854769E+04</pdfrwt>
<pdfrwt beam="2">  1       -3 0.19705586E+00 0.35854769E+04</pdfrwt>
<totfact> 0.27176901E-01</totfact>
</mgrwt>
</event>
<event>
12    7  0.1740517E-007  0.2731702E+04  0.7818608E-02  0.8324792E-01
          2   -1    0    0  501    0  0.00000000000E+00  0.00000000000E+00  0.31225375641E+04  0.31225375641E+04  0.00000000000E+00 0. -1.
         -1   -1    0    0    0  501 -0.00000000000E+00 -0.00000000000E+00 -0.59744630913E+03  0.59744630913E+03  0.00000000000E+00 0.  1.
         24    2    1    2    0    0 -0.10182278210E+04  0.22183256376E+03  0.19788875321E+04  0.22377492226E+04  0.74351441617E+02 0.  0.
        254    2    1    2    0    0  0.10182278210E+04 -0.22183256376E+03  0.54620372287E+03  0.14822346506E+04  0.90148958436E+03 0.  0.
         23    2    4    4    0    0  0.21591586998E+03  0.32566346301E+03  0.17236139210E+03  0.43720975054E+03  0.93635262776E+02 0.  0.
         23    2    4    4    0    0  0.80231195104E+03 -0.54749602677E+03  0.37384233078E+03  0.10450249001E+04  0.94141315839E+02 0.  0.
          4    1    3    3  502    0 -0.96569813129E+03  0.22684624389E+03  0.18769172479E+04  0.21229343971E+04  0.00000000000E+00 0. -1.
         -3    1    3    3    0  502 -0.52529689724E+02 -0.50136801300E+01  0.10197028420E+03  0.11481482549E+03  0.00000000000E+00 0.  1.
         13    1    5    5    0    0  0.12016024614E+02 -0.12702857031E+01  0.18974165686E+02  0.22494831334E+02  0.00000000000E+00 0. -1.
        -13    1    5    5    0    0  0.20389984536E+03  0.32693374871E+03  0.15338722641E+03  0.41471491920E+03  0.00000000000E+00 0.  1.
          2    1    6    6  503    0  0.70584563600E+03 -0.51579523420E+03  0.33959949342E+03  0.93786491640E+03  0.00000000000E+00 0. -1.
         -2    1    6    6    0  503  0.96466315045E+02 -0.31700792571E+02  0.34242837358E+02  0.10715998366E+03  0.00000000000E+00 0.  1.
<mgrwt>
<rscale>  0 0.27317017E+04</rscale>
<asrwt>0</asrwt>
<pdfrwt beam="1">  1        2 0.48039039E+00 0.27317017E+04</pdfrwt>
<pdfrwt beam="2">  1       -1 0.91914818E-01 0.27317017E+04</pdfrwt>
<totfact> 0.16685945E+00</totfact>
</mgrwt>
</event>
<event>
12    7  0.1740517E-007  0.1879864E+04  0.7818608E-02  0.8664945E-01
          2   -1    0    0  501    0  0.00000000000E+00  0.00000000000E+00  0.21690736982E+04  0.21690736982E+04  0.00000000000E+00 0. -1.
         -1   -1    0    0    0  501 -0.00000000000E+00 -0.00000000000E+00 -0.40730378100E+03  0.40730378100E+03  0.00000000000E+00 0.  1.
         24    2    1    2    0    0  0.25326717434E+03 -0.56525045748E+03  0.14410407530E+03  0.64100866432E+03  0.80459815608E+02 0.  0.
        254    2    1    2    0    0 -0.25326717434E+03  0.56525045748E+03  0.16176658419E+04  0.19353688149E+04  0.86322496043E+03 0.  0.
         23    2    4    4    0    0 -0.52909801331E+03  0.43088669870E+03  0.13549724554E+04  0.15197490742E+04  0.89882362116E+02 0.  0.
         23    2    4    4    0    0  0.27583083898E+03  0.13436375878E+03  0.26269338658E+03  0.41561974069E+03  0.97957552517E+02 0.  0.
          2    1    3    3  502    0  0.16348587846E+03 -0.26724733904E+03  0.77412825243E+02  0.32270964999E+03  0.00000000000E+00 0. -1.
         -1    1    3    3    0  502  0.89781295878E+02 -0.29800311844E+03  0.66691250053E+02  0.31829901433E+03  0.00000000000E+00 0.  1.
         13    1    5    5    0    0 -0.14843272125E+03  0.13923868970E+03  0.49310080352E+03  0.53344923646E+03  0.00000000000E+00 0. -1.
        -13    1    5    5    0    0 -0.38066529206E+03  0.29164800900E+03  0.86187165185E+03  0.98629983777E+03  0.00000000000E+00 0.  1.
          3    1    6    6  503    0 -0.54538944626E+01 -0.30089729367E+01  0.15647015365E+02  0.16841258052E+02  0.00000000000E+00 0. -1.
         -3    1    6    6    0  503  0.28128473344E+03  0.13737273172E+03  0.24704637121E+03  0.39877848264E+03  0.00000000000E+00 0.  1.
<mgrwt>
<rscale>  0 0.18798637E+04</rscale>
<asrwt>0</asrwt>
<pdfrwt beam="1">  1        2 0.33370364E+00 0.18798637E+04</pdfrwt>
<pdfrwt beam="2">  1       -1 0.62662121E-01 0.18798637E+04</pdfrwt>
<totfact> 0.14831513E+01</totfact>
</mgrwt>
</event>
<event>
12    7  0.1740517E-007  0.1978190E+04  0.7818608E-02  0.8616886E-01
         -1   -1    0    0    0  501 -0.00000000000E+00  0.00000000000E+00  0.50977251933E+03  0.50977251933E+03  0.00000000000E+00 0.  1.
          2   -1    0    0  501    0  0.00000000000E+00 -0.00000000000E+00 -0.19191082606E+04  0.19191082606E+04  0.00000000000E+00 0. -1.
         24    2    1    2    0    0  0.81011701184E+02  0.31567852727E+03 -0.14176802885E+04  0.14568935217E+04  0.80656710644E+02 0.  0.
        254    2    1    2    0    0 -0.81011701184E+02 -0.31567852727E+03  0.83445472585E+01  0.97198725816E+03  0.91568213385E+03 0.  0.
         23    2    4    4    0    0  0.21317722056E+03  0.23456882463E+03  0.76290050751E+02  0.33821393724E+03  0.90007969925E+02 0.  0.
         23    2    4    4    0    0 -0.29418892174E+03 -0.55024735189E+03 -0.67945503492E+02  0.63377332091E+03  0.87936118373E+02 0.  0.
          2    1    3    3  502    0  0.45169217513E+01  0.16009522236E+03 -0.76450221580E+03  0.78109827856E+03  0.00000000000E+00 0. -1.
         -1    1    3    3    0  502  0.76494779433E+02  0.15558330490E+03 -0.65317807269E+03  0.67579524316E+03  0.00000000000E+00 0.  1.
         13    1    5    5    0    0  0.21097266587E+03  0.19761741923E+03  0.51395616094E+02  0.29360452905E+03  0.00000000000E+00 0. -1.
        -13    1    5    5    0    0  0.22045546900E+01  0.36951405398E+02  0.24894434656E+02  0.44609408191E+02  0.00000000000E+00 0.  1.
          1    1    6    6  503    0 -0.62201277808E+02 -0.80674646417E+02  0.16686236661E+02  0.10322707024E+03  0.00000000000E+00 0. -1.
         -1    1    6    6    0  503 -0.23198764393E+03 -0.46957270548E+03 -0.84631740153E+02  0.53054625068E+03  0.00000000000E+00 0.  1.
<mgrwt>
<rscale>  0 0.19781897E+04</rscale>
<asrwt>0</asrwt>
<pdfrwt beam="1">  1        2 0.29524743E+00 0.19781897E+04</pdfrwt>
<pdfrwt beam="2">  1       -1 0.78426540E-01 0.19781897E+04</pdfrwt>
<totfact> 0.12777751E+01</totfact>
</mgrwt>
</event>
<event>
12    7  0.1740517E-007  0.1122856E+04  0.7818608E-02  0.9183197E-01
          2   -1    0    0  501    0  0.00000000000E+00  0.00000000000E+00  0.12546323961E+04  0.12546323961E+04  0.00000000000E+00 0. -1.
         -1   -1    0    0    0  501 -0.00000000000E+00 -0.00000000000E+00 -0.25123004322E+03  0.25123004322E+03  0.00000000000E+00 0.  1.
         24    2    1    2    0    0 -0.19218204761E+03  0.65315109043E+02  0.33131175617E+02  0.22171827137E+03  0.82833049962E+02 0.  0.
        254    2    1    2    0    0  0.19218204761E+03 -0.65315109043E+02  0.97027117729E+03  0.12841441680E+04  0.81633331660E+03 0.  0.
         23    2    4    4    0    0  0.23302580499E+03  0.33838748109E+03  0.55429810070E+03  0.69608187025E+03  0.92067760368E+02 0.  0.
         23    2    4    4    0    0 -0.40843757376E+02 -0.40370259013E+03  0.41597307659E+03  0.58806229774E+03  0.90220129561E+02 0.  0.
          2    1    3    3  502    0 -0.61621928540E+01 -0.13995946408E+02  0.97810432700E+01  0.18152904563E+02  0.00000000000E+00 0. -1.
         -1    1    3    3    0  502 -0.18601985476E+03  0.79311055451E+02  0.23350132347E+02  0.20356536680E+03  0.00000000000E+00 0.  1.
         13    1    5    5    0    0  0.70333102082E+02  0.17336266695E+03  0.28346077562E+03  0.33963417210E+03  0.00000000000E+00 0.  1.
        -13    1    5    5    0    0  0.16269270291E+03  0.16502481414E+03  0.27083732508E+03  0.35644769815E+03  0.00000000000E+00 0. -1.
          3    1    6    6  503    0 -0.64472352395E+02 -0.36159188594E+03  0.37151510167E+03  0.52242592487E+03  0.00000000000E+00 0. -1.
         -3    1    6    6    0  503  0.23628595019E+02 -0.42110704185E+02  0.44457974919E+02  0.65636372869E+02  0.00000000000E+00 0.  1.
<mgrwt>
<rscale>  0 0.11228559E+04</rscale>
<asrwt>0</asrwt>
<pdfrwt beam="1">  1        2 0.19302037E+00 0.11228559E+04</pdfrwt>
<pdfrwt beam="2">  1       -1 0.38650777E-01 0.11228559E+04</pdfrwt>
<totfact> 0.12871443E+02</totfact>
</mgrwt>
</event>
<event>
12    7  0.1740517E-007  0.2972451E+04  0.7818608E-02  0.8251642E-01
          2   -1    0    0  501    0  0.00000000000E+00  0.00000000000E+00  0.35204932113E+04  0.35204932113E+04  0.00000000000E+00 0. -1.
         -1   -1    0    0    0  501 -0.00000000000E+00 -0.00000000000E+00 -0.62743094540E+03  0.62743094540E+03  0.00000000000E+00 0.  1.
         24    2    1    2    0    0  0.82192004933E+03  0.40746377403E+03 -0.66070374243E+02  0.92322184291E+03  0.79962380151E+02 0.  0.
        254    2    1    2    0    0 -0.82192004933E+03 -0.40746377403E+03  0.29591326401E+04  0.32247023138E+04  0.89479591861E+03 0.  0.
         23    2    4    4    0    0 -0.14576000363E+03  0.20495902722E+03  0.13198785499E+04  0.13467018690E+04  0.90952492609E+02 0.  0.
         23    2    4    4    0    0 -0.67616004570E+03 -0.61242280125E+03  0.16392540903E+04  0.18780004448E+04  0.86473137247E+02 0.  0.
          2    1    3    3  502    0  0.18947140142E+03  0.58145148244E+02 -0.21218672720E+02  0.19932511706E+03  0.00000000000E+00 0. -1.
         -1    1    3    3    0  502  0.63244864791E+03  0.34931862579E+03 -0.44851701524E+02  0.72389672585E+03  0.00000000000E+00 0.  1.
         13    1    5    5    0    0 -0.11905168253E+03  0.19597057228E+03  0.10176867928E+04  0.10431990110E+04  0.00000000000E+00 0.  1.
        -13    1    5    5    0    0 -0.26708321097E+02  0.89884549374E+01  0.30219175708E+03  0.30350285795E+03  0.00000000000E+00 0. -1.
          3    1    6    6  503    0 -0.11997404195E+03 -0.11880845562E+03  0.37495324488E+03  0.41121667733E+03  0.00000000000E+00 0. -1.
         -3    1    6    6    0  503 -0.55618600375E+03 -0.49361434563E+03  0.12643008454E+04  0.14667837675E+04  0.00000000000E+00 0.  1.
<mgrwt>
<rscale>  0 0.29724511E+04</rscale>
<asrwt>0</asrwt>
<pdfrwt beam="1">  1        2 0.54161433E+00 0.29724511E+04</pdfrwt>
<pdfrwt beam="2">  1       -1 0.96527840E-01 0.29724511E+04</pdfrwt>
<totfact> 0.79125540E-01</totfact>
</mgrwt>
</event>
<event>
12    7  0.1740517E-007  0.2031516E+04  0.7818608E-02  0.8592026E-01
          2   -1    0    0  501    0  0.00000000000E+00  0.00000000000E+00  0.51381383949E+04  0.51381383949E+04  0.00000000000E+00 0. -1.
         -1   -1    0    0    0  501 -0.00000000000E+00 -0.00000000000E+00 -0.20080514051E+03  0.20080514051E+03  0.00000000000E+00 0.  1.
         24    2    1    2    0    0 -0.56454402224E+03 -0.58718649339E+03  0.19608628482E+04  0.21247771253E+04  0.78719702454E+02 0.  0.
        254    2    1    2    0    0  0.56454402224E+03  0.58718649339E+03  0.29764704062E+04  0.32141664101E+04  0.89888358649E+03 0.  0.
         23    2    4    4    0    0  0.15913231130E+03  0.52871227641E+03  0.68633439395E+03  0.88555067986E+03  0.91023857022E+02 0.  0.
         23    2    4    4    0    0  0.40541171093E+03  0.58474216981E+02  0.22901360122E+04  0.23286157303E+04  0.99751568169E+02 0.  0.
          2    1    3    3  502    0 -0.21734167481E+03 -0.23460220453E+03  0.67304234266E+03  0.74515877033E+03  0.00000000000E+00 0. -1.
         -1    1    3    3    0  502 -0.34720234743E+03 -0.35258428885E+03  0.12878205055E+04  0.13796183549E+04  0.00000000000E+00 0.  1.
         13    1    5    5    0    0  0.16050655666E+03  0.48301619451E+03  0.59201699194E+03  0.78073754722E+03  0.00000000000E+00 0. -1.
        -13    1    5    5    0    0 -0.13742453515E+01  0.45696081892E+02  0.94317402015E+02  0.10481313264E+03  0.00000000000E+00 0.  1.
          1    1    6    6  503    0  0.22056266146E+03  0.27871216973E+02  0.96362582211E+03  0.98893853065E+03  0.00000000000E+00 0.  1.
         -1    1    6    6    0  503  0.18484904947E+03  0.30603000009E+02  0.13265101901E+04  0.13396771996E+04  0.00000000000E+00 0. -1.
<mgrwt>
<rscale>  0 0.20315163E+04</rscale>
<asrwt>0</asrwt>
<pdfrwt beam="1">  1        2 0.79048273E+00 0.20315163E+04</pdfrwt>
<pdfrwt beam="2">  1       -1 0.30893102E-01 0.20315163E+04</pdfrwt>
<totfact> 0.23677637E-01</totfact>
</mgrwt>
</event>
<event>
12    7  0.1740517E-007  0.2845484E+04  0.7818608E-02  0.8289285E-01
         -1   -1    0    0    0  501 -0.00000000000E+00  0.00000000000E+00  0.12972866880E+04  0.12972866880E+04  0.00000000000E+00 0.  1.
          2   -1    0    0  501    0  0.00000000000E+00 -0.00000000000E+00 -0.15603300412E+04  0.15603300412E+04  0.00000000000E+00 0. -1.
         24    2    1    2    0    0  0.11400684056E+04  0.46382898298E+03  0.24004496410E+03  0.12564498829E+04  0.78431043804E+02 0.  0.
        254    2    1    2    0    0 -0.11400684056E+04 -0.46382898298E+03 -0.50308831723E+03  0.16011668463E+04  0.89204490908E+03 0.  0.
         23    2    4    4    0    0 -0.65327116696E+03 -0.59073012771E+03 -0.19783415971E+01  0.88548615217E+03  0.91413951194E+02 0.  0.
         23    2    4    4    0    0 -0.48679723861E+03  0.12690114474E+03 -0.50110997563E+03  0.71568069410E+03  0.89510871810E+02 0.  0.
          4    1    3    3  502    0  0.89257051426E+02  0.37652057068E+02  0.40885562598E+02  0.10514812342E+03  0.00000000000E+00 0. -1.
         -3    1    3    3    0  502  0.10508113541E+04  0.42617692591E+03  0.19915940151E+03  0.11513017595E+04  0.00000000000E+00 0.  1.
         13    1    5    5    0    0 -0.19656340621E+03 -0.12825201916E+03  0.16144783145E+02  0.23525817118E+03  0.00000000000E+00 0. -1.
        -13    1    5    5    0    0 -0.45670776075E+03 -0.46247810855E+03 -0.18123124742E+02  0.65022798099E+03  0.00000000000E+00 0.  1.
          1    1    6    6  503    0 -0.11730912132E+03  0.27406476921E+02 -0.17759904906E+03  0.21460188058E+03  0.00000000000E+00 0. -1.
         -1    1    6    6    0  503 -0.36948811730E+03  0.99494667816E+02 -0.32351092657E+03  0.50107881352E+03  0.00000000000E+00 0.  1.
<mgrwt>
<rscale>  0 0.28454844E+04</rscale>
<asrwt>0</asrwt>
<pdfrwt beam="1">  1        2 0.24005078E+00 0.28454844E+04</pdfrwt>
<pdfrwt beam="2">  1       -1 0.19958257E+00 0.28454844E+04</pdfrwt>
<totfact> 0.17554986E+00</totfact>
</mgrwt>
</event>
<event>
12    7  0.1740517E-007  0.1436931E+04  0.7818608E-02  0.8927511E-01
          2   -1    0    0  501    0  0.00000000000E+00  0.00000000000E+00  0.91706679788E+03  0.91706679788E+03  0.00000000000E+00 0. -1.
         -1   -1    0    0    0  501 -0.00000000000E+00 -0.00000000000E+00 -0.56287393280E+03  0.56287393280E+03  0.00000000000E+00 0.  1.
         24    2    1    2    0    0 -0.28979416446E+03  0.37408384187E+02  0.44422796708E+03  0.53774983820E+03  0.80351457865E+02 0.  0.
        254    2    1    2    0    0  0.28979416446E+03 -0.37408384187E+02 -0.90035101999E+02  0.94219089248E+03  0.89119992892E+03 0.  0.
         23    2    4    4    0    0 -0.11895774676E+03  0.33492274889E+03  0.28992609529E+02  0.36806047498E+03  0.91124906558E+02 0.  0.
         23    2    4    4    0    0  0.40875191123E+03 -0.37233113307E+03 -0.11902771153E+03  0.57413041750E+03  0.98739772139E+02 0.  0.
          4    1    3    3  502    0 -0.11317049634E+03 -0.64978120120E+01  0.23169957793E+03  0.25794277895E+03  0.00000000000E+00 0. -1.
         -3    1    3    3    0  502 -0.17662366813E+03  0.43906196199E+02  0.21252838915E+03  0.27980705924E+03  0.00000000000E+00 0.  1.
         13    1    5    5    0    0  0.18048613414E+01  0.10402947541E+02 -0.15707307685E+02  0.18926128942E+02  0.00000000000E+00 0. -1.
        -13    1    5    5    0    0 -0.12076260810E+03  0.32451980135E+03  0.44699917214E+02  0.34913434603E+03  0.00000000000E+00 0.  1.
          3    1    6    6  503    0  0.14947715798E+02 -0.37082998089E+02 -0.28472844314E+02  0.49084476346E+02  0.00000000000E+00 0. -1.
         -3    1    6    6    0  503  0.39380419543E+03 -0.33524813499E+03 -0.90554867214E+02  0.52504594116E+03  0.00000000000E+00 0.  1.
<mgrwt>
<rscale>  0 0.14369314E+04</rscale>
<asrwt>0</asrwt>
<pdfrwt beam="1">  1        2 0.14108720E+00 0.14369314E+04</pdfrwt>
<pdfrwt beam="2">  1       -1 0.86595990E-01 0.14369314E+04</pdfrwt>
<totfact> 0.41601604E+01</totfact>
</mgrwt>
</event>
<event>
12    7  0.1740517E-007  0.1652116E+04  0.7818608E-02  0.8789156E-01
         -1   -1    0    0    0  501 -0.00000000000E+00  0.00000000000E+00  0.67946408633E+03  0.67946408633E+03  0.00000000000E+00 0.  1.
          2   -1    0    0  501    0  0.00000000000E+00 -0.00000000000E+00 -0.10042789762E+04  0.10042789762E+04  0.00000000000E+00 0. -1.
         24    2    1    2    0    0 -0.22256646592E+03  0.20361651102E+03 -0.58750120135E+03  0.66525750253E+03  0.80089748161E+02 0.  0.
        254    2    1    2    0    0  0.22256646592E+03 -0.20361651102E+03  0.26268631145E+03  0.10184855600E+04  0.93664999998E+03 0.  0.
         23    2    4    4    0    0  0.21111198191E+03 -0.48440667341E+03 -0.10577052241E+03  0.54669906078E+03  0.92056316990E+02 0.  0.
         23    2    4    4    0    0  0.11454484015E+02  0.28079016239E+03  0.36845683386E+03  0.47178649926E+03  0.88587481976E+02 0.  0.
          2    1    3    3  502    0 -0.19892177963E+03  0.20746885865E+03 -0.55328803115E+03  0.62349085570E+03  0.00000000000E+00 0. -1.
         -1    1    3    3    0  502 -0.23644686296E+02 -0.38523476259E+01 -0.34213170200E+02  0.41766646830E+02  0.00000000000E+00 0.  1.
         13    1    5    5    0    0  0.45871657509E+02 -0.21878603683E+03 -0.43207659750E+02  0.22768056732E+03  0.00000000000E+00 0. -1.
        -13    1    5    5    0    0  0.16524032440E+03 -0.26562063658E+03 -0.62562862658E+02  0.31901849346E+03  0.00000000000E+00 0.  1.
          3    1    6    6  503    0 -0.98745685444E+01  0.26881407383E+03  0.34835832117E+03  0.44012729218E+03  0.00000000000E+00 0. -1.
         -3    1    6    6    0  503  0.21329052559E+02  0.11976088556E+02  0.20098512690E+02  0.31659207073E+02  0.00000000000E+00 0.  1.
<mgrwt>
<rscale>  0 0.16521156E+04</rscale>
<asrwt>0</asrwt>
<pdfrwt beam="1">  1        2 0.15450446E+00 0.16521156E+04</pdfrwt>
<pdfrwt beam="2">  1       -1 0.10453294E+00 0.16521156E+04</pdfrwt>
<totfact> 0.23467341E+01</totfact>
</mgrwt>
</event>
<event>
12    7  0.1740517E-007  0.2845910E+04  0.7818608E-02  0.8289155E-01
         -1   -1    0    0    0  501 -0.00000000000E+00  0.00000000000E+00  0.87183280489E+03  0.87183280489E+03  0.00000000000E+00 0.  1.
          2   -1    0    0  501    0  0.00000000000E+00 -0.00000000000E+00 -0.23224654610E+04  0.23224654610E+04  0.00000000000E+00 0. -1.
         24    2    1    2    0    0  0.20751555040E+03 -0.12240567378E+04 -0.35735438830E+03  0.12946580980E+04  0.84022800232E+02 0.  0.
        254    2    1    2    0    0 -0.20751555040E+03  0.12240567378E+04 -0.10932782678E+04  0.18996401678E+04  0.93380822198E+03 0.  0.
         23    2    4    4    0    0  0.11525036669E+03  0.10484440192E+04 -0.10914616691E+04  0.15209697823E+04  0.97688255867E+02 0.  0.
         23    2    4    4    0    0 -0.32276591709E+03  0.17561271857E+03 -0.18165987150E+01  0.37867038548E+03  0.91489325316E+02 0.  0.
          2    1    3    3  502    0  0.15051657853E+03 -0.72066752819E+03 -0.24323160019E+03  0.77535703900E+03  0.00000000000E+00 0. -1.
         -1    1    3    3    0  502  0.56998971870E+02 -0.50338920960E+03 -0.11412278811E+03  0.51930105903E+03  0.00000000000E+00 0.  1.
         13    1    5    5    0    0  0.32592377563E+02  0.25118390343E+03 -0.32405105334E+03  0.41129636710E+03  0.00000000000E+00 0.  1.
        -13    1    5    5    0    0  0.82657989124E+02  0.79726011579E+03 -0.76741061571E+03  0.11096734152E+04  0.00000000000E+00 0. -1.
          1    1    6    6  503    0 -0.29014410979E+03  0.15744338683E+03 -0.30599381107E+02  0.33152427758E+03  0.00000000000E+00 0. -1.
         -1    1    6    6    0  503 -0.32621807305E+02  0.18169331743E+02  0.28782782392E+02  0.47146107899E+02  0.00000000000E+00 0.  1.
<mgrwt>
<rscale>  0 0.28459105E+04</rscale>
<asrwt>0</asrwt>
<pdfrwt beam="1">  1        2 0.35730237E+00 0.28459105E+04</pdfrwt>
<pdfrwt beam="2">  1       -1 0.13412813E+00 0.28459105E+04</pdfrwt>
<totfact> 0.20319997E+00</totfact>
</mgrwt>
</event>
<event>
12    7  0.1740517E-007  0.2262982E+04  0.7818608E-02  0.8492662E-01
         -1   -1    0    0    0  501 -0.00000000000E+00  0.00000000000E+00  0.68078860748E+03  0.68078860748E+03  0.00000000000E+00 0.  1.
          2   -1    0    0  501    0  0.00000000000E+00 -0.00000000000E+00 -0.18805710803E+04  0.18805710803E+04  0.00000000000E+00 0. -1.
         24    2    1    2    0    0 -0.12553638404E+03  0.76794602824E+03  0.11725279400E+03  0.79108248466E+03  0.81011072199E+02 0.  0.
        254    2    1    2    0    0  0.12553638404E+03 -0.76794602824E+03 -0.13170352668E+04  0.17702772031E+04  0.89095398073E+03 0.  0.
         23    2    4    4    0    0 -0.59813763445E+02 -0.41957891107E+03 -0.12947820198E+04  0.13653709718E+04  0.90295419267E+02 0.  0.
         23    2    4    4    0    0  0.18535014749E+03 -0.34836711718E+03 -0.22253246948E+02  0.40490623131E+03  0.87974562537E+02 0.  0.
          4    1    3    3  502    0 -0.55804351221E+01  0.14389173707E+03  0.48249880309E+02  0.15186844373E+03  0.00000000000E+00 0. -1.
         -3    1    3    3    0  502 -0.11995594892E+03  0.62405429118E+03  0.69002913693E+02  0.63921404093E+03  0.00000000000E+00 0.  1.
         13    1    5    5    0    0  0.12665499777E+02 -0.13942525636E+02 -0.93594431161E+02  0.95471076510E+02  0.00000000000E+00 0.  1.
        -13    1    5    5    0    0 -0.72479263222E+02 -0.40563638543E+03 -0.12011875887E+04  0.12698998953E+04  0.00000000000E+00 0. -1.
          2    1    6    6  503    0  0.10464310552E+03 -0.17814006941E+03 -0.54752713219E+02  0.21373329986E+03  0.00000000000E+00 0. -1.
         -2    1    6    6    0  503  0.80707041964E+02 -0.17022704776E+03  0.32499466271E+02  0.19117293146E+03  0.00000000000E+00 0.  1.
<mgrwt>
<rscale>  0 0.22629815E+04</rscale>
<asrwt>0</asrwt>
<pdfrwt beam="1">  1        2 0.28931862E+00 0.22629815E+04</pdfrwt>
<pdfrwt beam="2">  1       -1 0.10473671E+00 0.22629815E+04</pdfrwt>
<totfact> 0.69002710E+00</totfact>
</mgrwt>
</event>
<event>
12    7  0.1740517E-007  0.2819074E+04  0.7818608E-02  0.8297371E-01
         -1   -1    0    0    0  501 -0.00000000000E+00  0.00000000000E+00  0.13746531752E+04  0.13746531752E+04  0.00000000000E+00 0.  1.
          2   -1    0    0  501    0  0.00000000000E+00 -0.00000000000E+00 -0.14453063381E+04  0.14453063381E+04  0.00000000000E+00 0. -1.
         24    2    1    2    0    0 -0.75857280887E+03  0.53794380729E+03  0.82198841166E+03  0.12437279984E+04  0.79863251295E+02 0.  0.
        254    2    1    2    0    0  0.75857280887E+03 -0.53794380729E+03 -0.89264157458E+03  0.15762315149E+04  0.90712764350E+03 0.  0.
         23    2    4    4    0    0  0.48369397964E+03 -0.75926016677E+03 -0.78001242799E+03  0.11946037619E+04  0.90680171167E+02 0.  0.
         23    2    4    4    0    0  0.27487882923E+03  0.22131635948E+03 -0.11262914659E+03  0.38162775292E+03  0.91733938125E+02 0.  0.
          2    1    3    3  502    0 -0.43559808051E+03  0.35632776549E+03  0.50294055409E+03  0.75476113119E+03  0.00000000000E+00 0. -1.
         -1    1    3    3    0  502 -0.32297472836E+03  0.18161604180E+03  0.31904785757E+03  0.48896686720E+03  0.00000000000E+00 0.  1.
         13    1    5    5    0    0  0.32795906786E+03 -0.45065339042E+03 -0.44480307221E+03  0.71308863512E+03  0.00000000000E+00 0. -1.
        -13    1    5    5    0    0  0.15573491178E+03 -0.30860677635E+03 -0.33520935578E+03  0.48151512682E+03  0.00000000000E+00 0.  1.
          2    1    6    6  503    0  0.11439487834E+03  0.12280152074E+03 -0.12349328630E+02  0.16828222605E+03  0.00000000000E+00 0. -1.
         -2    1    6    6    0  503  0.16048395089E+03  0.98514838741E+02 -0.10027981796E+03  0.21334552687E+03  0.00000000000E+00 0.  1.
<mgrwt>
<rscale>  0 0.28190743E+04</rscale>
<asrwt>0</asrwt>
<pdfrwt beam="1">  1        2 0.22235482E+00 0.28190743E+04</pdfrwt>
<pdfrwt beam="2">  1       -1 0.21148511E+00 0.28190743E+04</pdfrwt>
<totfact> 0.16944999E+00</totfact>
</mgrwt>
</event>
<event>
12    7  0.1740517E-007  0.1555322E+04  0.7818608E-02  0.8848476E-01
         -1   -1    0    0    0  501 -0.00000000000E+00  0.00000000000E+00  0.49485344040E+03  0.49485344040E+03  0.00000000000E+00 0.  1.
          2   -1    0    0  501    0  0.00000000000E+00 -0.00000000000E+00 -0.12220919732E+04  0.12220919732E+04  0.00000000000E+00 0. -1.
         24    2    1    2    0    0  0.26525635732E+03  0.26847121355E+03  0.14568840875E+03  0.41226179399E+03  0.79353303246E+02 0.  0.
        254    2    1    2    0    0 -0.26525635732E+03 -0.26847121355E+03 -0.87292694159E+03  0.13046836197E+04  0.89317421281E+03 0.  0.
         23    2    4    4    0    0  0.33677270976E+02 -0.27906135499E+03  0.77933082179E+02  0.30367976258E+03  0.84489256536E+02 0.  0.
         23    2    4    4    0    0 -0.29893362829E+03  0.10590141440E+02 -0.95086002376E+03  0.10010038571E+04  0.91654088085E+02 0.  0.
          4    1    3    3  502    0  0.40832364364E+02  0.29616486077E+02  0.49545439047E+02  0.70704800102E+02  0.00000000000E+00 0. -1.
         -3    1    3    3    0  502  0.22442399295E+03  0.23885472747E+03  0.96142969704E+02  0.34155699389E+03  0.00000000000E+00 0.  1.
         13    1    5    5    0    0  0.15140273844E+02 -0.14150569839E+01  0.29518475705E+01  0.15490115636E+02  0.00000000000E+00 0.  1.
        -13    1    5    5    0    0  0.18536997133E+02 -0.27764629801E+03  0.74981234609E+02  0.28818964694E+03  0.00000000000E+00 0. -1.
          4    1    6    6  503    0 -0.18158531860E+03  0.77318062572E+01 -0.71239179774E+03  0.73521091005E+03  0.00000000000E+00 0.  1.
         -4    1    6    6    0  503 -0.11734830969E+03  0.28583351832E+01 -0.23846822602E+03  0.26579294703E+03  0.00000000000E+00 0. -1.
<mgrwt>
<rscale>  0 0.15553217E+04</rscale>
<asrwt>0</asrwt>
<pdfrwt beam="1">  1        2 0.18801415E+00 0.15553217E+04</pdfrwt>
<pdfrwt beam="2">  1       -1 0.76131299E-01 0.15553217E+04</pdfrwt>
<totfact> 0.34929376E+01</totfact>
</mgrwt>
</event>
<event>
12    7  0.1740517E-007  0.3741846E+04  0.7818608E-02  0.8058751E-01
         -1   -1    0    0    0  501 -0.00000000000E+00  0.00000000000E+00  0.18108180775E+04  0.18108180775E+04  0.00000000000E+00 0.  1.
          2   -1    0    0  501    0  0.00000000000E+00 -0.00000000000E+00 -0.19330229316E+04  0.19330229316E+04  0.00000000000E+00 0. -1.
         24    2    1    2    0    0 -0.46594053694E+03 -0.11637574613E+04 -0.12960005076E+04  0.18047831446E+04  0.78694794500E+02 0.  0.
        254    2    1    2    0    0  0.46594053694E+03  0.11637574613E+04  0.11737956536E+04  0.19390578645E+04  0.90039833000E+03 0.  0.
         23    2    4    4    0    0  0.80615534145E+02  0.93653665667E+03  0.36984389751E+03  0.10142342301E+04  0.91031815529E+02 0.  0.
         23    2    4    4    0    0  0.38532500279E+03  0.22722080467E+03  0.80395175607E+03  0.92482363434E+03  0.94104605057E+02 0.  0.
          4    1    3    3  502    0 -0.34988196406E+03 -0.93741053316E+03 -0.10023994487E+04  0.14163193676E+04  0.00000000000E+00 0. -1.
         -3    1    3    3    0  502 -0.11605857287E+03 -0.22634692818E+03 -0.29360105895E+03  0.38846377701E+03  0.00000000000E+00 0.  1.
         13    1    5    5    0    0  0.40534377831E+02  0.40009861117E+03  0.20638737246E+03  0.45201513465E+03  0.00000000000E+00 0. -1.
        -13    1    5    5    0    0  0.40081156314E+02  0.53643804550E+03  0.16345652505E+03  0.56221909549E+03  0.00000000000E+00 0.  1.
          1    1    6    6  503    0  0.31849944797E+01  0.99916983169E+01  0.58424462461E+02  0.59358201109E+02  0.00000000000E+00 0. -1.
         -1    1    6    6    0  503  0.38214000831E+03  0.21722910636E+03  0.74552729361E+03  0.86546543323E+03  0.00000000000E+00 0.  1.
<mgrwt>
<rscale>  0 0.37418460E+04</rscale>
<asrwt>0</asrwt>
<pdfrwt beam="1">  1        2 0.29738814E+00 0.37418460E+04</pdfrwt>
<pdfrwt beam="2">  1       -1 0.27858740E+00 0.37418460E+04</pdfrwt>
<totfact> 0.30327877E-01</totfact>
</mgrwt>
</event>
<event>
12    7  0.1740517E-007  0.2702440E+04  0.7818608E-02  0.8334214E-01
         -1   -1    0    0    0  501 -0.00000000000E+00  0.00000000000E+00  0.48263965293E+03  0.48263965293E+03  0.00000000000E+00 0.  1.
          2   -1    0    0  501    0  0.00000000000E+00 -0.00000000000E+00 -0.37829370676E+04  0.37829370676E+04  0.00000000000E+00 0. -1.
         24    2    1    2    0    0 -0.98378415307E+02 -0.11549334828E+04 -0.99393603151E+03  0.15290083448E+04  0.80050118387E+02 0.  0.
        254    2    1    2    0    0  0.98378415307E+02  0.11549334828E+04 -0.23063613832E+04  0.27365683757E+04  0.90882010480E+03 0.  0.
         23    2    4    4    0    0 -0.27844767934E+03  0.97170248079E+03 -0.18509840693E+04  0.21109268203E+04  0.90173136909E+02 0.  0.
         23    2    4    4    0    0  0.37682609464E+03  0.18323100204E+03 -0.45537731389E+03  0.62564155543E+03  0.92126826507E+02 0.  0.
          4    1    3    3  502    0 -0.87774766644E+01 -0.23387291754E+02 -0.10296385521E+02  0.27018976054E+02  0.00000000000E+00 0. -1.
         -3    1    3    3    0  502 -0.89600938643E+02 -0.11315461911E+04 -0.98363964598E+03  0.15019893688E+04  0.00000000000E+00 0.  1.
         13    1    5    5    0    0 -0.17868663752E+03  0.75508135780E+03 -0.14405736580E+04  0.16362546365E+04  0.00000000000E+00 0. -1.
        -13    1    5    5    0    0 -0.99761041811E+02  0.21662112299E+03 -0.41041041128E+03  0.47467218381E+03  0.00000000000E+00 0.  1.
          1    1    6    6  503    0  0.30470391282E+03  0.17823779722E+03 -0.40646043520E+03  0.53835236809E+03  0.00000000000E+00 0. -1.
         -1    1    6    6    0  503  0.72122181822E+02  0.49932048130E+01 -0.48916878691E+02  0.87289187337E+02  0.00000000000E+00 0.  1.
<mgrwt>
<rscale>  0 0.27024400E+04</rscale>
<asrwt>0</asrwt>
<pdfrwt beam="1">  1        2 0.58199026E+00 0.27024400E+04</pdfrwt>
<pdfrwt beam="2">  1       -1 0.74252261E-01 0.27024400E+04</pdfrwt>
<totfact> 0.92188442E-01</totfact>
</mgrwt>
</event>
<event>
12    7  0.1740517E-007  0.1551479E+04  0.7818608E-02  0.8850924E-01
         -1   -1    0    0    0  501 -0.00000000000E+00  0.00000000000E+00  0.66694495815E+03  0.66694495815E+03  0.00000000000E+00 0.  1.
          2   -1    0    0  501    0  0.00000000000E+00 -0.00000000000E+00 -0.90228111268E+03  0.90228111268E+03  0.00000000000E+00 0. -1.
         24    2    1    2    0    0  0.31992773190E+03 -0.27597451734E+03 -0.36488862870E+03  0.56373063049E+03  0.78312352349E+02 0.  0.
        254    2    1    2    0    0 -0.31992773190E+03  0.27597451734E+03  0.12955247418E+03  0.10054954403E+04  0.90317304494E+03 0.  0.
         23    2    4    4    0    0 -0.45723013883E+03  0.52267911171E+03  0.73352864603E+02  0.70408256992E+03  0.89993160061E+02 0.  0.
         23    2    4    4    0    0  0.13730240693E+03 -0.24670459437E+03  0.56199609573E+02  0.30141287041E+03  0.89309655156E+02 0.  0.
          4    1    3    3  502    0  0.31030514408E+03 -0.27166283820E+03 -0.36800375094E+03  0.55273568801E+03  0.00000000000E+00 0. -1.
         -3    1    3    3    0  502  0.96225878252E+01 -0.43116791403E+01  0.31151222337E+01  0.10994942473E+02  0.00000000000E+00 0.  1.
         13    1    5    5    0    0 -0.17746519491E+03  0.25735255289E+03  0.59694336081E+01  0.31266574168E+03  0.00000000000E+00 0.  1.
        -13    1    5    5    0    0 -0.27976494391E+03  0.26532655881E+03  0.67383430995E+02  0.39141682824E+03  0.00000000000E+00 0. -1.
          1    1    6    6  503    0  0.13709424987E+03 -0.24876026079E+03  0.42072130148E+02  0.28713509857E+03  0.00000000000E+00 0. -1.
         -1    1    6    6    0  503  0.20815705468E+00  0.20556664242E+01  0.14127479425E+02  0.14277771840E+02  0.00000000000E+00 0.  1.
<mgrwt>
<rscale>  0 0.15514791E+04</rscale>
<asrwt>0</asrwt>
<pdfrwt beam="1">  1        2 0.13881248E+00 0.15514791E+04</pdfrwt>
<pdfrwt beam="2">  1       -1 0.10260692E+00 0.15514791E+04</pdfrwt>
<totfact> 0.28835704E+01</totfact>
</mgrwt>
</event>
<event>
12    7  0.1740517E-007  0.2334385E+04  0.7818608E-02  0.8464486E-01
          2   -1    0    0  501    0  0.00000000000E+00  0.00000000000E+00  0.15132344004E+04  0.15132344004E+04  0.00000000000E+00 0. -1.
         -1   -1    0    0    0  501 -0.00000000000E+00 -0.00000000000E+00 -0.90028211471E+03  0.90028211471E+03  0.00000000000E+00 0.  1.
         24    2    1    2    0    0  0.39059912893E+03 -0.17490658011E+03 -0.66541007052E+03  0.79527597887E+03  0.80829012893E+02 0.  0.
        254    2    1    2    0    0 -0.39059912893E+03  0.17490658011E+03  0.12783623562E+04  0.16182405362E+04  0.89517156347E+03 0.  0.
         23    2    4    4    0    0  0.19980887065E+03  0.29633623468E+03  0.61901288735E+03  0.72024921390E+03  0.88561993224E+02 0.  0.
         23    2    4    4    0    0 -0.59040799958E+03 -0.12142965457E+03  0.65934946883E+03  0.89799132230E+03  0.91213627916E+02 0.  0.
          2    1    3    3  502    0  0.70239705236E+02 -0.56679237538E+01 -0.14432362386E+03  0.16060837449E+03  0.00000000000E+00 0. -1.
         -1    1    3    3    0  502  0.32035942370E+03 -0.16923865636E+03 -0.52108644666E+03  0.63466760438E+03  0.00000000000E+00 0.  1.
         13    1    5    5    0    0  0.11550378895E+03  0.10558279954E+03  0.21942146343E+03  0.26950812870E+03  0.00000000000E+00 0. -1.
        -13    1    5    5    0    0  0.84305081695E+02  0.19075343514E+03  0.39959142393E+03  0.45074108521E+03  0.00000000000E+00 0.  1.
          3    1    6    6  503    0 -0.57409629637E+03 -0.11775092537E+03  0.61007556602E+03  0.84595746594E+03  0.00000000000E+00 0. -1.
         -3    1    6    6    0  503 -0.16311703210E+02 -0.36787292015E+01  0.49273902806E+02  0.52033856362E+02  0.00000000000E+00 0.  1.
<mgrwt>
<rscale>  0 0.23343846E+04</rscale>
<asrwt>0</asrwt>
<pdfrwt beam="1">  1        2 0.23280529E+00 0.23343846E+04</pdfrwt>
<pdfrwt beam="2">  1       -1 0.13850494E+00 0.23343846E+04</pdfrwt>
<totfact> 0.55393625E+00</totfact>
</mgrwt>
</event>
<event>
12    7  0.1740517E-007  0.1116199E+04  0.7818608E-02  0.9189545E-01
          4   -1    0    0  501    0  0.00000000000E+00  0.00000000000E+00  0.33825921890E+03  0.33825921890E+03  0.00000000000E+00 0. -1.
         -3   -1    0    0    0  501 -0.00000000000E+00 -0.00000000000E+00 -0.92081836942E+03  0.92081836942E+03  0.00000000000E+00 0.  1.
         24    2    1    2    0    0 -0.61183733564E+02  0.17113110469E+03 -0.84266404623E+02  0.21528502292E+03  0.78851188305E+02 0.  0.
        254    2    1    2    0    0  0.61183733564E+02 -0.17113110469E+03 -0.49829274590E+03  0.10437925654E+04  0.89898718275E+03 0.  0.
         23    2    4    4    0    0  0.35875952438E+03  0.20046948870E+03 -0.14871004801E+03  0.44641102628E+03  0.90948962439E+02 0.  0.
         23    2    4    4    0    0 -0.29757579081E+03 -0.37160059340E+03 -0.34958269788E+03  0.59738153914E+03  0.89544895744E+02 0.  0.
          2    1    3    3  502    0 -0.96897992627E+01  0.13465142641E+03 -0.57902691924E+02  0.14689322849E+03  0.00000000000E+00 0. -1.
         -1    1    3    3    0  502 -0.51493934302E+02  0.36479678283E+02 -0.26363712699E+02  0.68391794426E+02  0.00000000000E+00 0.  1.
         13    1    5    5    0    0  0.31543570458E+03  0.14514431799E+03 -0.10151005002E+03  0.36176075937E+03  0.00000000000E+00 0.  1.
        -13    1    5    5    0    0  0.43323819799E+02  0.55325170709E+02 -0.47199997991E+02  0.84650266901E+02  0.00000000000E+00 0. -1.
          4    1    6    6  503    0 -0.13904127059E+02 -0.64651311276E+02 -0.40374775196E+02  0.77480573508E+02  0.00000000000E+00 0. -1.
         -4    1    6    6    0  503 -0.28367166375E+03 -0.30694928212E+03 -0.30920792269E+03  0.51990096563E+03  0.00000000000E+00 0.  1.
<mgrwt>
<rscale>  0 0.11161994E+04</rscale>
<asrwt>0</asrwt>
<pdfrwt beam="1">  1        4 0.52039879E-01 0.11161994E+04</pdfrwt>
<pdfrwt beam="2">  1       -3 0.14166437E+00 0.11161994E+04</pdfrwt>
<totfact> 0.30067151E+00</totfact>
</mgrwt>
</event>
<event>
12    7  0.1740517E-007  0.1880386E+04  0.7818608E-02  0.8664682E-01
         -1   -1    0    0    0  501 -0.00000000000E+00  0.00000000000E+00  0.96379024106E+03  0.96379024106E+03  0.00000000000E+00 0.  1.
          2   -1    0    0  501    0  0.00000000000E+00 -0.00000000000E+00 -0.91717335107E+03  0.91717335107E+03  0.00000000000E+00 0. -1.
         24    2    1    2    0    0 -0.28800927459E+03 -0.43871374682E+03  0.51159249420E+03  0.73728850185E+03  0.80301687042E+02 0.  0.
        254    2    1    2    0    0  0.28800927459E+03  0.43871374682E+03 -0.46497560421E+03  0.11436750903E+04  0.90353268105E+03 0.  0.
         23    2    4    4    0    0  0.18267008034E+03  0.55928804624E+03 -0.65036551053E+03  0.88169399684E+03  0.90760838867E+02 0.  0.
         23    2    4    4    0    0  0.10533919425E+03 -0.12057429941E+03  0.18538990632E+03  0.26198109344E+03  0.92898699836E+02 0.  0.
          4    1    3    3  502    0 -0.15242958693E+03 -0.19877808005E+03  0.29334769374E+03  0.38574651457E+03  0.00000000000E+00 0. -1.
         -3    1    3    3    0  502 -0.13557968766E+03 -0.23993566677E+03  0.21824480046E+03  0.35154198728E+03  0.00000000000E+00 0.  1.
         13    1    5    5    0    0  0.15846445984E+03  0.53582287267E+03 -0.59031644159E+03  0.81282878709E+03  0.00000000000E+00 0.  1.
        -13    1    5    5    0    0  0.24205620495E+02  0.23465173563E+02 -0.60049068936E+02  0.68865209750E+02  0.00000000000E+00 0. -1.
          2    1    6    6  503    0  0.70682627256E+02 -0.20244110134E+02  0.10785536152E+03  0.13053212937E+03  0.00000000000E+00 0. -1.
         -2    1    6    6    0  503  0.34656566993E+02 -0.10033018928E+03  0.77534544803E+02  0.13144896407E+03  0.00000000000E+00 0.  1.
<mgrwt>
<rscale>  0 0.18803858E+04</rscale>
<asrwt>0</asrwt>
<pdfrwt beam="1">  1        2 0.14110359E+00 0.18803858E+04</pdfrwt>
<pdfrwt beam="2">  1       -1 0.14827542E+00 0.18803858E+04</pdfrwt>
<totfact> 0.10999707E+01</totfact>
</mgrwt>
</event>
<event>
12    7  0.1740517E-007  0.1989284E+04  0.7818608E-02  0.8611647E-01
         -1   -1    0    0    0  501 -0.00000000000E+00  0.00000000000E+00  0.42278197835E+03  0.42278197835E+03  0.00000000000E+00 0.  1.
          2   -1    0    0  501    0  0.00000000000E+00 -0.00000000000E+00 -0.23400077226E+04  0.23400077226E+04  0.00000000000E+00 0. -1.
         24    2    1    2    0    0 -0.13192879390E+03  0.76035314843E+03 -0.54638684328E+03  0.94894207833E+03  0.80064777144E+02 0.  0.
        254    2    1    2    0    0  0.13192879390E+03 -0.76035314843E+03 -0.13708389010E+04  0.18138476226E+04  0.90294063407E+03 0.  0.
         23    2    4    4    0    0 -0.37990176874E+03 -0.29869404884E+03 -0.54424751768E+03  0.73319060169E+03  0.88428554201E+02 0.  0.
         23    2    4    4    0    0  0.51183056264E+03 -0.46165909959E+03 -0.82659138334E+03  0.10806570210E+04  0.97296623031E+02 0.  0.
          4    1    3    3  502    0 -0.74494792759E+02  0.34532716372E+03 -0.20464835008E+03  0.40826617707E+03  0.00000000000E+00 0. -1.
         -3    1    3    3    0  502 -0.57434001142E+02  0.41502598471E+03 -0.34173849320E+03  0.54067590126E+03  0.00000000000E+00 0.  1.
         13    1    5    5    0    0 -0.97142278605E+02 -0.12857226696E+03 -0.17007769950E+03  0.23429441733E+03  0.00000000000E+00 0. -1.
        -13    1    5    5    0    0 -0.28275949014E+03 -0.17012178188E+03 -0.37416981818E+03  0.49889618436E+03  0.00000000000E+00 0.  1.
          1    1    6    6  503    0  0.39971870190E+03 -0.40902895175E+03 -0.66610399063E+03  0.87793749798E+03  0.00000000000E+00 0. -1.
         -1    1    6    6    0  503  0.11211186074E+03 -0.52630147836E+02 -0.16048739270E+03  0.20271952298E+03  0.00000000000E+00 0.  1.
<mgrwt>
<rscale>  0 0.19892844E+04</rscale>
<asrwt>0</asrwt>
<pdfrwt beam="1">  1        2 0.36000120E+00 0.19892844E+04</pdfrwt>
<pdfrwt beam="2">  1       -1 0.65043379E-01 0.19892844E+04</pdfrwt>
<totfact> 0.10916296E+01</totfact>
</mgrwt>
</event>
<event>
12    7  0.1740517E-007  0.2248890E+04  0.7818608E-02  0.8498350E-01
         -1   -1    0    0    0  501 -0.00000000000E+00  0.00000000000E+00  0.59943509352E+03  0.59943509352E+03  0.00000000000E+00 0.  1.
          2   -1    0    0  501    0  0.00000000000E+00 -0.00000000000E+00 -0.21092805840E+04  0.21092805840E+04  0.00000000000E+00 0. -1.
         24    2    1    2    0    0 -0.54244984700E+03  0.18554128290E+03  0.27947499597E+03  0.64262535711E+03  0.78636327852E+02 0.  0.
        254    2    1    2    0    0  0.54244984700E+03 -0.18554128290E+03 -0.17893204864E+04  0.20660903204E+04  0.85929273516E+03 0.  0.
         23    2    4    4    0    0  0.55640584645E+03 -0.22821808680E+03 -0.54068989282E+03  0.81337338690E+03  0.86946795361E+02 0.  0.
         23    2    4    4    0    0 -0.13955999444E+02  0.42676803894E+02 -0.12486305936E+04  0.12527169335E+04  0.90582982037E+02 0.  0.
          2    1    3    3  502    0 -0.10208489894E+03  0.14995510101E+02  0.24906127249E+02  0.10614380382E+03  0.00000000000E+00 0. -1.
         -1    1    3    3    0  502 -0.44036494807E+03  0.17054577280E+03  0.25456886872E+03  0.53648155330E+03  0.00000000000E+00 0.  1.
         13    1    5    5    0    0  0.44455385546E+03 -0.15414503596E+03 -0.38582781169E+03  0.60848329705E+03  0.00000000000E+00 0. -1.
        -13    1    5    5    0    0  0.11185199099E+03 -0.74073050839E+02 -0.15486208113E+03  0.20489008985E+03  0.00000000000E+00 0.  1.
          1    1    6    6  503    0  0.23567629859E+02 -0.12849949123E+02 -0.60761243362E+03  0.60820508372E+03  0.00000000000E+00 0. -1.
         -1    1    6    6    0  503 -0.37523629303E+02  0.55526753017E+02 -0.64101816000E+03  0.64451184978E+03  0.00000000000E+00 0.  1.
<mgrwt>
<rscale>  0 0.22488902E+04</rscale>
<asrwt>0</asrwt>
<pdfrwt beam="1">  1        2 0.32450471E+00 0.22488902E+04</pdfrwt>
<pdfrwt beam="2">  1       -1 0.92220783E-01 0.22488902E+04</pdfrwt>
<totfact> 0.68832100E+00</totfact>
</mgrwt>
</event>
<event>
12    7  0.1740517E-007  0.1043672E+04  0.7818608E-02  0.9261902E-01
          2   -1    0    0  501    0  0.00000000000E+00  0.00000000000E+00  0.29701796066E+03  0.29701796066E+03  0.00000000000E+00 0. -1.
         -1   -1    0    0    0  501 -0.00000000000E+00 -0.00000000000E+00 -0.91682286714E+03  0.91682286714E+03  0.00000000000E+00 0.  1.
         24    2    1    2    0    0  0.21109332364E+02  0.45446938279E+02  0.62255341819E+02  0.11204935112E+03  0.78538534421E+02 0.  0.
        254    2    1    2    0    0 -0.21109332364E+02 -0.45446938279E+02 -0.68206024830E+03  0.11017914767E+04  0.86384445804E+03 0.  0.
         23    2    4    4    0    0 -0.32515292332E+03 -0.10129198875E+02 -0.70626643298E+03  0.78225532129E+03  0.85346875277E+02 0.  0.
         23    2    4    4    0    0  0.30404359096E+03 -0.35317739404E+02  0.24206184682E+02  0.31953615539E+03  0.88473540163E+02 0.  0.
          2    1    3    3  502    0  0.81316003501E+01  0.53539504273E+02  0.74746880032E+02  0.92302207539E+02  0.00000000000E+00 0. -1.
         -1    1    3    3    0  502  0.12977732014E+02 -0.80925659944E+01 -0.12491538212E+02  0.19747143579E+02  0.00000000000E+00 0.  1.
         13    1    5    5    0    0 -0.75453993748E+02  0.30801922708E+02 -0.13932276632E+03  0.16140909773E+03  0.00000000000E+00 0. -1.
        -13    1    5    5    0    0 -0.24969892957E+03 -0.40931121583E+02 -0.56694366666E+03  0.62084622356E+03  0.00000000000E+00 0.  1.
          3    1    6    6  503    0  0.51039147430E+02 -0.28691171595E+02 -0.21457251482E+02  0.62358572298E+02  0.00000000000E+00 0. -1.
         -3    1    6    6    0  503  0.25300444353E+03 -0.66265678092E+01  0.45663436164E+02  0.25717758310E+03  0.00000000000E+00 0.  1.
<mgrwt>
<rscale>  0 0.10436721E+04</rscale>
<asrwt>0</asrwt>
<pdfrwt beam="1">  1        2 0.45695072E-01 0.10436721E+04</pdfrwt>
<pdfrwt beam="2">  1       -1 0.14104967E+00 0.10436721E+04</pdfrwt>
<totfact> 0.52104535E+01</totfact>
</mgrwt>
</event>
<event>
12    7  0.1740517E-007  0.2203646E+04  0.7818608E-02  0.8516912E-01
         -1   -1    0    0    0  501 -0.00000000000E+00  0.00000000000E+00  0.40808160748E+03  0.40808160748E+03  0.00000000000E+00 0.  1.
          2   -1    0    0  501    0  0.00000000000E+00 -0.00000000000E+00 -0.29749305307E+04  0.29749305307E+04  0.00000000000E+00 0. -1.
         24    2    1    2    0    0  0.86056927149E+03  0.42238992268E+02 -0.61022333895E+03  0.10588750494E+04  0.80499959021E+02 0.  0.
        254    2    1    2    0    0 -0.86056927149E+03 -0.42238992268E+02 -0.19566255843E+04  0.23241370888E+04  0.91151847308E+03 0.  0.
         23    2    4    4    0    0  0.37346469887E+02 -0.29033147414E+03 -0.63103887822E+03  0.70161386148E+03  0.91459395915E+02 0.  0.
         23    2    4    4    0    0 -0.89791574138E+03  0.24809248187E+03 -0.13255867061E+04  0.16225232273E+04  0.87171954236E+02 0.  0.
          2    1    3    3  502    0  0.17145598161E+03 -0.21520114189E+02 -0.10774359583E+03  0.20363926779E+03  0.00000000000E+00 0. -1.
         -1    1    3    3    0  502  0.68911328988E+03  0.63759106457E+02 -0.50247974312E+03  0.85523578164E+03  0.00000000000E+00 0.  1.
         13    1    5    5    0    0  0.77535803759E+01 -0.52375223796E+02 -0.49102856654E+02  0.72210612848E+02  0.00000000000E+00 0. -1.
        -13    1    5    5    0    0  0.29592889512E+02 -0.23795625034E+03 -0.58193602157E+03  0.62940324863E+03  0.00000000000E+00 0.  1.
          2    1    6    6  503    0 -0.69823187078E+02 -0.40687649776E+01 -0.94615113207E+02  0.11765989950E+03  0.00000000000E+00 0. -1.
         -2    1    6    6    0  503 -0.82809255430E+03  0.25216124685E+03 -0.12309715929E+04  0.15048633278E+04  0.00000000000E+00 0.  1.
<mgrwt>
<rscale>  0 0.22036465E+04</rscale>
<asrwt>0</asrwt>
<pdfrwt beam="1">  1        2 0.45768162E+00 0.22036465E+04</pdfrwt>
<pdfrwt beam="2">  1       -1 0.62781786E-01 0.22036465E+04</pdfrwt>
<totfact> 0.48354064E+00</totfact>
</mgrwt>
</event>
<event>
12    7  0.1740517E-007  0.2030500E+04  0.7818608E-02  0.8592492E-01
         -1   -1    0    0    0  501 -0.00000000000E+00  0.00000000000E+00  0.84008531462E+03  0.84008531462E+03  0.00000000000E+00 0.  1.
          2   -1    0    0  501    0  0.00000000000E+00 -0.00000000000E+00 -0.12269380369E+04  0.12269380369E+04  0.00000000000E+00 0. -1.
         24    2    1    2    0    0  0.40661510462E+03 -0.64485742125E+03 -0.37185232309E+03  0.85389142222E+03  0.98384316342E+02 0.  0.
        254    2    1    2    0    0 -0.40661510462E+03  0.64485742125E+03 -0.15000399204E+02  0.12131319293E+04  0.94355027894E+03 0.  0.
         23    2    4    4    0    0  0.46584404445E+02  0.56402971923E+03 -0.31748726612E+03  0.65503410361E+03  0.89285395403E+02 0.  0.
         23    2    4    4    0    0 -0.45319950907E+03  0.80827702024E+02  0.30248686691E+03  0.55809782571E+03  0.89732747476E+02 0.  0.
          2    1    3    3  502    0  0.89396791517E+02 -0.19803367336E+03 -0.69985768744E+02  0.22826986210E+03  0.00000000000E+00 0. -1.
         -1    1    3    3    0  502  0.31721831310E+03 -0.44682374789E+03 -0.30186655435E+03  0.62562156012E+03  0.00000000000E+00 0.  1.
         13    1    5    5    0    0 -0.21010196356E+02  0.28492879451E+03 -0.16373782279E+03  0.32929609913E+03  0.00000000000E+00 0. -1.
        -13    1    5    5    0    0  0.67594600802E+02  0.27910092472E+03 -0.15374944333E+03  0.32573800448E+03  0.00000000000E+00 0.  1.
          4    1    6    6  503    0 -0.12101880057E+03  0.41807956993E+02  0.12721440965E+03  0.18049089002E+03  0.00000000000E+00 0. -1.
         -4    1    6    6    0  503 -0.33218070850E+03  0.39019745031E+02  0.17527245726E+03  0.37760693568E+03  0.00000000000E+00 0.  1.
<mgrwt>
<rscale>  0 0.20305001E+04</rscale>
<asrwt>0</asrwt>
<pdfrwt beam="1">  1        2 0.18875970E+00 0.20305001E+04</pdfrwt>
<pdfrwt beam="2">  1       -1 0.12924389E+00 0.20305001E+04</pdfrwt>
<totfact> 0.99266551E+00</totfact>
</mgrwt>
</event>
<event>
12    7  0.1740517E-007  0.1947374E+04  0.7818608E-02  0.8631628E-01
         -1   -1    0    0    0  501 -0.00000000000E+00  0.00000000000E+00  0.66178488228E+03  0.66178488228E+03  0.00000000000E+00 0.  1.
          2   -1    0    0  501    0  0.00000000000E+00 -0.00000000000E+00 -0.14325906175E+04  0.14325906175E+04  0.00000000000E+00 0. -1.
         24    2    1    2    0    0 -0.31112963661E+03 -0.49335302347E+03  0.21734535519E+03  0.62791320900E+03  0.82686988479E+02 0.  0.
        254    2    1    2    0    0  0.31112963661E+03  0.49335302347E+03 -0.98815109042E+03  0.14664622908E+04  0.91316494472E+03 0.  0.
         23    2    4    4    0    0  0.58039385190E+03  0.39914332086E+03 -0.90826343983E+03  0.11529936921E+04  0.90992109531E+02 0.  0.
         23    2    4    4    0    0 -0.26926421530E+03  0.94209702614E+02 -0.79887650581E+02  0.31346859867E+03  0.10247848523E+03 0.  0.
          2    1    3    3  502    0 -0.71404522167E+02 -0.58155867726E+02  0.28841707421E+02  0.96501579385E+02  0.00000000000E+00 0. -1.
         -1    1    3    3    0  502 -0.23972511444E+03 -0.43519715575E+03  0.18850364777E+03  0.53141162961E+03  0.00000000000E+00 0.  1.
         13    1    5    5    0    0  0.38258752453E+03  0.21478968179E+03 -0.53052247998E+03  0.68844892555E+03  0.00000000000E+00 0. -1.
        -13    1    5    5    0    0  0.19780632737E+03  0.18435363907E+03 -0.37774095985E+03  0.46454476656E+03  0.00000000000E+00 0.  1.
          3    1    6    6  503    0 -0.23660791880E+03  0.73476094417E+02 -0.10310703001E+03  0.26835257280E+03  0.00000000000E+00 0. -1.
         -3    1    6    6    0  503 -0.32656296494E+02  0.20733608197E+02  0.23219379431E+02  0.45116025875E+02  0.00000000000E+00 0.  1.
<mgrwt>
<rscale>  0 0.19473745E+04</rscale>
<asrwt>0</asrwt>
<pdfrwt beam="1">  1        2 0.22039855E+00 0.19473745E+04</pdfrwt>
<pdfrwt beam="2">  1       -1 0.10181306E+00 0.19473745E+04</pdfrwt>
<totfact> 0.13479811E+01</totfact>
</mgrwt>
</event>
<event>
12    7  0.1740517E-007  0.1578345E+04  0.7818608E-02  0.8833963E-01
         -1   -1    0    0    0  501 -0.00000000000E+00  0.00000000000E+00  0.31590950253E+03  0.31590950253E+03  0.00000000000E+00 0.  1.
          2   -1    0    0  501    0  0.00000000000E+00 -0.00000000000E+00 -0.19714300784E+04  0.19714300784E+04  0.00000000000E+00 0. -1.
         24    2    1    2    0    0  0.12843209650E+03  0.26920393387E+03  0.69933445839E+02  0.31656611940E+03  0.79736188010E+02 0.  0.
        254    2    1    2    0    0 -0.12843209650E+03 -0.26920393387E+03 -0.17254540217E+04  0.19707734615E+04  0.90431791656E+03 0.  0.
         23    2    4    4    0    0 -0.45332868795E+03 -0.37362328090E+03 -0.98404301836E+03  0.11496361748E+04  0.90672029974E+02 0.  0.
         23    2    4    4    0    0  0.32489659145E+03  0.10441934703E+03 -0.74141100330E+03  0.82113728671E+03  0.90083142963E+02 0.  0.
          4    1    3    3  502    0  0.59803025626E+02  0.47464699871E+02  0.23141535517E+02  0.79779886400E+02  0.00000000000E+00 0. -1.
         -3    1    3    3    0  502  0.68629070871E+02  0.22173923400E+03  0.46791910322E+02  0.23678623300E+03  0.00000000000E+00 0.  1.
         13    1    5    5    0    0 -0.26416707642E+03 -0.24256702393E+03 -0.67454008197E+03  0.76395505597E+03  0.00000000000E+00 0.  1.
        -13    1    5    5    0    0 -0.18916161152E+03 -0.13105625697E+03 -0.30950293640E+03  0.38568111881E+03  0.00000000000E+00 0. -1.
          1    1    6    6  503    0  0.11838548913E+03  0.57667510633E+02 -0.38120187167E+03  0.40330575595E+03  0.00000000000E+00 0. -1.
         -1    1    6    6    0  503  0.20651110232E+03  0.46751836395E+02 -0.36020913163E+03  0.41783153076E+03  0.00000000000E+00 0.  1.
<mgrwt>
<rscale>  0 0.15783453E+04</rscale>
<asrwt>0</asrwt>
<pdfrwt beam="1">  1        2 0.30329693E+00 0.15783453E+04</pdfrwt>
<pdfrwt beam="2">  1       -1 0.48601462E-01 0.15783453E+04</pdfrwt>
<totfact> 0.32127967E+01</totfact>
</mgrwt>
</event>
<event>
12    7  0.1740517E-007  0.1332190E+04  0.7818608E-02  0.9004420E-01
          2   -1    0    0  501    0  0.00000000000E+00  0.00000000000E+00  0.38593221947E+03  0.38593221947E+03  0.00000000000E+00 0. -1.
         -1   -1    0    0    0  501 -0.00000000000E+00 -0.00000000000E+00 -0.11496390157E+04  0.11496390157E+04  0.00000000000E+00 0.  1.
         24    2    1    2    0    0 -0.31679363713E+03 -0.14205278234E+03 -0.21387870717E+03  0.41544710823E+03  0.79466954508E+02 0.  0.
        254    2    1    2    0    0  0.31679363713E+03  0.14205278234E+03 -0.54982808909E+03  0.11201241270E+04  0.91204710995E+03 0.  0.
         23    2    4    4    0    0 -0.28105133142E+03  0.10374378213E+03 -0.17512562262E+02  0.31331078297E+03  0.90024072674E+02 0.  0.
         23    2    4    4    0    0  0.59784496856E+03  0.38309000204E+02 -0.53231552683E+03  0.80681334400E+03  0.93283256973E+02 0.  0.
          4    1    3    3  502    0 -0.44876077533E+02 -0.13966877186E+02 -0.79743074005E+00  0.47006083530E+02  0.00000000000E+00 0. -1.
         -3    1    3    3    0  502 -0.27191755960E+03 -0.12808590515E+03 -0.21308127643E+03  0.36844102470E+03  0.00000000000E+00 0.  1.
         13    1    5    5    0    0 -0.53443726246E+02  0.61082651724E+02 -0.12986344379E+01  0.81172708887E+02  0.00000000000E+00 0. -1.
        -13    1    5    5    0    0 -0.22760760518E+03  0.42661130410E+02 -0.16213927825E+02  0.23213807408E+03  0.00000000000E+00 0.  1.
          1    1    6    6  503    0  0.13343287802E+03 -0.12546513288E+02 -0.77583877131E+02  0.15485801860E+03  0.00000000000E+00 0. -1.
         -1    1    6    6    0  503  0.46441209053E+03  0.50855513493E+02 -0.45473164970E+03  0.65195532541E+03  0.00000000000E+00 0.  1.
<mgrwt>
<rscale>  0 0.13321903E+04</rscale>
<asrwt>0</asrwt>
<pdfrwt beam="1">  1        2 0.59374188E-01 0.13321903E+04</pdfrwt>
<pdfrwt beam="2">  1       -1 0.17686754E+00 0.13321903E+04</pdfrwt>
<totfact> 0.20315974E+01</totfact>
</mgrwt>
</event>
<event>
12    7  0.1740517E-007  0.1751067E+04  0.7818608E-02  0.8732763E-01
          2   -1    0    0  501    0  0.00000000000E+00  0.00000000000E+00  0.58719732696E+03  0.58719732696E+03  0.00000000000E+00 0. -1.
         -1   -1    0    0    0  501 -0.00000000000E+00 -0.00000000000E+00 -0.13054535742E+04  0.13054535742E+04  0.00000000000E+00 0.  1.
         24    2    1    2    0    0  0.11887835606E+03 -0.40423580377E+03  0.25904864567E+03  0.50099971370E+03  0.79723670993E+02 0.  0.
        254    2    1    2    0    0 -0.11887835606E+03  0.40423580377E+03 -0.97730489290E+03  0.13916511875E+04  0.89667693473E+03 0.  0.
         23    2    4    4    0    0 -0.34202559641E+03  0.76404685990E+02 -0.34242690871E+02  0.36458924897E+03  0.94517585343E+02 0.  0.
         23    2    4    4    0    0  0.22314724035E+03  0.32783111778E+03 -0.94306220203E+03  0.10270619385E+04  0.90675112047E+02 0.  0.
          4    1    3    3  502    0  0.10400746994E+03 -0.39762470539E+03  0.25663982098E+03  0.48454819972E+03  0.00000000000E+00 0. -1.
         -3    1    3    3    0  502  0.14870886125E+02 -0.66110983825E+01  0.24088246876E+01  0.16451513983E+02  0.00000000000E+00 0.  1.
         13    1    5    5    0    0 -0.15629852459E+03  0.14481730753E+02 -0.58073412113E+02  0.16736627650E+03  0.00000000000E+00 0. -1.
        -13    1    5    5    0    0 -0.18572707182E+03  0.61922955237E+02  0.23830721242E+02  0.19722297247E+03  0.00000000000E+00 0.  1.
          2    1    6    6  503    0  0.23907440484E+02  0.69832316072E+01 -0.30128520637E+02  0.39090395111E+02  0.00000000000E+00 0. -1.
         -2    1    6    6    0  503  0.19923979987E+03  0.32084788617E+03 -0.91293368139E+03  0.98797154338E+03  0.00000000000E+00 0.  1.
<mgrwt>
<rscale>  0 0.17510669E+04</rscale>
<asrwt>0</asrwt>
<pdfrwt beam="1">  1        2 0.90338050E-01 0.17510669E+04</pdfrwt>
<pdfrwt beam="2">  1       -1 0.20083901E+00 0.17510669E+04</pdfrwt>
<totfact> 0.81839670E+00</totfact>
</mgrwt>
</event>
<event>
12    7  0.1740517E-007  0.2798407E+04  0.7818608E-02  0.8303763E-01
         -1   -1    0    0    0  501 -0.00000000000E+00  0.00000000000E+00  0.14026121517E+04  0.14026121517E+04  0.00000000000E+00 0.  1.
          2   -1    0    0  501    0  0.00000000000E+00 -0.00000000000E+00 -0.13958028836E+04  0.13958028836E+04  0.00000000000E+00 0. -1.
         24    2    1    2    0    0 -0.69141613213E+03  0.24333231749E+03 -0.10162713622E+04  0.12555884497E+04  0.80174739609E+02 0.  0.
        254    2    1    2    0    0  0.69141613213E+03 -0.24333231749E+03  0.10230806304E+04  0.15428265856E+04  0.89238613423E+03 0.  0.
         23    2    4    4    0    0  0.78653352940E+03 -0.27187353200E+03  0.11037406459E+04  0.13854104368E+04  0.92565948543E+02 0.  0.
         23    2    4    4    0    0 -0.95117397266E+02  0.28541214511E+02 -0.80660015512E+02  0.15741614879E+03  0.91716332297E+02 0.  0.
          4    1    3    3  502    0 -0.56658694097E+03  0.16909480990E+03 -0.83901106059E+03  0.10264274822E+04  0.00000000000E+00 0. -1.
         -3    1    3    3    0  502 -0.12482919116E+03  0.74237507586E+02 -0.17726030164E+03  0.22916096752E+03  0.00000000000E+00 0.  1.
         13    1    5    5    0    0  0.51190462605E+02 -0.16048823459E+02  0.38763365093E+02  0.66186302733E+02  0.00000000000E+00 0.  1.
        -13    1    5    5    0    0  0.73534306679E+03 -0.25582470854E+03  0.10649772808E+04  0.13192241341E+04  0.00000000000E+00 0. -1.
          1    1    6    6  503    0 -0.14047409329E+02  0.36177643999E+02 -0.63156107137E+02  0.74127225113E+02  0.00000000000E+00 0. -1.
         -1    1    6    6    0  503 -0.81069987937E+02 -0.76364294879E+01 -0.17503908375E+02  0.83288923681E+02  0.00000000000E+00 0.  1.
<mgrwt>
<rscale>  0 0.27984068E+04</rscale>
<asrwt>0</asrwt>
<pdfrwt beam="1">  1        2 0.21473890E+00 0.27984068E+04</pdfrwt>
<pdfrwt beam="2">  1       -1 0.21578649E+00 0.27984068E+04</pdfrwt>
<totfact> 0.16943508E+00</totfact>
</mgrwt>
</event>
<event>
12    7  0.1740517E-007  0.1673696E+04  0.7818608E-02  0.8776510E-01
         -1   -1    0    0    0  501 -0.00000000000E+00  0.00000000000E+00  0.15686176576E+03  0.15686176576E+03  0.00000000000E+00 0.  1.
          2   -1    0    0  501    0  0.00000000000E+00 -0.00000000000E+00 -0.44645330252E+04  0.44645330252E+04  0.00000000000E+00 0. -1.
         24    2    1    2    0    0 -0.28975268445E+03 -0.51165732706E+03 -0.15267078918E+04  0.16379971653E+04  0.80298744914E+02 0.  0.
        254    2    1    2    0    0  0.28975268445E+03  0.51165732706E+03 -0.27809633676E+04  0.29833976256E+04  0.90617564613E+03 0.  0.
         23    2    4    4    0    0  0.26190941624E+03  0.74309381377E+03 -0.17293922426E+04  0.19026285472E+04  0.91721870883E+02 0.  0.
         23    2    4    4    0    0  0.27843268214E+02 -0.23143648670E+03 -0.10515711250E+04  0.10807690783E+04  0.89004914063E+02 0.  0.
          4    1    3    3  502    0 -0.13486787626E+03 -0.23919140200E+03 -0.82445149090E+03  0.86897763590E+03  0.00000000000E+00 0. -1.
         -3    1    3    3    0  502 -0.15488480819E+03 -0.27246592506E+03 -0.70225640085E+03  0.76901952945E+03  0.00000000000E+00 0.  1.
         13    1    5    5    0    0 -0.52188474247E+01  0.33774455406E+01 -0.20974295459E+02  0.21876118870E+02  0.00000000000E+00 0.  1.
        -13    1    5    5    0    0  0.26712826366E+03  0.73971636823E+03 -0.17084179471E+04  0.18807524284E+04  0.00000000000E+00 0. -1.
          3    1    6    6  503    0  0.23526197017E+02 -0.23406733785E+03 -0.10490811746E+04  0.10751336250E+04  0.00000000000E+00 0. -1.
         -3    1    6    6    0  503  0.43170711975E+01  0.26308511489E+01 -0.24899503899E+01  0.56354533479E+01  0.00000000000E+00 0.  1.
<mgrwt>
<rscale>  0 0.16736960E+04</rscale>
<asrwt>0</asrwt>
<pdfrwt beam="1">  1        2 0.68685115E+00 0.16736960E+04</pdfrwt>
<pdfrwt beam="2">  1       -1 0.24132582E-01 0.16736960E+04</pdfrwt>
<totfact> 0.22109688E+00</totfact>
</mgrwt>
</event>
<event>
12    7  0.1740517E-007  0.2247488E+04  0.7818608E-02  0.8498919E-01
         -1   -1    0    0    0  501 -0.00000000000E+00  0.00000000000E+00  0.11845879885E+04  0.11845879885E+04  0.00000000000E+00 0.  1.
          2   -1    0    0  501    0  0.00000000000E+00 -0.00000000000E+00 -0.10660251090E+04  0.10660251090E+04  0.00000000000E+00 0. -1.
         24    2    1    2    0    0 -0.16903274698E+03  0.93805061131E+03  0.34856810050E+02  0.95713502543E+03  0.79883920634E+02 0.  0.
        254    2    1    2    0    0  0.16903274698E+03 -0.93805061131E+03  0.83706069421E+02  0.12934780721E+04  0.87038370729E+03 0.  0.
         23    2    4    4    0    0 -0.34377464561E+02 -0.82545552463E+03  0.37429124607E+03  0.91139424908E+03  0.89369497925E+02 0.  0.
         23    2    4    4    0    0  0.20341021154E+03 -0.11259508668E+03 -0.29058517665E+03  0.38208382298E+03  0.86573293759E+02 0.  0.
          2    1    3    3  502    0 -0.14593557391E+03  0.83706349741E+03  0.64422709306E+01  0.84971406561E+03  0.00000000000E+00 0. -1.
         -1    1    3    3    0  502 -0.23097173070E+02  0.10098711389E+03  0.28414539120E+02  0.10742095982E+03  0.00000000000E+00 0.  1.
         13    1    5    5    0    0 -0.37075841098E+02 -0.18392340356E+03  0.11046227600E+03  0.21772540226E+03  0.00000000000E+00 0.  1.
        -13    1    5    5    0    0  0.26983765372E+01 -0.64153212106E+03  0.26382897007E+03  0.69366884681E+03  0.00000000000E+00 0. -1.
          3    1    6    6  503    0  0.64606161273E+02  0.14194396593E+01 -0.10865236362E+03  0.12641719425E+03  0.00000000000E+00 0. -1.
         -3    1    6    6    0  503  0.13880405027E+03 -0.11401452634E+03 -0.18193281303E+03  0.25566662873E+03  0.00000000000E+00 0.  1.
<mgrwt>
<rscale>  0 0.22474880E+04</rscale>
<asrwt>0</asrwt>
<pdfrwt beam="1">  1        2 0.16400386E+00 0.22474880E+04</pdfrwt>
<pdfrwt beam="2">  1       -1 0.18224431E+00 0.22474880E+04</pdfrwt>
<totfact> 0.47620475E+00</totfact>
</mgrwt>
</event>
<event>
12    7  0.1740517E-007  0.1174061E+04  0.7818608E-02  0.9135869E-01
         -3   -1    0    0    0  501 -0.00000000000E+00  0.00000000000E+00  0.15692181083E+03  0.15692181083E+03  0.00000000000E+00 0.  1.
          2   -1    0    0  501    0  0.00000000000E+00 -0.00000000000E+00 -0.21960299356E+04  0.21960299356E+04  0.00000000000E+00 0. -1.
         24    2    1    2    0    0  0.11547262315E+03 -0.18545290543E+03 -0.57633411466E+03  0.62143504671E+03  0.79333465381E+02 0.  0.
        254    2    1    2    0    0 -0.11547262315E+03  0.18545290543E+03 -0.14627740101E+04  0.17315166997E+04  0.90039745109E+03 0.  0.
         23    2    4    4    0    0  0.25738617848E+03 -0.23134213266E+03 -0.52996568298E+03  0.63976395659E+03  0.93099236336E+02 0.  0.
         23    2    4    4    0    0 -0.37285880163E+03  0.41679503809E+03 -0.93280832713E+03  0.10917527431E+04  0.95136151004E+02 0.  0.
          4    1    3    3  502    0  0.10334593708E+03 -0.19200393041E+03 -0.53022813663E+03  0.57331297638E+03  0.00000000000E+00 0. -1.
         -3    1    3    3    0  502  0.12126686069E+02  0.65510249821E+01 -0.46105978032E+02  0.48122070338E+02  0.00000000000E+00 0.  1.
         13    1    5    5    0    0  0.26292720535E+03 -0.22921785139E+03 -0.50273267530E+03  0.61189188712E+03  0.00000000000E+00 0. -1.
        -13    1    5    5    0    0 -0.55410268663E+01 -0.21242812681E+01 -0.27233007676E+02  0.27872069473E+02  0.00000000000E+00 0.  1.
          3    1    6    6  503    0 -0.29489077885E+03  0.26529375866E+03 -0.63849290463E+03  0.75167449012E+03  0.00000000000E+00 0. -1.
         -3    1    6    6    0  503 -0.77968022778E+02  0.15150127943E+03 -0.29431542250E+03  0.34007825300E+03  0.00000000000E+00 0.  1.
<mgrwt>
<rscale>  0 0.11740613E+04</rscale>
<asrwt>0</asrwt>
<pdfrwt beam="1">  1        2 0.33785072E+00 0.11740613E+04</pdfrwt>
<pdfrwt beam="2">  1       -3 0.24141820E-01 0.11740613E+04</pdfrwt>
<totfact> 0.54414902E+01</totfact>
</mgrwt>
</event>
<event>
12    7  0.1740517E-007  0.1534626E+04  0.7818608E-02  0.8861748E-01
          2   -1    0    0  501    0  0.00000000000E+00  0.00000000000E+00  0.12418629280E+04  0.12418629280E+04  0.00000000000E+00 0. -1.
         -1   -1    0    0    0  501 -0.00000000000E+00 -0.00000000000E+00 -0.47410156895E+03  0.47410156895E+03  0.00000000000E+00 0.  1.
         24    2    1    2    0    0  0.39274250323E+03 -0.14307684825E+03  0.56899029720E+03  0.71051378419E+03  0.79763530881E+02 0.  0.
        254    2    1    2    0    0 -0.39274250323E+03  0.14307684825E+03  0.19877106180E+03  0.10054507127E+04  0.89258251292E+03 0.  0.
         23    2    4    4    0    0 -0.27953991862E+03 -0.33651249880E+03  0.23101648722E+03  0.50314423116E+03  0.91663907994E+02 0.  0.
         23    2    4    4    0    0 -0.11320258461E+03  0.47958934705E+03 -0.32245425417E+02  0.50230648157E+03  0.91930772827E+02 0.  0.
          2    1    3    3  502    0  0.38150290834E+03 -0.12853156794E+03  0.51623375773E+03  0.65464656545E+03  0.00000000000E+00 0. -1.
         -3    1    3    3    0  502  0.11239594887E+02 -0.14545280306E+02  0.52756539473E+02  0.55867218739E+02  0.00000000000E+00 0.  1.
         13    1    5    5    0    0 -0.66627280061E+02 -0.14649705881E+03  0.70230357692E+02  0.17559295496E+03  0.00000000000E+00 0.  1.
        -13    1    5    5    0    0 -0.21291263856E+03 -0.19001543999E+03  0.16078612953E+03  0.32755127621E+03  0.00000000000E+00 0. -1.
          3    1    6    6  503    0 -0.35022895526E+02  0.25522721464E+03 -0.55657787714E+02  0.26356275085E+03  0.00000000000E+00 0. -1.
         -3    1    6    6    0  503 -0.78179689080E+02  0.22436213242E+03  0.23412362297E+02  0.23874373072E+03  0.00000000000E+00 0.  1.
<mgrwt>
<rscale>  0 0.15346259E+04</rscale>
<asrwt>0</asrwt>
<pdfrwt beam="1">  1        2 0.19105583E+00 0.15346259E+04</pdfrwt>
<pdfrwt beam="2">  1       -1 0.72938703E-01 0.15346259E+04</pdfrwt>
<totfact> 0.37240223E+01</totfact>
</mgrwt>
</event>
<event>
12    7  0.1740517E-007  0.1637698E+04  0.7818608E-02  0.8797717E-01
         -1   -1    0    0    0  501 -0.00000000000E+00  0.00000000000E+00  0.40086261774E+03  0.40086261774E+03  0.00000000000E+00 0.  1.
          2   -1    0    0  501    0  0.00000000000E+00 -0.00000000000E+00 -0.16726776949E+04  0.16726776949E+04  0.00000000000E+00 0. -1.
         24    2    1    2    0    0 -0.46148490325E+03 -0.44498699235E+02 -0.86339465182E+03  0.98315470699E+03  0.78704529262E+02 0.  0.
        254    2    1    2    0    0  0.46148490325E+03  0.44498699235E+02 -0.40842042530E+03  0.10903856056E+04  0.89843479171E+03 0.  0.
         23    2    4    4    0    0  0.12207788171E+03  0.37617624820E+03  0.67718891285E+02  0.41144363774E+03  0.91040869353E+02 0.  0.
         23    2    4    4    0    0  0.33940702154E+03 -0.33167754896E+03 -0.47613931658E+03  0.67894196786E+03  0.95112691983E+02 0.  0.
          2    1    3    3  502    0 -0.39723699929E+03 -0.41633309018E+02 -0.67775545834E+03  0.78669118930E+03  0.00000000000E+00 0. -1.
         -1    1    3    3    0  502 -0.64247903957E+02 -0.28653902175E+01 -0.18563919349E+03  0.19646351769E+03  0.00000000000E+00 0.  1.
         13    1    5    5    0    0  0.13687196836E+03  0.34437433397E+03  0.58386904957E+02  0.37514883485E+03  0.00000000000E+00 0. -1.
        -13    1    5    5    0    0 -0.14794086648E+02  0.31801914229E+02  0.93319863282E+01  0.36294802895E+02  0.00000000000E+00 0.  1.
          1    1    6    6  503    0  0.33823607642E+03 -0.32968234686E+03 -0.48064342823E+03  0.67387847445E+03  0.00000000000E+00 0. -1.
         -1    1    6    6    0  503  0.11709451160E+01 -0.19952021000E+01  0.45041116436E+01  0.50634934169E+01  0.00000000000E+00 0.  1.
<mgrwt>
<rscale>  0 0.16376983E+04</rscale>
<asrwt>0</asrwt>
<pdfrwt beam="1">  1        2 0.25733503E+00 0.16376983E+04</pdfrwt>
<pdfrwt beam="2">  1       -1 0.61671173E-01 0.16376983E+04</pdfrwt>
<totfact> 0.29502888E+01</totfact>
</mgrwt>
</event>
<event>
12    7  0.3490684E-007  0.2412077E+04  0.7818608E-02  0.8434996E-01
          2   -1    0    0  501    0  0.00000000000E+00  0.00000000000E+00  0.16056939191E+04  0.16056939191E+04  0.00000000000E+00 0. -1.
         -1   -1    0    0    0  501 -0.00000000000E+00 -0.00000000000E+00 -0.90585660475E+03  0.90585660475E+03  0.00000000000E+00 0.  1.
         24    2    1    2    0    0 -0.60807762502E+03  0.71348021237E+03  0.76481261125E+03  0.12122980822E+04  0.76914876103E+02 0.  0.
        254    2    1    2    0    0  0.60807762502E+03 -0.71348021237E+03 -0.64975296918E+02  0.12992524417E+04  0.89723057598E+03 0.  0.
         23    2    4    4    0    0  0.74137117558E+03 -0.74056447000E+03 -0.21874099852E+03  0.10747916385E+04  0.96241817711E+02 0.  0.
         23    2    4    4    0    0 -0.13329355056E+03  0.27084257628E+02  0.15376570160E+03  0.22446080320E+03  0.90763613603E+02 0.  0.
          2    1    3    3  502    0 -0.49087729511E+03  0.56200612425E+03  0.56893728809E+03  0.93835016935E+03  0.00000000000E+00 0. -1.
         -1    1    3    3    0  502 -0.11720032992E+03  0.15147408812E+03  0.19587532316E+03  0.27394791280E+03  0.00000000000E+00 0.  1.
         13    1    5    5    0    0  0.28811855022E+02 -0.10034574225E+02 -0.15622358716E+02  0.34276431575E+02  0.00000000000E+00 0. -1.
        -13    1    5    5    0    0  0.71255932056E+03 -0.73052989578E+03 -0.20311863980E+03  0.10405152069E+04  0.00000000000E+00 0.  1.
          1    1    6    6  503    0 -0.12112069399E+02 -0.27642366320E+02  0.22762567953E+02  0.37801284908E+02  0.00000000000E+00 0. -1.
         -1    1    6    6    0  503 -0.12118148116E+03  0.54726623948E+02  0.13100313364E+03  0.18665951829E+03  0.00000000000E+00 0.  1.
<mgrwt>
<rscale>  0 0.24120767E+04</rscale>
<asrwt>0</asrwt>
<pdfrwt beam="1">  1        2 0.24702983E+00 0.24120767E+04</pdfrwt>
<pdfrwt beam="2">  1       -1 0.13936255E+00 0.24120767E+04</pdfrwt>
<totfact> 0.48043134E+00</totfact>
</mgrwt>
</event>
<event>
12    7  0.1740517E-007  0.1332094E+04  0.7818608E-02  0.9004495E-01
         -1   -1    0    0    0  501 -0.00000000000E+00  0.00000000000E+00  0.76856506412E+03  0.76856506412E+03  0.00000000000E+00 0.  1.
          2   -1    0    0  501    0  0.00000000000E+00 -0.00000000000E+00 -0.57720330504E+03  0.57720330504E+03  0.00000000000E+00 0. -1.
         24    2    1    2    0    0 -0.35750054352E+03  0.10195484105E+02  0.24874346488E+02  0.36726361709E+03  0.79707244427E+02 0.  0.
        254    2    1    2    0    0  0.35750054352E+03 -0.10195484105E+02  0.16648741260E+03  0.97850475206E+03  0.89545681344E+03 0.  0.
         23    2    4    4    0    0  0.23631736818E+03 -0.42411491743E+03 -0.30504776414E+02  0.49512382556E+03  0.92182967862E+02 0.  0.
         23    2    4    4    0    0  0.12118317534E+03  0.41391943333E+03  0.19699218901E+03  0.48338092650E+03  0.94002863266E+02 0.  0.
          4    1    3    3  502    0 -0.77451382021E+02  0.11489862800E+02 -0.26252414830E+02  0.82582823932E+02  0.00000000000E+00 0. -1.
         -3    1    3    3    0  502 -0.28004916150E+03 -0.12943786950E+01  0.51126761318E+02  0.28468079316E+03  0.00000000000E+00 0.  1.
         13    1    5    5    0    0 -0.54315606459E+00 -0.53887550008E+02 -0.12067085652E+02  0.55224791720E+02  0.00000000000E+00 0.  1.
        -13    1    5    5    0    0  0.23686052424E+03 -0.37022736742E+03 -0.18437690762E+02  0.43989903384E+03  0.00000000000E+00 0. -1.
          3    1    6    6  503    0  0.40944721979E+02  0.29045081260E+03  0.14514468811E+03  0.32726919391E+03  0.00000000000E+00 0. -1.
         -3    1    6    6    0  503  0.80238453360E+02  0.12346862073E+03  0.51847500902E+02  0.15611173259E+03  0.00000000000E+00 0.  1.
<mgrwt>
<rscale>  0 0.13320935E+04</rscale>
<asrwt>0</asrwt>
<pdfrwt beam="1">  1        2 0.88800508E-01 0.13320935E+04</pdfrwt>
<pdfrwt beam="2">  1       -1 0.11824078E+00 0.13320935E+04</pdfrwt>
<totfact> 0.37300992E+01</totfact>
</mgrwt>
</event>
<event>
12    7  0.1740517E-007  0.1498352E+04  0.7818608E-02  0.8885549E-01
          2   -1    0    0  501    0  0.00000000000E+00  0.00000000000E+00  0.24709133775E+04  0.24709133775E+04  0.00000000000E+00 0. -1.
         -1   -1    0    0    0  501 -0.00000000000E+00 -0.00000000000E+00 -0.22714874801E+03  0.22714874801E+03  0.00000000000E+00 0.  1.
         24    2    1    2    0    0  0.36127458062E+02  0.37727153426E+03  0.13385862387E+04  0.13937510993E+04  0.84202165157E+02 0.  0.
        254    2    1    2    0    0 -0.36127458062E+02 -0.37727153426E+03  0.90517839080E+03  0.13043110262E+04  0.85920913063E+03 0.  0.
         23    2    4    4    0    0  0.38192564598E+03 -0.25837435032E+03  0.61219129265E+03  0.77185529719E+03  0.91421644277E+02 0.  0.
         23    2    4    4    0    0 -0.41805310404E+03 -0.11889718394E+03  0.29298709815E+03  0.53245572903E+03  0.93609430864E+02 0.  0.
          4    1    3    3  502    0  0.49897453334E+02  0.27370431413E+03  0.10694704750E+04  0.11050660181E+04  0.00000000000E+00 0. -1.
         -3    1    3    3    0  502 -0.13769995272E+02  0.10356722013E+03  0.26911576371E+03  0.28868508125E+03  0.00000000000E+00 0.  1.
         13    1    5    5    0    0  0.15970865031E+03 -0.83141163206E+02  0.17515444413E+03  0.25119391972E+03  0.00000000000E+00 0.  1.
        -13    1    5    5    0    0  0.22221699567E+03 -0.17523318711E+03  0.43703684852E+03  0.52066137748E+03  0.00000000000E+00 0. -1.
          3    1    6    6  503    0 -0.16750814594E+03 -0.43239527434E+02  0.63218705660E+02  0.18418805725E+03  0.00000000000E+00 0. -1.
         -3    1    6    6    0  503 -0.25054495810E+03 -0.75657656504E+02  0.22976839249E+03  0.34826767177E+03  0.00000000000E+00 0.  1.
<mgrwt>
<rscale>  0 0.14983523E+04</rscale>
<asrwt>0</asrwt>
<pdfrwt beam="1">  1        2 0.38014050E+00 0.14983523E+04</pdfrwt>
<pdfrwt beam="2">  1       -1 0.34945963E-01 0.14983523E+04</pdfrwt>
<totfact> 0.31070026E+01</totfact>
</mgrwt>
</event>
<event>
12    7  0.1740517E-007  0.1841475E+04  0.7818608E-02  0.8684549E-01
         -1   -1    0    0    0  501 -0.00000000000E+00  0.00000000000E+00  0.64113350948E+03  0.64113350948E+03  0.00000000000E+00 0.  1.
          2   -1    0    0  501    0  0.00000000000E+00 -0.00000000000E+00 -0.13222790617E+04  0.13222790617E+04  0.00000000000E+00 0. -1.
         24    2    1    2    0    0  0.31607107340E+03  0.59653374736E+03 -0.21076244486E+03  0.71173469418E+03  0.79950181649E+02 0.  0.
        254    2    1    2    0    0 -0.31607107340E+03 -0.59653374736E+03 -0.47038310741E+03  0.12516778770E+04  0.94323051529E+03 0.  0.
         23    2    4    4    0    0 -0.25260478072E+03 -0.21501165068E+03  0.25285438161E+03  0.42666067923E+03  0.89804296820E+02 0.  0.
         23    2    4    4    0    0 -0.63466292680E+02 -0.38152209668E+03 -0.72323748902E+03  0.82501719782E+03  0.89408224475E+02 0.  0.
          2    1    3    3  502    0  0.71568508119E+02  0.11003706398E+03 -0.10845568510E+02  0.13171117325E+03  0.00000000000E+00 0. -1.
         -1    1    3    3    0  502  0.24450256528E+03  0.48649668338E+03 -0.19991687635E+03  0.58002352092E+03  0.00000000000E+00 0.  1.
         13    1    5    5    0    0 -0.19896560489E+03 -0.16308062551E+03  0.14446605678E+03  0.29504752822E+03  0.00000000000E+00 0.  1.
        -13    1    5    5    0    0 -0.53639175832E+02 -0.51931025179E+02  0.10838832483E+03  0.13161315102E+03  0.00000000000E+00 0. -1.
          4    1    6    6  503    0 -0.46525673145E+02 -0.19621892679E+03 -0.28711905498E+03  0.35086159269E+03  0.00000000000E+00 0. -1.
         -4    1    6    6    0  503 -0.16940619536E+02 -0.18530316989E+03 -0.43611843404E+03  0.47415560513E+03  0.00000000000E+00 0.  1.
<mgrwt>
<rscale>  0 0.18414749E+04</rscale>
<asrwt>0</asrwt>
<pdfrwt beam="1">  1        2 0.20342755E+00 0.18414749E+04</pdfrwt>
<pdfrwt beam="2">  1       -1 0.98635925E-01 0.18414749E+04</pdfrwt>
<totfact> 0.16926178E+01</totfact>
</mgrwt>
</event>
<event>
12    7  0.2155142E-007  0.2196540E+04  0.7818608E-02  0.8519870E-01
         -1   -1    0    0    0  501 -0.00000000000E+00  0.00000000000E+00  0.63842935532E+03  0.63842935532E+03  0.00000000000E+00 0.  1.
          2   -1    0    0  501    0  0.00000000000E+00 -0.00000000000E+00 -0.18893188226E+04  0.18893188226E+04  0.00000000000E+00 0. -1.
         24    2    1    2    0    0  0.54031997733E+03 -0.33697538549E+03  0.22929272584E+03  0.68149885479E+03  0.79796282084E+02 0.  0.
        254    2    1    2    0    0 -0.54031997733E+03  0.33697538549E+03 -0.14801821931E+04  0.18462493232E+04  0.90122092189E+03 0.  0.
         23    2    4    4    0    0 -0.14821071909E+02  0.71327439297E+02 -0.11677558670E+04  0.11735195097E+04  0.90482080204E+02 0.  0.
         23    2    4    4    0    0 -0.52549890542E+03  0.26564794620E+03 -0.31242632609E+03  0.67272981347E+03  0.90759361928E+02 0.  0.
          4    1    3    3  502    0  0.12795918663E+03 -0.42053751449E+02  0.43170004422E+02  0.14144158064E+03  0.00000000000E+00 0. -1.
         -1    1    3    3    0  502  0.41236079070E+03 -0.29492163405E+03  0.18612272141E+03  0.54005727415E+03  0.00000000000E+00 0.  1.
         13    1    5    5    0    0 -0.32824036142E+02  0.85212443050E+02 -0.10122419211E+04  0.10163524411E+04  0.00000000000E+00 0. -1.
        -13    1    5    5    0    0  0.18002964233E+02 -0.13885003753E+02 -0.15551394596E+03  0.15716706855E+03  0.00000000000E+00 0.  1.
          3    1    6    6  503    0 -0.44352571004E+03  0.22749932191E+03 -0.22478069808E+03  0.54680650980E+03  0.00000000000E+00 0. -1.
         -3    1    6    6    0  503 -0.81973195378E+02  0.38148624286E+02 -0.87645628011E+02  0.12592330366E+03  0.00000000000E+00 0.  1.
<mgrwt>
<rscale>  0 0.21965396E+04</rscale>
<asrwt>0</asrwt>
<pdfrwt beam="1">  1        2 0.29066443E+00 0.21965396E+04</pdfrwt>
<pdfrwt beam="2">  1       -1 0.98219902E-01 0.21965396E+04</pdfrwt>
<totfact> 0.79557775E+00</totfact>
</mgrwt>
</event>
<event>
12    7  0.1740517E-007  0.1345553E+04  0.7818608E-02  0.8994201E-01
          2   -1    0    0  501    0  0.00000000000E+00  0.00000000000E+00  0.20696846325E+03  0.20696846325E+03  0.00000000000E+00 0. -1.
         -1   -1    0    0    0  501 -0.00000000000E+00 -0.00000000000E+00 -0.21869441016E+04  0.21869441016E+04  0.00000000000E+00 0.  1.
         24    2    1    2    0    0 -0.16945626704E+03 -0.23438754167E+03 -0.14789527209E+03  0.33405646082E+03  0.77895836719E+02 0.  0.
        254    2    1    2    0    0  0.16945626704E+03  0.23438754167E+03 -0.18320803663E+04  0.20598561041E+04  0.89601102382E+03 0.  0.
         23    2    4    4    0    0 -0.39425919970E+00 -0.33036420122E+03 -0.61867293158E+03  0.70753481722E+03  0.93320203724E+02 0.  0.
         23    2    4    4    0    0  0.16985052624E+03  0.56475174289E+03 -0.12134074347E+04  0.13523212868E+04  0.92852183075E+02 0.  0.
          4    1    3    3  502    0 -0.17107876063E+03 -0.21884201453E+03 -0.15360272344E+03  0.31741702271E+03  0.00000000000E+00 0. -1.
         -3    1    3    3    0  502  0.16224935867E+01 -0.15545527144E+02  0.57074513469E+01  0.16639438107E+02  0.00000000000E+00 0.  1.
         13    1    5    5    0    0 -0.32944012816E+02 -0.44653028579E+02 -0.11015652647E+03  0.12334367136E+03  0.00000000000E+00 0. -1.
        -13    1    5    5    0    0  0.32549753616E+02 -0.28571117264E+03 -0.50851640512E+03  0.58419114586E+03  0.00000000000E+00 0.  1.
          3    1    6    6  503    0  0.10875935042E+03  0.23864281959E+03 -0.46954306297E+03  0.53781937454E+03  0.00000000000E+00 0. -1.
         -3    1    6    6    0  503  0.61091175823E+02  0.32610892329E+03 -0.74386437172E+03  0.81450191229E+03  0.00000000000E+00 0.  1.
<mgrwt>
<rscale>  0 0.13455534E+04</rscale>
<asrwt>0</asrwt>
<pdfrwt beam="1">  1        2 0.31841302E-01 0.13455534E+04</pdfrwt>
<pdfrwt beam="2">  1       -1 0.33645294E+00 0.13455534E+04</pdfrwt>
<totfact> 0.35853895E+00</totfact>
</mgrwt>
</event>
<event>
12    7  0.1740517E-007  0.2592338E+04  0.7818608E-02  0.8370809E-01
         -1   -1    0    0    0  501 -0.00000000000E+00  0.00000000000E+00  0.64288044310E+03  0.64288044310E+03  0.00000000000E+00 0.  1.
          2   -1    0    0  501    0  0.00000000000E+00 -0.00000000000E+00 -0.26133224536E+04  0.26133224536E+04  0.00000000000E+00 0. -1.
         24    2    1    2    0    0 -0.11180723307E+04  0.53503526423E+02 -0.11038281770E+04  0.15740585582E+04  0.79217018672E+02 0.  0.
        254    2    1    2    0    0  0.11180723307E+04 -0.53503526423E+02 -0.86661383342E+03  0.16821443385E+04  0.90864826811E+03 0.  0.
         23    2    4    4    0    0  0.89921482728E+03 -0.40929454805E+03 -0.46754711475E+03  0.10968319215E+04  0.91272268128E+02 0.  0.
         23    2    4    4    0    0  0.21885750345E+03  0.35579102163E+03 -0.39906671867E+03  0.58531241694E+03  0.94077210807E+02 0.  0.
          4    1    3    3  502    0 -0.23339819484E+03  0.29361216042E+02 -0.27030370074E+03  0.35833069782E+03  0.00000000000E+00 0. -1.
         -3    1    3    3    0  502 -0.88467413589E+03  0.24142310381E+02 -0.83352447629E+03  0.12157278604E+04  0.00000000000E+00 0.  1.
         13    1    5    5    0    0  0.59393370457E+03 -0.29237629442E+03 -0.27048011162E+03  0.71512281026E+03  0.00000000000E+00 0.  1.
        -13    1    5    5    0    0  0.30528112271E+03 -0.11691825363E+03 -0.19706700313E+03  0.38170911128E+03  0.00000000000E+00 0. -1.
          3    1    6    6  503    0  0.10048765925E+02  0.24113822140E+02 -0.21836439722E+00  0.26124735364E+02  0.00000000000E+00 0. -1.
         -3    1    6    6    0  503  0.20880873752E+03  0.33167719949E+03 -0.39884835427E+03  0.55918768158E+03  0.00000000000E+00 0.  1.
<mgrwt>
<rscale>  0 0.25923379E+04</rscale>
<asrwt>0</asrwt>
<pdfrwt beam="1">  1        2 0.40204960E+00 0.25923379E+04</pdfrwt>
<pdfrwt beam="2">  1       -1 0.98904685E-01 0.25923379E+04</pdfrwt>
<totfact> 0.29396211E+00</totfact>
</mgrwt>
</event>
<event>
12    7  0.1740517E-007  0.1444028E+04  0.7818608E-02  0.8922551E-01
         -1   -1    0    0    0  501 -0.00000000000E+00  0.00000000000E+00  0.71611237879E+03  0.71611237879E+03  0.00000000000E+00 0.  1.
          2   -1    0    0  501    0  0.00000000000E+00 -0.00000000000E+00 -0.72796460682E+03  0.72796460682E+03  0.00000000000E+00 0. -1.
         24    2    1    2    0    0 -0.23464041316E+03  0.23004614081E+03  0.28535834227E+03  0.44269133648E+03  0.81048661280E+02 0.  0.
        254    2    1    2    0    0  0.23464041316E+03 -0.23004614081E+03 -0.29721057031E+03  0.10013856491E+04  0.89803215131E+03 0.  0.
         23    2    4    4    0    0  0.49259096940E+03  0.10425267120E+03 -0.23951911487E+03  0.56542287834E+03  0.93910289006E+02 0.  0.
         23    2    4    4    0    0 -0.25795055623E+03 -0.33429881201E+03 -0.57691455444E+02  0.43596277079E+03  0.91875177918E+02 0.  0.
          4    1    3    3  502    0 -0.59058162820E+02  0.10989674346E+03  0.12152424688E+03  0.17416458710E+03  0.00000000000E+00 0. -1.
         -3    1    3    3    0  502 -0.17558225034E+03  0.12014939735E+03  0.16383409539E+03  0.26852674938E+03  0.00000000000E+00 0.  1.
         13    1    5    5    0    0  0.38708495014E+03  0.53833101553E+02 -0.21463163862E+03  0.44586937745E+03  0.00000000000E+00 0. -1.
        -13    1    5    5    0    0  0.10550601925E+03  0.50419569643E+02 -0.24887476252E+02  0.11955350089E+03  0.00000000000E+00 0.  1.
          3    1    6    6  503    0 -0.18951852610E+03 -0.17642585959E+03 -0.50095650317E+02  0.26372889460E+03  0.00000000000E+00 0. -1.
         -3    1    6    6    0  503 -0.68432030132E+02 -0.15787295241E+03 -0.75958051268E+01  0.17223387619E+03  0.00000000000E+00 0.  1.
<mgrwt>
<rscale>  0 0.14440283E+04</rscale>
<asrwt>0</asrwt>
<pdfrwt beam="1">  1        2 0.11199456E+00 0.14440283E+04</pdfrwt>
<pdfrwt beam="2">  1       -1 0.11017113E+00 0.14440283E+04</pdfrwt>
<totfact> 0.32848698E+01</totfact>
</mgrwt>
</event>
<event>
12    7  0.1740517E-007  0.1824120E+04  0.7818608E-02  0.8693577E-01
          2   -1    0    0  501    0  0.00000000000E+00  0.00000000000E+00  0.92592064752E+03  0.92592064752E+03  0.00000000000E+00 0. -1.
         -1   -1    0    0    0  501 -0.00000000000E+00 -0.00000000000E+00 -0.89840668276E+03  0.89840668276E+03  0.00000000000E+00 0.  1.
         24    2    1    2    0    0 -0.59929504424E+03  0.92259022439E+02 -0.45146488115E+03  0.76023207692E+03  0.80411408414E+02 0.  0.
        254    2    1    2    0    0  0.59929504424E+03 -0.92259022439E+02  0.47897884591E+03  0.10640952534E+04  0.73158164008E+03 0.  0.
         23    2    4    4    0    0  0.50008020238E+03 -0.20790439121E+03 -0.29133172455E+01  0.54984334358E+03  0.94946144541E+02 0.  0.
         23    2    4    4    0    0  0.99214841857E+02  0.11564536877E+03  0.48189216316E+03  0.51425190977E+03  0.94960695185E+02 0.  0.
          4    1    3    3  502    0 -0.33009835660E+01 -0.35295684223E+01  0.20088555681E+01  0.52335309729E+01  0.00000000000E+00 0. -1.
         -3    1    3    3    0  502 -0.59599406067E+03  0.95788590861E+02 -0.45347373672E+03  0.75499854595E+03  0.00000000000E+00 0.  1.
         13    1    5    5    0    0  0.23973625793E+03 -0.51557998796E+02 -0.17239826861E+02  0.24582292862E+03  0.00000000000E+00 0. -1.
        -13    1    5    5    0    0  0.26034394445E+03 -0.15634639242E+03  0.14326509615E+02  0.30402041496E+03  0.00000000000E+00 0.  1.
          2    1    6    6  503    0  0.90680023681E+02  0.48233432001E+02  0.20693009323E+03  0.23101816842E+03  0.00000000000E+00 0. -1.
         -2    1    6    6    0  503  0.85348181760E+01  0.67411936772E+02  0.27496206993E+03  0.28323374135E+03  0.00000000000E+00 0.  1.
<mgrwt>
<rscale>  0 0.18241198E+04</rscale>
<asrwt>0</asrwt>
<pdfrwt beam="1">  1        2 0.14244933E+00 0.18241198E+04</pdfrwt>
<pdfrwt beam="2">  1       -1 0.13821641E+00 0.18241198E+04</pdfrwt>
<totfact> 0.13127941E+01</totfact>
</mgrwt>
</event>
<event>
12    7  0.1740517E-007  0.2877924E+04  0.7818608E-02  0.8279476E-01
         -1   -1    0    0    0  501 -0.00000000000E+00  0.00000000000E+00  0.11832012807E+04  0.11832012807E+04  0.00000000000E+00 0.  1.
          2   -1    0    0  501    0  0.00000000000E+00 -0.00000000000E+00 -0.17500080096E+04  0.17500080096E+04  0.00000000000E+00 0. -1.
         24    2    1    2    0    0 -0.60127708199E+03  0.18048605272E+03  0.89937056897E+03  0.11004314574E+04  0.89289571891E+02 0.  0.
        254    2    1    2    0    0  0.60127708199E+03 -0.18048605272E+03 -0.14661772979E+04  0.18327778328E+04  0.90293375779E+03 0.  0.
         23    2    4    4    0    0  0.26813458970E+03  0.34514000192E+03 -0.42322221452E+03  0.61511335722E+03  0.90717254372E+02 0.  0.
         23    2    4    4    0    0  0.33314249228E+03 -0.52562605464E+03 -0.10429550834E+04  0.12176644756E+04  0.87662989075E+02 0.  0.
          4    1    3    3  502    0 -0.96978307524E+02  0.16347222501E+02  0.93421669127E+02  0.13564524347E+03  0.00000000000E+00 0. -1.
         -3    1    3    3    0  502 -0.50429877446E+03  0.16413883022E+03  0.80594889984E+03  0.96478621397E+03  0.00000000000E+00 0.  1.
         13    1    5    5    0    0  0.17412244471E+03  0.19876129267E+03 -0.31095233630E+03  0.40806376054E+03  0.00000000000E+00 0.  1.
        -13    1    5    5    0    0  0.94012144991E+02  0.14637870925E+03 -0.11226987822E+03  0.20704959668E+03  0.00000000000E+00 0. -1.
          3    1    6    6  503    0  0.16813432269E+03 -0.24070732277E+03 -0.57303734946E+03  0.64387962352E+03  0.00000000000E+00 0. -1.
         -3    1    6    6    0  503  0.16500816959E+03 -0.28491873187E+03 -0.46991773389E+03  0.57378485204E+03  0.00000000000E+00 0.  1.
<mgrwt>
<rscale>  0 0.28779241E+04</rscale>
<asrwt>0</asrwt>
<pdfrwt beam="1">  1        2 0.26923200E+00 0.28779241E+04</pdfrwt>
<pdfrwt beam="2">  1       -1 0.18203097E+00 0.28779241E+04</pdfrwt>
<totfact> 0.18217543E+00</totfact>
</mgrwt>
</event>
<event>
12    7  0.1740517E-007  0.1132420E+04  0.7818608E-02  0.9174156E-01
          2   -1    0    0  501    0  0.00000000000E+00  0.00000000000E+00  0.40185555846E+03  0.40185555846E+03  0.00000000000E+00 0. -1.
         -1   -1    0    0    0  501 -0.00000000000E+00 -0.00000000000E+00 -0.79778420597E+03  0.79778420597E+03  0.00000000000E+00 0.  1.
         24    2    1    2    0    0 -0.87778718048E+02 -0.14132722020E+03  0.27365727691E+02  0.18725847649E+03  0.81476177217E+02 0.  0.
        254    2    1    2    0    0  0.87778718048E+02  0.14132722020E+03 -0.42329437519E+03  0.10123812879E+04  0.90446628327E+03 0.  0.
         23    2    4    4    0    0 -0.31359986516E+03 -0.18060630656E+03 -0.29067317178E+03  0.47286349362E+03  0.90252298606E+02 0.  0.
         23    2    4    4    0    0  0.40137858321E+03  0.32193352677E+03 -0.13262120341E+03  0.53951779431E+03  0.93515261170E+02 0.  0.
          2    1    3    3  502    0  0.35560909969E+01 -0.88161111329E+01  0.24516068886E+02  0.26294623639E+02  0.00000000000E+00 0. -1.
         -1    1    3    3    0  502 -0.91334809045E+02 -0.13251110907E+03  0.28496588052E+01  0.16096385286E+03  0.00000000000E+00 0.  1.
         13    1    5    5    0    0 -0.94798727548E+02 -0.10037629710E+03 -0.13131835092E+03  0.19054319472E+03  0.00000000000E+00 0.  1.
        -13    1    5    5    0    0 -0.21880113761E+03 -0.80230009456E+02 -0.15935482086E+03  0.28232029890E+03  0.00000000000E+00 0. -1.
          1    1    6    6  503    0  0.25071127034E+03  0.25546565120E+03 -0.81636478959E+02  0.36712852616E+03  0.00000000000E+00 0. -1.
         -1    1    6    6    0  503  0.15066731287E+03  0.66467875565E+02 -0.50984724448E+02  0.17238926816E+03  0.00000000000E+00 0.  1.
<mgrwt>
<rscale>  0 0.11324204E+04</rscale>
<asrwt>0</asrwt>
<pdfrwt beam="1">  1        2 0.61823933E-01 0.11324204E+04</pdfrwt>
<pdfrwt beam="2">  1       -1 0.12273603E+00 0.11324204E+04</pdfrwt>
<totfact> 0.52561787E+01</totfact>
</mgrwt>
</event>
<event>
12    7  0.1740517E-007  0.1406974E+04  0.7818608E-02  0.8948786E-01
         -1   -1    0    0    0  501 -0.00000000000E+00  0.00000000000E+00  0.94894844263E+03  0.94894844263E+03  0.00000000000E+00 0.  1.
          2   -1    0    0  501    0  0.00000000000E+00 -0.00000000000E+00 -0.52151792301E+03  0.52151792301E+03  0.00000000000E+00 0. -1.
         24    2    1    2    0    0  0.17237819295E+03  0.26312031809E+03  0.40364304248E+03  0.51826160876E+03  0.81980767135E+02 0.  0.
        254    2    1    2    0    0 -0.17237819295E+03 -0.26312031809E+03  0.23787477141E+02  0.95220475687E+03  0.89843280870E+03 0.  0.
         23    2    4    4    0    0  0.35948309859E+03 -0.84854258935E+02 -0.31788885641E+02  0.38132706868E+03  0.89283014189E+02 0.  0.
         23    2    4    4    0    0 -0.53186129154E+03 -0.17826605915E+03  0.55576362782E+02  0.57087768819E+03  0.90318223489E+02 0.  0.
          2    1    3    3  502    0  0.31828403818E+02  0.35938196180E+02  0.23006007423E+02  0.53234177103E+02  0.00000000000E+00 0. -1.
         -1    1    3    3    0  502  0.14054978913E+03  0.22718212191E+03  0.38063703506E+03  0.46502743166E+03  0.00000000000E+00 0.  1.
         13    1    5    5    0    0  0.34674406619E+03 -0.69392351160E+02 -0.46233258944E+02  0.35662902303E+03  0.00000000000E+00 0. -1.
        -13    1    5    5    0    0  0.12739032407E+02 -0.15461907775E+02  0.14444373303E+02  0.24698045648E+02  0.00000000000E+00 0.  1.
          2    1    6    6  503    0 -0.47995298824E+03 -0.17797957992E+03  0.70845467875E+02  0.51676946708E+03  0.00000000000E+00 0. -1.
         -2    1    6    6    0  503 -0.51908303299E+02 -0.28647923467E+00 -0.15269105093E+02  0.54108221113E+02  0.00000000000E+00 0.  1.
<mgrwt>
<rscale>  0 0.14069735E+04</rscale>
<asrwt>0</asrwt>
<pdfrwt beam="1">  1        2 0.80233527E-01 0.14069735E+04</pdfrwt>
<pdfrwt beam="2">  1       -1 0.14599207E+00 0.14069735E+04</pdfrwt>
<totfact> 0.24464300E+01</totfact>
</mgrwt>
</event>
<event>
12    7  0.1740517E-007  0.1636718E+04  0.7818608E-02  0.8798303E-01
         -1   -1    0    0    0  501 -0.00000000000E+00  0.00000000000E+00  0.25492344417E+03  0.25492344417E+03  0.00000000000E+00 0.  1.
          2   -1    0    0  501    0  0.00000000000E+00 -0.00000000000E+00 -0.26271066617E+04  0.26271066617E+04  0.00000000000E+00 0. -1.
         24    2    1    2    0    0  0.36718759986E+03  0.30492360551E+03 -0.33068738566E+03  0.58661344930E+03  0.83402956648E+02 0.  0.
        254    2    1    2    0    0 -0.36718759986E+03 -0.30492360551E+03 -0.20414958319E+04  0.22954166566E+04  0.93457330212E+03 0.  0.
         23    2    4    4    0    0 -0.33948650712E+03  0.26231185921E+03 -0.59792777629E+03  0.74184767309E+03  0.93604190106E+02 0.  0.
         23    2    4    4    0    0 -0.27701092734E+02 -0.56723546472E+03 -0.14435680556E+04  0.15535689835E+04  0.84642970077E+02 0.  0.
          4    1    3    3  502    0  0.11773233054E+03  0.97231009087E+02 -0.15475682627E+03  0.21740387775E+03  0.00000000000E+00 0. -1.
         -3    1    3    3    0  502  0.24945526931E+03  0.20769259642E+03 -0.17593055939E+03  0.36920957155E+03  0.00000000000E+00 0.  1.
         13    1    5    5    0    0 -0.16836257421E+03  0.18376522726E+03 -0.30903802443E+03  0.39701399936E+03  0.00000000000E+00 0.  1.
        -13    1    5    5    0    0 -0.17112393291E+03  0.78546631950E+02 -0.28888975186E+03  0.34483367373E+03  0.00000000000E+00 0. -1.
          1    1    6    6  503    0  0.10322888724E+02 -0.12480262937E+02 -0.67110406465E+02  0.69037132403E+02  0.00000000000E+00 0. -1.
         -1    1    6    6    0  503 -0.38023981458E+02 -0.55475520178E+03 -0.13764576491E+04  0.14845318511E+04  0.00000000000E+00 0.  1.
<mgrwt>
<rscale>  0 0.16367175E+04</rscale>
<asrwt>0</asrwt>
<pdfrwt beam="1">  1        2 0.40417028E+00 0.16367175E+04</pdfrwt>
<pdfrwt beam="2">  1       -1 0.39218989E-01 0.16367175E+04</pdfrwt>
<totfact> 0.20224806E+01</totfact>
</mgrwt>
</event>
<event>
12    7  0.1740517E-007  0.2365831E+04  0.7818608E-02  0.8452408E-01
         -1   -1    0    0    0  501 -0.00000000000E+00  0.00000000000E+00  0.11135286895E+04  0.11135286895E+04  0.00000000000E+00 0.  1.
          2   -1    0    0  501    0  0.00000000000E+00 -0.00000000000E+00 -0.12566264496E+04  0.12566264496E+04  0.00000000000E+00 0. -1.
         24    2    1    2    0    0  0.78787973378E+02 -0.91727679891E+03  0.34719224191E+03  0.98727101617E+03  0.80977379368E+02 0.  0.
        254    2    1    2    0    0 -0.78787973378E+02  0.91727679891E+03 -0.49029000202E+03  0.13828841230E+04  0.90795371076E+03 0.  0.
         23    2    4    4    0    0 -0.48410895638E+03  0.45443934907E+03 -0.23308684602E+03  0.70966050962E+03  0.91716724190E+02 0.  0.
         23    2    4    4    0    0  0.40532098300E+03  0.46283744984E+03 -0.25720315600E+03  0.67322361334E+03  0.92590311943E+02 0.  0.
          2    1    3    3  502    0 -0.23526423481E+01 -0.12628090199E+03  0.22036795154E+02  0.12821084772E+03  0.00000000000E+00 0. -1.
         -1    1    3    3    0  502  0.81140615726E+02 -0.79099589692E+03  0.32515544675E+03  0.85906016845E+03  0.00000000000E+00 0.  1.
         13    1    5    5    0    0 -0.42738065555E+03  0.41265372292E+03 -0.23575361837E+03  0.63915341535E+03  0.00000000000E+00 0. -1.
        -13    1    5    5    0    0 -0.56728300824E+02  0.41785626146E+02  0.26667723502E+01  0.70507094265E+02  0.00000000000E+00 0.  1.
          4    1    6    6  503    0  0.10778603922E+03  0.78368474901E+02 -0.29997108577E+02  0.13659895546E+03  0.00000000000E+00 0. -1.
         -4    1    6    6    0  503  0.29753494378E+03  0.38446897494E+03 -0.22720604742E+03  0.53662465788E+03  0.00000000000E+00 0.  1.
<mgrwt>
<rscale>  0 0.23658314E+04</rscale>
<asrwt>0</asrwt>
<pdfrwt beam="1">  1        2 0.19332715E+00 0.23658314E+04</pdfrwt>
<pdfrwt beam="2">  1       -1 0.17131211E+00 0.23658314E+04</pdfrwt>
<totfact> 0.43357101E+00</totfact>
</mgrwt>
</event>
<event>
12    7  0.1740517E-007  0.1755740E+04  0.7818608E-02  0.8730197E-01
         -1   -1    0    0    0  501 -0.00000000000E+00  0.00000000000E+00  0.39021170394E+03  0.39021170394E+03  0.00000000000E+00 0.  1.
          2   -1    0    0  501    0  0.00000000000E+00 -0.00000000000E+00 -0.19749673395E+04  0.19749673395E+04  0.00000000000E+00 0. -1.
         24    2    1    2    0    0 -0.58468702649E+03 -0.17471020173E+03 -0.46419206994E+03  0.77091518007E+03  0.80332829688E+02 0.  0.
        254    2    1    2    0    0  0.58468702649E+03  0.17471020173E+03 -0.11205635656E+04  0.15942638634E+04  0.95584098467E+03 0.  0.
         23    2    4    4    0    0  0.42912769606E+02  0.24023762715E+03  0.79429903024E+02  0.27282762055E+03  0.92575254487E+02 0.  0.
         23    2    4    4    0    0  0.54177425688E+03 -0.65527425421E+02 -0.11999934687E+04  0.13214362429E+04  0.91630945592E+02 0.  0.
          2    1    3    3  502    0 -0.50961071468E+03 -0.16410773016E+03 -0.43441296169E+03  0.68945561779E+03  0.00000000000E+00 0. -1.
         -1    1    3    3    0  502 -0.75076311806E+02 -0.10602471572E+02 -0.29779108250E+02  0.81459562275E+02  0.00000000000E+00 0.  1.
         13    1    5    5    0    0  0.14222095646E+02 -0.42096227194E+01  0.57900582942E+01  0.15922113649E+02  0.00000000000E+00 0. -1.
        -13    1    5    5    0    0  0.28690673961E+02  0.24444724987E+03  0.73639844730E+02  0.25690550690E+03  0.00000000000E+00 0.  1.
          3    1    6    6  503    0  0.86235166773E+02  0.21852727403E+02 -0.21573197409E+03  0.23335451641E+03  0.00000000000E+00 0. -1.
         -3    1    6    6    0  503  0.45553909011E+03 -0.87380152824E+02 -0.98426149458E+03  0.10880817265E+04  0.00000000000E+00 0.  1.
<mgrwt>
<rscale>  0 0.17557396E+04</rscale>
<asrwt>0</asrwt>
<pdfrwt beam="1">  1        2 0.30384112E+00 0.17557396E+04</pdfrwt>
<pdfrwt beam="2">  1       -1 0.60032571E-01 0.17557396E+04</pdfrwt>
<totfact> 0.20944030E+01</totfact>
</mgrwt>
</event>
<event>
12    7  0.1740517E-007  0.2500559E+04  0.7818608E-02  0.8402786E-01
          2   -1    0    0  501    0  0.00000000000E+00  0.00000000000E+00  0.33813008281E+04  0.33813008281E+04  0.00000000000E+00 0. -1.
         -1   -1    0    0    0  501 -0.00000000000E+00 -0.00000000000E+00 -0.46230702451E+03  0.46230702451E+03  0.00000000000E+00 0.  1.
         24    2    1    2    0    0  0.48267144582E+03  0.37086100894E+03 -0.10448836317E+03  0.62290683572E+03  0.81151065263E+02 0.  0.
        254    2    1    2    0    0 -0.48267144582E+03 -0.37086100894E+03  0.30234821667E+04  0.32207010169E+04  0.92787984939E+03 0.  0.
         23    2    4    4    0    0 -0.20010755850E+03  0.21513879209E+03  0.34115879032E+03  0.45911648968E+03  0.89838165908E+02 0.  0.
         23    2    4    4    0    0 -0.28256388732E+03 -0.58599980103E+03  0.26823233764E+04  0.27615845272E+04  0.90842104327E+02 0.  0.
          4    1    3    3  502    0  0.19535394896E+03  0.17995262855E+03 -0.78531645103E+02  0.27697171910E+03  0.00000000000E+00 0. -1.
         -3    1    3    3    0  502  0.28731749685E+03  0.19090838039E+03 -0.25956718065E+02  0.34593511662E+03  0.00000000000E+00 0.  1.
         13    1    5    5    0    0 -0.17902486937E+02  0.71139300163E+01 -0.86460079834E+00  0.19283531143E+02  0.00000000000E+00 0.  1.
        -13    1    5    5    0    0 -0.18220507156E+03  0.20802486207E+03  0.34202339112E+03  0.43983295854E+03  0.00000000000E+00 0. -1.
          3    1    6    6  503    0 -0.20096209162E+03 -0.47316189708E+03  0.22201333736E+04  0.22788725589E+04  0.00000000000E+00 0. -1.
         -3    1    6    6    0  503 -0.81601795706E+02 -0.11283790395E+03  0.46219000277E+03  0.48271196825E+03  0.00000000000E+00 0.  1.
<mgrwt>
<rscale>  0 0.25005592E+04</rscale>
<asrwt>0</asrwt>
<pdfrwt beam="1">  1        2 0.52020011E+00 0.25005592E+04</pdfrwt>
<pdfrwt beam="2">  1       -1 0.71124160E-01 0.25005592E+04</pdfrwt>
<totfact> 0.19900132E+00</totfact>
</mgrwt>
</event>
<event>
12    7  0.1740517E-007  0.2681318E+04  0.7818608E-02  0.8341092E-01
         -1   -1    0    0    0  501 -0.00000000000E+00  0.00000000000E+00  0.82161925462E+03  0.82161925462E+03  0.00000000000E+00 0.  1.
          2   -1    0    0  501    0  0.00000000000E+00 -0.00000000000E+00 -0.21875913282E+04  0.21875913282E+04  0.00000000000E+00 0. -1.
         24    2    1    2    0    0  0.20322280629E+03  0.86345011580E+02  0.69953963786E+03  0.73789802758E+03  0.79892578800E+02 0.  0.
        254    2    1    2    0    0 -0.20322280629E+03 -0.86345011580E+02 -0.20655117114E+04  0.22713125552E+04  0.91856797434E+03 0.  0.
         23    2    4    4    0    0  0.34272966039E+03 -0.15178370026E+03 -0.78292206956E+03  0.87295100091E+03  0.92598980642E+02 0.  0.
         23    2    4    4    0    0 -0.54595246669E+03  0.65438688678E+02 -0.12825896419E+04  0.13983615543E+04  0.89624379012E+02 0.  0.
          2    1    3    3  502    0 -0.31211125202E+01  0.10939943390E+02  0.74726686988E+02  0.75587707023E+02  0.00000000000E+00 0. -1.
         -1    1    3    3    0  502  0.20634391881E+03  0.75405068191E+02  0.62481295087E+03  0.66231032056E+03  0.00000000000E+00 0.  1.
         13    1    5    5    0    0  0.10116820630E+02 -0.20184659247E+01 -0.12970050804E+01  0.10397426918E+02  0.00000000000E+00 0. -1.
        -13    1    5    5    0    0  0.33261283976E+03 -0.14976523433E+03 -0.78162506448E+03  0.86255357399E+03  0.00000000000E+00 0.  1.
          1    1    6    6  503    0 -0.13182892762E+03  0.22070444806E+02 -0.41561781509E+03  0.43658233922E+03  0.00000000000E+00 0. -1.
         -1    1    6    6    0  503 -0.41412353907E+03  0.43368243872E+02 -0.86697182678E+03  0.96177921511E+03  0.00000000000E+00 0.  1.
<mgrwt>
<rscale>  0 0.26813184E+04</rscale>
<asrwt>0</asrwt>
<pdfrwt beam="1">  1        2 0.33655251E+00 0.26813184E+04</pdfrwt>
<pdfrwt beam="2">  1       -1 0.12640296E+00 0.26813184E+04</pdfrwt>
<totfact> 0.28537317E+00</totfact>
</mgrwt>
</event>
<event>
12    7  0.1740517E-007  0.2221035E+04  0.7818608E-02  0.8509724E-01
          2   -1    0    0  501    0  0.00000000000E+00  0.00000000000E+00  0.35466396757E+04  0.35466396757E+04  0.00000000000E+00 0. -1.
         -1   -1    0    0    0  501 -0.00000000000E+00 -0.00000000000E+00 -0.34772316988E+03  0.34772316988E+03  0.00000000000E+00 0.  1.
         24    2    1    2    0    0  0.56895237089E+03  0.49630074845E+03  0.38997806966E+03  0.85348831071E+03  0.79612614862E+02 0.  0.
        254    2    1    2    0    0 -0.56895237089E+03 -0.49630074845E+03  0.28089384361E+04  0.30408745348E+04  0.88699580914E+03 0.  0.
         23    2    4    4    0    0  0.77019418266E+02 -0.30410250689E+03  0.17658498238E+04  0.17957238998E+04  0.89377841619E+02 0.  0.
         23    2    4    4    0    0 -0.64597178915E+03 -0.19219824156E+03  0.10430886123E+04  0.12451506350E+04  0.90258153962E+02 0.  0.
          2    1    3    3  502    0  0.23675628408E+03  0.16683758432E+03  0.12172487107E+03  0.31417393563E+03  0.00000000000E+00 0. -1.
         -1    1    3    3    0  502  0.33219608681E+03  0.32946316412E+03  0.26825319859E+03  0.53931437508E+03  0.00000000000E+00 0.  1.
         13    1    5    5    0    0 -0.59561417560E+01  0.35624888119E+01  0.24793230573E+02  0.25746285817E+02  0.00000000000E+00 0. -1.
        -13    1    5    5    0    0  0.82975560022E+02 -0.30766499570E+03  0.17410565932E+04  0.17699776140E+04  0.00000000000E+00 0.  1.
          2    1    6    6  503    0 -0.20308967725E+03 -0.94416317024E+02  0.39592423690E+03  0.45488004934E+03  0.00000000000E+00 0. -1.
         -2    1    6    6    0  503 -0.44288211190E+03 -0.97781924534E+02  0.64716437543E+03  0.79027058571E+03  0.00000000000E+00 0.  1.
<mgrwt>
<rscale>  0 0.22210347E+04</rscale>
<asrwt>0</asrwt>
<pdfrwt beam="1">  1        2 0.54563685E+00 0.22210347E+04</pdfrwt>
<pdfrwt beam="2">  1       -1 0.53495875E-01 0.22210347E+04</pdfrwt>
<totfact> 0.27686718E+00</totfact>
</mgrwt>
</event>
<event>
12    7  0.1740517E-007  0.2551174E+04  0.7818608E-02  0.8384978E-01
         -1   -1    0    0    0  501 -0.00000000000E+00  0.00000000000E+00  0.68706722111E+03  0.68706722111E+03  0.00000000000E+00 0.  1.
          2   -1    0    0  501    0  0.00000000000E+00 -0.00000000000E+00 -0.23682145513E+04  0.23682145513E+04  0.00000000000E+00 0. -1.
         24    2    1    2    0    0 -0.79473102084E+03  0.45981485303E+03 -0.40797965131E+01  0.92164542956E+03  0.79915946711E+02 0.  0.
        254    2    1    2    0    0  0.79473102084E+03 -0.45981485303E+03 -0.16770675337E+04  0.21336363429E+04  0.94700656623E+03 0.  0.
         23    2    4    4    0    0 -0.17551119156E+03  0.62943086317E+01 -0.49215317823E+03  0.53031121193E+03  0.90395984235E+02 0.  0.
         23    2    4    4    0    0  0.97024221241E+03 -0.46610916166E+03 -0.11849143555E+04  0.16033251309E+04  0.89452470087E+02 0.  0.
          4    1    3    3  502    0 -0.26011350158E+03  0.12133801885E+03 -0.28372395639E+02  0.28842146480E+03  0.00000000000E+00 0. -1.
         -3    1    3    3    0  502 -0.53461751926E+03  0.33847683418E+03  0.24292599126E+02  0.63322396477E+03  0.00000000000E+00 0.  1.
         13    1    5    5    0    0 -0.16707708642E+03 -0.17283263091E+02 -0.45896954301E+03  0.48873971130E+03  0.00000000000E+00 0. -1.
        -13    1    5    5    0    0 -0.84341051414E+01  0.23577571723E+02 -0.33183635228E+02  0.41571500633E+02  0.00000000000E+00 0.  1.
          3    1    6    6  503    0  0.87583761535E+03 -0.44038482846E+03 -0.10479637260E+04  0.14350116016E+04  0.00000000000E+00 0. -1.
         -3    1    6    6    0  503  0.94404597052E+02 -0.25724333201E+02 -0.13695062940E+03  0.16831352933E+03  0.00000000000E+00 0.  1.
<mgrwt>
<rscale>  0 0.25511743E+04</rscale>
<asrwt>0</asrwt>
<pdfrwt beam="1">  1        2 0.36434070E+00 0.25511743E+04</pdfrwt>
<pdfrwt beam="2">  1       -1 0.10570265E+00 0.25511743E+04</pdfrwt>
<totfact> 0.35093786E+00</totfact>
</mgrwt>
</event>
<event>
12    7  0.1740517E-007  0.1605462E+04  0.7818608E-02  0.8817200E-01
         -1   -1    0    0    0  501 -0.00000000000E+00  0.00000000000E+00  0.98845866079E+03  0.98845866079E+03  0.00000000000E+00 0.  1.
          2   -1    0    0  501    0  0.00000000000E+00 -0.00000000000E+00 -0.65190073958E+03  0.65190073958E+03  0.00000000000E+00 0. -1.
         24    2    1    2    0    0  0.19071679955E+03  0.51054051371E+03  0.47820536403E+02  0.55333089366E+03  0.82847814734E+02 0.  0.
        254    2    1    2    0    0 -0.19071679955E+03 -0.51054051371E+03  0.28873738481E+03  0.10870285067E+04  0.89511853027E+03 0.  0.
         23    2    4    4    0    0 -0.27339754765E+03 -0.26817902877E+03  0.57135197230E+03  0.69478393106E+03  0.98058268742E+02 0.  0.
         23    2    4    4    0    0  0.82680748098E+02 -0.24236148494E+03 -0.28261458749E+03  0.39224457565E+03  0.91703907108E+02 0.  0.
          4    1    3    3  502    0  0.18959371141E+03  0.50971828102E+03  0.39910493803E+02  0.54529932049E+03  0.00000000000E+00 0. -1.
         -3    1    3    3    0  502  0.11230881425E+01  0.82223268469E+00  0.79100426000E+01  0.80315731645E+01  0.00000000000E+00 0.  1.
         13    1    5    5    0    0 -0.27681346322E+03 -0.23863323351E+03  0.52393975322E+03  0.63881482338E+03  0.00000000000E+00 0.  1.
        -13    1    5    5    0    0  0.34159155735E+01 -0.29545795254E+02  0.47412219080E+02  0.55969107680E+02  0.00000000000E+00 0. -1.
          1    1    6    6  503    0 -0.14621501695E+02 -0.62444664847E+02 -0.43071639748E+02  0.77254712673E+02  0.00000000000E+00 0. -1.
         -1    1    6    6    0  503  0.97302249793E+02 -0.17991682009E+03 -0.23954294774E+03  0.31498986298E+03  0.00000000000E+00 0.  1.
<mgrwt>
<rscale>  0 0.16054618E+04</rscale>
<asrwt>0</asrwt>
<pdfrwt beam="1">  1        2 0.10029242E+00 0.16054618E+04</pdfrwt>
<pdfrwt beam="2">  1       -1 0.15207056E+00 0.16054618E+04</pdfrwt>
<totfact> 0.16491574E+01</totfact>
</mgrwt>
</event>
<event>
12    7  0.1740517E-007  0.1056719E+04  0.7818608E-02  0.9248434E-01
         -3   -1    0    0    0  501 -0.00000000000E+00  0.00000000000E+00  0.90208845130E+03  0.90208845130E+03  0.00000000000E+00 0.  1.
          4   -1    0    0  501    0  0.00000000000E+00 -0.00000000000E+00 -0.30946392298E+03  0.30946392298E+03  0.00000000000E+00 0. -1.
         24    2    1    2    0    0 -0.14175047525E+02  0.97792375914E+02 -0.27348610542E+02  0.12859375258E+03  0.77615242988E+02 0.  0.
        254    2    1    2    0    0  0.14175047525E+02 -0.97792375914E+02  0.61997313887E+03  0.10829586217E+04  0.88242189607E+03 0.  0.
         23    2    4    4    0    0 -0.13068577739E+03  0.28408412791E+03  0.57760317422E+03  0.66216820207E+03  0.84016289073E+02 0.  0.
         23    2    4    4    0    0  0.14486082491E+03 -0.38187650382E+03  0.42369964648E+02  0.42079041963E+03  0.91951294629E+02 0.  0.
          4    1    3    3  502    0 -0.11183749692E+01  0.10857029226E+03 -0.21520587323E+02  0.11068827762E+03  0.00000000000E+00 0. -1.
         -3    1    3    3    0  502 -0.13056672556E+02 -0.10777916342E+02 -0.58280232183E+01  0.17905474960E+02  0.00000000000E+00 0.  1.
         13    1    5    5    0    0 -0.23093592191E+02  0.25051968639E+02  0.12620084985E+03  0.13071943098E+03  0.00000000000E+00 0. -1.
        -13    1    5    5    0    0 -0.10759218520E+03  0.25903215927E+03  0.45140232437E+03  0.53144877109E+03  0.00000000000E+00 0.  1.
          1    1    6    6  503    0  0.30988739471E+02 -0.19874424475E+03  0.66796484852E+00  0.20114676972E+03  0.00000000000E+00 0. -1.
         -1    1    6    6    0  503  0.11387208544E+03 -0.18313225908E+03  0.41701999800E+02  0.21964364991E+03  0.00000000000E+00 0.  1.
<mgrwt>
<rscale>  0 0.10567191E+04</rscale>
<asrwt>0</asrwt>
<pdfrwt beam="1">  1        4 0.47609835E-01 0.10567191E+04</pdfrwt>
<pdfrwt beam="2">  1       -3 0.13878284E+00 0.10567191E+04</pdfrwt>
<totfact> 0.38262405E+00</totfact>
</mgrwt>
</event>
<event>
12    7  0.1740517E-007  0.2450379E+04  0.7818608E-02  0.8420880E-01
          2   -1    0    0  501    0  0.00000000000E+00  0.00000000000E+00  0.25889882806E+04  0.25889882806E+04  0.00000000000E+00 0. -1.
         -1   -1    0    0    0  501 -0.00000000000E+00 -0.00000000000E+00 -0.57979773222E+03  0.57979773222E+03  0.00000000000E+00 0.  1.
         24    2    1    2    0    0 -0.84215575355E+03 -0.53245108092E+03  0.13741565741E+04  0.16991763698E+04  0.78508462590E+02 0.  0.
        254    2    1    2    0    0  0.84215575355E+03  0.53245108092E+03  0.63503397425E+03  0.14696096430E+04  0.87393013884E+03 0.  0.
         23    2    4    4    0    0  0.18848606267E+03  0.60735198607E+03  0.43501918028E+03  0.77600899070E+03  0.92438280161E+02 0.  0.
         23    2    4    4    0    0  0.65366969088E+03 -0.74900905149E+02  0.20001479397E+03  0.69360065231E+03  0.90452953034E+02 0.  0.
          2    1    3    3  502    0 -0.74229869826E+03 -0.48388484019E+03  0.12551663123E+04  0.15364225876E+04  0.00000000000E+00 0. -1.
         -1    1    3    3    0  502 -0.99857055283E+02 -0.48566240725E+02  0.11899026180E+03  0.16275378223E+03  0.00000000000E+00 0.  1.
         13    1    5    5    0    0  0.39931206573E+02  0.27692514041E+03  0.20532598890E+03  0.34704581307E+03  0.00000000000E+00 0. -1.
        -13    1    5    5    0    0  0.14855485610E+03  0.33042684565E+03  0.22969319138E+03  0.42896317763E+03  0.00000000000E+00 0.  1.
          3    1    6    6  503    0  0.28981008244E+03 -0.72303862473E+02  0.66475037486E+02  0.30600108337E+03  0.00000000000E+00 0. -1.
         -3    1    6    6    0  503  0.36385960843E+03 -0.25970426757E+01  0.13353975648E+03  0.38759956894E+03  0.00000000000E+00 0.  1.
<mgrwt>
<rscale>  0 0.24503792E+04</rscale>
<asrwt>0</asrwt>
<pdfrwt beam="1">  1        2 0.39830588E+00 0.24503792E+04</pdfrwt>
<pdfrwt beam="2">  1       -1 0.89199652E-01 0.24503792E+04</pdfrwt>
<totfact> 0.38758170E+00</totfact>
</mgrwt>
</event>
<event>
12    7  0.1740517E-007  0.2796001E+04  0.7818608E-02  0.8304511E-01
         -1   -1    0    0    0  501 -0.00000000000E+00  0.00000000000E+00  0.22492495062E+04  0.22492495062E+04  0.00000000000E+00 0.  1.
          2   -1    0    0  501    0  0.00000000000E+00 -0.00000000000E+00 -0.86891415326E+03  0.86891415326E+03  0.00000000000E+00 0. -1.
         24    2    1    2    0    0  0.13923977857E+03  0.12315371785E+04  0.79091301683E+03  0.14724313233E+04  0.80243775320E+02 0.  0.
        254    2    1    2    0    0 -0.13923977857E+03 -0.12315371785E+04  0.58942233616E+03  0.16457323362E+04  0.90826466085E+03 0.  0.
         23    2    4    4    0    0 -0.60095105376E+02 -0.70379790161E+03  0.79432358279E+03  0.10668153236E+04  0.90565293485E+02 0.  0.
         23    2    4    4    0    0 -0.79144673194E+02 -0.52773927693E+03 -0.20490124663E+03  0.57891701270E+03  0.91584731303E+02 0.  0.
          2    1    3    3  502    0  0.20755472980E+01  0.24233130372E+02  0.30598083022E+02  0.39087020721E+02  0.00000000000E+00 0. -1.
         -1    1    3    3    0  502  0.13716423127E+03  0.12073040482E+04  0.76031493380E+03  0.14333443025E+04  0.00000000000E+00 0.  1.
         13    1    5    5    0    0 -0.61871395302E+02 -0.42414501752E+03  0.42564126116E+03  0.60406750339E+03  0.00000000000E+00 0.  1.
        -13    1    5    5    0    0  0.17762899261E+01 -0.27965288410E+03  0.36868232163E+03  0.46274782017E+03  0.00000000000E+00 0. -1.
          3    1    6    6  503    0 -0.16924746107E+02 -0.18664080317E+03 -0.11801478886E+03  0.22146947155E+03  0.00000000000E+00 0. -1.
         -3    1    6    6    0  503 -0.62219927087E+02 -0.34109847376E+03 -0.86886457777E+02  0.35744754115E+03  0.00000000000E+00 0.  1.
<mgrwt>
<rscale>  0 0.27960005E+04</rscale>
<asrwt>0</asrwt>
<pdfrwt beam="1">  1        2 0.13367910E+00 0.27960005E+04</pdfrwt>
<pdfrwt beam="2">  1       -1 0.34603838E+00 0.27960005E+04</pdfrwt>
<totfact> 0.50431991E-01</totfact>
</mgrwt>
</event>
<event>
12    7  0.1740517E-007  0.2592307E+04  0.7818608E-02  0.8370819E-01
         -1   -1    0    0    0  501 -0.00000000000E+00  0.00000000000E+00  0.79357901941E+03  0.79357901941E+03  0.00000000000E+00 0.  1.
          2   -1    0    0  501    0  0.00000000000E+00 -0.00000000000E+00 -0.21170095386E+04  0.21170095386E+04  0.00000000000E+00 0. -1.
         24    2    1    2    0    0 -0.41161756464E+03 -0.27216687644E+03 -0.17341235858E+04  0.18048475951E+04  0.82379624449E+02 0.  0.
        254    2    1    2    0    0  0.41161756464E+03  0.27216687644E+03  0.41069306667E+03  0.11057409629E+04  0.90027243310E+03 0.  0.
         23    2    4    4    0    0 -0.16229122327E+03 -0.19474754508E+03  0.35710120661E+02  0.27147310839E+03  0.90318261699E+02 0.  0.
         23    2    4    4    0    0  0.57390878791E+03  0.46691442152E+03  0.37498294601E+03  0.83426785447E+03  0.89500108103E+02 0.  0.
          2    1    3    3  502    0 -0.33691902391E+03 -0.19822552957E+03 -0.12614964038E+04  0.13206744360E+04  0.00000000000E+00 0. -1.
         -1    1    3    3    0  502 -0.74698540723E+02 -0.73941346870E+02 -0.47262718208E+03  0.48417315911E+03  0.00000000000E+00 0.  1.
         13    1    5    5    0    0 -0.80097863915E+02 -0.34912761808E+02  0.27319024524E+02  0.91547243770E+02  0.00000000000E+00 0.  1.
        -13    1    5    5    0    0 -0.82193359357E+02 -0.15983478327E+03  0.83910961372E+01  0.17992586462E+03  0.00000000000E+00 0. -1.
          2    1    6    6  503    0  0.12718912391E+03  0.15279749170E+03  0.11123979859E+03  0.22781229006E+03  0.00000000000E+00 0. -1.
         -2    1    6    6    0  503  0.44671966400E+03  0.31411692981E+03  0.26374314741E+03  0.60645556441E+03  0.00000000000E+00 0.  1.
<mgrwt>
<rscale>  0 0.25923074E+04</rscale>
<asrwt>0</asrwt>
<pdfrwt beam="1">  1        2 0.32569377E+00 0.25923074E+04</pdfrwt>
<pdfrwt beam="2">  1       -1 0.12208908E+00 0.25923074E+04</pdfrwt>
<totfact> 0.34339865E+00</totfact>
</mgrwt>
</event>
<event>
12    7  0.1740517E-007  0.1428295E+04  0.7818608E-02  0.8933588E-01
          2   -1    0    0  501    0  0.00000000000E+00  0.00000000000E+00  0.85507202971E+03  0.85507202971E+03  0.00000000000E+00 0. -1.
         -1   -1    0    0    0  501 -0.00000000000E+00 -0.00000000000E+00 -0.59644851050E+03  0.59644851050E+03  0.00000000000E+00 0.  1.
         24    2    1    2    0    0  0.17785621033E+03  0.55361725073E+02 -0.30957221873E+03  0.37002633528E+03  0.79917319990E+02 0.  0.
        254    2    1    2    0    0 -0.17785621033E+03 -0.55361725073E+02  0.56819573795E+03  0.10814942049E+04  0.90115790322E+03 0.  0.
         23    2    4    4    0    0 -0.49255346449E+03 -0.76122671214E+02  0.11227962978E+03  0.51954646653E+03  0.94436429257E+02 0.  0.
         23    2    4    4    0    0  0.31469725416E+03  0.20760946141E+02  0.45591610817E+03  0.56194773840E+03  0.91980347636E+02 0.  0.
          2    1    3    3  502    0  0.30876657126E+02  0.38867125676E+02 -0.11790738115E+03  0.12793034020E+03  0.00000000000E+00 0. -1.
         -1    1    3    3    0  502  0.14697955320E+03  0.16494599397E+02 -0.19166483758E+03  0.24209599508E+03  0.00000000000E+00 0.  1.
         13    1    5    5    0    0 -0.43310265894E+03 -0.91742486560E+02  0.79197055061E+02  0.44974078151E+03  0.00000000000E+00 0. -1.
        -13    1    5    5    0    0 -0.59450805545E+02  0.15619815346E+02  0.33082574716E+02  0.69805685021E+02  0.00000000000E+00 0.  1.
          3    1    6    6  503    0  0.13056795108E+03  0.54042594396E+02  0.20295699101E+03  0.24730574611E+03  0.00000000000E+00 0. -1.
         -3    1    6    6    0  503  0.18412930308E+03 -0.33281648255E+02  0.25295911716E+03  0.31464199230E+03  0.00000000000E+00 0.  1.
<mgrwt>
<rscale>  0 0.14282947E+04</rscale>
<asrwt>0</asrwt>
<pdfrwt beam="1">  1        2 0.13154954E+00 0.14282947E+04</pdfrwt>
<pdfrwt beam="2">  1       -1 0.91761310E-01 0.14282947E+04</pdfrwt>
<totfact> 0.40403960E+01</totfact>
</mgrwt>
</event>
<event>
12    7  0.1740517E-007  0.1898698E+04  0.7818608E-02  0.8655505E-01
          2   -1    0    0  501    0  0.00000000000E+00  0.00000000000E+00  0.23844193630E+04  0.23844193630E+04  0.00000000000E+00 0. -1.
         -1   -1    0    0    0  501 -0.00000000000E+00 -0.00000000000E+00 -0.37798012738E+03  0.37798012738E+03  0.00000000000E+00 0.  1.
         24    2    1    2    0    0 -0.21389737008E+03  0.37527688967E+03  0.16412134985E+04  0.16990023270E+04  0.80264130652E+02 0.  0.
        254    2    1    2    0    0  0.21389737008E+03 -0.37527688967E+03  0.36522573714E+03  0.10633971634E+04  0.90046591227E+03 0.  0.
         23    2    4    4    0    0  0.48177732053E+03 -0.32871677575E+03 -0.10761293396E+02  0.59041162089E+03  0.91137102309E+02 0.  0.
         23    2    4    4    0    0 -0.26787995045E+03 -0.46560113922E+02  0.37598703053E+03  0.47298554249E+03  0.91769080919E+02 0.  0.
          4    1    3    3  502    0 -0.17745848631E+03  0.33100717531E+03  0.13064261853E+04  0.13593405173E+04  0.00000000000E+00 0. -1.
         -3    1    3    3    0  502 -0.36438883775E+02  0.44269714358E+02  0.33478731322E+03  0.33966180967E+03  0.00000000000E+00 0.  1.
         13    1    5    5    0    0  0.40990974080E+03 -0.29891903075E+03 -0.36051421803E+02  0.50860425437E+03  0.00000000000E+00 0. -1.
        -13    1    5    5    0    0  0.71867579731E+02 -0.29797744996E+02  0.25290128406E+02  0.81807366527E+02  0.00000000000E+00 0.  1.
          4    1    6    6  503    0 -0.40033460982E+02  0.10974979258E+02  0.11257198742E+03  0.11998158409E+03  0.00000000000E+00 0. -1.
         -4    1    6    6    0  503 -0.22784648946E+03 -0.57535093180E+02  0.26341504311E+03  0.35300395840E+03  0.00000000000E+00 0.  1.
<mgrwt>
<rscale>  0 0.18986976E+04</rscale>
<asrwt>0</asrwt>
<pdfrwt beam="1">  1        2 0.36683374E+00 0.18986976E+04</pdfrwt>
<pdfrwt beam="2">  1       -1 0.58150790E-01 0.18986976E+04</pdfrwt>
<totfact> 0.12972871E+01</totfact>
</mgrwt>
</event>
<event>
12    7  0.1740517E-007  0.1166952E+04  0.7818608E-02  0.9142285E-01
         -1   -1    0    0    0  501 -0.00000000000E+00  0.00000000000E+00  0.13309802081E+03  0.13309802081E+03  0.00000000000E+00 0.  1.
          2   -1    0    0  501    0  0.00000000000E+00 -0.00000000000E+00 -0.25578472757E+04  0.25578472757E+04  0.00000000000E+00 0. -1.
         24    2    1    2    0    0 -0.41304221579E+02 -0.19260024187E+03 -0.27551864676E+03  0.34816972527E+03  0.80689162814E+02 0.  0.
        254    2    1    2    0    0  0.41304221579E+02  0.19260024187E+03 -0.21492306081E+04  0.23427755712E+04  0.91137493841E+03 0.  0.
         23    2    4    4    0    0 -0.86728509528E+01 -0.13764188713E+03  0.64754714174E+01  0.15939730033E+03  0.79655886085E+02 0.  0.
         23    2    4    4    0    0  0.49977072532E+02  0.33024212900E+03 -0.21557060795E+04  0.21833782709E+04  0.92273511360E+02 0.  0.
          4    1    3    3  502    0 -0.19773713347E+02 -0.48207951399E+02 -0.24031867243E+02  0.57380632280E+02  0.00000000000E+00 0. -1.
         -3    1    3    3    0  502 -0.21530508232E+02 -0.14439229047E+03 -0.25148677952E+03  0.29078909299E+03  0.00000000000E+00 0.  1.
         13    1    5    5    0    0 -0.55142292991E+01 -0.11004627172E+03  0.38765321428E+02  0.11680470363E+03  0.00000000000E+00 0.  1.
        -13    1    5    5    0    0 -0.31586216537E+01 -0.27595615407E+02 -0.32289850010E+02  0.42592596706E+02  0.00000000000E+00 0. -1.
          3    1    6    6  503    0  0.39297472574E+02  0.68356461636E+02 -0.35161486085E+03  0.36034692669E+03  0.00000000000E+00 0. -1.
         -3    1    6    6    0  503  0.10679599958E+02  0.26188566736E+03 -0.18040912187E+04  0.18230313442E+04  0.00000000000E+00 0.  1.
<mgrwt>
<rscale>  0 0.11669523E+04</rscale>
<asrwt>0</asrwt>
<pdfrwt beam="1">  1        2 0.39351497E+00 0.11669523E+04</pdfrwt>
<pdfrwt beam="2">  1       -1 0.20476619E-01 0.11669523E+04</pdfrwt>
<totfact> 0.71906689E+01</totfact>
</mgrwt>
</event>
<event>
12    7  0.1740517E-007  0.2666336E+04  0.7818608E-02  0.8346011E-01
         -3   -1    0    0    0  501 -0.00000000000E+00  0.00000000000E+00  0.15082851483E+04  0.15082851483E+04  0.00000000000E+00 0.  1.
          4   -1    0    0  501    0  0.00000000000E+00 -0.00000000000E+00 -0.11783826114E+04  0.11783826114E+04  0.00000000000E+00 0. -1.
         24    2    1    2    0    0 -0.56649162270E+03  0.10272198835E+04 -0.56651570526E+01  0.11756095152E+04  0.77020715503E+02 0.  0.
        254    2    1    2    0    0  0.56649162270E+03 -0.10272198835E+04  0.33556769392E+03  0.15110582444E+04  0.89140220617E+03 0.  0.
         23    2    4    4    0    0  0.22250888821E+03 -0.29774333825E+03 -0.29478285727E+03  0.48321383345E+03  0.91855185444E+02 0.  0.
         23    2    4    4    0    0  0.34398273449E+03 -0.72947654527E+03  0.63035055119E+03  0.10278444110E+04  0.93070747593E+02 0.  0.
          2    1    3    3  502    0 -0.56080377069E+03  0.10198924241E+04 -0.12684657604E+02  0.11639769442E+04  0.00000000000E+00 0. -1.
         -1    1    3    3    0  502 -0.56878520103E+01  0.73274593895E+01  0.70195005513E+01  0.11632571065E+02  0.00000000000E+00 0.  1.
         13    1    5    5    0    0  0.65922279993E+01 -0.61380060562E+02 -0.61136205735E+02  0.86882708039E+02  0.00000000000E+00 0. -1.
        -13    1    5    5    0    0  0.21591666021E+03 -0.23636327769E+03 -0.23364665154E+03  0.39633112541E+03  0.00000000000E+00 0.  1.
          3    1    6    6  503    0  0.97611941159E+02 -0.13131869622E+03  0.10423142524E+03  0.19400227071E+03  0.00000000000E+00 0. -1.
         -3    1    6    6    0  503  0.24637079333E+03 -0.59815784905E+03  0.52611912595E+03  0.83384214026E+03  0.00000000000E+00 0.  1.
<mgrwt>
<rscale>  0 0.26663361E+04</rscale>
<asrwt>0</asrwt>
<pdfrwt beam="1">  1        4 0.18128963E+00 0.26663361E+04</pdfrwt>
<pdfrwt beam="2">  1       -3 0.23204387E+00 0.26663361E+04</pdfrwt>
<totfact> 0.32869058E-02</totfact>
</mgrwt>
</event>
<event>
12    7  0.1740517E-007  0.1784325E+04  0.7818608E-02  0.8714680E-01
         -1   -1    0    0    0  501 -0.00000000000E+00  0.00000000000E+00  0.38946309139E+03  0.38946309139E+03  0.00000000000E+00 0.  1.
          2   -1    0    0  501    0  0.00000000000E+00 -0.00000000000E+00 -0.20437205496E+04  0.20437205496E+04  0.00000000000E+00 0. -1.
         24    2    1    2    0    0  0.27725857630E+03  0.38331400209E+03  0.12421672775E+02  0.48006640551E+03  0.80669160282E+02 0.  0.
        254    2    1    2    0    0 -0.27725857630E+03 -0.38331400209E+03 -0.16666791309E+04  0.19531172354E+04  0.90169044994E+03 0.  0.
         23    2    4    4    0    0 -0.17765469416E+03  0.22171192047E+03 -0.19539109733E+03  0.35658528660E+03  0.90873646686E+02 0.  0.
         23    2    4    4    0    0 -0.99603882135E+02 -0.60502592256E+03 -0.14712880336E+04  0.15965319488E+04  0.90821173314E+02 0.  0.
          2    1    3    3  502    0  0.37882725649E+02  0.57157173827E+02 -0.26744320548E+02  0.73602324040E+02  0.00000000000E+00 0. -1.
         -1    1    3    3    0  502  0.23937585065E+03  0.32615682826E+03  0.39165993323E+02  0.40646408147E+03  0.00000000000E+00 0.  1.
         13    1    5    5    0    0 -0.21176454127E+02  0.44758618104E+02 -0.79040011952E+02  0.93268963720E+02  0.00000000000E+00 0. -1.
        -13    1    5    5    0    0 -0.15647824004E+03  0.17695330237E+03 -0.11635108538E+03  0.26331632288E+03  0.00000000000E+00 0.  1.
          4    1    6    6  503    0 -0.62961579699E+02 -0.16849929673E+03 -0.48725077571E+03  0.51939338844E+03  0.00000000000E+00 0.  1.
         -4    1    6    6    0  503 -0.36642302436E+02 -0.43652662583E+03 -0.98403725790E+03  0.10771385604E+04  0.00000000000E+00 0. -1.
<mgrwt>
<rscale>  0 0.17843248E+04</rscale>
<asrwt>0</asrwt>
<pdfrwt beam="1">  1        2 0.31441855E+00 0.17843248E+04</pdfrwt>
<pdfrwt beam="2">  1       -1 0.59917397E-01 0.17843248E+04</pdfrwt>
<totfact> 0.19205930E+01</totfact>
</mgrwt>
</event>
<event>
12    7  0.1740517E-007  0.1209871E+04  0.7818608E-02  0.9104260E-01
         -1   -1    0    0    0  501 -0.00000000000E+00  0.00000000000E+00  0.41834387433E+03  0.41834387433E+03  0.00000000000E+00 0.  1.
          2   -1    0    0  501    0  0.00000000000E+00 -0.00000000000E+00 -0.87475191407E+03  0.87475191407E+03  0.00000000000E+00 0. -1.
         24    2    1    2    0    0 -0.25493935245E+03  0.42275824548E+02 -0.64552771388E+02  0.28031592170E+03  0.87342068285E+02 0.  0.
        254    2    1    2    0    0  0.25493935245E+03 -0.42275824548E+02 -0.39185526834E+03  0.10127798667E+04  0.89743589648E+03 0.  0.
         23    2    4    4    0    0  0.54144299290E+03 -0.15490392921E+03 -0.39538134291E+03  0.69404748530E+03  0.90662912410E+02 0.  0.
         23    2    4    4    0    0 -0.28650364044E+03  0.11262810467E+03  0.35260745702E+01  0.31873238140E+03  0.82513464369E+02 0.  0.
          4    1    3    3  502    0 -0.24825976293E+03  0.35981401782E+02 -0.79175088376E+02  0.26305183098E+03  0.00000000000E+00 0. -1.
         -3    1    3    3    0  502 -0.66795895288E+01  0.62944227664E+01  0.14622316988E+02  0.17264090719E+02  0.00000000000E+00 0.  1.
         13    1    5    5    0    0  0.22243397414E+03 -0.35102995928E+02 -0.11550007075E+03  0.25307974933E+03  0.00000000000E+00 0. -1.
        -13    1    5    5    0    0  0.31900901875E+03 -0.11980093329E+03 -0.27988127217E+03  0.44096773598E+03  0.00000000000E+00 0.  1.
          4    1    6    6  503    0 -0.16463585324E+03  0.10582086188E+03  0.14091389827E+02  0.19621821080E+03  0.00000000000E+00 0.  1.
         -4    1    6    6    0  503 -0.12186778720E+03  0.68072427889E+01 -0.10565315257E+02  0.12251417060E+03  0.00000000000E+00 0. -1.
<mgrwt>
<rscale>  0 0.12098712E+04</rscale>
<asrwt>0</asrwt>
<pdfrwt beam="1">  1        2 0.13457722E+00 0.12098712E+04</pdfrwt>
<pdfrwt beam="2">  1       -1 0.64360597E-01 0.12098712E+04</pdfrwt>
<totfact> 0.84066566E+01</totfact>
</mgrwt>
</event>
<event>
12    7  0.1740517E-007  0.1791504E+04  0.7818608E-02  0.8710831E-01
         -1   -1    0    0    0  501 -0.00000000000E+00  0.00000000000E+00  0.50843644849E+03  0.50843644849E+03  0.00000000000E+00 0.  1.
          2   -1    0    0  501    0  0.00000000000E+00 -0.00000000000E+00 -0.15781150602E+04  0.15781150602E+04  0.00000000000E+00 0. -1.
         24    2    1    2    0    0  0.49332912802E+03 -0.13695112537E+03  0.99982072680E+02  0.52773495796E+03  0.79865710417E+02 0.  0.
        254    2    1    2    0    0 -0.49332912802E+03  0.13695112537E+03 -0.11696606844E+04  0.15588165508E+04  0.89424475561E+03 0.  0.
         23    2    4    4    0    0  0.12199101782E+03 -0.20149794490E+03 -0.59455846485E+03  0.64612342462E+03  0.92154660661E+02 0.  0.
         23    2    4    4    0    0 -0.61532014584E+03  0.33844907027E+03 -0.57510221957E+03  0.91269312614E+03  0.95391427822E+02 0.  0.
          4    1    3    3  502    0  0.39776286525E+01 -0.88025999121E+01  0.10069694101E+02  0.13953710410E+02  0.00000000000E+00 0. -1.
         -3    1    3    3    0  502  0.48935149937E+03 -0.12814852546E+03  0.89912378579E+02  0.51378124755E+03  0.00000000000E+00 0.  1.
         13    1    5    5    0    0  0.17972052617E+02 -0.11079432436E+03 -0.22064920833E+03  0.24755696339E+03  0.00000000000E+00 0. -1.
        -13    1    5    5    0    0  0.10401896520E+03 -0.90703620539E+02 -0.37390925653E+03  0.39856646123E+03  0.00000000000E+00 0.  1.
          3    1    6    6  503    0 -0.46452146609E+03  0.29463053653E+03 -0.47210487239E+03  0.72489334116E+03  0.00000000000E+00 0. -1.
         -3    1    6    6    0  503 -0.15079867976E+03  0.43818533741E+02 -0.10299734717E+03  0.18779978499E+03  0.00000000000E+00 0.  1.
<mgrwt>
<rscale>  0 0.17915035E+04</rscale>
<asrwt>0</asrwt>
<pdfrwt beam="1">  1        2 0.24278693E+00 0.17915035E+04</pdfrwt>
<pdfrwt beam="2">  1       -1 0.78220992E-01 0.17915035E+04</pdfrwt>
<totfact> 0.20202547E+01</totfact>
</mgrwt>
</event>
<event>
12    7  0.1740517E-007  0.1258498E+04  0.7818608E-02  0.9063140E-01
         -1   -1    0    0    0  501 -0.00000000000E+00  0.00000000000E+00  0.13471473204E+03  0.13471473204E+03  0.00000000000E+00 0.  1.
          2   -1    0    0  501    0  0.00000000000E+00 -0.00000000000E+00 -0.29392071124E+04  0.29392071124E+04  0.00000000000E+00 0. -1.
         24    2    1    2    0    0 -0.22771735309E+03  0.18331573324E+03 -0.82126682616E+03  0.87598488965E+03  0.86084122760E+02 0.  0.
        254    2    1    2    0    0  0.22771735309E+03 -0.18331573324E+03 -0.19832255542E+04  0.21979369548E+04  0.90126766694E+03 0.  0.
         23    2    4    4    0    0  0.67511464793E+02 -0.52821098666E+03 -0.13447448949E+04  0.14491705280E+04  0.90508244922E+02 0.  0.
         23    2    4    4    0    0  0.16020588829E+03  0.34489525341E+03 -0.63848065932E+03  0.74876642687E+03  0.91514737662E+02 0.  0.
          2    1    3    3  502    0 -0.20152294366E+03  0.17245594287E+03 -0.79199844847E+03  0.83523295638E+03  0.00000000000E+00 0. -1.
         -1    1    3    3    0  502 -0.26194409430E+02  0.10859790367E+02 -0.29268377693E+02  0.40751933267E+02  0.00000000000E+00 0.  1.
         13    1    5    5    0    0  0.47428814256E+02 -0.45966160989E+03 -0.10746739685E+04  0.11698129879E+04  0.00000000000E+00 0.  1.
        -13    1    5    5    0    0  0.20082650538E+02 -0.68549376765E+02 -0.27007092638E+03  0.27935754005E+03  0.00000000000E+00 0. -1.
          1    1    6    6  503    0  0.63561340407E+01  0.10489979542E+03 -0.19619107782E+03  0.22256528601E+03  0.00000000000E+00 0. -1.
         -1    1    6    6    0  503  0.15384975425E+03  0.23999545800E+03 -0.44228958150E+03  0.52620114086E+03  0.00000000000E+00 0.  1.
<mgrwt>
<rscale>  0 0.12584983E+04</rscale>
<asrwt>0</asrwt>
<pdfrwt beam="1">  1        2 0.45218576E+00 0.12584983E+04</pdfrwt>
<pdfrwt beam="2">  1       -1 0.20725341E-01 0.12584983E+04</pdfrwt>
<totfact> 0.41457167E+01</totfact>
</mgrwt>
</event>
<event>
12    7  0.1740517E-007  0.1343828E+04  0.7818608E-02  0.8995513E-01
         -1   -1    0    0    0  501 -0.00000000000E+00  0.00000000000E+00  0.17853960499E+03  0.17853960499E+03  0.00000000000E+00 0.  1.
          2   -1    0    0  501    0  0.00000000000E+00 -0.00000000000E+00 -0.25286749037E+04  0.25286749037E+04  0.00000000000E+00 0. -1.
         24    2    1    2    0    0 -0.95026205814E+01  0.27262248909E+03 -0.17018916384E+03  0.33180034630E+03  0.81937762740E+02 0.  0.
        254    2    1    2    0    0  0.95026205814E+01 -0.27262248909E+03 -0.21799461349E+04  0.23754141624E+04  0.90333491609E+03 0.  0.
         23    2    4    4    0    0  0.37930357804E+03 -0.37606818354E+03 -0.14035461303E+04  0.15043734960E+04  0.88878527600E+02 0.  0.
         23    2    4    4    0    0 -0.36980095746E+03  0.10344569445E+03 -0.77640000460E+03  0.87104066640E+03  0.91984322249E+02 0.  0.
          2    1    3    3  502    0  0.32979801549E+02  0.66157703861E+02 -0.40072377520E+02  0.84085102905E+02  0.00000000000E+00 0. -1.
         -1    1    3    3    0  502 -0.42482422131E+02  0.20646478523E+03 -0.13011678632E+03  0.24771524339E+03  0.00000000000E+00 0.  1.
         13    1    5    5    0    0  0.78478182482E+02 -0.12605221681E+03 -0.33302128775E+03  0.36462469003E+03  0.00000000000E+00 0. -1.
        -13    1    5    5    0    0  0.30082539556E+03 -0.25001596673E+03 -0.10705248426E+04  0.11397488060E+04  0.00000000000E+00 0.  1.
          3    1    6    6  503    0 -0.15920937838E+03  0.46575047437E+02 -0.23776824596E+03  0.28991481507E+03  0.00000000000E+00 0. -1.
         -3    1    6    6    0  503 -0.21059157908E+03  0.56870647017E+02 -0.53863175864E+03  0.58112585133E+03  0.00000000000E+00 0.  1.
<mgrwt>
<rscale>  0 0.13438283E+04</rscale>
<asrwt>0</asrwt>
<pdfrwt beam="1">  1        2 0.38902689E+00 0.13438283E+04</pdfrwt>
<pdfrwt beam="2">  1       -1 0.27467633E-01 0.13438283E+04</pdfrwt>
<totfact> 0.44588767E+01</totfact>
</mgrwt>
</event>
<event>
12    7  0.1740517E-007  0.2266533E+04  0.7818608E-02  0.8491235E-01
         -1   -1    0    0    0  501 -0.00000000000E+00  0.00000000000E+00  0.88190478638E+03  0.88190478638E+03  0.00000000000E+00 0.  1.
          2   -1    0    0  501    0  0.00000000000E+00 -0.00000000000E+00 -0.14562721153E+04  0.14562721153E+04  0.00000000000E+00 0. -1.
         24    2    1    2    0    0 -0.30268162387E+03  0.77244887301E+03  0.25362275782E+03  0.87136501486E+03  0.81603057515E+02 0.  0.
        254    2    1    2    0    0  0.30268162387E+03 -0.77244887301E+03 -0.82799008673E+03  0.14668118868E+04  0.88185945632E+03 0.  0.
         23    2    4    4    0    0  0.63009108666E+02 -0.88913575618E+03 -0.76815118850E+03  0.11802621041E+04  0.91814189354E+02 0.  0.
         23    2    4    4    0    0  0.23967251520E+03  0.11668688316E+03 -0.59838898230E+02  0.28654978267E+03  0.86436918974E+02 0.  0.
          4    1    3    3  502    0 -0.74193617473E+02  0.24044744585E+03  0.11122226346E+03  0.27511826362E+03  0.00000000000E+00 0. -1.
         -3    1    3    3    0  502 -0.22848800640E+03  0.53200142717E+03  0.14240049436E+03  0.59624675125E+03  0.00000000000E+00 0.  1.
         13    1    5    5    0    0  0.14479795585E+02 -0.61305875154E+03 -0.56760636326E+03  0.83560019203E+03  0.00000000000E+00 0. -1.
        -13    1    5    5    0    0  0.48529313081E+02 -0.27607700464E+03 -0.20054482524E+03  0.34466191210E+03  0.00000000000E+00 0.  1.
          3    1    6    6  503    0  0.16913130435E+03  0.12161825230E+03 -0.33006007492E+02  0.21091655680E+03  0.00000000000E+00 0. -1.
         -3    1    6    6    0  503  0.70541210857E+02 -0.49313691312E+01 -0.26832890738E+02  0.75633225874E+02  0.00000000000E+00 0.  1.
<mgrwt>
<rscale>  0 0.22665333E+04</rscale>
<asrwt>0</asrwt>
<pdfrwt beam="1">  1        2 0.22404186E+00 0.22665333E+04</pdfrwt>
<pdfrwt beam="2">  1       -1 0.13567766E+00 0.22665333E+04</pdfrwt>
<totfact> 0.63300678E+00</totfact>
</mgrwt>
</event>
<event>
12    7  0.1740517E-007  0.2391658E+04  0.7818608E-02  0.8442633E-01
          2   -1    0    0  501    0  0.00000000000E+00  0.00000000000E+00  0.17920885476E+04  0.17920885476E+04  0.00000000000E+00 0. -1.
         -1   -1    0    0    0  501 -0.00000000000E+00 -0.00000000000E+00 -0.79795576510E+03  0.79795576510E+03  0.00000000000E+00 0.  1.
         24    2    1    2    0    0 -0.57557348369E+02 -0.99343863959E+03  0.13899927551E+03  0.10079320297E+04  0.79831065023E+02 0.  0.
        254    2    1    2    0    0  0.57557348369E+02  0.99343863959E+03  0.85513350697E+03  0.15821122830E+04  0.88407736213E+03 0.  0.
         23    2    4    4    0    0 -0.10668849764E+03 -0.62837339070E+02  0.37781020236E+03  0.40792148556E+03  0.91260192127E+02 0.  0.
         23    2    4    4    0    0  0.16424584600E+03  0.10562759787E+04  0.47732330461E+03  0.11741907974E+04  0.90503318179E+02 0.  0.
          4    1    3    3  502    0 -0.71038957973E+00 -0.17355055404E+03  0.53652533894E+02  0.18165597666E+03  0.00000000000E+00 0. -1.
         -3    1    3    3    0  502 -0.56846958789E+02 -0.81988808555E+03  0.85346741618E+02  0.82627605305E+03  0.00000000000E+00 0.  1.
         13    1    5    5    0    0 -0.31766188170E+02 -0.11652568078E+02  0.21155046461E+02  0.39905000244E+02  0.00000000000E+00 0. -1.
        -13    1    5    5    0    0 -0.74922309466E+02 -0.51184770992E+02  0.35665515590E+03  0.36801648532E+03  0.00000000000E+00 0.  1.
          2    1    6    6  503    0  0.44482671648E+02  0.21173109378E+03  0.13533010479E+03  0.25519208729E+03  0.00000000000E+00 0. -1.
         -2    1    6    6    0  503  0.11976317436E+03  0.84454488488E+03  0.34199319982E+03  0.91899871013E+03  0.00000000000E+00 0.  1.
<mgrwt>
<rscale>  0 0.23916583E+04</rscale>
<asrwt>0</asrwt>
<pdfrwt beam="1">  1        2 0.27570593E+00 0.23916583E+04</pdfrwt>
<pdfrwt beam="2">  1       -1 0.12276243E+00 0.23916583E+04</pdfrwt>
<totfact> 0.52261808E+00</totfact>
</mgrwt>
</event>
<event>
12    7  0.1740517E-007  0.1381196E+04  0.7818608E-02  0.8967543E-01
          4   -1    0    0  501    0  0.00000000000E+00  0.00000000000E+00  0.54286855272E+03  0.54286855272E+03  0.00000000000E+00 0. -1.
         -3   -1    0    0    0  501 -0.00000000000E+00 -0.00000000000E+00 -0.87852931345E+03  0.87852931345E+03  0.00000000000E+00 0.  1.
         24    2    1    2    0    0 -0.23676469113E+03 -0.28685957597E+03 -0.44851237521E+03  0.58837586447E+03  0.81712128095E+02 0.  0.
        254    2    1    2    0    0  0.23676469113E+03  0.28685957597E+03  0.11285161449E+03  0.83302200170E+03  0.73677963676E+03 0.  0.
         23    2    4    4    0    0  0.36880564985E+03  0.49590485687E+01  0.27782702630E+03  0.47076349822E+03  0.91587199938E+02 0.  0.
         23    2    4    4    0    0 -0.13204095872E+03  0.28190052741E+03 -0.16497541181E+03  0.36225850348E+03  0.84330390210E+02 0.  0.
          4    1    3    3  502    0 -0.27335751282E+02 -0.19205450720E+02 -0.82005511843E+02  0.88549402077E+02  0.00000000000E+00 0. -1.
         -3    1    3    3    0  502 -0.20942893985E+03 -0.26765412525E+03 -0.36650686337E+03  0.49982646239E+03  0.00000000000E+00 0.  1.
         13    1    5    5    0    0  0.30185269951E+03  0.36751932195E+02  0.24098262816E+03  0.38799276256E+03  0.00000000000E+00 0.  1.
        -13    1    5    5    0    0  0.66952950334E+02 -0.31792883626E+02  0.36844398142E+02  0.82770735662E+02  0.00000000000E+00 0. -1.
          1    1    6    6  503    0 -0.14710214908E+02  0.26055808142E+02  0.91462243710E+01  0.31288160394E+02  0.00000000000E+00 0. -1.
         -1    1    6    6    0  503 -0.11733074381E+03  0.25584471926E+03 -0.17412163618E+03  0.33097034309E+03  0.00000000000E+00 0.  1.
<mgrwt>
<rscale>  0 0.13811965E+04</rscale>
<asrwt>0</asrwt>
<pdfrwt beam="1">  1        4 0.83518240E-01 0.13811965E+04</pdfrwt>
<pdfrwt beam="2">  1       -3 0.13515835E+00 0.13811965E+04</pdfrwt>
<totfact> 0.11808940E+00</totfact>
</mgrwt>
</event>
<event>
12    7  0.1740517E-007  0.1440510E+04  0.7818608E-02  0.8925007E-01
          2   -1    0    0  501    0  0.00000000000E+00  0.00000000000E+00  0.61692792459E+03  0.61692792459E+03  0.00000000000E+00 0. -1.
         -1   -1    0    0    0  501 -0.00000000000E+00 -0.00000000000E+00 -0.84088756590E+03  0.84088756590E+03  0.00000000000E+00 0.  1.
         24    2    1    2    0    0  0.32978293850E+03 -0.47067464609E+02  0.20035675262E+02  0.34457715089E+03  0.85789579085E+02 0.  0.
        254    2    1    2    0    0 -0.32978293850E+03  0.47067464609E+02 -0.24399531657E+03  0.11132383396E+04  0.10338248176E+04 0.  0.
         23    2    4    4    0    0 -0.11101318351E+03  0.11939286327E+03 -0.62851774773E+03  0.65580818383E+03  0.92039296259E+02 0.  0.
         23    2    4    4    0    0 -0.21876975499E+03 -0.72325398661E+02  0.38452243116E+03  0.45743015577E+03  0.91069634637E+02 0.  0.
          2    1    3    3  502    0  0.59013408791E+02 -0.11055567944E+02 -0.29616452730E+02  0.66947309670E+02  0.00000000000E+00 0. -1.
         -1    1    3    3    0  502  0.27076952971E+03 -0.36011896665E+02  0.49652127992E+02  0.27762984122E+03  0.00000000000E+00 0.  1.
         13    1    5    5    0    0 -0.75587904857E+02  0.12591902804E+03 -0.55252168071E+03  0.57170739075E+03  0.00000000000E+00 0. -1.
        -13    1    5    5    0    0 -0.35425278654E+02 -0.65261647734E+01 -0.75996067019E+02  0.84100793080E+02  0.00000000000E+00 0.  1.
          4    1    6    6  503    0 -0.14724646412E+03 -0.77567528720E+02  0.32121569524E+03  0.36177032158E+03  0.00000000000E+00 0. -1.
         -4    1    6    6    0  503 -0.71523290869E+02  0.52421300592E+01  0.63306735918E+02  0.95659834188E+02  0.00000000000E+00 0.  1.
<mgrwt>
<rscale>  0 0.14405097E+04</rscale>
<asrwt>0</asrwt>
<pdfrwt beam="1">  1        2 0.94911988E-01 0.14405097E+04</pdfrwt>
<pdfrwt beam="2">  1       -1 0.12936732E+00 0.14405097E+04</pdfrwt>
<totfact> 0.27304499E+01</totfact>
</mgrwt>
</event>
<event>
12    7  0.1740517E-007  0.1386711E+04  0.7818608E-02  0.8963495E-01
          2   -1    0    0  501    0  0.00000000000E+00  0.00000000000E+00  0.14361772238E+04  0.14361772238E+04  0.00000000000E+00 0. -1.
         -1   -1    0    0    0  501 -0.00000000000E+00 -0.00000000000E+00 -0.33473693058E+03  0.33473693058E+03  0.00000000000E+00 0.  1.
         24    2    1    2    0    0  0.58000620099E+02  0.49296537309E+02  0.80481548126E+03  0.81232944236E+03  0.79730442919E+02 0.  0.
        254    2    1    2    0    0 -0.58000620099E+02 -0.49296537309E+02  0.29662481199E+03  0.95858471205E+03  0.90835243742E+03 0.  0.
         23    2    4    4    0    0  0.37305614002E+03  0.57792170529E+02  0.32189409142E+03  0.50453330144E+03  0.91799932387E+02 0.  0.
         23    2    4    4    0    0 -0.43105676012E+03 -0.10708870784E+03 -0.25269279431E+02  0.45405141061E+03  0.90808728668E+02 0.  0.
          2    1    3    3  502    0  0.34456175810E+02  0.65600847883E+02  0.42297718805E+03  0.42941867787E+03  0.00000000000E+00 0. -1.
         -1    1    3    3    0  502  0.23544444289E+02 -0.16304310574E+02  0.38183829322E+03  0.38291076450E+03  0.00000000000E+00 0.  1.
         13    1    5    5    0    0  0.59980480140E+02  0.16086628828E+02  0.10293706766E+03  0.12021845749E+03  0.00000000000E+00 0. -1.
        -13    1    5    5    0    0  0.31307565988E+03  0.41705541701E+02  0.21895702376E+03  0.38431484395E+03  0.00000000000E+00 0.  1.
          1    1    6    6  503    0 -0.16789434611E+03 -0.65634837054E+02 -0.48370173854E+02  0.18664435970E+03  0.00000000000E+00 0. -1.
         -1    1    6    6    0  503 -0.26316241402E+03 -0.41453870784E+02  0.23100894423E+02  0.26740705091E+03  0.00000000000E+00 0.  1.
<mgrwt>
<rscale>  0 0.13867106E+04</rscale>
<asrwt>0</asrwt>
<pdfrwt beam="1">  1        2 0.22095034E+00 0.13867106E+04</pdfrwt>
<pdfrwt beam="2">  1       -1 0.51497990E-01 0.13867106E+04</pdfrwt>
<totfact> 0.58105317E+01</totfact>
</mgrwt>
</event>
<event>
12    7  0.1740517E-007  0.2019828E+04  0.7818608E-02  0.8597406E-01
         -1   -1    0    0    0  501 -0.00000000000E+00  0.00000000000E+00  0.37662392378E+03  0.37662392378E+03  0.00000000000E+00 0.  1.
          2   -1    0    0  501    0  0.00000000000E+00 -0.00000000000E+00 -0.27080750272E+04  0.27080750272E+04  0.00000000000E+00 0. -1.
         24    2    1    2    0    0 -0.43587267601E+03 -0.16013019375E+03 -0.19382987287E+04  0.19947610311E+04  0.80267933432E+02 0.  0.
        254    2    1    2    0    0  0.43587267601E+03  0.16013019375E+03 -0.39315237471E+03  0.10899379198E+04  0.90430592756E+03 0.  0.
         23    2    4    4    0    0  0.27647980666E+03  0.43979715011E+03  0.55601214440E+02  0.53021874401E+03  0.90431215374E+02 0.  0.
         23    2    4    4    0    0  0.15939286935E+03 -0.27966695637E+03 -0.44875358915E+03  0.55971917579E+03  0.91027900606E+02 0.  0.
          4    1    3    3  502    0 -0.41818620106E+03 -0.14041000372E+03 -0.17566650013E+04  0.18112058400E+04  0.00000000000E+00 0. -1.
         -3    1    3    3    0  502 -0.17686474946E+02 -0.19720190027E+02 -0.18163372734E+03  0.18355519115E+03  0.00000000000E+00 0.  1.
         13    1    5    5    0    0  0.25240945972E+02  0.83989442529E+01  0.11720444471E+02  0.29069166426E+02  0.00000000000E+00 0.  1.
        -13    1    5    5    0    0  0.25123886069E+03  0.43139820586E+03  0.43880769969E+02  0.50114957758E+03  0.00000000000E+00 0. -1.
          3    1    6    6  503    0  0.16228067066E+03 -0.25959910823E+03 -0.44327011459E+03  0.53871616604E+03  0.00000000000E+00 0. -1.
         -3    1    6    6    0  503 -0.28878013126E+01 -0.20067848132E+02 -0.54834745546E+01  0.21003009743E+02  0.00000000000E+00 0.  1.
<mgrwt>
<rscale>  0 0.20198276E+04</rscale>
<asrwt>0</asrwt>
<pdfrwt beam="1">  1        2 0.41662695E+00 0.20198276E+04</pdfrwt>
<pdfrwt beam="2">  1       -1 0.57942140E-01 0.20198276E+04</pdfrwt>
<totfact> 0.83758509E+00</totfact>
</mgrwt>
</event>
<event>
12    7  0.1740517E-007  0.3293049E+04  0.7818608E-02  0.8164666E-01
         -1   -1    0    0    0  501 -0.00000000000E+00  0.00000000000E+00  0.20931100699E+04  0.20931100699E+04  0.00000000000E+00 0.  1.
          2   -1    0    0  501    0  0.00000000000E+00 -0.00000000000E+00 -0.12952223212E+04  0.12952223212E+04  0.00000000000E+00 0. -1.
         24    2    1    2    0    0  0.14828157099E+04  0.25442315595E+03  0.60718427895E+03  0.16242468148E+04  0.77662058144E+02 0.  0.
        254    2    1    2    0    0 -0.14828157099E+04 -0.25442315595E+03  0.19070346978E+03  0.17640855762E+04  0.90119727872E+03 0.  0.
         23    2    4    4    0    0 -0.56123553947E+02 -0.22364094567E+03 -0.15639268648E+03  0.29265822436E+03  0.89582576514E+02 0.  0.
         23    2    4    4    0    0 -0.14266921559E+04 -0.30782210282E+02  0.34709615626E+03  0.14714273519E+04  0.90689899707E+02 0.  0.
          2    1    3    3  502    0  0.34848200866E+03  0.92748358024E+02  0.13836440728E+03  0.38624691258E+03  0.00000000000E+00 0. -1.
         -1    1    3    3    0  502  0.11343337012E+04  0.16167479793E+03  0.46881987167E+03  0.12379999023E+04  0.00000000000E+00 0.  1.
         13    1    5    5    0    0 -0.87515473282E+01 -0.13097591537E+03 -0.13117424934E+03  0.18557468491E+03  0.00000000000E+00 0.  1.
        -13    1    5    5    0    0 -0.47372006619E+02 -0.92665030297E+02 -0.25218437147E+02  0.10708353946E+03  0.00000000000E+00 0. -1.
          2    1    6    6  503    0 -0.34758428870E+03  0.30213569157E+02  0.94687855678E+02  0.36151554258E+03  0.00000000000E+00 0. -1.
         -2    1    6    6    0  503 -0.10791078672E+04 -0.60995779439E+02  0.25240830058E+03  0.11099118093E+04  0.00000000000E+00 0.  1.
<mgrwt>
<rscale>  0 0.32930490E+04</rscale>
<asrwt>0</asrwt>
<pdfrwt beam="1">  1        2 0.19926497E+00 0.32930490E+04</pdfrwt>
<pdfrwt beam="2">  1       -1 0.32201693E+00 0.32930490E+04</pdfrwt>
<totfact> 0.37592201E-01</totfact>
</mgrwt>
</event>
<event>
12    7  0.1740517E-007  0.1611010E+04  0.7818608E-02  0.8813813E-01
         -1   -1    0    0    0  501 -0.00000000000E+00  0.00000000000E+00  0.12699549389E+04  0.12699549389E+04  0.00000000000E+00 0.  1.
          2   -1    0    0  501    0  0.00000000000E+00 -0.00000000000E+00 -0.51091426967E+03  0.51091426967E+03  0.00000000000E+00 0. -1.
         24    2    1    2    0    0 -0.46835112133E+03  0.29259538573E+03  0.26860015713E+03  0.61941367572E+03  0.81008793754E+02 0.  0.
        254    2    1    2    0    0  0.46835112133E+03 -0.29259538573E+03  0.49044051207E+03  0.11614555328E+04  0.89637170093E+03 0.  0.
         23    2    4    4    0    0  0.53350779294E+03  0.41670166830E+02 -0.17359933088E+02  0.54325701716E+03  0.91977450949E+02 0.  0.
         23    2    4    4    0    0 -0.65156671614E+02 -0.33426555256E+03  0.50780044515E+03  0.61819851565E+03  0.91264786049E+02 0.  0.
          2    1    3    3  502    0 -0.15858435411E+03  0.77066636558E+02  0.49868246812E+02  0.18323511094E+03  0.00000000000E+00 0. -1.
         -1    1    3    3    0  502 -0.30976676722E+03  0.21552874917E+03  0.21873191031E+03  0.43617856479E+03  0.00000000000E+00 0.  1.
         13    1    5    5    0    0  0.37086684667E+03 -0.12716357978E+02 -0.21580018634E+02  0.37171174440E+03  0.00000000000E+00 0. -1.
        -13    1    5    5    0    0  0.16264094628E+03  0.54386524808E+02  0.42200855462E+01  0.17154527277E+03  0.00000000000E+00 0.  1.
          2    1    6    6  503    0 -0.71528503884E+02 -0.26345541566E+03  0.45105075174E+03  0.52723037048E+03  0.00000000000E+00 0. -1.
         -2    1    6    6    0  503  0.63718322704E+01 -0.70810136894E+02  0.56749693413E+02  0.90968145171E+02  0.00000000000E+00 0.  1.
<mgrwt>
<rscale>  0 0.16110097E+04</rscale>
<asrwt>0</asrwt>
<pdfrwt beam="1">  1        2 0.78602196E-01 0.16110097E+04</pdfrwt>
<pdfrwt beam="2">  1       -1 0.19537768E+00 0.16110097E+04</pdfrwt>
<totfact> 0.10653672E+01</totfact>
</mgrwt>
</event>
<event>
12    7  0.1740517E-007  0.2878450E+04  0.7818608E-02  0.8279318E-01
         -1   -1    0    0    0  501 -0.00000000000E+00  0.00000000000E+00  0.89825318689E+03  0.89825318689E+03  0.00000000000E+00 0.  1.
          2   -1    0    0  501    0  0.00000000000E+00 -0.00000000000E+00 -0.23059968679E+04  0.23059968679E+04  0.00000000000E+00 0. -1.
         24    2    1    2    0    0  0.10573939922E+04 -0.24044143263E+03 -0.14229615102E+04  0.17907969037E+04  0.78993376455E+02 0.  0.
        254    2    1    2    0    0 -0.10573939922E+04  0.24044143263E+03  0.15217829220E+02  0.14134531511E+04  0.90648998377E+03 0.  0.
         23    2    4    4    0    0 -0.85522330318E+03  0.41422212111E+03  0.31234653429E+03  0.10043596797E+04  0.90504943495E+02 0.  0.
         23    2    4    4    0    0 -0.20217068903E+03 -0.17378068848E+03 -0.29712870506E+03  0.40909347138E+03  0.89438726295E+02 0.  0.
          4    1    3    3  502    0  0.10291337449E+04 -0.23514957194E+03 -0.14029960166E+04  0.17557930996E+04  0.00000000000E+00 0. -1.
         -3    1    3    3    0  502  0.28260247259E+02 -0.52918606931E+01 -0.19965493663E+02  0.35003804107E+02  0.00000000000E+00 0.  1.
         13    1    5    5    0    0 -0.42504627644E+02  0.43915672947E+02  0.13590531548E+02  0.62609362314E+02  0.00000000000E+00 0. -1.
        -13    1    5    5    0    0 -0.81271867553E+03  0.37030644817E+03  0.29875600274E+03  0.94175031738E+03  0.00000000000E+00 0.  1.
          3    1    6    6  503    0 -0.36595716260E+01 -0.30519095295E+02 -0.11278994695E+02  0.32741767872E+02  0.00000000000E+00 0. -1.
         -3    1    6    6    0  503 -0.19851111740E+03 -0.14326159319E+03 -0.28584971037E+03  0.37635170351E+03  0.00000000000E+00 0.  1.
<mgrwt>
<rscale>  0 0.28784503E+04</rscale>
<asrwt>0</asrwt>
<pdfrwt beam="1">  1        2 0.35476875E+00 0.28784503E+04</pdfrwt>
<pdfrwt beam="2">  1       -1 0.13819280E+00 0.28784503E+04</pdfrwt>
<totfact> 0.19172280E+00</totfact>
</mgrwt>
</event>
<event>
12    7  0.1740517E-007  0.1321383E+04  0.7818608E-02  0.9012778E-01
          2   -1    0    0  501    0  0.00000000000E+00  0.00000000000E+00  0.56468518434E+03  0.56468518434E+03  0.00000000000E+00 0. -1.
         -1   -1    0    0    0  501 -0.00000000000E+00 -0.00000000000E+00 -0.77302014542E+03  0.77302014542E+03  0.00000000000E+00 0.  1.
         24    2    1    2    0    0 -0.19833920895E+03  0.88341517144E+02 -0.32678447220E+03  0.40034169365E+03  0.79641163655E+02 0.  0.
        254    2    1    2    0    0  0.19833920895E+03 -0.88341517144E+02  0.11844951112E+03  0.93736363610E+03  0.90414469757E+03 0.  0.
         23    2    4    4    0    0 -0.33784506881E+03 -0.11329837873E+03  0.13799327413E+03  0.39249456009E+03  0.89632710823E+02 0.  0.
         23    2    4    4    0    0  0.53618427776E+03  0.24956861584E+02 -0.19543763014E+02  0.54486907602E+03  0.91563784683E+02 0.  0.
          2    1    3    3  502    0 -0.15604181903E+03  0.86521096425E+02 -0.20693538034E+03  0.27323469957E+03  0.00000000000E+00 0. -1.
         -1    1    3    3    0  502 -0.42297389927E+02  0.18204207188E+01 -0.11984909186E+03  0.12710699409E+03  0.00000000000E+00 0.  1.
         13    1    5    5    0    0 -0.15027227405E+03 -0.34454293131E+02  0.15381256981E+02  0.15493688306E+03  0.00000000000E+00 0.  1.
        -13    1    5    5    0    0 -0.18757279475E+03 -0.78844085597E+02  0.12261201715E+03  0.23755767703E+03  0.00000000000E+00 0. -1.
          4    1    6    6  503    0  0.51275090922E+03  0.39396441455E+02 -0.30680327340E+02  0.51517652993E+03  0.00000000000E+00 0. -1.
         -4    1    6    6    0  503  0.23433368547E+02 -0.14439579871E+02  0.11136564326E+02  0.29692546090E+02  0.00000000000E+00 0.  1.
<mgrwt>
<rscale>  0 0.13213826E+04</rscale>
<asrwt>0</asrwt>
<pdfrwt beam="1">  1        2 0.86874643E-01 0.13213826E+04</pdfrwt>
<pdfrwt beam="2">  1       -1 0.11892618E+00 0.13213826E+04</pdfrwt>
<totfact> 0.37787904E+01</totfact>
</mgrwt>
</event>
<event>
12    7  0.1740517E-007  0.1755968E+04  0.7818608E-02  0.8730072E-01
         -1   -1    0    0    0  501 -0.00000000000E+00  0.00000000000E+00  0.22947353547E+03  0.22947353547E+03  0.00000000000E+00 0.  1.
          2   -1    0    0  501    0  0.00000000000E+00 -0.00000000000E+00 -0.33592360315E+04  0.33592360315E+04  0.00000000000E+00 0. -1.
         24    2    1    2    0    0 -0.12003851604E+03 -0.58571147984E+03 -0.16458559222E+04  0.17529240857E+04  0.80211911572E+02 0.  0.
        254    2    1    2    0    0  0.12003851604E+03  0.58571147984E+03 -0.14839065739E+04  0.18357854813E+04  0.90036794165E+03 0.  0.
         23    2    4    4    0    0  0.29117697218E+03  0.86034474474E+01 -0.95955766483E+02  0.32006211982E+03  0.91510671446E+02 0.  0.
         23    2    4    4    0    0 -0.17113845614E+03  0.57710803240E+03 -0.13879508074E+04  0.15157233614E+04  0.93101087605E+02 0.  0.
          2    1    3    3  502    0 -0.12575616441E+03 -0.54605051168E+03 -0.14864515551E+04  0.15885603545E+04  0.00000000000E+00 0. -1.
         -1    1    3    3    0  502  0.57176483706E+01 -0.39660968168E+02 -0.15940436715E+03  0.16436373130E+03  0.00000000000E+00 0.  1.
         13    1    5    5    0    0  0.27076175982E+03  0.28742017158E+02 -0.69423204353E+02  0.28099397757E+03  0.00000000000E+00 0. -1.
        -13    1    5    5    0    0  0.20415212365E+02 -0.20138569710E+02 -0.26532562129E+02  0.39068142252E+02  0.00000000000E+00 0.  1.
          1    1    6    6  503    0 -0.11866810973E+03  0.34065015218E+03 -0.93316574246E+03  0.10004613682E+04  0.00000000000E+00 0. -1.
         -1    1    6    6    0  503 -0.52470346412E+02  0.23645788022E+03 -0.45478506491E+03  0.51526199320E+03  0.00000000000E+00 0.  1.
<mgrwt>
<rscale>  0 0.17559678E+04</rscale>
<asrwt>0</asrwt>
<pdfrwt beam="1">  1        2 0.51680554E+00 0.17559678E+04</pdfrwt>
<pdfrwt beam="2">  1       -1 0.35303621E-01 0.17559678E+04</pdfrwt>
<totfact> 0.84373742E+00</totfact>
</mgrwt>
</event>
<event>
12    7  0.1740517E-007  0.2240424E+04  0.7818608E-02  0.8501789E-01
         -1   -1    0    0    0  501 -0.00000000000E+00  0.00000000000E+00  0.18064501473E+04  0.18064501473E+04  0.00000000000E+00 0.  1.
          2   -1    0    0  501    0  0.00000000000E+00 -0.00000000000E+00 -0.69466354551E+03  0.69466354551E+03  0.00000000000E+00 0. -1.
         24    2    1    2    0    0  0.38232201748E+03  0.24648580427E+03 -0.44835721232E+03  0.64363235584E+03  0.79454659335E+02 0.  0.
        254    2    1    2    0    0 -0.38232201748E+03 -0.24648580427E+03  0.15601438141E+04  0.18574813369E+04  0.89959036219E+03 0.  0.
         23    2    4    4    0    0  0.15432876255E+03 -0.15892260871E+03  0.44141589392E+02  0.24398876813E+03  0.92240319536E+02 0.  0.
         23    2    4    4    0    0 -0.53665078003E+03 -0.87563195560E+02  0.15160022247E+04  0.16134925688E+04  0.97129560225E+02 0.  0.
          2    1    3    3  502    0  0.35134718517E+03  0.22689942888E+03 -0.37549068592E+03  0.56206890197E+03  0.00000000000E+00 0. -1.
         -1    1    3    3    0  502  0.30974832311E+02  0.19586375388E+02 -0.72866526393E+02  0.81563453864E+02  0.00000000000E+00 0.  1.
         13    1    5    5    0    0  0.14823829833E+00  0.62105306879E+01 -0.99053790759E+01  0.11692270979E+02  0.00000000000E+00 0. -1.
        -13    1    5    5    0    0  0.15418052425E+03 -0.16513313940E+03  0.54046968468E+02  0.23229649715E+03  0.00000000000E+00 0.  1.
          2    1    6    6  503    0 -0.17922995781E+03 -0.71590381689E+02  0.59068499545E+03  0.62141558106E+03  0.00000000000E+00 0.  1.
         -2    1    6    6    0  503 -0.35742082221E+03 -0.15972813871E+02  0.92531722921E+03  0.99207698775E+03  0.00000000000E+00 0. -1.
<mgrwt>
<rscale>  0 0.22404241E+04</rscale>
<asrwt>0</asrwt>
<pdfrwt beam="1">  1        2 0.10687132E+00 0.22404241E+04</pdfrwt>
<pdfrwt beam="2">  1       -1 0.27791541E+00 0.22404241E+04</pdfrwt>
<totfact> 0.19750425E+00</totfact>
</mgrwt>
</event>
<event>
12    7  0.1740517E-007  0.1264764E+04  0.7818608E-02  0.9057984E-01
          2   -1    0    0  501    0  0.00000000000E+00  0.00000000000E+00  0.11505574918E+04  0.11505574918E+04  0.00000000000E+00 0. -1.
         -1   -1    0    0    0  501 -0.00000000000E+00 -0.00000000000E+00 -0.34757692854E+03  0.34757692854E+03  0.00000000000E+00 0.  1.
         24    2    1    2    0    0 -0.51493941930E+02  0.27471401943E+03  0.34034712091E+03  0.44764996092E+03  0.80217867550E+02 0.  0.
        254    2    1    2    0    0  0.51493941930E+02 -0.27471401943E+03  0.46263344238E+03  0.10504844594E+04  0.90075994527E+03 0.  0.
         23    2    4    4    0    0 -0.36370134320E+03 -0.14903468314E+03  0.45329992664E+03  0.60715327769E+03  0.93082089027E+02 0.  0.
         23    2    4    4    0    0  0.41519528513E+03 -0.12567933628E+03  0.93335157438E+01  0.44333118175E+03  0.90956043417E+02 0.  0.
          2    1    3    3  502    0 -0.66608796388E+02  0.21662279976E+03  0.29708115064E+03  0.37365676656E+03  0.00000000000E+00 0. -1.
         -1    1    3    3    0  502  0.15114854458E+02  0.58091219666E+02  0.43265970266E+02  0.73993194354E+02  0.00000000000E+00 0.  1.
         13    1    5    5    0    0 -0.18248389128E+01  0.66312622426E+01  0.21882956113E+02  0.22938340050E+02  0.00000000000E+00 0. -1.
        -13    1    5    5    0    0 -0.36187650429E+03 -0.15566594539E+03  0.43141697053E+03  0.58421493764E+03  0.00000000000E+00 0.  1.
          1    1    6    6  503    0  0.16439961057E+02 -0.21067165440E+02  0.15775218326E+02  0.31031520949E+02  0.00000000000E+00 0. -1.
         -1    1    6    6    0  503  0.39875532407E+03 -0.10461217084E+03 -0.64417025818E+01  0.41229966080E+03  0.00000000000E+00 0.  1.
<mgrwt>
<rscale>  0 0.12647644E+04</rscale>
<asrwt>0</asrwt>
<pdfrwt beam="1">  1        2 0.17700884E+00 0.12647644E+04</pdfrwt>
<pdfrwt beam="2">  1       -1 0.53473374E-01 0.12647644E+04</pdfrwt>
<totfact> 0.80176402E+01</totfact>
</mgrwt>
</event>
<event>
12    7  0.1740517E-007  0.1592433E+04  0.7818608E-02  0.8825210E-01
         -1   -1    0    0    0  501 -0.00000000000E+00  0.00000000000E+00  0.18119081704E+03  0.18119081704E+03  0.00000000000E+00 0.  1.
          2   -1    0    0  501    0  0.00000000000E+00 -0.00000000000E+00 -0.34988587041E+04  0.34988587041E+04  0.00000000000E+00 0. -1.
         24    2    1    2    0    0 -0.10877740952E+03 -0.31633867911E+03 -0.21032260390E+04  0.21308374869E+04  0.70752667167E+02 0.  0.
        254    2    1    2    0    0  0.10877740952E+03  0.31633867911E+03 -0.12144418480E+04  0.15492120342E+04  0.90182384078E+03 0.  0.
         23    2    4    4    0    0  0.16216905786E+03  0.14645150917E+03  0.72842386885E+02  0.24642375906E+03  0.87588856825E+02 0.  0.
         23    2    4    4    0    0 -0.53391648339E+02  0.16988716995E+03 -0.12872842349E+04  0.13027882751E+04  0.91892707221E+02 0.  0.
          2    1    3    3  502    0 -0.11400787599E+03 -0.26156486901E+03 -0.18319625873E+04  0.18540498639E+04  0.00000000000E+00 0. -1.
         -1    1    3    3    0  502  0.52304664674E+01 -0.54773810106E+02 -0.27126345169E+03  0.27678762305E+03  0.00000000000E+00 0.  1.
         13    1    5    5    0    0  0.90644302360E+02  0.69420574980E+02  0.82504513543E+02  0.14086376587E+03  0.00000000000E+00 0. -1.
        -13    1    5    5    0    0  0.71524755498E+02  0.77030934187E+02 -0.96621266580E+01  0.10555999319E+03  0.00000000000E+00 0.  1.
          1    1    6    6  503    0 -0.59420023304E+02  0.17223275474E+03 -0.12805660480E+04  0.12934621233E+04  0.00000000000E+00 0. -1.
         -1    1    6    6    0  503  0.60283749652E+01 -0.23455847926E+01 -0.67181868745E+01  0.93261518120E+01  0.00000000000E+00 0.  1.
<mgrwt>
<rscale>  0 0.15924334E+04</rscale>
<asrwt>0</asrwt>
<pdfrwt beam="1">  1        2 0.53828591E+00 0.15924334E+04</pdfrwt>
<pdfrwt beam="2">  1       -1 0.27875513E-01 0.15924334E+04</pdfrwt>
<totfact> 0.10449740E+01</totfact>
</mgrwt>
</event>
<event>
12    7  0.1740517E-007  0.1515078E+04  0.7818608E-02  0.8874488E-01
         -1   -1    0    0    0  501 -0.00000000000E+00  0.00000000000E+00  0.35292886588E+03  0.35292886588E+03  0.00000000000E+00 0.  1.
          2   -1    0    0  501    0  0.00000000000E+00 -0.00000000000E+00 -0.16260085288E+04  0.16260085288E+04  0.00000000000E+00 0. -1.
         24    2    1    2    0    0 -0.23688966165E+03 -0.19345452735E+03 -0.89976427599E+03  0.95395596858E+03  0.83155707583E+02 0.  0.
        254    2    1    2    0    0  0.23688966165E+03  0.19345452735E+03 -0.37331538691E+03  0.10249814261E+04  0.90425725307E+03 0.  0.
         23    2    4    4    0    0  0.53487900918E+02 -0.29003535184E+02 -0.62320348960E+03  0.63290671760E+03  0.92120373060E+02 0.  0.
         23    2    4    4    0    0  0.18340176073E+03  0.22245806254E+03  0.24988810269E+03  0.39207470847E+03  0.90303475738E+02 0.  0.
          4    1    3    3  502    0 -0.12007535111E+03 -0.45740347418E+02 -0.37863094372E+03  0.39983954390E+03  0.00000000000E+00 0. -1.
         -3    1    3    3    0  502 -0.11681431054E+03 -0.14771417994E+03 -0.52113333227E+03  0.55411642468E+03  0.00000000000E+00 0.  1.
         13    1    5    5    0    0  0.30717064703E+02 -0.56635936134E+02 -0.25685075219E+03  0.26480837643E+03  0.00000000000E+00 0.  1.
        -13    1    5    5    0    0  0.22770836215E+02  0.27632400950E+02 -0.36635273741E+03  0.36809834117E+03  0.00000000000E+00 0. -1.
          1    1    6    6  503    0  0.17612805479E+03  0.20998520188E+03  0.19772402943E+03  0.33794920995E+03  0.00000000000E+00 0. -1.
         -1    1    6    6    0  503  0.72737059406E+01  0.12472860655E+02  0.52164073256E+02  0.54125498517E+02  0.00000000000E+00 0.  1.
<mgrwt>
<rscale>  0 0.15150780E+04</rscale>
<asrwt>0</asrwt>
<pdfrwt beam="1">  1        2 0.25015516E+00 0.15150780E+04</pdfrwt>
<pdfrwt beam="2">  1       -1 0.54296749E-01 0.15150780E+04</pdfrwt>
<totfact> 0.40618531E+01</totfact>
</mgrwt>
</event>
<event>
12    7  0.1740517E-007  0.2410528E+04  0.7818608E-02  0.8435572E-01
         -1   -1    0    0    0  501 -0.00000000000E+00  0.00000000000E+00  0.64961248920E+03  0.64961248920E+03  0.00000000000E+00 0.  1.
          2   -1    0    0  501    0  0.00000000000E+00 -0.00000000000E+00 -0.22361972864E+04  0.22361972864E+04  0.00000000000E+00 0. -1.
         24    2    1    2    0    0  0.91219965071E+03 -0.44733588696E+03 -0.90846080691E+03  0.13651926131E+04  0.78944503471E+02 0.  0.
        254    2    1    2    0    0 -0.91219965071E+03  0.44733588696E+03 -0.67812399030E+03  0.15206171625E+04  0.90565269846E+03 0.  0.
         23    2    4    4    0    0 -0.36270486876E+03  0.33991039595E+03  0.14060756312E+03  0.52470150424E+03  0.91909099916E+02 0.  0.
         23    2    4    4    0    0 -0.54949478195E+03  0.10742549101E+03 -0.81873155342E+03  0.99591565829E+03  0.89676587468E+02 0.  0.
          4    1    3    3  502    0  0.50207934547E+03 -0.20262985188E+03 -0.47663153189E+03  0.72133220032E+03  0.00000000000E+00 0. -1.
         -3    1    3    3    0  502  0.41012030524E+03 -0.24470603508E+03 -0.43182927502E+03  0.64386041278E+03  0.00000000000E+00 0.  1.
         13    1    5    5    0    0 -0.28818028482E+03  0.25896473209E+03  0.14723554987E+03  0.41447426479E+03  0.00000000000E+00 0. -1.
        -13    1    5    5    0    0 -0.74524583937E+02  0.80945663864E+02 -0.66279867444E+01  0.11022723945E+03  0.00000000000E+00 0.  1.
          1    1    6    6  503    0 -0.50250387553E+03  0.12030432259E+03 -0.72512249689E+03  0.89038525957E+03  0.00000000000E+00 0. -1.
         -1    1    6    6    0  503 -0.46990906419E+02 -0.12878831579E+02 -0.93609056533E+02  0.10553039872E+03  0.00000000000E+00 0.  1.
<mgrwt>
<rscale>  0 0.24105283E+04</rscale>
<asrwt>0</asrwt>
<pdfrwt beam="1">  1        2 0.34403035E+00 0.24105283E+04</pdfrwt>
<pdfrwt beam="2">  1       -1 0.99940384E-01 0.24105283E+04</pdfrwt>
<totfact> 0.48059136E+00</totfact>
</mgrwt>
</event>
<event>
12    7  0.1740517E-007  0.1605205E+04  0.7818608E-02  0.8817356E-01
         -1   -1    0    0    0  501 -0.00000000000E+00  0.00000000000E+00  0.83490367494E+03  0.83490367494E+03  0.00000000000E+00 0.  1.
          2   -1    0    0  501    0  0.00000000000E+00 -0.00000000000E+00 -0.77155144209E+03  0.77155144209E+03  0.00000000000E+00 0. -1.
         24    2    1    2    0    0 -0.21119273037E+03 -0.59908449598E+02 -0.48620555578E+03  0.53775046277E+03  0.67737183644E+02 0.  0.
        254    2    1    2    0    0  0.21119273037E+03  0.59908449598E+02  0.54955778863E+03  0.10687046543E+04  0.88990138965E+03 0.  0.
         23    2    4    4    0    0  0.96893299570E+02 -0.40534331101E+03  0.29929468771E+03  0.52131871396E+03  0.92219196222E+02 0.  0.
         23    2    4    4    0    0  0.11429943080E+03  0.46525176061E+03  0.25026310092E+03  0.54738594030E+03  0.86464948525E+02 0.  0.
          4    1    3    3  502    0 -0.16818078622E+03 -0.18166122596E+02 -0.34067998709E+03  0.38036513834E+03  0.00000000000E+00 0. -1.
         -3    1    3    3    0  502 -0.43011944145E+02 -0.41742327002E+02 -0.14552556869E+03  0.15738532443E+03  0.00000000000E+00 0.  1.
         13    1    5    5    0    0  0.93844001552E+02 -0.20077402506E+03  0.16974105474E+03  0.27915753873E+03  0.00000000000E+00 0. -1.
        -13    1    5    5    0    0  0.30492980183E+01 -0.20456928596E+03  0.12955363297E+03  0.24216117523E+03  0.00000000000E+00 0.  1.
          2    1    6    6  503    0  0.20093744023E+02  0.49137004126E+02  0.66058061436E+00  0.53090866353E+02  0.00000000000E+00 0. -1.
         -2    1    6    6    0  503  0.94205686775E+02  0.41611475649E+03  0.24960252031E+03  0.49429507395E+03  0.00000000000E+00 0.  1.
<mgrwt>
<rscale>  0 0.16052055E+04</rscale>
<asrwt>0</asrwt>
<pdfrwt beam="1">  1        2 0.11870022E+00 0.16052055E+04</pdfrwt>
<pdfrwt beam="2">  1       -1 0.12844672E+00 0.16052055E+04</pdfrwt>
<totfact> 0.20679942E+01</totfact>
</mgrwt>
</event>
<event>
12    7  0.1740517E-007  0.1460927E+04  0.7818608E-02  0.8910860E-01
         -1   -1    0    0    0  501 -0.00000000000E+00  0.00000000000E+00  0.34046894087E+03  0.34046894087E+03  0.00000000000E+00 0.  1.
          2   -1    0    0  501    0  0.00000000000E+00 -0.00000000000E+00 -0.15671826488E+04  0.15671826488E+04  0.00000000000E+00 0. -1.
         24    2    1    2    0    0 -0.28965539911E+03 -0.13839774050E+03 -0.79027934583E+03  0.85666752995E+03  0.79269335892E+02 0.  0.
        254    2    1    2    0    0  0.28965539911E+03  0.13839774050E+03 -0.43643436209E+03  0.10509840597E+04  0.90057667999E+03 0.  0.
         23    2    4    4    0    0  0.30303821623E+03  0.49286386920E+03 -0.31743968934E+03  0.66571488014E+03  0.87529373444E+02 0.  0.
         23    2    4    4    0    0 -0.13382817114E+02 -0.35446612870E+03 -0.11899467274E+03  0.38526917957E+03  0.91909044139E+02 0.  0.
          4    1    3    3  502    0 -0.20008744965E+03 -0.79535265129E+02 -0.61058719370E+03  0.64743923809E+03  0.00000000000E+00 0. -1.
         -3    1    3    3    0  502 -0.89567949461E+02 -0.58862475373E+02 -0.17969215214E+03  0.20922829187E+03  0.00000000000E+00 0.  1.
         13    1    5    5    0    0  0.26870553917E+03  0.41872509028E+03 -0.30361480056E+03  0.58285102310E+03  0.00000000000E+00 0. -1.
        -13    1    5    5    0    0  0.34332677060E+02  0.74138778920E+02 -0.13824888779E+02  0.82863857040E+02  0.00000000000E+00 0.  1.
          4    1    6    6  503    0  0.85146653474E+01 -0.30286069251E+03 -0.12722692484E+03  0.32860886932E+03  0.00000000000E+00 0. -1.
         -4    1    6    6    0  503 -0.21897482462E+02 -0.51605436186E+02  0.82322520966E+01  0.56660310242E+02  0.00000000000E+00 0.  1.
<mgrwt>
<rscale>  0 0.14609271E+04</rscale>
<asrwt>0</asrwt>
<pdfrwt beam="1">  1        2 0.24110502E+00 0.14609271E+04</pdfrwt>
<pdfrwt beam="2">  1       -1 0.52379837E-01 0.14609271E+04</pdfrwt>
<totfact> 0.47162129E+01</totfact>
</mgrwt>
</event>
<event>
12    7  0.1740517E-007  0.2711655E+04  0.7818608E-02  0.8331233E-01
          2   -1    0    0  501    0  0.00000000000E+00  0.00000000000E+00  0.29195235085E+04  0.29195235085E+04  0.00000000000E+00 0. -1.
         -1   -1    0    0    0  501 -0.00000000000E+00 -0.00000000000E+00 -0.62964643065E+03  0.62964643065E+03  0.00000000000E+00 0.  1.
         24    2    1    2    0    0  0.59608893124E+03 -0.45271488778E+03  0.22491072319E+04  0.23717133156E+04  0.79170241332E+02 0.  0.
        254    2    1    2    0    0 -0.59608893124E+03  0.45271488778E+03  0.40769845950E+02  0.11774566236E+04  0.90800282847E+03 0.  0.
         23    2    4    4    0    0 -0.58888427274E+03 -0.24854705427E+02  0.25184590547E+03  0.64751780748E+03  0.91926643812E+02 0.  0.
         23    2    4    4    0    0 -0.72046585014E+01  0.47756959321E+03 -0.21107605952E+03  0.52993881610E+03  0.90318450187E+02 0.  0.
          4    1    3    3  502    0  0.41872740840E+03 -0.28315589158E+03  0.15899223363E+04  0.16683413730E+04  0.00000000000E+00 0. -1.
         -3    1    3    3    0  502  0.17736152284E+03 -0.16955899620E+03  0.65918489564E+03  0.70337194259E+03  0.00000000000E+00 0.  1.
         13    1    5    5    0    0 -0.28173636762E+03  0.29278839377E+02  0.14202571171E+03  0.31686579818E+03  0.00000000000E+00 0.  1.
        -13    1    5    5    0    0 -0.30714790513E+03 -0.54133544805E+02  0.10982019376E+03  0.33065200930E+03  0.00000000000E+00 0. -1.
          4    1    6    6  503    0  0.20695550702E+01  0.32900692622E+01  0.68729273961E+01  0.78958688521E+01  0.00000000000E+00 0. -1.
         -4    1    6    6    0  503 -0.92742135716E+01  0.47427952394E+03 -0.21794898692E+03  0.52204294724E+03  0.00000000000E+00 0.  1.
<mgrwt>
<rscale>  0 0.27116545E+04</rscale>
<asrwt>0</asrwt>
<pdfrwt beam="1">  1        2 0.44915746E+00 0.27116545E+04</pdfrwt>
<pdfrwt beam="2">  1       -1 0.96868683E-01 0.27116545E+04</pdfrwt>
<totfact> 0.19944082E+00</totfact>
</mgrwt>
</event>
<event>
12    7  0.1740517E-007  0.1536421E+04  0.7818608E-02  0.8860588E-01
         -1   -1    0    0    0  501 -0.00000000000E+00  0.00000000000E+00  0.57520584595E+03  0.57520584595E+03  0.00000000000E+00 0.  1.
          2   -1    0    0  501    0  0.00000000000E+00 -0.00000000000E+00 -0.10259757983E+04  0.10259757983E+04  0.00000000000E+00 0. -1.
         24    2    1    2    0    0 -0.29287871367E+03 -0.36386975662E+03  0.41329631970E+02  0.47531935185E+03  0.77725202234E+02 0.  0.
        254    2    1    2    0    0  0.29287871367E+03  0.36386975662E+03 -0.49209958435E+03  0.11258622924E+04  0.89845687704E+03 0.  0.
         23    2    4    4    0    0  0.45946112262E+02  0.49702311644E+03  0.48359461937E+02  0.50913294641E+03  0.87947120747E+02 0.  0.
         23    2    4    4    0    0  0.24693260141E+03 -0.13315335983E+03 -0.54045904628E+03  0.61672934602E+03  0.97742409767E+02 0.  0.
          2    1    3    3  502    0 -0.18114939756E+03 -0.16666225566E+03  0.85428659323E+01  0.24630142561E+03  0.00000000000E+00 0. -1.
         -1    1    3    3    0  502 -0.11172931610E+03 -0.19720750096E+03  0.32786766038E+02  0.22901792624E+03  0.00000000000E+00 0.  1.
         13    1    5    5    0    0 -0.27475528679E+01  0.14795301877E+01 -0.74574165791E+01  0.80840038577E+01  0.00000000000E+00 0. -1.
        -13    1    5    5    0    0  0.48693665130E+02  0.49554358626E+03  0.55816878517E+02  0.50104894255E+03  0.00000000000E+00 0.  1.
          4    1    6    6  503    0  0.87074526608E+02 -0.12258845170E+02 -0.10224677561E+03  0.13485790890E+03  0.00000000000E+00 0. -1.
         -4    1    6    6    0  503  0.15985807480E+03 -0.12089451466E+03 -0.43821227067E+03  0.48187143712E+03  0.00000000000E+00 0.  1.
<mgrwt>
<rscale>  0 0.15364209E+04</rscale>
<asrwt>0</asrwt>
<pdfrwt beam="1">  1        2 0.15784243E+00 0.15364209E+04</pdfrwt>
<pdfrwt beam="2">  1       -1 0.88493208E-01 0.15364209E+04</pdfrwt>
<totfact> 0.33418534E+01</totfact>
</mgrwt>
</event>
<event>
12    7  0.1740517E-007  0.1977969E+04  0.7818608E-02  0.8616991E-01
          2   -1    0    0  501    0  0.00000000000E+00  0.00000000000E+00  0.26435010482E+04  0.26435010482E+04  0.00000000000E+00 0. -1.
         -1   -1    0    0    0  501 -0.00000000000E+00 -0.00000000000E+00 -0.36999794678E+03  0.36999794678E+03  0.00000000000E+00 0.  1.
         24    2    1    2    0    0 -0.22195567668E+03 -0.70811974576E+03  0.13452921243E+04  0.15385415425E+04  0.81248271068E+02 0.  0.
        254    2    1    2    0    0  0.22195567668E+03  0.70811974576E+03  0.92821097713E+03  0.14749574525E+04  0.87362805118E+03 0.  0.
         23    2    4    4    0    0  0.52199949040E+03  0.25031184337E+03  0.39544975033E+03  0.70693338320E+03  0.90745888803E+02 0.  0.
         23    2    4    4    0    0 -0.30004381371E+03  0.45780790239E+03  0.53276122680E+03  0.76802406928E+03  0.80075468018E+02 0.  0.
          4    1    3    3  502    0 -0.14312354612E+03 -0.48356620746E+03  0.98767058816E+03  0.11089697098E+04  0.00000000000E+00 0. -1.
         -3    1    3    3    0  502 -0.78832130564E+02 -0.22455353830E+03  0.35762153612E+03  0.42957183273E+03  0.00000000000E+00 0.  1.
         13    1    5    5    0    0  0.17251218709E+03  0.70331079879E+02  0.79321344419E+02  0.20248158231E+03  0.00000000000E+00 0.  1.
        -13    1    5    5    0    0  0.34948730330E+03  0.17998076349E+03  0.31612840591E+03  0.50445180089E+03  0.00000000000E+00 0. -1.
          4    1    6    6  503    0 -0.29509280829E+03  0.43823210378E+03  0.52869614816E+03  0.74742675853E+03  0.00000000000E+00 0. -1.
         -4    1    6    6    0  503 -0.49510054208E+01  0.19575798607E+02  0.40650786396E+01  0.20597310750E+02  0.00000000000E+00 0.  1.
<mgrwt>
<rscale>  0 0.19779686E+04</rscale>
<asrwt>0</asrwt>
<pdfrwt beam="1">  1        2 0.40669246E+00 0.19779686E+04</pdfrwt>
<pdfrwt beam="2">  1       -1 0.56922763E-01 0.19779686E+04</pdfrwt>
<totfact> 0.95060058E+00</totfact>
</mgrwt>
</event>
<event>
12    7  0.1740517E-007  0.1906678E+04  0.7818608E-02  0.8651540E-01
          2   -1    0    0  501    0  0.00000000000E+00  0.00000000000E+00  0.44413508335E+04  0.44413508335E+04  0.00000000000E+00 0. -1.
         -3   -1    0    0    0  501 -0.00000000000E+00 -0.00000000000E+00 -0.20463481225E+03  0.20463481225E+03  0.00000000000E+00 0.  1.
         24    2    1    2    0    0 -0.13080752620E+03 -0.67620940257E+03  0.98792430840E+03  0.12067419459E+04  0.76563175800E+02 0.  0.
        254    2    1    2    0    0  0.13080752620E+03  0.67620940257E+03  0.32487917129E+04  0.34392436998E+04  0.89408045962E+03 0.  0.
         23    2    4    4    0    0 -0.25511176082E+03 -0.71962576797E+02  0.88690672900E+03  0.93021372986E+03  0.91833622986E+02 0.  0.
         23    2    4    4    0    0  0.38591928702E+03  0.74817197936E+03  0.23618849839E+04  0.25090299700E+04  0.89642101935E+02 0.  0.
          4    1    3    3  502    0  0.73066638408E+01 -0.14527496832E+02  0.15487504222E+02  0.22456586733E+02  0.00000000000E+00 0. -1.
         -3    1    3    3    0  502 -0.13811419004E+03 -0.66168190574E+03  0.97243680418E+03  0.11842853592E+04  0.00000000000E+00 0.  1.
         13    1    5    5    0    0 -0.80917465641E+01 -0.13574677316E+02  0.13870438124E+02  0.21027060671E+02  0.00000000000E+00 0. -1.
        -13    1    5    5    0    0 -0.24702001425E+03 -0.58387899481E+02  0.87303629087E+03  0.90918666919E+03  0.00000000000E+00 0.  1.
          1    1    6    6  503    0  0.72141288546E+02  0.16829476297E+03  0.62268329949E+03  0.64904698152E+03  0.00000000000E+00 0. -1.
         -1    1    6    6    0  503  0.31377799847E+03  0.57987721640E+03  0.17392016844E+04  0.18599829885E+04  0.00000000000E+00 0.  1.
<mgrwt>
<rscale>  0 0.19066777E+04</rscale>
<asrwt>0</asrwt>
<pdfrwt beam="1">  1        2 0.68328467E+00 0.19066777E+04</pdfrwt>
<pdfrwt beam="2">  1       -3 0.31482282E-01 0.19066777E+04</pdfrwt>
<totfact> 0.86287816E-01</totfact>
</mgrwt>
</event>
<event>
12    7  0.1740517E-007  0.1331925E+04  0.7818608E-02  0.9004625E-01
         -1   -1    0    0    0  501 -0.00000000000E+00  0.00000000000E+00  0.40151624267E+03  0.40151624267E+03  0.00000000000E+00 0.  1.
          2   -1    0    0  501    0  0.00000000000E+00 -0.00000000000E+00 -0.11045774788E+04  0.11045774788E+04  0.00000000000E+00 0. -1.
         24    2    1    2    0    0  0.14845747293E+03  0.25304918393E+03 -0.41669635753E+03  0.51613390524E+03  0.81760889199E+02 0.  0.
        254    2    1    2    0    0 -0.14845747293E+03 -0.25304918393E+03 -0.28636487865E+03  0.98995981627E+03  0.90107828924E+03 0.  0.
         23    2    4    4    0    0  0.12298663768E+03 -0.42447739566E+03 -0.43255401889E+03  0.62565803219E+03  0.95069561414E+02 0.  0.
         23    2    4    4    0    0 -0.27144411061E+03  0.17142821173E+03  0.14618914024E+03  0.36430178408E+03  0.90966962123E+02 0.  0.
          2    1    3    3  502    0  0.85695039025E+02  0.13403187750E+03 -0.29280680708E+03  0.33323266672E+03  0.00000000000E+00 0. -1.
         -1    1    3    3    0  502  0.62762433909E+02  0.11901730644E+03 -0.12388955045E+03  0.18290123852E+03  0.00000000000E+00 0.  1.
         13    1    5    5    0    0  0.59493055029E+02 -0.17958541551E+03 -0.12204437718E+03  0.22513368265E+03  0.00000000000E+00 0. -1.
        -13    1    5    5    0    0  0.63493582648E+02 -0.24489198015E+03 -0.31050964171E+03  0.40052434953E+03  0.00000000000E+00 0.  1.
          1    1    6    6  503    0 -0.21776398709E+03  0.14347192614E+03  0.76011869472E+02  0.27163054314E+03  0.00000000000E+00 0. -1.
         -1    1    6    6    0  503 -0.53680123517E+02  0.27956285584E+02  0.70177270771E+02  0.92671240939E+02  0.00000000000E+00 0.  1.
<mgrwt>
<rscale>  0 0.13319246E+04</rscale>
<asrwt>0</asrwt>
<pdfrwt beam="1">  1        2 0.16993499E+00 0.13319246E+04</pdfrwt>
<pdfrwt beam="2">  1       -1 0.61771730E-01 0.13319246E+04</pdfrwt>
<totfact> 0.64174222E+01</totfact>
</mgrwt>
</event>
<event>
12    7  0.1740517E-007  0.1692727E+04  0.7818608E-02  0.8765523E-01
         -1   -1    0    0    0  501 -0.00000000000E+00  0.00000000000E+00  0.59267273250E+03  0.59267273250E+03  0.00000000000E+00 0.  1.
          2   -1    0    0  501    0  0.00000000000E+00 -0.00000000000E+00 -0.12086459580E+04  0.12086459580E+04  0.00000000000E+00 0. -1.
         24    2    1    2    0    0  0.79484368215E+02  0.13077703575E+02  0.41582418429E+03  0.43091503159E+03  0.79304609479E+02 0.  0.
        254    2    1    2    0    0 -0.79484368215E+02 -0.13077703575E+02 -0.10317974098E+04  0.13704036589E+04  0.89828252928E+03 0.  0.
         23    2    4    4    0    0  0.39532037777E+02  0.24070216581E+03 -0.10430997797E+04  0.10753321159E+04  0.93710695533E+02 0.  0.
         23    2    4    4    0    0 -0.11901640599E+03 -0.25377986938E+03  0.11302369875E+02  0.29507154304E+03  0.91489589274E+02 0.  0.
          2    1    3    3  502    0  0.21328354394E+02 -0.25979837545E+02  0.65130563117E+02  0.73292843525E+02  0.00000000000E+00 0. -1.
         -1    1    3    3    0  502  0.58156013821E+02  0.39057541120E+02  0.35069362117E+03  0.35762218806E+03  0.00000000000E+00 0.  1.
         13    1    5    5    0    0 -0.30030454889E+02  0.68031688048E+02 -0.26139733297E+03  0.27176957976E+03  0.00000000000E+00 0.  1.
        -13    1    5    5    0    0  0.69562492666E+02  0.17267047776E+03 -0.78170244672E+03  0.80356253614E+03  0.00000000000E+00 0. -1.
          2    1    6    6  503    0 -0.93314433274E+02 -0.12528448156E+03  0.39274907601E+02  0.16107856202E+03  0.00000000000E+00 0. -1.
         -2    1    6    6    0  503 -0.25701972719E+02 -0.12849538783E+03 -0.27972537725E+02  0.13399298101E+03  0.00000000000E+00 0.  1.
<mgrwt>
<rscale>  0 0.16927274E+04</rscale>
<asrwt>0</asrwt>
<pdfrwt beam="1">  1        2 0.18594553E+00 0.16927274E+04</pdfrwt>
<pdfrwt beam="2">  1       -1 0.91180420E-01 0.16927274E+04</pdfrwt>
<totfact> 0.23849053E+01</totfact>
</mgrwt>
</event>
<event>
12    7  0.1740517E-007  0.2051816E+04  0.7818608E-02  0.8582771E-01
         -1   -1    0    0    0  501 -0.00000000000E+00  0.00000000000E+00  0.36620194097E+03  0.36620194097E+03  0.00000000000E+00 0.  1.
          2   -1    0    0  501    0  0.00000000000E+00 -0.00000000000E+00 -0.28740624282E+04  0.28740624282E+04  0.00000000000E+00 0. -1.
         24    2    1    2    0    0 -0.61866622290E+03  0.21616508121E+03 -0.22114436752E+03  0.69614646395E+03  0.78992596461E+02 0.  0.
        254    2    1    2    0    0  0.61866622290E+03 -0.21616508121E+03 -0.22867161197E+04  0.25441179052E+04  0.90221398008E+03 0.  0.
         23    2    4    4    0    0  0.43866864118E+03 -0.55947396185E+03 -0.14669678981E+04  0.16327450680E+04  0.91762477179E+02 0.  0.
         23    2    4    4    0    0  0.17999758172E+03  0.34330888065E+03 -0.81974822160E+03  0.91137283724E+03  0.91395758502E+02 0.  0.
          4    1    3    3  502    0 -0.11877737708E+03  0.52253933809E+02 -0.13083803623E+02  0.13042133576E+03  0.00000000000E+00 0. -1.
         -3    1    3    3    0  502 -0.49988884582E+03  0.16391114740E+03 -0.20806056390E+03  0.56572512819E+03  0.00000000000E+00 0.  1.
         13    1    5    5    0    0  0.57461132466E+02 -0.94904087707E+02 -0.30542284182E+03  0.32494873429E+03  0.00000000000E+00 0.  1.
        -13    1    5    5    0    0  0.38120750871E+03 -0.46456987415E+03 -0.11615450563E+04  0.13077963337E+04  0.00000000000E+00 0. -1.
          3    1    6    6  503    0  0.74984867344E+02  0.21497889442E+03 -0.54218073331E+03  0.58804642924E+03  0.00000000000E+00 0. -1.
         -3    1    6    6    0  503  0.10501271438E+03  0.12832998623E+03 -0.27756748830E+03  0.32332640799E+03  0.00000000000E+00 0.  1.
<mgrwt>
<rscale>  0 0.20518160E+04</rscale>
<asrwt>0</asrwt>
<pdfrwt beam="1">  1        2 0.44216343E+00 0.20518160E+04</pdfrwt>
<pdfrwt beam="2">  1       -1 0.56338762E-01 0.20518160E+04</pdfrwt>
<totfact> 0.70074729E+00</totfact>
</mgrwt>
</event>
<event>
12    7  0.1740517E-007  0.1938970E+04  0.7818608E-02  0.8635698E-01
         -1   -1    0    0    0  501 -0.00000000000E+00  0.00000000000E+00  0.13339054883E+04  0.13339054883E+04  0.00000000000E+00 0.  1.
          2   -1    0    0  501    0  0.00000000000E+00 -0.00000000000E+00 -0.70462361606E+03  0.70462361606E+03  0.00000000000E+00 0. -1.
         24    2    1    2    0    0 -0.72991056817E+03  0.24568630851E+03  0.34855344696E+03  0.84924946569E+03  0.81264690213E+02 0.  0.
        254    2    1    2    0    0  0.72991056817E+03 -0.24568630851E+03  0.28072842530E+03  0.11892796387E+04  0.86165330066E+03 0.  0.
         23    2    4    4    0    0  0.40214793026E+03  0.23970034439E+03  0.35229961110E+03  0.59230136345E+03  0.86756419113E+02 0.  0.
         23    2    4    4    0    0  0.32776263791E+03 -0.48538665290E+03 -0.71571185798E+02  0.59697827524E+03  0.90730793335E+02 0.  0.
          4    1    3    3  502    0 -0.64080970512E+03  0.21103205252E+03  0.27470749034E+03  0.72844753456E+03  0.00000000000E+00 0. -1.
         -3    1    3    3    0  502 -0.89100863049E+02  0.34654255992E+02  0.73845956623E+02  0.12080193113E+03  0.00000000000E+00 0.  1.
         13    1    5    5    0    0  0.38463815555E+02  0.25298243255E+02  0.72291065442E+02  0.85705684535E+02  0.00000000000E+00 0. -1.
        -13    1    5    5    0    0  0.36368411471E+03  0.21440210113E+03  0.28000854565E+03  0.50659567892E+03  0.00000000000E+00 0.  1.
          4    1    6    6  503    0  0.40695726121E+02 -0.19547716293E+02 -0.10851856718E+02  0.46432942304E+02  0.00000000000E+00 0. -1.
         -4    1    6    6    0  503  0.28706691179E+03 -0.46583893660E+03 -0.60719329080E+02  0.55054533294E+03  0.00000000000E+00 0.  1.
<mgrwt>
<rscale>  0 0.19389701E+04</rscale>
<asrwt>0</asrwt>
<pdfrwt beam="1">  1        2 0.10840363E+00 0.19389701E+04</pdfrwt>
<pdfrwt beam="2">  1       -1 0.20521623E+00 0.19389701E+04</pdfrwt>
<totfact> 0.60009322E+00</totfact>
</mgrwt>
</event>
<event>
12    7  0.1740517E-007  0.1391282E+04  0.7818608E-02  0.8960153E-01
         -1   -1    0    0    0  501 -0.00000000000E+00  0.00000000000E+00  0.11080236175E+04  0.11080236175E+04  0.00000000000E+00 0.  1.
          2   -1    0    0  501    0  0.00000000000E+00 -0.00000000000E+00 -0.43673822212E+03  0.43673822212E+03  0.00000000000E+00 0. -1.
         24    2    1    2    0    0  0.38420566327E+03  0.12496279407E+03  0.19262824459E+03  0.45491925478E+03  0.81340003455E+02 0.  0.
        254    2    1    2    0    0 -0.38420566327E+03 -0.12496279407E+03  0.47865715076E+03  0.10898425848E+04  0.89186013483E+03 0.  0.
         23    2    4    4    0    0  0.23095850427E+03 -0.18865676157E+03  0.16609425753E+02  0.31264419944E+03  0.92397608385E+02 0.  0.
         23    2    4    4    0    0 -0.61516416755E+03  0.63693967495E+02  0.46204772500E+03  0.77719838537E+03  0.89807324415E+02 0.  0.
          2    1    3    3  502    0  0.44512862224E+02  0.25699610237E+02  0.54788909137E+02  0.75124492904E+02  0.00000000000E+00 0. -1.
         -1    1    3    3    0  502  0.33969280105E+03  0.99263183837E+02  0.13783933545E+03  0.37979476188E+03  0.00000000000E+00 0.  1.
         13    1    5    5    0    0 -0.29099000720E+01 -0.11456111856E+02 -0.13195964105E+02  0.17715628296E+02  0.00000000000E+00 0. -1.
        -13    1    5    5    0    0  0.23386840435E+03 -0.17720064971E+03  0.29805389857E+02  0.29492857114E+03  0.00000000000E+00 0.  1.
          2    1    6    6  503    0 -0.26777576032E+03  0.17892654158E+02  0.14699438647E+03  0.30599240929E+03  0.00000000000E+00 0. -1.
         -2    1    6    6    0  503 -0.34738840722E+03  0.45801313338E+02  0.31505333853E+03  0.47120597608E+03  0.00000000000E+00 0.  1.
<mgrwt>
<rscale>  0 0.13912818E+04</rscale>
<asrwt>0</asrwt>
<pdfrwt beam="1">  1        2 0.67190496E-01 0.13912818E+04</pdfrwt>
<pdfrwt beam="2">  1       -1 0.17046517E+00 0.13912818E+04</pdfrwt>
<totfact> 0.19572861E+01</totfact>
</mgrwt>
</event>
<event>
12    7  0.1740517E-007  0.1159021E+04  0.7818608E-02  0.9149501E-01
         -1   -1    0    0    0  501 -0.00000000000E+00  0.00000000000E+00  0.18714441681E+03  0.18714441681E+03  0.00000000000E+00 0.  1.
          2   -1    0    0  501    0  0.00000000000E+00 -0.00000000000E+00 -0.17945097170E+04  0.17945097170E+04  0.00000000000E+00 0. -1.
         24    2    1    2    0    0 -0.19137595071E+03  0.68155974747E+02 -0.22352119744E+03  0.31214778602E+03  0.78768795891E+02 0.  0.
        254    2    1    2    0    0  0.19137595071E+03 -0.68155974747E+02 -0.13838441028E+04  0.16695063478E+04  0.91156840293E+03 0.  0.
         23    2    4    4    0    0  0.32474541148E+03 -0.13324750148E+02 -0.70168007865E+02  0.34474724127E+03  0.91049326146E+02 0.  0.
         23    2    4    4    0    0 -0.13336946077E+03 -0.54831224599E+02 -0.13136760949E+04  0.13247591065E+04  0.91912631230E+02 0.  0.
          2    1    3    3  502    0 -0.54566810781E+02  0.50193749825E+02 -0.11397010010E+03  0.13596371971E+03  0.00000000000E+00 0. -1.
         -1    1    3    3    0  502 -0.13680913993E+03  0.17962224922E+02 -0.10955109734E+03  0.17618406631E+03  0.00000000000E+00 0.  1.
         13    1    5    5    0    0  0.31468786340E+03 -0.30986529994E+02 -0.59379675895E+02  0.32173679044E+03  0.00000000000E+00 0.  1.
        -13    1    5    5    0    0  0.10057548078E+02  0.17661779846E+02 -0.10788331970E+02  0.23010450829E+02  0.00000000000E+00 0. -1.
          1    1    6    6  503    0 -0.49652785266E+01 -0.41154181243E+02 -0.28108860151E+03  0.28412870768E+03  0.00000000000E+00 0. -1.
         -1    1    6    6    0  503 -0.12840418225E+03 -0.13677043356E+02 -0.10325874934E+04  0.10406303989E+04  0.00000000000E+00 0.  1.
<mgrwt>
<rscale>  0 0.11590211E+04</rscale>
<asrwt>0</asrwt>
<pdfrwt beam="1">  1        2 0.27607843E+00 0.11590211E+04</pdfrwt>
<pdfrwt beam="2">  1       -1 0.28791448E-01 0.11590211E+04</pdfrwt>
<totfact> 0.10743852E+02</totfact>
</mgrwt>
</event>
<event>
12    7  0.1740517E-007  0.1180944E+04  0.7818608E-02  0.9129701E-01
         -1   -1    0    0    0  501 -0.00000000000E+00  0.00000000000E+00  0.63081834764E+03  0.63081834764E+03  0.00000000000E+00 0.  1.
          2   -1    0    0  501    0  0.00000000000E+00 -0.00000000000E+00 -0.55270640840E+03  0.55270640840E+03  0.00000000000E+00 0. -1.
         24    2    1    2    0    0  0.16352851377E+03  0.10555013476E+03  0.14316107296E+03  0.25428850460E+03  0.79278906381E+02 0.  0.
        254    2    1    2    0    0 -0.16352851377E+03 -0.10555013476E+03 -0.65049133724E+02  0.92923625144E+03  0.90629256614E+03 0.  0.
         23    2    4    4    0    0  0.16358177130E+03 -0.18874116431E+03 -0.37659269749E+03  0.46086048109E+03  0.90488121963E+02 0.  0.
         23    2    4    4    0    0 -0.32711028507E+03  0.83191029557E+02  0.31154356377E+03  0.46837577036E+03  0.91621963157E+02 0.  0.
          2    1    3    3  502    0  0.64416725113E+01 -0.96542350691E+01 -0.14222590978E+01  0.11692827736E+02  0.00000000000E+00 0. -1.
         -1    1    3    3    0  502  0.15708684126E+03  0.11520436983E+03  0.14458333206E+03  0.24259567687E+03  0.00000000000E+00 0.  1.
         13    1    5    5    0    0  0.10200565057E+02 -0.72209313022E+02 -0.97930794122E+02  0.12210109275E+03  0.00000000000E+00 0.  1.
        -13    1    5    5    0    0  0.15338120624E+03 -0.11653185129E+03 -0.27866190337E+03  0.33875938833E+03  0.00000000000E+00 0. -1.
          3    1    6    6  503    0 -0.29100419776E+03  0.40608512953E+02  0.26551804943E+03  0.39602061690E+03  0.00000000000E+00 0. -1.
         -3    1    6    6    0  503 -0.36106087314E+02  0.42582516605E+02  0.46025514338E+02  0.72355153456E+02  0.00000000000E+00 0.  1.
<mgrwt>
<rscale>  0 0.11809443E+04</rscale>
<asrwt>0</asrwt>
<pdfrwt beam="1">  1        2 0.85031755E-01 0.11809443E+04</pdfrwt>
<pdfrwt beam="2">  1       -1 0.97048976E-01 0.11809443E+04</pdfrwt>
<totfact> 0.63111461E+01</totfact>
</mgrwt>
</event>
<event>
12    7  0.1740517E-007  0.2053598E+04  0.7818608E-02  0.8581964E-01
          2   -1    0    0  501    0  0.00000000000E+00  0.00000000000E+00  0.46595198694E+03  0.46595198694E+03  0.00000000000E+00 0. -1.
         -1   -1    0    0    0  501 -0.00000000000E+00 -0.00000000000E+00 -0.22627141711E+04  0.22627141711E+04  0.00000000000E+00 0.  1.
         24    2    1    2    0    0 -0.48536430149E+02  0.63584995266E+03 -0.14237563625E+04  0.15620682877E+04  0.79461993044E+02 0.  0.
        254    2    1    2    0    0  0.48536430149E+02 -0.63584995266E+03 -0.37300582169E+03  0.11665978704E+04  0.90286006709E+03 0.  0.
         23    2    4    4    0    0 -0.70079188052E+01 -0.26157226775E+03 -0.63819252752E+03  0.69583236787E+03  0.91781369655E+02 0.  0.
         23    2    4    4    0    0  0.55544348955E+02 -0.37427768491E+03  0.26518670583E+03  0.47076550248E+03  0.90151035807E+02 0.  0.
          4    1    3    3  502    0 -0.20496579545E+02  0.76268895685E+02 -0.23446164894E+03  0.24740517183E+03  0.00000000000E+00 0. -1.
         -3    1    3    3    0  502 -0.28039850605E+02  0.55958105697E+03 -0.11892947135E+04  0.13146631158E+04  0.00000000000E+00 0.  1.
         13    1    5    5    0    0  0.11882543041E+02 -0.10511793224E+03 -0.15555324045E+03  0.18811641375E+03  0.00000000000E+00 0. -1.
        -13    1    5    5    0    0 -0.18890461846E+02 -0.15645433551E+03 -0.48263928706E+03  0.50771595411E+03  0.00000000000E+00 0.  1.
          3    1    6    6  503    0  0.24450930281E+02 -0.58246162560E+02  0.11255029922E+02  0.64164937023E+02  0.00000000000E+00 0. -1.
         -3    1    6    6    0  503  0.31093418674E+02 -0.31603152235E+03  0.25393167591E+03  0.40660056546E+03  0.00000000000E+00 0.  1.
<mgrwt>
<rscale>  0 0.20535980E+04</rscale>
<asrwt>0</asrwt>
<pdfrwt beam="1">  1        2 0.71684923E-01 0.20535980E+04</pdfrwt>
<pdfrwt beam="2">  1       -1 0.34810986E+00 0.20535980E+04</pdfrwt>
<totfact> 0.11308311E+00</totfact>
</mgrwt>
</event>
<event>
12    7  0.1740517E-007  0.3052555E+04  0.7818608E-02  0.8228881E-01
         -3   -1    0    0    0  501 -0.00000000000E+00  0.00000000000E+00  0.11394541563E+04  0.11394541563E+04  0.00000000000E+00 0.  1.
          4   -1    0    0  501    0  0.00000000000E+00 -0.00000000000E+00 -0.20444205454E+04  0.20444205454E+04  0.00000000000E+00 0. -1.
         24    2    1    2    0    0 -0.71232368163E+03  0.44694213072E+03 -0.15720268072E+04  0.17846022637E+04  0.79841477659E+02 0.  0.
        254    2    1    2    0    0  0.71232368163E+03 -0.44694213072E+03  0.66706041808E+03  0.13992724379E+04  0.89768115640E+03 0.  0.
         23    2    4    4    0    0 -0.50247882054E+02  0.19769434857E+03  0.10718963670E+03  0.25086795338E+03  0.99182693619E+02 0.  0.
         23    2    4    4    0    0  0.76257156369E+03 -0.64463647929E+03  0.55987078138E+03  0.11484044845E+04  0.91137193888E+02 0.  0.
          4    1    3    3  502    0 -0.60782501036E+03  0.34824404111E+03 -0.13257978992E+04  0.14994883210E+04  0.00000000000E+00 0. -1.
         -3    1    3    3    0  502 -0.10449867127E+03  0.98698089615E+02 -0.24622890803E+03  0.28511394274E+03  0.00000000000E+00 0.  1.
         13    1    5    5    0    0 -0.60490759678E+02  0.71177642428E+02  0.16470419533E+02  0.94850743317E+02  0.00000000000E+00 0.  1.
        -13    1    5    5    0    0  0.10242877624E+02  0.12651670614E+03  0.90719217167E+02  0.15601721007E+03  0.00000000000E+00 0. -1.
          2    1    6    6  503    0  0.54876676086E+03 -0.42299047934E+03  0.35494159004E+03  0.77849176989E+03  0.00000000000E+00 0. -1.
         -2    1    6    6    0  503  0.21380480283E+03 -0.22164599995E+03  0.20492919135E+03  0.36991271466E+03  0.00000000000E+00 0.  1.
<mgrwt>
<rscale>  0 0.30525553E+04</rscale>
<asrwt>0</asrwt>
<pdfrwt beam="1">  1        4 0.31452624E+00 0.30525553E+04</pdfrwt>
<pdfrwt beam="2">  1       -3 0.17530064E+00 0.30525553E+04</pdfrwt>
<totfact> 0.10264162E-02</totfact>
</mgrwt>
</event>
<event>
12    7  0.1740517E-007  0.3589862E+04  0.7818608E-02  0.8092818E-01
          2   -1    0    0  501    0  0.00000000000E+00  0.00000000000E+00  0.29205899336E+04  0.29205899336E+04  0.00000000000E+00 0. -1.
         -1   -1    0    0    0  501 -0.00000000000E+00 -0.00000000000E+00 -0.11031254212E+04  0.11031254212E+04  0.00000000000E+00 0.  1.
         24    2    1    2    0    0  0.54766170402E+03 -0.14314529309E+04  0.77548381557E+02  0.15366546199E+04  0.79390390086E+02 0.  0.
        254    2    1    2    0    0 -0.54766170402E+03  0.14314529309E+04  0.17399161308E+04  0.24870607348E+04  0.89953994963E+03 0.  0.
         23    2    4    4    0    0 -0.42979978307E+03  0.59513614898E+03  0.26633229675E+03  0.78615362166E+03  0.90497155784E+02 0.  0.
         23    2    4    4    0    0 -0.11786192095E+03  0.83631678192E+03  0.14735838341E+04  0.17009071132E+04  0.91205808068E+02 0.  0.
          4    1    3    3  502    0  0.25698586196E+03 -0.56795873112E+03  0.19404946345E+02  0.62369496186E+03  0.00000000000E+00 0. -1.
         -3    1    3    3    0  502  0.29067584206E+03 -0.86349419979E+03  0.58143435212E+02  0.91295965808E+03  0.00000000000E+00 0.  1.
         13    1    5    5    0    0 -0.41749272507E+03  0.59464050935E+03  0.25692216046E+03  0.77065329908E+03  0.00000000000E+00 0.  1.
        -13    1    5    5    0    0 -0.12307057998E+02  0.49563963777E+00  0.94101362899E+01  0.15500322584E+02  0.00000000000E+00 0. -1.
          4    1    6    6  503    0 -0.15096361664E+02  0.71084925922E+02  0.18433070240E+03  0.19813827160E+03  0.00000000000E+00 0. -1.
         -4    1    6    6    0  503 -0.10276555929E+03  0.76523185600E+03  0.12892531317E+04  0.15027688416E+04  0.00000000000E+00 0.  1.
<mgrwt>
<rscale>  0 0.35898618E+04</rscale>
<asrwt>0</asrwt>
<pdfrwt beam="1">  1        2 0.44932153E+00 0.35898618E+04</pdfrwt>
<pdfrwt beam="2">  1       -1 0.16971160E+00 0.35898618E+04</pdfrwt>
<totfact> 0.44669510E-01</totfact>
</mgrwt>
</event>
<event>
12    7  0.1740517E-007  0.1734922E+04  0.7818608E-02  0.8741694E-01
         -1   -1    0    0    0  501 -0.00000000000E+00  0.00000000000E+00  0.42392601457E+03  0.42392601457E+03  0.00000000000E+00 0.  1.
          2   -1    0    0  501    0  0.00000000000E+00 -0.00000000000E+00 -0.17750467526E+04  0.17750467526E+04  0.00000000000E+00 0. -1.
         24    2    1    2    0    0 -0.30327567641E+03  0.14654366814E+03  0.18471199155E+03  0.39232356198E+03  0.79674807081E+02 0.  0.
        254    2    1    2    0    0  0.30327567641E+03 -0.14654366814E+03 -0.15358327295E+04  0.18066492052E+04  0.88980222227E+03 0.  0.
         23    2    4    4    0    0 -0.14999028676E+03  0.27550979555E+03 -0.53586537572E+03  0.62701328425E+03  0.87127631456E+02 0.  0.
         23    2    4    4    0    0  0.45326596317E+03 -0.42205346369E+03 -0.99996735382E+03  0.11796359209E+04  0.89593736333E+02 0.  0.
          4    1    3    3  502    0 -0.95923754839E+02  0.87931088131E+02  0.79989618526E+02  0.15274679072E+03  0.00000000000E+00 0. -1.
         -3    1    3    3    0  502 -0.20735192157E+03  0.58612580013E+02  0.10472237303E+03  0.23957677126E+03  0.00000000000E+00 0.  1.
         13    1    5    5    0    0 -0.32188359981E+02  0.14486871101E+03 -0.27278760516E+03  0.31054164210E+03  0.00000000000E+00 0. -1.
        -13    1    5    5    0    0 -0.11780192678E+03  0.13064108453E+03 -0.26307777056E+03  0.31647164215E+03  0.00000000000E+00 0.  1.
          4    1    6    6  503    0  0.25213086993E+03 -0.29284598046E+03 -0.63521964721E+03  0.74352723154E+03  0.00000000000E+00 0. -1.
         -4    1    6    6    0  503  0.20113509324E+03 -0.12920748323E+03 -0.36474770662E+03  0.43610868936E+03  0.00000000000E+00 0.  1.
<mgrwt>
<rscale>  0 0.17349219E+04</rscale>
<asrwt>0</asrwt>
<pdfrwt beam="1">  1        2 0.27308411E+00 0.17349219E+04</pdfrwt>
<pdfrwt beam="2">  1       -1 0.65219387E-01 0.17349219E+04</pdfrwt>
<totfact> 0.22949662E+01</totfact>
</mgrwt>
</event>
<event>
12    7  0.1740517E-007  0.1711852E+04  0.7818608E-02  0.8754634E-01
          2   -1    0    0  501    0  0.00000000000E+00  0.00000000000E+00  0.22324908890E+04  0.22324908890E+04  0.00000000000E+00 0. -1.
         -1   -1    0    0    0  501 -0.00000000000E+00 -0.00000000000E+00 -0.32815777630E+03  0.32815777630E+03  0.00000000000E+00 0.  1.
         24    2    1    2    0    0 -0.15998730734E+03 -0.28745259331E+03 -0.90546349070E+02  0.35023379739E+03  0.78994554179E+02 0.  0.
        254    2    1    2    0    0  0.15998730734E+03  0.28745259331E+03  0.19948794618E+04  0.22104148679E+04  0.89340074398E+03 0.  0.
         23    2    4    4    0    0 -0.15788286862E+02 -0.23744179448E+03  0.17403878620E+03  0.30514989905E+03  0.78734274777E+02 0.  0.
         23    2    4    4    0    0  0.17577559420E+03  0.52489438779E+03  0.18208406756E+04  0.19052649688E+04  0.90347428704E+02 0.  0.
          4    1    3    3  502    0 -0.25371046952E+01  0.41191818526E+01  0.32724309460E+01  0.58406646596E+01  0.00000000000E+00 0. -1.
         -3    1    3    3    0  502 -0.15745020264E+03 -0.29157177516E+03 -0.93818780016E+02  0.34439313273E+03  0.00000000000E+00 0.  1.
         13    1    5    5    0    0  0.73799421036E+01 -0.13474659637E+03  0.14013763601E+03  0.19454990570E+03  0.00000000000E+00 0. -1.
        -13    1    5    5    0    0 -0.23168228965E+02 -0.10269519810E+03  0.33901150189E+02  0.11059999336E+03  0.00000000000E+00 0.  1.
          1    1    6    6  503    0  0.15477883356E+03  0.50276961776E+03  0.17638511881E+04  0.18406261950E+04  0.00000000000E+00 0. -1.
         -1    1    6    6    0  503  0.20996760640E+02  0.22124770031E+02  0.56989487458E+02  0.64638773867E+02  0.00000000000E+00 0.  1.
<mgrwt>
<rscale>  0 0.17118519E+04</rscale>
<asrwt>0</asrwt>
<pdfrwt beam="1">  1        2 0.34346013E+00 0.17118519E+04</pdfrwt>
<pdfrwt beam="2">  1       -1 0.50485813E-01 0.17118519E+04</pdfrwt>
<totfact> 0.21131754E+01</totfact>
</mgrwt>
</event>
<event>
12    7  0.1740517E-007  0.1653926E+04  0.7818608E-02  0.8788087E-01
          2   -1    0    0  501    0  0.00000000000E+00  0.00000000000E+00  0.73157183186E+03  0.73157183186E+03  0.00000000000E+00 0. -1.
         -1   -1    0    0    0  501 -0.00000000000E+00 -0.00000000000E+00 -0.93479244223E+03  0.93479244223E+03  0.00000000000E+00 0.  1.
         24    2    1    2    0    0  0.48823092109E+03  0.20742014232E+03  0.28892935225E+01  0.53654343396E+03  0.80485779868E+02 0.  0.
        254    2    1    2    0    0 -0.48823092109E+03 -0.20742014232E+03 -0.20610990389E+03  0.11298208401E+04  0.97602320184E+03 0.  0.
         23    2    4    4    0    0 -0.67761644785E+02 -0.17624473783E+03 -0.54318499744E+03  0.58226826053E+03  0.91282734721E+02 0.  0.
         23    2    4    4    0    0 -0.42046927631E+03 -0.31175404490E+02  0.33707509354E+03  0.54755257959E+03  0.91803543326E+02 0.  0.
          2    1    3    3  502    0  0.22638593755E+03  0.13043575269E+03  0.26404733737E+02  0.26260481386E+03  0.00000000000E+00 0. -1.
         -1    1    3    3    0  502  0.26184498355E+03  0.76984389624E+02 -0.23515440215E+02  0.27393862010E+03  0.00000000000E+00 0.  1.
         13    1    5    5    0    0 -0.34362756429E+02 -0.16679778727E+03 -0.39637436711E+03  0.43141040758E+03  0.00000000000E+00 0.  1.
        -13    1    5    5    0    0 -0.33398888356E+02 -0.94469505634E+01 -0.14681063033E+03  0.15085785295E+03  0.00000000000E+00 0. -1.
          1    1    6    6  503    0 -0.31772719445E+03  0.16672587684E+02  0.24891885604E+03  0.40396675874E+03  0.00000000000E+00 0. -1.
         -1    1    6    6    0  503 -0.10274208185E+03 -0.47847992174E+02  0.88156237504E+02  0.14358582085E+03  0.00000000000E+00 0.  1.
<mgrwt>
<rscale>  0 0.16539260E+04</rscale>
<asrwt>0</asrwt>
<pdfrwt beam="1">  1        2 0.11254951E+00 0.16539260E+04</pdfrwt>
<pdfrwt beam="2">  1       -1 0.14381422E+00 0.16539260E+04</pdfrwt>
<totfact> 0.16492833E+01</totfact>
</mgrwt>
</event>
<event>
12    7  0.2109859E-007  0.2059987E+04  0.7818608E-02  0.8579077E-01
          2   -1    0    0  501    0  0.00000000000E+00  0.00000000000E+00  0.29732120932E+04  0.29732120932E+04  0.00000000000E+00 0. -1.
         -1   -1    0    0    0  501 -0.00000000000E+00 -0.00000000000E+00 -0.35681493906E+03  0.35681493906E+03  0.00000000000E+00 0.  1.
         24    2    1    2    0    0  0.12872316613E+02  0.69828216263E+03  0.17648174081E+04  0.19002711127E+04  0.93199478266E+02 0.  0.
        254    2    1    2    0    0 -0.12872316613E+02 -0.69828216263E+03  0.85157974607E+03  0.14297559196E+04  0.91172926376E+03 0.  0.
         23    2    4    4    0    0 -0.15602632518E+03  0.12900959568E+03 -0.13669117362E+02  0.22132633503E+03  0.88378797682E+02 0.  0.
         23    2    4    4    0    0  0.14315400857E+03 -0.82729175832E+03  0.86524886343E+03  0.12084295845E+04  0.82108108804E+02 0.  0.
          2    1    3    3  502    0  0.16258245046E+02  0.51158770405E+03  0.11761393173E+04  0.12826885839E+04  0.00000000000E+00 0. -1.
         -1    1    3    3    0  502 -0.33859284326E+01  0.18669445858E+03  0.58867809072E+03  0.61758252880E+03  0.00000000000E+00 0.  1.
         13    1    5    5    0    0 -0.10586061251E+03  0.13284392910E+03 -0.18065706719E+02  0.17082256449E+03  0.00000000000E+00 0. -1.
        -13    1    5    5    0    0 -0.50165712676E+02 -0.38343334151E+01  0.43965893571E+01  0.50503770543E+02  0.00000000000E+00 0.  1.
          3    1    6    6  503    0  0.74469797127E+02 -0.63568368493E+03  0.65945088662E+03  0.91897495604E+03  0.00000000000E+00 0. -1.
         -3    1    6    6    0  503  0.68684211444E+02 -0.19160807339E+03  0.20579797681E+03  0.28945462848E+03  0.00000000000E+00 0.  1.
<mgrwt>
<rscale>  0 0.20599869E+04</rscale>
<asrwt>0</asrwt>
<pdfrwt beam="1">  1        2 0.45741723E+00 0.20599869E+04</pdfrwt>
<pdfrwt beam="2">  1       -1 0.54894608E-01 0.20599869E+04</pdfrwt>
<totfact> 0.63981633E+00</totfact>
</mgrwt>
</event>
<event>
12    7  0.1740517E-007  0.1687239E+04  0.7818608E-02  0.8768676E-01
          2   -1    0    0  501    0  0.00000000000E+00  0.00000000000E+00  0.32268282694E+04  0.32268282694E+04  0.00000000000E+00 0. -1.
         -1   -1    0    0    0  501 -0.00000000000E+00 -0.00000000000E+00 -0.22055513130E+03  0.22055513130E+03  0.00000000000E+00 0.  1.
         24    2    1    2    0    0 -0.22423916779E+03 -0.26202637392E+03  0.20822292257E+04  0.21121225581E+04  0.80262860153E+02 0.  0.
        254    2    1    2    0    0  0.22423916779E+03  0.26202637392E+03  0.92404391235E+03  0.13352608426E+04  0.90006852014E+03 0.  0.
         23    2    4    4    0    0 -0.26633868154E+03  0.35907198207E+03  0.45710880737E+03  0.64493741873E+03  0.84420558600E+02 0.  0.
         23    2    4    4    0    0  0.49057784933E+03 -0.97045608150E+02  0.46693510498E+03  0.69032342391E+03  0.91834421751E+02 0.  0.
          2    1    3    3  502    0 -0.10659104245E+03 -0.90801839505E+02  0.65052061603E+03  0.66541993979E+03  0.00000000000E+00 0. -1.
         -1    1    3    3    0  502 -0.11764812533E+03 -0.17122453442E+03  0.14317086097E+04  0.14467026183E+04  0.00000000000E+00 0.  1.
         13    1    5    5    0    0 -0.24388655679E+03  0.35637727694E+03  0.42719394532E+03  0.60743730790E+03  0.00000000000E+00 0.  1.
        -13    1    5    5    0    0 -0.22452124750E+02  0.26947051291E+01  0.29914862045E+02  0.37500110836E+02  0.00000000000E+00 0. -1.
          1    1    6    6  503    0  0.23756222051E+02 -0.76841033015E+01  0.58643580392E+02  0.63737532513E+02  0.00000000000E+00 0. -1.
         -1    1    6    6    0  503  0.46682162728E+03 -0.89361504849E+02  0.40829152459E+03  0.62658589140E+03  0.00000000000E+00 0.  1.
<mgrwt>
<rscale>  0 0.16872386E+04</rscale>
<asrwt>0</asrwt>
<pdfrwt beam="1">  1        2 0.49643508E+00 0.16872386E+04</pdfrwt>
<pdfrwt beam="2">  1       -1 0.33931561E-01 0.16872386E+04</pdfrwt>
<totfact> 0.11157392E+01</totfact>
</mgrwt>
</event>
<event>
12    7  0.1740517E-007  0.1308106E+04  0.7818608E-02  0.9023162E-01
          2   -1    0    0  501    0  0.00000000000E+00  0.00000000000E+00  0.91573819410E+03  0.91573819410E+03  0.00000000000E+00 0. -1.
         -1   -1    0    0    0  501 -0.00000000000E+00 -0.00000000000E+00 -0.46714788075E+03  0.46714788075E+03  0.00000000000E+00 0.  1.
         24    2    1    2    0    0  0.29647151389E+03 -0.67641145109E+02  0.12823325787E+02  0.31522338898E+03  0.82040625406E+02 0.  0.
        254    2    1    2    0    0 -0.29647151389E+03  0.67641145109E+02  0.43576698757E+03  0.10676626859E+04  0.92603458914E+03 0.  0.
         23    2    4    4    0    0 -0.51820236957E+03 -0.23615023217E+03  0.18377763635E+03  0.60569454266E+03  0.93760500266E+02 0.  0.
         23    2    4    4    0    0  0.22173085568E+03  0.30379137728E+03  0.25198935122E+03  0.46196814321E+03  0.91989993693E+02 0.  0.
          2    1    3    3  502    0  0.20432423590E+03 -0.29318418346E+02  0.43230460822E+02  0.21089531947E+03  0.00000000000E+00 0. -1.
         -1    1    3    3    0  502  0.92147277987E+02 -0.38322726762E+02 -0.30407135035E+02  0.10432806951E+03  0.00000000000E+00 0.  1.
         13    1    5    5    0    0 -0.17571809139E+03 -0.69783736543E+02  0.16406655627E+02  0.18977828083E+03  0.00000000000E+00 0. -1.
        -13    1    5    5    0    0 -0.34248427818E+03 -0.16636649563E+03  0.16737098072E+03  0.41591626183E+03  0.00000000000E+00 0.  1.
          4    1    6    6  503    0  0.39456882581E+02  0.11678573504E+03  0.55646619398E+02  0.13524902861E+03  0.00000000000E+00 0. -1.
         -4    1    6    6    0  503  0.18227397310E+03  0.18700564224E+03  0.19634273182E+03  0.32671911459E+03  0.00000000000E+00 0.  1.
<mgrwt>
<rscale>  0 0.13081057E+04</rscale>
<asrwt>0</asrwt>
<pdfrwt beam="1">  1        2 0.14088280E+00 0.13081057E+04</pdfrwt>
<pdfrwt beam="2">  1       -1 0.71868905E-01 0.13081057E+04</pdfrwt>
<totfact> 0.62519457E+01</totfact>
</mgrwt>
</event>
<event>
12    7  0.1740517E-007  0.2805908E+04  0.7818608E-02  0.8301436E-01
         -1   -1    0    0    0  501 -0.00000000000E+00  0.00000000000E+00  0.76106122010E+03  0.76106122010E+03  0.00000000000E+00 0.  1.
          2   -1    0    0  501    0  0.00000000000E+00 -0.00000000000E+00 -0.25862309159E+04  0.25862309159E+04  0.00000000000E+00 0. -1.
         24    2    1    2    0    0  0.89002560628E+03  0.67215460320E+03 -0.15287533675E+04  0.18939842801E+04  0.78435987283E+02 0.  0.
        254    2    1    2    0    0 -0.89002560628E+03 -0.67215460320E+03 -0.29641632828E+03  0.14533078559E+04  0.88334800273E+03 0.  0.
         23    2    4    4    0    0 -0.14659479401E+03  0.20642951038E+03 -0.42067988177E+02  0.27114153130E+03  0.87434764138E+02 0.  0.
         23    2    4    4    0    0 -0.74343081227E+03 -0.87858411359E+03 -0.25434834010E+03  0.11821663246E+04  0.90690262146E+02 0.  0.
          2    1    3    3  502    0  0.65256014275E+03  0.52103188896E+03 -0.10990090975E+04  0.13802644550E+04  0.00000000000E+00 0. -1.
         -1    1    3    3    0  502  0.23746546352E+03  0.15112271425E+03 -0.42974427000E+03  0.51371982512E+03  0.00000000000E+00 0.  1.
         13    1    5    5    0    0 -0.10053617771E+03  0.76888601401E+02  0.25622146053E+01  0.12659362147E+03  0.00000000000E+00 0. -1.
        -13    1    5    5    0    0 -0.46058616298E+02  0.12954090898E+03 -0.44630202782E+02  0.14454790983E+03  0.00000000000E+00 0.  1.
          2    1    6    6  503    0 -0.61353213003E+02 -0.11160105429E+03 -0.41368362263E+02  0.13390426977E+03  0.00000000000E+00 0. -1.
         -2    1    6    6    0  503 -0.68207759926E+03 -0.76698305929E+03 -0.21297997784E+03  0.10482620548E+04  0.00000000000E+00 0.  1.
<mgrwt>
<rscale>  0 0.28059081E+04</rscale>
<asrwt>0</asrwt>
<pdfrwt beam="1">  1        2 0.39788168E+00 0.28059081E+04</pdfrwt>
<pdfrwt beam="2">  1       -1 0.11708634E+00 0.28059081E+04</pdfrwt>
<totfact> 0.20142606E+00</totfact>
</mgrwt>
</event>
<event>
12    7  0.1740517E-007  0.1200031E+04  0.7818608E-02  0.9112830E-01
          2   -1    0    0  501    0  0.00000000000E+00  0.00000000000E+00  0.30452755856E+04  0.30452755856E+04  0.00000000000E+00 0. -1.
         -1   -1    0    0    0  501 -0.00000000000E+00 -0.00000000000E+00 -0.11822191695E+03  0.11822191695E+03  0.00000000000E+00 0.  1.
         24    2    1    2    0    0 -0.20049722846E+03 -0.14990587459E+03  0.62442414241E+03  0.67749191151E+03  0.80117854938E+02 0.  0.
        254    2    1    2    0    0  0.20049722846E+03  0.14990587459E+03  0.23026295262E+04  0.24860055910E+04  0.90302278691E+03 0.  0.
         23    2    4    4    0    0 -0.23683437465E+02  0.38966977371E+03  0.19652600330E+04  0.20057788832E+04  0.92187272827E+02 0.  0.
         23    2    4    4    0    0  0.22418066592E+03 -0.23976389912E+03  0.33736949326E+03  0.48022670784E+03  0.95162059914E+02 0.  0.
          4    1    3    3  502    0 -0.45537776297E+02 -0.56185625634E+02  0.26950860325E+03  0.27904372565E+03  0.00000000000E+00 0. -1.
         -3    1    3    3    0  502 -0.15495945216E+03 -0.93720248960E+02  0.35491553916E+03  0.39844818586E+03  0.00000000000E+00 0.  1.
         13    1    5    5    0    0 -0.28446299950E+02  0.11491046819E+03  0.78994323773E+03  0.79876399926E+03  0.00000000000E+00 0. -1.
        -13    1    5    5    0    0  0.47628624858E+01  0.27475930553E+03  0.11753167952E+04  0.12070148839E+04  0.00000000000E+00 0.  1.
          3    1    6    6  503    0 -0.19774113644E+01 -0.20397542221E+02  0.28476804538E+01  0.20690074150E+02  0.00000000000E+00 0. -1.
         -3    1    6    6    0  503  0.22615807729E+03 -0.21936635690E+03  0.33452181281E+03  0.45953663369E+03  0.00000000000E+00 0.  1.
<mgrwt>
<rscale>  0 0.12000305E+04</rscale>
<asrwt>0</asrwt>
<pdfrwt beam="1">  1        2 0.46850388E+00 0.12000305E+04</pdfrwt>
<pdfrwt beam="2">  1       -1 0.18187989E-01 0.12000305E+04</pdfrwt>
<totfact> 0.44599116E+01</totfact>
</mgrwt>
</event>
<event>
12    7  0.1740517E-007  0.1667803E+04  0.7818608E-02  0.8779943E-01
          2   -1    0    0  501    0  0.00000000000E+00  0.00000000000E+00  0.10868062737E+04  0.10868062737E+04  0.00000000000E+00 0. -1.
         -1   -1    0    0    0  501 -0.00000000000E+00 -0.00000000000E+00 -0.63984905993E+03  0.63984905993E+03  0.00000000000E+00 0.  1.
         24    2    1    2    0    0 -0.33195771060E+03 -0.35270646613E+03 -0.18822192943E+03  0.52567331205E+03  0.79417651749E+02 0.  0.
        254    2    1    2    0    0  0.33195771060E+03  0.35270646613E+03  0.63517914319E+03  0.12009820216E+04  0.89683192367E+03 0.  0.
         23    2    4    4    0    0 -0.10839450720E+03 -0.21047560095E+03  0.33277617050E+03  0.41941529194E+03  0.95497956368E+02 0.  0.
         23    2    4    4    0    0  0.44035221780E+03  0.56318206708E+03  0.30240297269E+03  0.78156672963E+03  0.91185956084E+02 0.  0.
          2    1    3    3  502    0 -0.15624530353E+03 -0.17027360557E+03 -0.13228069853E+03  0.26627782264E+03  0.00000000000E+00 0. -1.
         -1    1    3    3    0  502 -0.17571240707E+03 -0.18243286055E+03 -0.55941230898E+02  0.25939548940E+03  0.00000000000E+00 0.  1.
         13    1    5    5    0    0 -0.48844508239E+02 -0.47867410380E+02  0.39909713846E+02  0.79182448944E+02  0.00000000000E+00 0. -1.
        -13    1    5    5    0    0 -0.59549998959E+02 -0.16260819057E+03  0.29286645666E+03  0.34023284299E+03  0.00000000000E+00 0.  1.
          3    1    6    6  503    0  0.38036630671E+03  0.45902958490E+03  0.28267580794E+03  0.65976685237E+03  0.00000000000E+00 0. -1.
         -3    1    6    6    0  503  0.59985911090E+02  0.10415248217E+03  0.19727164745E+02  0.12179987726E+03  0.00000000000E+00 0.  1.
<mgrwt>
<rscale>  0 0.16678033E+04</rscale>
<asrwt>0</asrwt>
<pdfrwt beam="1">  1        2 0.16720096E+00 0.16678033E+04</pdfrwt>
<pdfrwt beam="2">  1       -1 0.98438317E-01 0.16678033E+04</pdfrwt>
<totfact> 0.23869764E+01</totfact>
</mgrwt>
</event>
<event>
12    7  0.1740517E-007  0.2651935E+04  0.7818608E-02  0.8350771E-01
          2   -1    0    0  501    0  0.00000000000E+00  0.00000000000E+00  0.17960702930E+04  0.17960702930E+04  0.00000000000E+00 0. -1.
         -1   -1    0    0    0  501 -0.00000000000E+00 -0.00000000000E+00 -0.97890926826E+03  0.97890926826E+03  0.00000000000E+00 0.  1.
         24    2    1    2    0    0 -0.62759538392E+03  0.75521299417E+03 -0.30832818365E+03  0.10322595095E+04  0.79188342580E+02 0.  0.
        254    2    1    2    0    0  0.62759538392E+03 -0.75521299417E+03  0.11254892084E+04  0.17427200518E+04  0.89784441205E+03 0.  0.
         23    2    4    4    0    0  0.31947926512E+03 -0.25587940751E+03  0.10661654164E+04  0.11456975042E+04  0.91503027758E+02 0.  0.
         23    2    4    4    0    0  0.30811611879E+03 -0.49933358665E+03  0.59323792012E+02  0.59702254756E+03  0.92989443355E+02 0.  0.
          2    1    3    3  502    0 -0.22965688268E+02  0.21941397742E+02  0.36284145397E+01  0.31968940623E+02  0.00000000000E+00 0. -1.
         -1    1    3    3    0  502 -0.60462969565E+03  0.73327159643E+03 -0.31195659819E+03  0.10002905689E+04  0.00000000000E+00 0.  1.
         13    1    5    5    0    0  0.25417906461E+03 -0.15308592297E+03  0.72045844906E+03  0.77916793665E+03  0.00000000000E+00 0.  1.
        -13    1    5    5    0    0  0.65300200516E+02 -0.10279348455E+03  0.34570696733E+03  0.36652956759E+03  0.00000000000E+00 0. -1.
          4    1    6    6  503    0  0.31120591271E+03 -0.49787805259E+03  0.52611180524E+02  0.58949097675E+03  0.00000000000E+00 0. -1.
         -4    1    6    6    0  503 -0.30897939130E+01 -0.14555340608E+01  0.67126114882E+01  0.75315708069E+01  0.00000000000E+00 0.  1.
<mgrwt>
<rscale>  0 0.26519350E+04</rscale>
<asrwt>0</asrwt>
<pdfrwt beam="1">  1        2 0.27631851E+00 0.26519350E+04</pdfrwt>
<pdfrwt beam="2">  1       -1 0.15060143E+00 0.26519350E+04</pdfrwt>
<totfact> 0.30006875E+00</totfact>
</mgrwt>
</event>
<event>
12    7  0.1740517E-007  0.1551730E+04  0.7818608E-02  0.8850763E-01
          2   -1    0    0  501    0  0.00000000000E+00  0.00000000000E+00  0.41129867487E+03  0.41129867487E+03  0.00000000000E+00 0. -1.
         -1   -1    0    0    0  501 -0.00000000000E+00 -0.00000000000E+00 -0.14635758531E+04  0.14635758531E+04  0.00000000000E+00 0.  1.
         24    2    1    2    0    0  0.37784458338E+03 -0.74373459086E+02 -0.75408396399E+03  0.84950148777E+03  0.68645556091E+02 0.  0.
        254    2    1    2    0    0 -0.37784458338E+03  0.74373459086E+02 -0.29819321425E+03  0.10253730402E+04  0.90231520987E+03 0.  0.
         23    2    4    4    0    0  0.12806135133E+02 -0.18787929932E+03  0.23052476845E+03  0.31162457832E+03  0.92225705404E+02 0.  0.
         23    2    4    4    0    0 -0.39065071851E+03  0.26225275841E+03 -0.52871798270E+03  0.71374846189E+03  0.92247864250E+02 0.  0.
          2    1    3    3  502    0  0.18466794191E+03 -0.56976934626E+02 -0.31617260443E+03  0.37055868043E+03  0.00000000000E+00 0. -1.
         -1    1    3    3    0  502  0.19317664147E+03 -0.17396524459E+02 -0.43791135956E+03  0.47894280734E+03  0.00000000000E+00 0.  1.
         13    1    5    5    0    0 -0.11537869416E+02 -0.17409293837E+03  0.22204226665E+03  0.28239022965E+03  0.00000000000E+00 0.  1.
        -13    1    5    5    0    0  0.24344004549E+02 -0.13786360953E+02  0.84825017943E+01  0.29234348675E+02  0.00000000000E+00 0. -1.
          2    1    6    6  503    0 -0.12940074931E+03  0.37826440444E+02 -0.13857790157E+03  0.19333708470E+03  0.00000000000E+00 0. -1.
         -2    1    6    6    0  503 -0.26124996920E+03  0.22442631796E+03 -0.39014008113E+03  0.52041137719E+03  0.00000000000E+00 0.  1.
<mgrwt>
<rscale>  0 0.15517304E+04</rscale>
<asrwt>0</asrwt>
<pdfrwt beam="1">  1        2 0.63276719E-01 0.15517304E+04</pdfrwt>
<pdfrwt beam="2">  1       -1 0.22516552E+00 0.15517304E+04</pdfrwt>
<totfact> 0.86219290E+00</totfact>
</mgrwt>
</event>
<event>
12    7  0.1740517E-007  0.1897212E+04  0.7818608E-02  0.8656246E-01
         -1   -1    0    0    0  501 -0.00000000000E+00  0.00000000000E+00  0.59369188908E+03  0.59369188908E+03  0.00000000000E+00 0.  1.
          2   -1    0    0  501    0  0.00000000000E+00 -0.00000000000E+00 -0.15156902927E+04  0.15156902927E+04  0.00000000000E+00 0. -1.
         24    2    1    2    0    0 -0.22622848720E+03 -0.21633509803E+02  0.41472609722E+03  0.47981094786E+03  0.81076956071E+02 0.  0.
        254    2    1    2    0    0  0.22622848720E+03  0.21633509803E+02 -0.13367245008E+04  0.16295712339E+04  0.90389306785E+03 0.  0.
         23    2    4    4    0    0  0.15837848050E+02  0.21664421006E+03 -0.13062853410E+04  0.13271397319E+04  0.87937049850E+02 0.  0.
         23    2    4    4    0    0  0.21039063915E+03 -0.19501070026E+03 -0.30439159813E+02  0.30243150198E+03  0.90801303302E+02 0.  0.
          4    1    3    3  502    0 -0.43168514425E+01  0.12487948653E+02  0.48259670143E+02  0.50035785496E+02  0.00000000000E+00 0. -1.
         -3    1    3    3    0  502 -0.22191163576E+03 -0.34121458455E+02  0.36646642708E+03  0.42977516237E+03  0.00000000000E+00 0.  1.
         13    1    5    5    0    0  0.15449045320E+02  0.22121383158E+02 -0.36325879724E+03  0.36425949866E+03  0.00000000000E+00 0.  1.
        -13    1    5    5    0    0  0.38880272983E+00  0.19452282691E+03 -0.94302654376E+03  0.96288023325E+03  0.00000000000E+00 0. -1.
          4    1    6    6  503    0  0.98566007929E+02 -0.12817459033E+03 -0.53125785027E+02  0.17019498394E+03  0.00000000000E+00 0. -1.
         -4    1    6    6    0  503  0.11182463123E+03 -0.66836109934E+02  0.22686625213E+02  0.13223651804E+03  0.00000000000E+00 0.  1.
<mgrwt>
<rscale>  0 0.18972117E+04</rscale>
<asrwt>0</asrwt>
<pdfrwt beam="1">  1        2 0.23318312E+00 0.18972117E+04</pdfrwt>
<pdfrwt beam="2">  1       -1 0.91337214E-01 0.18972117E+04</pdfrwt>
<totfact> 0.15520108E+01</totfact>
</mgrwt>
</event>
<event>
12    7  0.1740517E-007  0.2146158E+04  0.7818608E-02  0.8541178E-01
          2   -1    0    0  501    0  0.00000000000E+00  0.00000000000E+00  0.23144560099E+04  0.23144560099E+04  0.00000000000E+00 0. -1.
         -1   -1    0    0    0  501 -0.00000000000E+00 -0.00000000000E+00 -0.49752466446E+03  0.49752466446E+03  0.00000000000E+00 0.  1.
         24    2    1    2    0    0 -0.19571664686E+03 -0.55746998513E+03 -0.10891876367E+03  0.60666007541E+03  0.84233958929E+02 0.  0.
        254    2    1    2    0    0  0.19571664686E+03  0.55746998513E+03  0.19258501091E+04  0.22053205990E+04  0.89747563266E+03 0.  0.
         23    2    4    4    0    0 -0.10623166829E+03  0.67401087165E+03  0.94996226547E+03  0.11729976577E+04  0.88990880507E+02 0.  0.
         23    2    4    4    0    0  0.30194831515E+03 -0.11654088652E+03  0.97588784364E+03  0.10323229412E+04  0.92622936290E+02 0.  0.
          4    1    3    3  502    0 -0.14679684002E+03 -0.34170738919E+03 -0.10057322667E+03  0.38526383945E+03  0.00000000000E+00 0. -1.
         -3    1    3    3    0  502 -0.48919806848E+02 -0.21576259594E+03 -0.83455369976E+01  0.22139623596E+03  0.00000000000E+00 0.  1.
         13    1    5    5    0    0 -0.29805882223E+02  0.24897677571E+03  0.42240410133E+03  0.49122606840E+03  0.00000000000E+00 0. -1.
        -13    1    5    5    0    0 -0.76425786063E+02  0.42503409593E+03  0.52755816414E+03  0.68177158934E+03  0.00000000000E+00 0.  1.
          3    1    6    6  503    0  0.28504216082E+03 -0.12291695282E+03  0.84536035151E+03  0.90055079515E+03  0.00000000000E+00 0. -1.
         -3    1    6    6    0  503  0.16906154335E+02  0.63760663041E+01  0.13052749213E+03  0.13177214606E+03  0.00000000000E+00 0.  1.
<mgrwt>
<rscale>  0 0.21461584E+04</rscale>
<asrwt>0</asrwt>
<pdfrwt beam="1">  1        2 0.35607015E+00 0.21461584E+04</pdfrwt>
<pdfrwt beam="2">  1       -1 0.76542258E-01 0.21461584E+04</pdfrwt>
<totfact> 0.79629886E+00</totfact>
</mgrwt>
</event>
<event>
12    7  0.1740517E-007  0.1405803E+04  0.7818608E-02  0.8949628E-01
          2   -1    0    0  501    0  0.00000000000E+00  0.00000000000E+00  0.45769820116E+03  0.45769820116E+03  0.00000000000E+00 0. -1.
         -1   -1    0    0    0  501 -0.00000000000E+00 -0.00000000000E+00 -0.10794685650E+04  0.10794685650E+04  0.00000000000E+00 0.  1.
         24    2    1    2    0    0  0.38997791888E+03 -0.11549203402E+03 -0.20824675970E+03  0.46369728251E+03  0.78913051778E+02 0.  0.
        254    2    1    2    0    0 -0.38997791888E+03  0.11549203402E+03 -0.41352360409E+03  0.10734694836E+04  0.90327945507E+03 0.  0.
         23    2    4    4    0    0 -0.16061156151E+03 -0.36270273844E+03 -0.21174562237E+02  0.40706564324E+03  0.88908524125E+02 0.  0.
         23    2    4    4    0    0 -0.22936635737E+03  0.47819477246E+03 -0.39234904185E+03  0.66640384036E+03  0.94218583656E+02 0.  0.
          2    1    3    3  502    0  0.28001881248E+03 -0.53041527803E+02 -0.11860909003E+03  0.30869411276E+03  0.00000000000E+00 0. -1.
         -1    1    3    3    0  502  0.10995910640E+03 -0.62450506219E+02 -0.89637669672E+02  0.15500316974E+03  0.00000000000E+00 0.  1.
         13    1    5    5    0    0  0.50815412349E+01 -0.96191884046E+01 -0.13000139769E+02  0.16951533291E+02  0.00000000000E+00 0.  1.
        -13    1    5    5    0    0 -0.16569310274E+03 -0.35308355003E+03 -0.81744224679E+01  0.39011410995E+03  0.00000000000E+00 0. -1.
          1    1    6    6  503    0 -0.13879739526E+03  0.27238113330E+03 -0.16827644323E+03  0.34896011242E+03  0.00000000000E+00 0. -1.
         -1    1    6    6    0  503 -0.90568962112E+02  0.20581363916E+03 -0.22407259862E+03  0.31744372795E+03  0.00000000000E+00 0.  1.
<mgrwt>
<rscale>  0 0.14058034E+04</rscale>
<asrwt>0</asrwt>
<pdfrwt beam="1">  1        2 0.70415109E-01 0.14058034E+04</pdfrwt>
<pdfrwt beam="2">  1       -1 0.16607208E+00 0.14058034E+04</pdfrwt>
<totfact> 0.19967611E+01</totfact>
</mgrwt>
</event>
<event>
12    7  0.1740517E-007  0.1320796E+04  0.7818608E-02  0.9013235E-01
          2   -1    0    0  501    0  0.00000000000E+00  0.00000000000E+00  0.14146429121E+04  0.14146429121E+04  0.00000000000E+00 0. -1.
         -1   -1    0    0    0  501 -0.00000000000E+00 -0.00000000000E+00 -0.30829355979E+03  0.30829355979E+03  0.00000000000E+00 0.  1.
         24    2    1    2    0    0  0.17020981557E+02 -0.36554532075E+03  0.47434017550E+03  0.60451924291E+03  0.80819661112E+02 0.  0.
        254    2    1    2    0    0 -0.17020981557E+02  0.36554532075E+03  0.63200917685E+03  0.11184172290E+04  0.84705867753E+03 0.  0.
         23    2    4    4    0    0  0.33598201353E+03  0.42080523082E+03  0.43558540506E+03  0.69943251974E+03  0.97520504893E+02 0.  0.
         23    2    4    4    0    0 -0.35300299508E+03 -0.55259910063E+02  0.19642377179E+03  0.41898470926E+03  0.96442295052E+02 0.  0.
          4    1    3    3  502    0  0.54394620558E+00 -0.26346553708E+03  0.39213028424E+03  0.47241988202E+03  0.00000000000E+00 0. -1.
         -3    1    3    3    0  502  0.16477035352E+02 -0.10207978367E+03  0.82209891261E+02  0.13209936090E+03  0.00000000000E+00 0.  1.
         13    1    5    5    0    0  0.17921722565E+03  0.29862696648E+03  0.28658981220E+03  0.45103281425E+03  0.00000000000E+00 0. -1.
        -13    1    5    5    0    0  0.15676478787E+03  0.12217826434E+03  0.14899559286E+03  0.24839970549E+03  0.00000000000E+00 0.  1.
          3    1    6    6  503    0 -0.13372704548E+02 -0.16536900458E+02 -0.55027547961E+01  0.21967672021E+02  0.00000000000E+00 0. -1.
         -3    1    6    6    0  503 -0.33963029054E+03 -0.38723009605E+02  0.20192652659E+03  0.39701703724E+03  0.00000000000E+00 0.  1.
<mgrwt>
<rscale>  0 0.13207957E+04</rscale>
<asrwt>0</asrwt>
<pdfrwt beam="1">  1        2 0.21763737E+00 0.13207957E+04</pdfrwt>
<pdfrwt beam="2">  1       -1 0.47429779E-01 0.13207957E+04</pdfrwt>
<totfact> 0.70224479E+01</totfact>
</mgrwt>
</event>
<event>
12    7  0.1740517E-007  0.2580189E+04  0.7818608E-02  0.8374962E-01
         -1   -1    0    0    0  501 -0.00000000000E+00  0.00000000000E+00  0.79025329735E+03  0.79025329735E+03  0.00000000000E+00 0.  1.
          2   -1    0    0  501    0  0.00000000000E+00 -0.00000000000E+00 -0.21060894957E+04  0.21060894957E+04  0.00000000000E+00 0. -1.
         24    2    1    2    0    0  0.10743523834E+04 -0.19156402397E+03 -0.91685555602E+03  0.14275690557E+04  0.79996745865E+02 0.  0.
        254    2    1    2    0    0 -0.10743523834E+04  0.19156402397E+03 -0.39898064234E+03  0.14687737373E+04  0.89843247913E+03 0.  0.
         23    2    4    4    0    0 -0.51769459952E+03  0.29930948218E+03  0.20173686637E+03  0.63769498449E+03  0.91450891211E+02 0.  0.
         23    2    4    4    0    0 -0.55665778386E+03 -0.10774545821E+03 -0.60071750871E+03  0.83107875283E+03  0.91396914890E+02 0.  0.
          4    1    3    3  502    0  0.69247721145E+03 -0.13091255152E+03 -0.64035179983E+03  0.95221489805E+03  0.00000000000E+00 0. -1.
         -3    1    3    3    0  502  0.38187517192E+03 -0.60651472448E+02 -0.27650375619E+03  0.47535415769E+03  0.00000000000E+00 0.  1.
         13    1    5    5    0    0 -0.60636384309E+02  0.52655189201E+01  0.11880775731E+02  0.62013301989E+02  0.00000000000E+00 0. -1.
        -13    1    5    5    0    0 -0.45705821521E+03  0.29404396326E+03  0.18985609064E+03  0.57568168250E+03  0.00000000000E+00 0.  1.
          2    1    6    6  503    0 -0.32739543928E+03 -0.10599535960E+03 -0.38328667015E+03  0.51510335025E+03  0.00000000000E+00 0. -1.
         -2    1    6    6    0  503 -0.22926234457E+03 -0.17500986105E+01 -0.21743083855E+03  0.31597540258E+03  0.00000000000E+00 0.  1.
<mgrwt>
<rscale>  0 0.25801893E+04</rscale>
<asrwt>0</asrwt>
<pdfrwt beam="1">  1        2 0.32401376E+00 0.25801893E+04</pdfrwt>
<pdfrwt beam="2">  1       -1 0.12157743E+00 0.25801893E+04</pdfrwt>
<totfact> 0.35225644E+00</totfact>
</mgrwt>
</event>
<event>
12    7  0.1740517E-007  0.1165298E+04  0.7818608E-02  0.9143785E-01
         -1   -1    0    0    0  501 -0.00000000000E+00  0.00000000000E+00  0.30384880362E+03  0.30384880362E+03  0.00000000000E+00 0.  1.
          2   -1    0    0  501    0  0.00000000000E+00 -0.00000000000E+00 -0.11172655168E+04  0.11172655168E+04  0.00000000000E+00 0. -1.
         24    2    1    2    0    0  0.82148533349E+02  0.14246510698E+03 -0.35358940543E+03  0.39781609305E+03  0.78660587446E+02 0.  0.
        254    2    1    2    0    0 -0.82148533349E+02 -0.14246510698E+03 -0.45982730775E+03  0.10232982274E+04  0.89925158936E+03 0.  0.
         23    2    4    4    0    0  0.64882914373E+02 -0.40004564120E+03  0.58603433866E+02  0.41913141615E+03  0.89389450829E+02 0.  0.
         23    2    4    4    0    0 -0.14703144772E+03  0.25758053422E+03 -0.51843074161E+03  0.60416681123E+03  0.91000679718E+02 0.  0.
          2    1    3    3  502    0  0.72884415894E+02  0.13822942647E+03 -0.35467261680E+03  0.38757215784E+03  0.00000000000E+00 0. -1.
         -1    1    3    3    0  502  0.92641174556E+01  0.42356805138E+01  0.10832113761E+01  0.10243935207E+02  0.00000000000E+00 0.  1.
         13    1    5    5    0    0  0.85232551448E+02 -0.27677855759E+03  0.31725021246E+02  0.29133732123E+03  0.00000000000E+00 0.  1.
        -13    1    5    5    0    0 -0.20349637075E+02 -0.12326708361E+03  0.26878412621E+02  0.12779409492E+03  0.00000000000E+00 0. -1.
          3    1    6    6  503    0 -0.62541826442E+02  0.17628828059E+03 -0.37372905559E+03  0.41792636303E+03  0.00000000000E+00 0. -1.
         -3    1    6    6    0  503 -0.84489621281E+02  0.81292253629E+02 -0.14470168603E+03  0.18624044819E+03  0.00000000000E+00 0.  1.
<mgrwt>
<rscale>  0 0.11652979E+04</rscale>
<asrwt>0</asrwt>
<pdfrwt beam="1">  1        2 0.17188700E+00 0.11652979E+04</pdfrwt>
<pdfrwt beam="2">  1       -1 0.46745969E-01 0.11652979E+04</pdfrwt>
<totfact> 0.10925444E+02</totfact>
</mgrwt>
</event>
<event>
12    7  0.1740517E-007  0.1341328E+04  0.7818608E-02  0.8997419E-01
          2   -1    0    0  501    0  0.00000000000E+00  0.00000000000E+00  0.26395447485E+04  0.26395447485E+04  0.00000000000E+00 0. -1.
         -1   -1    0    0    0  501 -0.00000000000E+00 -0.00000000000E+00 -0.17040443646E+03  0.17040443646E+03  0.00000000000E+00 0.  1.
         24    2    1    2    0    0  0.16344739045E+03  0.24874630500E+03  0.90159215997E+03  0.95287640306E+03  0.80717054563E+02 0.  0.
        254    2    1    2    0    0 -0.16344739045E+03 -0.24874630500E+03  0.15675481521E+04  0.18570727819E+04  0.95022225535E+03 0.  0.
         23    2    4    4    0    0 -0.14398996486E+02 -0.49251021857E+03  0.37109675031E+03  0.62366068118E+03  0.92011959373E+02 0.  0.
         23    2    4    4    0    0 -0.14904839396E+03  0.24376391357E+03  0.11964514018E+04  0.12334121008E+04  0.90405664288E+02 0.  0.
          2    1    3    3  502    0  0.10795940859E+03  0.21592159607E+03  0.75705274097E+03  0.79461073625E+03  0.00000000000E+00 0. -1.
         -3    1    3    3    0  502  0.55487981854E+02  0.32824708929E+02  0.14453941900E+03  0.15826566681E+03  0.00000000000E+00 0.  1.
         13    1    5    5    0    0 -0.14524008314E+02 -0.31898755426E+02  0.54276405205E+02  0.64609639971E+02  0.00000000000E+00 0.  1.
        -13    1    5    5    0    0  0.12501182787E+00 -0.46061146314E+03  0.31682034510E+03  0.55905104121E+03  0.00000000000E+00 0. -1.
          1    1    6    6  503    0 -0.98317376566E+02  0.22434968313E+03  0.95315913783E+03  0.98412978254E+03  0.00000000000E+00 0. -1.
         -1    1    6    6    0  503 -0.50731017395E+02  0.19414230433E+02  0.24329226396E+03  0.24928231821E+03  0.00000000000E+00 0.  1.
<mgrwt>
<rscale>  0 0.13413279E+04</rscale>
<asrwt>0</asrwt>
<pdfrwt beam="1">  1        2 0.40608378E+00 0.13413279E+04</pdfrwt>
<pdfrwt beam="2">  1       -1 0.26216069E-01 0.13413279E+04</pdfrwt>
<totfact> 0.41675977E+01</totfact>
</mgrwt>
</event>
<event>
12    7  0.1740517E-007  0.1403993E+04  0.7818608E-02  0.8950933E-01
          2   -1    0    0  501    0  0.00000000000E+00  0.00000000000E+00  0.10497312659E+04  0.10497312659E+04  0.00000000000E+00 0. -1.
         -1   -1    0    0    0  501 -0.00000000000E+00 -0.00000000000E+00 -0.46945264809E+03  0.46945264809E+03  0.00000000000E+00 0.  1.
         24    2    1    2    0    0 -0.26087882546E+03 -0.27407434399E+03  0.33490736381E+03  0.51164953945E+03  0.80298202211E+02 0.  0.
        254    2    1    2    0    0  0.26087882546E+03  0.27407434399E+03  0.24537125401E+03  0.10075343745E+04  0.90096834350E+03 0.  0.
         23    2    4    4    0    0  0.56366002471E+03  0.25239303702E+03  0.29006063772E+03  0.68830798797E+03  0.90652325705E+02 0.  0.
         23    2    4    4    0    0 -0.30278119925E+03  0.21681306966E+02 -0.44689383712E+02  0.31922638658E+03  0.88101141743E+02 0.  0.
          4    1    3    3  502    0 -0.20108848250E+03 -0.23051431203E+03  0.22745229203E+03  0.38119282652E+03  0.00000000000E+00 0. -1.
         -3    1    3    3    0  502 -0.59790342950E+02 -0.43560031963E+02  0.10745507178E+03  0.13045671292E+03  0.00000000000E+00 0.  1.
         13    1    5    5    0    0  0.19603839368E+03  0.53627043923E+02  0.12729696068E+03  0.23981540367E+03  0.00000000000E+00 0.  1.
        -13    1    5    5    0    0  0.36762163102E+03  0.19876599310E+03  0.16276367705E+03  0.44849258430E+03  0.00000000000E+00 0. -1.
          1    1    6    6  503    0 -0.16346002255E+03 -0.32379080092E+02 -0.24430851220E+02  0.16841748808E+03  0.00000000000E+00 0. -1.
         -1    1    6    6    0  503 -0.13932117671E+03  0.54060387058E+02 -0.20258532493E+02  0.15080889850E+03  0.00000000000E+00 0.  1.
<mgrwt>
<rscale>  0 0.14039931E+04</rscale>
<asrwt>0</asrwt>
<pdfrwt beam="1">  1        2 0.16149712E+00 0.14039931E+04</pdfrwt>
<pdfrwt beam="2">  1       -1 0.72223485E-01 0.14039931E+04</pdfrwt>
<totfact> 0.50281329E+01</totfact>
</mgrwt>
</event>
<event>
12    7  0.1740517E-007  0.1538712E+04  0.7818608E-02  0.8859110E-01
          2   -1    0    0  501    0  0.00000000000E+00  0.00000000000E+00  0.28503725075E+03  0.28503725075E+03  0.00000000000E+00 0. -1.
         -1   -1    0    0    0  501 -0.00000000000E+00 -0.00000000000E+00 -0.20766020629E+04  0.20766020629E+04  0.00000000000E+00 0.  1.
         24    2    1    2    0    0  0.37029497842E+03  0.34261218565E+03 -0.56560579006E+03  0.76215237918E+03  0.80404344012E+02 0.  0.
        254    2    1    2    0    0 -0.37029497842E+03 -0.34261218565E+03 -0.12259590221E+04  0.15994869344E+04  0.89491980024E+03 0.  0.
         23    2    4    4    0    0  0.95992371363E+02 -0.13619125354E+03  0.71421565862E+02  0.20249147723E+03  0.90217323068E+02 0.  0.
         23    2    4    4    0    0 -0.46628734978E+03 -0.20642093211E+03 -0.12973805879E+04  0.13969954572E+04  0.91468157012E+02 0.  0.
          4    1    3    3  502    0  0.31564669824E+03  0.25510176298E+03 -0.42378478610E+03  0.58677362970E+03  0.00000000000E+00 0. -1.
         -3    1    3    3    0  502  0.54648280180E+02  0.87510422668E+02 -0.14182100396E+03  0.17537874947E+03  0.00000000000E+00 0.  1.
         13    1    5    5    0    0  0.55331920280E+01 -0.25034000646E+01 -0.17274809233E+02  0.18311260469E+02  0.00000000000E+00 0. -1.
        -13    1    5    5    0    0  0.90459179335E+02 -0.13368785347E+03  0.88696375095E+02  0.18418021676E+03  0.00000000000E+00 0.  1.
          4    1    6    6  503    0 -0.36115199097E+02 -0.42572887633E+02 -0.10650566571E+03  0.12025063491E+03  0.00000000000E+00 0. -1.
         -4    1    6    6    0  503 -0.43017215069E+03 -0.16384804448E+03 -0.11908749222E+04  0.12767448223E+04  0.00000000000E+00 0.  1.
<mgrwt>
<rscale>  0 0.15387124E+04</rscale>
<asrwt>0</asrwt>
<pdfrwt beam="1">  1        2 0.43851885E-01 0.15387124E+04</pdfrwt>
<pdfrwt beam="2">  1       -1 0.31947724E+00 0.15387124E+04</pdfrwt>
<totfact> 0.31736167E+00</totfact>
</mgrwt>
</event>
<event>
12    7  0.1740517E-007  0.1961588E+04  0.7818608E-02  0.8624793E-01
          2   -1    0    0  501    0  0.00000000000E+00  0.00000000000E+00  0.10441103699E+04  0.10441103699E+04  0.00000000000E+00 0. -1.
         -1   -1    0    0    0  501 -0.00000000000E+00 -0.00000000000E+00 -0.92131697957E+03  0.92131697957E+03  0.00000000000E+00 0.  1.
         24    2    1    2    0    0  0.41062457457E+02 -0.30348741516E+03  0.76458034952E+03  0.82756529706E+03  0.80563474639E+02 0.  0.
        254    2    1    2    0    0 -0.41062457457E+02  0.30348741516E+03 -0.64178695916E+03  0.11378620524E+04  0.88828419600E+03 0.  0.
         23    2    4    4    0    0  0.71933045164E+02 -0.23343375033E+03 -0.50046643255E+03  0.56421084629E+03  0.90562410380E+02 0.  0.
         23    2    4    4    0    0 -0.11299550262E+03  0.53692116549E+03 -0.14132052661E+03  0.57365120616E+03  0.89732343757E+02 0.  0.
          4    1    3    3  502    0 -0.15233350589E+02 -0.10340627479E+03  0.32348068291E+03  0.33994803258E+03  0.00000000000E+00 0. -1.
         -3    1    3    3    0  502  0.56295808047E+02 -0.20008114037E+03  0.44109966661E+03  0.48761726448E+03  0.00000000000E+00 0.  1.
         13    1    5    5    0    0  0.12273349277E+02 -0.11718961803E+02 -0.43160928700E+01  0.17509935062E+02  0.00000000000E+00 0. -1.
        -13    1    5    5    0    0  0.59659695887E+02 -0.22171478853E+03 -0.49615033968E+03  0.54670091123E+03  0.00000000000E+00 0.  1.
          3    1    6    6  503    0  0.12638992174E+02  0.19308220801E+02 -0.93854139757E+01  0.24912597399E+02  0.00000000000E+00 0. -1.
         -3    1    6    6    0  503 -0.12563449479E+03  0.51761294469E+03 -0.13193511263E+03  0.54873860876E+03  0.00000000000E+00 0.  1.
<mgrwt>
<rscale>  0 0.19615877E+04</rscale>
<asrwt>0</asrwt>
<pdfrwt beam="1">  1        2 0.16063237E+00 0.19615877E+04</pdfrwt>
<pdfrwt beam="2">  1       -1 0.14174107E+00 0.19615877E+04</pdfrwt>
<totfact> 0.10184309E+01</totfact>
</mgrwt>
</event>
<event>
12    7  0.1740517E-007  0.2470662E+04  0.7818608E-02  0.8413512E-01
         -1   -1    0    0    0  501 -0.00000000000E+00  0.00000000000E+00  0.16839392199E+04  0.16839392199E+04  0.00000000000E+00 0.  1.
          2   -1    0    0  501    0  0.00000000000E+00 -0.00000000000E+00 -0.90623407944E+03  0.90623407944E+03  0.00000000000E+00 0. -1.
         24    2    1    2    0    0  0.13377419053E+02  0.50719892937E+03  0.13218721566E+04  0.14179620485E+04  0.76424233240E+02 0.  0.
        254    2    1    2    0    0 -0.13377419053E+02 -0.50719892937E+03 -0.54416701616E+03  0.11722112508E+04  0.90583208470E+03 0.  0.
         23    2    4    4    0    0  0.33574408212E+03 -0.48793770260E+03 -0.11352108475E+03  0.60979387759E+03  0.90300864715E+02 0.  0.
         23    2    4    4    0    0 -0.34912150117E+03 -0.19261226773E+02 -0.43064593141E+03  0.56241737318E+03  0.92739236452E+02 0.  0.
          2    1    3    3  502    0  0.11582535574E+02  0.18293957353E+03  0.38151714364E+03  0.42326867777E+03  0.00000000000E+00 0. -1.
         -1    1    3    3    0  502  0.17948834785E+01  0.32425935584E+03  0.94035501294E+03  0.99469337075E+03  0.00000000000E+00 0.  1.
         13    1    5    5    0    0  0.42328383280E+02 -0.11486180859E+03 -0.29440343761E+01  0.12244833377E+03  0.00000000000E+00 0. -1.
        -13    1    5    5    0    0  0.29341569884E+03 -0.37307589401E+03 -0.11057705037E+03  0.48734554382E+03  0.00000000000E+00 0.  1.
          2    1    6    6  503    0 -0.31757664170E+03  0.10952542953E+02 -0.38576585360E+03  0.49979013131E+03  0.00000000000E+00 0.  1.
         -2    1    6    6    0  503 -0.31544859471E+02 -0.30213769726E+02 -0.44880077818E+02  0.62627241876E+02  0.00000000000E+00 0. -1.
<mgrwt>
<rscale>  0 0.24706623E+04</rscale>
<asrwt>0</asrwt>
<pdfrwt beam="1">  1        2 0.13942063E+00 0.24706623E+04</pdfrwt>
<pdfrwt beam="2">  1       -1 0.25906757E+00 0.24706623E+04</pdfrwt>
<totfact> 0.18012451E+00</totfact>
</mgrwt>
</event>
<event>
12    7  0.1740517E-007  0.1571075E+04  0.7818608E-02  0.8838517E-01
          2   -1    0    0  501    0  0.00000000000E+00  0.00000000000E+00  0.17080371672E+04  0.17080371672E+04  0.00000000000E+00 0. -1.
         -1   -1    0    0    0  501 -0.00000000000E+00 -0.00000000000E+00 -0.36127388765E+03  0.36127388765E+03  0.00000000000E+00 0.  1.
         24    2    1    2    0    0  0.39998610495E+03 -0.48929828389E+02  0.89494233324E+03  0.98480318000E+03  0.80823952230E+02 0.  0.
        254    2    1    2    0    0 -0.39998610495E+03  0.48929828389E+02  0.45182094633E+03  0.10845078749E+04  0.89979561614E+03 0.  0.
         23    2    4    4    0    0  0.22948855518E+03 -0.13268695679E+03 -0.55167540539E+01  0.28058882844E+03  0.91808663045E+02 0.  0.
         23    2    4    4    0    0 -0.62947466013E+03  0.18161678518E+03  0.45733770039E+03  0.80391904643E+03  0.88910385233E+02 0.  0.
          2    1    3    3  502    0  0.35467176229E+03 -0.65055128533E+02  0.81962531138E+03  0.89543837296E+03  0.00000000000E+00 0. -1.
         -1    1    3    3    0  502  0.45314342660E+02  0.16125300144E+02  0.75317021857E+02  0.89364807038E+02  0.00000000000E+00 0.  1.
         13    1    5    5    0    0  0.75726970448E+02 -0.35053279557E+01  0.19328146959E+02  0.78233232339E+02  0.00000000000E+00 0. -1.
        -13    1    5    5    0    0  0.15376158473E+03 -0.12918162883E+03 -0.24844901013E+02  0.20235559610E+03  0.00000000000E+00 0.  1.
          1    1    6    6  503    0 -0.11034607448E+03 -0.17823617467E+00  0.91260690451E+02  0.14319497737E+03  0.00000000000E+00 0. -1.
         -1    1    6    6    0  503 -0.51912858565E+03  0.18179502135E+03  0.36607700994E+03  0.66072406906E+03  0.00000000000E+00 0.  1.
<mgrwt>
<rscale>  0 0.15710751E+04</rscale>
<asrwt>0</asrwt>
<pdfrwt beam="1">  1        2 0.26277494E+00 0.15710751E+04</pdfrwt>
<pdfrwt beam="2">  1       -1 0.55580599E-01 0.15710751E+04</pdfrwt>
<totfact> 0.34786084E+01</totfact>
</mgrwt>
</event>
<event>
12    7  0.1740517E-007  0.2092167E+04  0.7818608E-02  0.8564702E-01
         -1   -1    0    0    0  501 -0.00000000000E+00  0.00000000000E+00  0.90944246605E+03  0.90944246605E+03  0.00000000000E+00 0.  1.
          2   -1    0    0  501    0  0.00000000000E+00 -0.00000000000E+00 -0.12032542846E+04  0.12032542846E+04  0.00000000000E+00 0. -1.
         24    2    1    2    0    0  0.36360657631E+03 -0.22356640164E+03  0.60316997271E+03  0.74327512835E+03  0.80325725443E+02 0.  0.
        254    2    1    2    0    0 -0.36360657631E+03  0.22356640164E+03 -0.89698179129E+03  0.13694216223E+04  0.94262801122E+03 0.  0.
         23    2    4    4    0    0 -0.50615839230E+02 -0.35531771213E+03 -0.31605294020E+03  0.48681697654E+03  0.91042121594E+02 0.  0.
         23    2    4    4    0    0 -0.31299073708E+03  0.57888411377E+03 -0.58092885109E+03  0.88260464579E+03  0.91883687787E+02 0.  0.
          2    1    3    3  502    0  0.85158711666E+02 -0.16939073883E+02  0.10376110902E+03  0.13529710323E+03  0.00000000000E+00 0. -1.
         -1    1    3    3    0  502  0.27844786464E+03 -0.20662732775E+03  0.49940886369E+03  0.60797802512E+03  0.00000000000E+00 0.  1.
         13    1    5    5    0    0 -0.28998002721E+02 -0.29559814553E+03 -0.29811021406E+03  0.42081925755E+03  0.00000000000E+00 0. -1.
        -13    1    5    5    0    0 -0.21617836509E+02 -0.59719566596E+02 -0.17942726145E+02  0.65997718985E+02  0.00000000000E+00 0.  1.
          3    1    6    6  503    0 -0.20894891280E+03  0.32384443277E+03 -0.29292067596E+03  0.48408407039E+03  0.00000000000E+00 0. -1.
         -3    1    6    6    0  503 -0.10404182427E+03  0.25503968099E+03 -0.28800817513E+03  0.39852057540E+03  0.00000000000E+00 0.  1.
<mgrwt>
<rscale>  0 0.20921669E+04</rscale>
<asrwt>0</asrwt>
<pdfrwt beam="1">  1        2 0.18511605E+00 0.20921669E+04</pdfrwt>
<pdfrwt beam="2">  1       -1 0.13991422E+00 0.20921669E+04</pdfrwt>
<totfact> 0.83232215E+00</totfact>
</mgrwt>
</event>
<event>
12    7  0.1740517E-007  0.1168970E+04  0.7818608E-02  0.9140460E-01
         -1   -1    0    0    0  501 -0.00000000000E+00  0.00000000000E+00  0.32378498283E+03  0.32378498283E+03  0.00000000000E+00 0.  1.
          2   -1    0    0  501    0  0.00000000000E+00 -0.00000000000E+00 -0.10550904091E+04  0.10550904091E+04  0.00000000000E+00 0. -1.
         24    2    1    2    0    0 -0.86981676981E+02 -0.21682328377E+03 -0.17316300379E+03  0.30156486223E+03  0.79861077751E+02 0.  0.
        254    2    1    2    0    0  0.86981676981E+02  0.21682328377E+03 -0.55814242253E+03  0.10773105297E+04  0.89134553634E+03 0.  0.
         23    2    4    4    0    0 -0.28651544971E+03  0.13712609930E+03  0.68930197262E+02  0.33729915938E+03  0.90137011203E+02 0.  0.
         23    2    4    4    0    0  0.37349712669E+03  0.79697184465E+02 -0.62707261979E+03  0.74001137036E+03  0.92439239073E+02 0.  0.
          2    1    3    3  502    0 -0.83763891885E+02 -0.10185474258E+03 -0.93442433953E+02  0.16162384302E+03  0.00000000000E+00 0. -1.
         -1    1    3    3    0  502 -0.32177850955E+01 -0.11496854119E+03 -0.79720569834E+02  0.13994101921E+03  0.00000000000E+00 0.  1.
         13    1    5    5    0    0 -0.17810928537E+03  0.49330540935E+02  0.70463950928E+02  0.19779177988E+03  0.00000000000E+00 0. -1.
        -13    1    5    5    0    0 -0.10840616434E+03  0.87795558367E+02 -0.15337536667E+01  0.13950737950E+03  0.00000000000E+00 0.  1.
          2    1    6    6  503    0  0.12884313571E+03  0.65476491933E+02 -0.28053608087E+03  0.31557600873E+03  0.00000000000E+00 0. -1.
         -2    1    6    6    0  503  0.24465399099E+03  0.14220692532E+02 -0.34653653892E+03  0.42443536163E+03  0.00000000000E+00 0.  1.
<mgrwt>
<rscale>  0 0.11689695E+04</rscale>
<asrwt>0</asrwt>
<pdfrwt beam="1">  1        2 0.16232160E+00 0.11689695E+04</pdfrwt>
<pdfrwt beam="2">  1       -1 0.49813074E-01 0.11689695E+04</pdfrwt>
<totfact> 0.10588196E+02</totfact>
</mgrwt>
</event>
<event>
12    7  0.1740517E-007  0.1103512E+04  0.7818608E-02  0.9201775E-01
         -1   -1    0    0    0  501 -0.00000000000E+00  0.00000000000E+00  0.77543653488E+03  0.77543653488E+03  0.00000000000E+00 0.  1.
          2   -1    0    0  501    0  0.00000000000E+00 -0.00000000000E+00 -0.39259801598E+03  0.39259801598E+03  0.00000000000E+00 0. -1.
         24    2    1    2    0    0  0.11116498144E+03  0.48375441488E+02  0.18351367049E+03  0.23429957095E+03  0.80753855968E+02 0.  0.
        254    2    1    2    0    0 -0.11116498144E+03 -0.48375441488E+02  0.19932484840E+03  0.93373497991E+03  0.90411989309E+03 0.  0.
         23    2    4    4    0    0  0.10107173898E+03 -0.38987899298E+03 -0.99525562136E+02  0.42452250867E+03  0.89960531678E+02 0.  0.
         23    2    4    4    0    0 -0.21223672042E+03  0.34150355149E+03  0.29885041054E+03  0.50921247124E+03  0.91195788339E+02 0.  0.
          4    1    3    3  502    0  0.50300002718E+02  0.65649767975E+01  0.13926236156E+03  0.14821334131E+03  0.00000000000E+00 0. -1.
         -1    1    3    3    0  502  0.60864978722E+02  0.41810464690E+02  0.44251308927E+02  0.86086229643E+02  0.00000000000E+00 0.  1.
         13    1    5    5    0    0  0.86842982435E+02 -0.16807700885E+03 -0.29354016248E+02  0.19145036634E+03  0.00000000000E+00 0. -1.
        -13    1    5    5    0    0  0.14228756547E+02 -0.22180198413E+03 -0.70171545889E+02  0.23307214233E+03  0.00000000000E+00 0.  1.
          2    1    6    6  503    0 -0.59568505705E+02  0.37629821504E+02  0.34321428187E+02  0.78373278426E+02  0.00000000000E+00 0. -1.
         -2    1    6    6    0  503 -0.15266821472E+03  0.30387372999E+03  0.26452898235E+03  0.43083919281E+03  0.00000000000E+00 0.  1.
<mgrwt>
<rscale>  0 0.11035123E+04</rscale>
<asrwt>0</asrwt>
<pdfrwt beam="1">  1        2 0.60399695E-01 0.11035123E+04</pdfrwt>
<pdfrwt beam="2">  1       -1 0.11929793E+00 0.11035123E+04</pdfrwt>
<totfact> 0.57982490E+01</totfact>
</mgrwt>
</event>
<event>
12    7  0.1740517E-007  0.2043729E+04  0.7818608E-02  0.8586444E-01
         -1   -1    0    0    0  501 -0.00000000000E+00  0.00000000000E+00  0.12171018697E+04  0.12171018697E+04  0.00000000000E+00 0.  1.
          2   -1    0    0  501    0  0.00000000000E+00 -0.00000000000E+00 -0.85794580365E+03  0.85794580365E+03  0.00000000000E+00 0. -1.
         24    2    1    2    0    0  0.77427668108E+03  0.20349150446E+02 -0.12410478709E+03  0.78839341761E+03  0.79017187806E+02 0.  0.
        254    2    1    2    0    0 -0.77427668108E+03 -0.20349150446E+02  0.48326085313E+03  0.12866542557E+04  0.90665299582E+03 0.  0.
         23    2    4    4    0    0 -0.18893731861E+03 -0.42362370343E+03  0.15085420056E+03  0.49659422485E+03  0.93244205507E+02 0.  0.
         23    2    4    4    0    0 -0.58533936247E+03  0.40327455299E+03  0.33240665257E+03  0.79006003087E+03  0.91913738698E+02 0.  0.
          2    1    3    3  502    0  0.37755424890E+03  0.25137613635E+02 -0.97507304114E+02  0.39075156409E+03  0.00000000000E+00 0. -1.
         -1    1    3    3    0  502  0.39672243218E+03 -0.47884631892E+01 -0.26597482981E+02  0.39764185352E+03  0.00000000000E+00 0.  1.
         13    1    5    5    0    0 -0.40537448142E+00 -0.46167350293E+02  0.38117651729E+02  0.59871060913E+02  0.00000000000E+00 0. -1.
        -13    1    5    5    0    0 -0.18853194412E+03 -0.37745635314E+03  0.11273654883E+03  0.43672316394E+03  0.00000000000E+00 0.  1.
          3    1    6    6  503    0 -0.14193875237E+03  0.12966568581E+03  0.55902007723E+02  0.20021197259E+03  0.00000000000E+00 0. -1.
         -3    1    6    6    0  503 -0.44340061011E+03  0.27360886718E+03  0.27650464484E+03  0.58984805828E+03  0.00000000000E+00 0.  1.
<mgrwt>
<rscale>  0 0.20437294E+04</rscale>
<asrwt>0</asrwt>
<pdfrwt beam="1">  1        2 0.13199166E+00 0.20437294E+04</pdfrwt>
<pdfrwt beam="2">  1       -1 0.18724644E+00 0.20437294E+04</pdfrwt>
<totfact> 0.61160104E+00</totfact>
</mgrwt>
</event>
<event>
12    7  0.1740517E-007  0.1563884E+04  0.7818608E-02  0.8843048E-01
          2   -1    0    0  501    0  0.00000000000E+00  0.00000000000E+00  0.19213839341E+04  0.19213839341E+04  0.00000000000E+00 0. -1.
         -1   -1    0    0    0  501 -0.00000000000E+00 -0.00000000000E+00 -0.31822538501E+03  0.31822538501E+03  0.00000000000E+00 0.  1.
         24    2    1    2    0    0  0.21191864078E+03 -0.45076380051E+03  0.49086943847E+03  0.70337290986E+03  0.75386540856E+02 0.  0.
        254    2    1    2    0    0 -0.21191864078E+03  0.45076380051E+03  0.11122891106E+04  0.15362364093E+04  0.93527414449E+03 0.  0.
         23    2    4    4    0    0 -0.34212322197E+03 -0.17895540392E+03  0.54790870835E+03  0.67638839285E+03  0.90686105339E+02 0.  0.
         23    2    4    4    0    0  0.13020458120E+03  0.62971920442E+03  0.56438040230E+03  0.85984801641E+03  0.85521128690E+02 0.  0.
          2    1    3    3  502    0  0.20899936846E+03 -0.44639084196E+03  0.46722177353E+03  0.67914777881E+03  0.00000000000E+00 0. -1.
         -1    1    3    3    0  502  0.29192723204E+01 -0.43729585488E+01  0.23647664935E+02  0.24225131046E+02  0.00000000000E+00 0.  1.
         13    1    5    5    0    0 -0.55367335194E+02 -0.24231007078E+02  0.38412084511E+02  0.71611254332E+02  0.00000000000E+00 0.  1.
        -13    1    5    5    0    0 -0.28675588678E+03 -0.15472439684E+03  0.50949662384E+03  0.60477713852E+03  0.00000000000E+00 0. -1.
          4    1    6    6  503    0  0.13913210166E+03  0.61045622896E+03  0.53471493578E+03  0.82336784715E+03  0.00000000000E+00 0. -1.
         -4    1    6    6    0  503 -0.89275204642E+01  0.19262975467E+02  0.29665466520E+02  0.36480169261E+02  0.00000000000E+00 0.  1.
<mgrwt>
<rscale>  0 0.15638838E+04</rscale>
<asrwt>0</asrwt>
<pdfrwt beam="1">  1        2 0.29559752E+00 0.15638838E+04</pdfrwt>
<pdfrwt beam="2">  1       -1 0.48957753E-01 0.15638838E+04</pdfrwt>
<totfact> 0.33816950E+01</totfact>
</mgrwt>
</event>
<event>
12    7  0.1740517E-007  0.1815610E+04  0.7818608E-02  0.8698042E-01
         -3   -1    0    0    0  501 -0.00000000000E+00  0.00000000000E+00  0.27027896660E+03  0.27027896660E+03  0.00000000000E+00 0.  1.
          2   -1    0    0  501    0  0.00000000000E+00 -0.00000000000E+00 -0.30491087034E+04  0.30491087034E+04  0.00000000000E+00 0. -1.
         24    2    1    2    0    0  0.38520533889E+03  0.47978671855E+03 -0.51507307011E+03  0.80660888199E+03  0.82092463431E+02 0.  0.
        254    2    1    2    0    0 -0.38520533889E+03 -0.47978671855E+03 -0.22637566667E+04  0.25127787880E+04  0.90049127872E+03 0.  0.
         23    2    4    4    0    0 -0.78548996059E+02 -0.17936954666E+03 -0.19798153081E+04  0.19915748500E+04  0.91424012269E+02 0.  0.
         23    2    4    4    0    0 -0.30665634283E+03 -0.30041717189E+03 -0.28394135859E+03  0.52120393798E+03  0.82111266491E+02 0.  0.
          2    1    3    3  502    0  0.24382400956E+03  0.31362298099E+03 -0.38162315837E+03  0.55085910798E+03  0.00000000000E+00 0. -1.
         -1    1    3    3    0  502  0.14138132934E+03  0.16616373756E+03 -0.13344991174E+03  0.25574977402E+03  0.00000000000E+00 0.  1.
         13    1    5    5    0    0  0.10713739753E+02  0.45711939828E+01 -0.10876053983E+03  0.10938251715E+03  0.00000000000E+00 0. -1.
        -13    1    5    5    0    0 -0.89262735812E+02 -0.18394074064E+03 -0.18710547682E+04  0.18821923329E+04  0.00000000000E+00 0.  1.
          3    1    6    6  503    0 -0.96976502099E+02 -0.14829046477E+03 -0.99628337194E+02  0.20327397638E+03  0.00000000000E+00 0. -1.
         -3    1    6    6    0  503 -0.20967984073E+03 -0.15212670712E+03 -0.18431302140E+03  0.31792996161E+03  0.00000000000E+00 0.  1.
<mgrwt>
<rscale>  0 0.18156100E+04</rscale>
<asrwt>0</asrwt>
<pdfrwt beam="1">  1        2 0.46909364E+00 0.18156100E+04</pdfrwt>
<pdfrwt beam="2">  1       -3 0.41581380E-01 0.18156100E+04</pdfrwt>
<totfact> 0.57159913E+00</totfact>
</mgrwt>
</event>
<event>
12    7  0.1740517E-007  0.1382165E+04  0.7818608E-02  0.8966830E-01
          2   -1    0    0  501    0  0.00000000000E+00  0.00000000000E+00  0.38467075991E+03  0.38467075991E+03  0.00000000000E+00 0. -1.
         -1   -1    0    0    0  501 -0.00000000000E+00 -0.00000000000E+00 -0.12415684386E+04  0.12415684386E+04  0.00000000000E+00 0.  1.
         24    2    1    2    0    0 -0.83598374038E+02 -0.22992639672E+03 -0.60896152449E+03  0.66098327301E+03  0.78803000112E+02 0.  0.
        254    2    1    2    0    0  0.83598374038E+02  0.22992639672E+03 -0.24793615424E+03  0.96525592554E+03  0.90021765655E+03 0.  0.
         23    2    4    4    0    0  0.72805907641E+02 -0.32709207962E+03  0.37410796055E+01  0.34739352870E+03  0.91533269218E+02 0.  0.
         23    2    4    4    0    0  0.10792466398E+02  0.55701847634E+03 -0.25167723385E+03  0.61786239684E+03  0.89590463087E+02 0.  0.
          4    1    3    3  502    0  0.44287954366E+01 -0.30946514890E+02 -0.14779776601E+03  0.15106780150E+03  0.00000000000E+00 0. -1.
         -3    1    3    3    0  502 -0.88027169475E+02 -0.19897988184E+03 -0.46116375849E+03  0.50991547151E+03  0.00000000000E+00 0.  1.
         13    1    5    5    0    0 -0.19144534502E+02 -0.71550614603E+02  0.15032935176E+02  0.75577726820E+02  0.00000000000E+00 0.  1.
        -13    1    5    5    0    0  0.91950442143E+02 -0.25554146501E+03 -0.11291855570E+02  0.27181580188E+03  0.00000000000E+00 0. -1.
          1    1    6    6  503    0 -0.17871459914E+02  0.47310561439E+03 -0.23108722002E+03  0.52682977773E+03  0.00000000000E+00 0. -1.
         -1    1    6    6    0  503  0.28663926312E+02  0.83912861952E+02 -0.20590013822E+02  0.91032619109E+02  0.00000000000E+00 0.  1.
<mgrwt>
<rscale>  0 0.13821651E+04</rscale>
<asrwt>0</asrwt>
<pdfrwt beam="1">  1        2 0.59180116E-01 0.13821651E+04</pdfrwt>
<pdfrwt beam="2">  1       -1 0.19101053E+00 0.13821651E+04</pdfrwt>
<totfact> 0.16110502E+01</totfact>
</mgrwt>
</event>
<event>
12    7  0.1740517E-007  0.1622035E+04  0.7818608E-02  0.8807124E-01
         -1   -1    0    0    0  501 -0.00000000000E+00  0.00000000000E+00  0.43041032288E+03  0.43041032288E+03  0.00000000000E+00 0.  1.
          2   -1    0    0  501    0  0.00000000000E+00 -0.00000000000E+00 -0.15281917033E+04  0.15281917033E+04  0.00000000000E+00 0. -1.
         24    2    1    2    0    0 -0.48802327378E+03  0.18380351689E+03 -0.62176736874E+03  0.81557121153E+03  0.81309849741E+02 0.  0.
        254    2    1    2    0    0  0.48802327378E+03 -0.18380351689E+03 -0.47601401171E+03  0.11430308147E+04  0.89887688557E+03 0.  0.
         23    2    4    4    0    0  0.38241857284E+03 -0.34614653355E+03  0.95407619953E+02  0.53258654763E+03  0.92110961487E+02 0.  0.
         23    2    4    4    0    0  0.10560470094E+03  0.16234301666E+03 -0.57142163166E+03  0.61044426705E+03  0.92800399404E+02 0.  0.
          2    1    3    3  502    0 -0.24336147058E+03  0.74695442764E+02 -0.36093082978E+03  0.44167327112E+03  0.00000000000E+00 0. -1.
         -1    1    3    3    0  502 -0.24466180320E+03  0.10910807413E+03 -0.26083653896E+03  0.37389794041E+03  0.00000000000E+00 0.  1.
         13    1    5    5    0    0  0.17751752034E+02 -0.15450381420E+02 -0.15220634123E+02  0.28026892253E+02  0.00000000000E+00 0.  1.
        -13    1    5    5    0    0  0.36466682081E+03 -0.33069615213E+03  0.11062825408E+03  0.50455965538E+03  0.00000000000E+00 0. -1.
          2    1    6    6  503    0  0.11600694809E+02  0.80553926966E+02 -0.14601304250E+03  0.16716255516E+03  0.00000000000E+00 0.  1.
         -2    1    6    6    0  503  0.94004006127E+02  0.81789089695E+02 -0.42540858916E+03  0.44328171189E+03  0.00000000000E+00 0. -1.
<mgrwt>
<rscale>  0 0.16220351E+04</rscale>
<asrwt>0</asrwt>
<pdfrwt beam="1">  1        2 0.23510642E+00 0.16220351E+04</pdfrwt>
<pdfrwt beam="2">  1       -1 0.66216973E-01 0.16220351E+04</pdfrwt>
<totfact> 0.30850860E+01</totfact>
</mgrwt>
</event>
<event>
12    7  0.1740517E-007  0.3488156E+04  0.7818608E-02  0.8116603E-01
         -1   -1    0    0    0  501 -0.00000000000E+00  0.00000000000E+00  0.10449775128E+04  0.10449775128E+04  0.00000000000E+00 0.  1.
          2   -1    0    0  501    0  0.00000000000E+00 -0.00000000000E+00 -0.29108841060E+04  0.29108841060E+04  0.00000000000E+00 0. -1.
         24    2    1    2    0    0  0.76495077087E+03 -0.11659103372E+04  0.82478315226E+02  0.13991911074E+04  0.80227715402E+02 0.  0.
        254    2    1    2    0    0 -0.76495077087E+03  0.11659103372E+04 -0.19483849084E+04  0.25566705115E+04  0.89211196419E+03 0.  0.
         23    2    4    4    0    0 -0.34268755329E+03  0.82776024255E+03 -0.17593462114E+04  0.19764047087E+04  0.90855395399E+02 0.  0.
         23    2    4    4    0    0 -0.42226321758E+03  0.33815009460E+03 -0.18903869705E+03  0.58026580274E+03  0.91219852241E+02 0.  0.
          2    1    3    3  502    0  0.30768684549E+02 -0.31138686680E+02 -0.83958645798E+01  0.44573762451E+02  0.00000000000E+00 0. -1.
         -1    1    3    3    0  502  0.73418208632E+03 -0.11347716505E+04  0.90874179806E+02  0.13546173449E+04  0.00000000000E+00 0.  1.
         13    1    5    5    0    0 -0.13653119640E+03  0.38777921828E+03 -0.72029627218E+03  0.82936132622E+03  0.00000000000E+00 0. -1.
        -13    1    5    5    0    0 -0.20615635689E+03  0.43998102428E+03 -0.10390499392E+04  0.11470433825E+04  0.00000000000E+00 0.  1.
          1    1    6    6  503    0 -0.13338335610E+03  0.91641313909E+02 -0.99905938957E+02  0.19018529580E+03  0.00000000000E+00 0. -1.
         -1    1    6    6    0  503 -0.28887986148E+03  0.24650878069E+03 -0.89132758097E+02  0.39008050694E+03  0.00000000000E+00 0.  1.
<mgrwt>
<rscale>  0 0.34881562E+04</rscale>
<asrwt>0</asrwt>
<pdfrwt beam="1">  1        2 0.44782831E+00 0.34881562E+04</pdfrwt>
<pdfrwt beam="2">  1       -1 0.16076577E+00 0.34881562E+04</pdfrwt>
<totfact> 0.53258756E-01</totfact>
</mgrwt>
</event>
<event>
12    7  0.1740517E-007  0.1893345E+04  0.7818608E-02  0.8658176E-01
          2   -1    0    0  501    0  0.00000000000E+00  0.00000000000E+00  0.20629143580E+04  0.20629143580E+04  0.00000000000E+00 0. -1.
         -1   -1    0    0    0  501 -0.00000000000E+00 -0.00000000000E+00 -0.43442845514E+03  0.43442845514E+03  0.00000000000E+00 0.  1.
         24    2    1    2    0    0 -0.12638076785E+03  0.62528865961E+03  0.16285088579E+03  0.66333456903E+03  0.80835222185E+02 0.  0.
        254    2    1    2    0    0  0.12638076785E+03 -0.62528865961E+03  0.14656350171E+04  0.18340082441E+04  0.89918976300E+03 0.  0.
         23    2    4    4    0    0  0.27597989319E+02 -0.84006712399E+02  0.12170137982E+04  0.12235952098E+04  0.90795790585E+02 0.  0.
         23    2    4    4    0    0  0.98782778528E+02 -0.54128194721E+03  0.24862121887E+03  0.61041303435E+03  0.89707180987E+02 0.  0.
          2    1    3    3  502    0 -0.13953306129E+02  0.25576719533E+02 -0.70222346343E+01  0.29969569788E+02  0.00000000000E+00 0. -1.
         -1    1    3    3    0  502 -0.11242746172E+03  0.59971194008E+03  0.16987312042E+03  0.63336499924E+03  0.00000000000E+00 0.  1.
         13    1    5    5    0    0 -0.66042155489E+01 -0.37063219157E+02  0.13870381788E+03  0.14372211720E+03  0.00000000000E+00 0. -1.
        -13    1    5    5    0    0  0.34202204867E+02 -0.46943493243E+02  0.10783099803E+04  0.10798730926E+04  0.00000000000E+00 0.  1.
          4    1    6    6  503    0  0.92604253970E+02 -0.54120611802E+03  0.25108921790E+03  0.60375939362E+03  0.00000000000E+00 0.  1.
         -4    1    6    6    0  503  0.61785245581E+01 -0.75829188718E-01 -0.24679990268E+01  0.66536407310E+01  0.00000000000E+00 0. -1.
<mgrwt>
<rscale>  0 0.18933449E+04</rscale>
<asrwt>0</asrwt>
<pdfrwt beam="1">  1        2 0.31737143E+00 0.18933449E+04</pdfrwt>
<pdfrwt beam="2">  1       -1 0.66835148E-01 0.18933449E+04</pdfrwt>
<totfact> 0.14914517E+01</totfact>
</mgrwt>
</event>
<event>
12    7  0.1740517E-007  0.1571078E+04  0.7818608E-02  0.8838515E-01
          2   -1    0    0  501    0  0.00000000000E+00  0.00000000000E+00  0.22473250899E+04  0.22473250899E+04  0.00000000000E+00 0. -1.
         -1   -1    0    0    0  501 -0.00000000000E+00 -0.00000000000E+00 -0.27458050693E+03  0.27458050693E+03  0.00000000000E+00 0.  1.
         24    2    1    2    0    0 -0.39453552660E+03 -0.49356652829E+02  0.12137209856E+04  0.12797230897E+04  0.80487231919E+02 0.  0.
        254    2    1    2    0    0  0.39453552660E+03  0.49356652829E+02  0.75902359729E+03  0.12421825071E+04  0.89933653249E+03 0.  0.
         23    2    4    4    0    0  0.57152611370E+03  0.21421522022E+03  0.76560603096E+03  0.98339824722E+03  0.91592897035E+02 0.  0.
         23    2    4    4    0    0 -0.17699058710E+03 -0.16485856739E+03 -0.65824336680E+01  0.25878425983E+03  0.91771180341E+02 0.  0.
          2    1    3    3  502    0 -0.30641798471E+03 -0.66135865975E+02  0.99871277404E+03  0.10467536191E+04  0.00000000000E+00 0. -1.
         -1    1    3    3    0  502 -0.88117541895E+02  0.16779213147E+02  0.21500821160E+03  0.23296947061E+03  0.00000000000E+00 0.  1.
         13    1    5    5    0    0  0.42937085580E+02  0.44760012355E+02  0.72404321194E+02  0.95338542844E+02  0.00000000000E+00 0.  1.
        -13    1    5    5    0    0  0.52858902812E+03  0.16945520786E+03  0.69320170976E+03  0.88805970438E+03  0.00000000000E+00 0. -1.
          4    1    6    6  503    0 -0.15681795734E+03 -0.89240674635E+02 -0.53987424316E+01  0.18051292523E+03  0.00000000000E+00 0. -1.
         -4    1    6    6    0  503 -0.20172629755E+02 -0.75617892754E+02 -0.11836912364E+01  0.78271334604E+02  0.00000000000E+00 0.  1.
<mgrwt>
<rscale>  0 0.15710782E+04</rscale>
<asrwt>0</asrwt>
<pdfrwt beam="1">  1        2 0.34574231E+00 0.15710782E+04</pdfrwt>
<pdfrwt beam="2">  1       -1 0.42243156E-01 0.15710782E+04</pdfrwt>
<totfact> 0.29309029E+01</totfact>
</mgrwt>
</event>
<event>
12    7  0.1740517E-007  0.1365004E+04  0.7818608E-02  0.8979547E-01
          2   -1    0    0  501    0  0.00000000000E+00  0.00000000000E+00  0.10215871324E+04  0.10215871324E+04  0.00000000000E+00 0. -1.
         -1   -1    0    0    0  501 -0.00000000000E+00 -0.00000000000E+00 -0.45596609578E+03  0.45596609578E+03  0.00000000000E+00 0.  1.
         24    2    1    2    0    0 -0.24756900852E+03 -0.27781714775E+03  0.11941126395E+03  0.39907204055E+03  0.80787759160E+02 0.  0.
        254    2    1    2    0    0  0.24756900852E+03  0.27781714775E+03  0.44620977263E+03  0.10784811876E+04  0.90859547061E+03 0.  0.
         23    2    4    4    0    0  0.50034064501E+03 -0.97154854622E+02  0.27071847979E+03  0.58427970680E+03  0.91183626010E+02 0.  0.
         23    2    4    4    0    0 -0.25277163649E+03  0.37497200237E+03  0.17549129284E+03  0.49420148078E+03  0.94553725334E+02 0.  0.
          2    1    3    3  502    0 -0.10224365955E+03 -0.11070367545E+03  0.73602058449E+01  0.15087492273E+03  0.00000000000E+00 0. -1.
         -1    1    3    3    0  502 -0.14532534897E+03 -0.16711347229E+03  0.11205105810E+03  0.24819711783E+03  0.00000000000E+00 0.  1.
         13    1    5    5    0    0  0.20309538578E+03 -0.28206548605E+02  0.60658539688E+02  0.21382891186E+03  0.00000000000E+00 0.  1.
        -13    1    5    5    0    0  0.29724525923E+03 -0.68948306017E+02  0.21005994010E+03  0.37045079494E+03  0.00000000000E+00 0. -1.
          3    1    6    6  503    0 -0.68654876264E+02  0.17860519187E+03  0.53624593738E+02  0.19871815129E+03  0.00000000000E+00 0. -1.
         -3    1    6    6    0  503 -0.18411676022E+03  0.19636681050E+03  0.12186669910E+03  0.29548332950E+03  0.00000000000E+00 0.  1.
<mgrwt>
<rscale>  0 0.13650042E+04</rscale>
<asrwt>0</asrwt>
<pdfrwt beam="1">  1        2 0.15716725E+00 0.13650042E+04</pdfrwt>
<pdfrwt beam="2">  1       -1 0.70148630E-01 0.13650042E+04</pdfrwt>
<totfact> 0.55800470E+01</totfact>
</mgrwt>
</event>
<event>
12    7  0.1740517E-007  0.2220674E+04  0.7818608E-02  0.8509872E-01
         -1   -1    0    0    0  501 -0.00000000000E+00  0.00000000000E+00  0.91511924054E+03  0.91511924054E+03  0.00000000000E+00 0.  1.
          2   -1    0    0  501    0  0.00000000000E+00 -0.00000000000E+00 -0.13471990084E+04  0.13471990084E+04  0.00000000000E+00 0. -1.
         24    2    1    2    0    0  0.86399892337E+03  0.31979006596E+03 -0.13257158064E+03  0.93408264856E+03  0.78583359969E+02 0.  0.
        254    2    1    2    0    0 -0.86399892337E+03 -0.31979006596E+03 -0.29950818723E+03  0.13282356004E+04  0.90870502918E+03 0.  0.
         23    2    4    4    0    0 -0.91046246044E+03  0.23354107568E+02 -0.32034831123E+03  0.96954723468E+03  0.88946577012E+02 0.  0.
         23    2    4    4    0    0  0.46463537066E+02 -0.34314417353E+03  0.20840123994E+02  0.35868836572E+03  0.91193469211E+02 0.  0.
          4    1    3    3  502    0  0.51448539211E+02  0.37819520392E+02 -0.83177194527E-01  0.63853545149E+02  0.00000000000E+00 0. -1.
         -3    1    3    3    0  502  0.81255038416E+03  0.28197054557E+03 -0.13248840344E+03  0.87022910341E+03  0.00000000000E+00 0.  1.
         13    1    5    5    0    0 -0.90516731508E+03  0.30567456584E+02 -0.32012976700E+03  0.96059632802E+03  0.00000000000E+00 0. -1.
        -13    1    5    5    0    0 -0.52951453580E+01 -0.72133490158E+01 -0.21854422352E+00  0.89509066560E+01  0.00000000000E+00 0.  1.
          1    1    6    6  503    0  0.30583430366E+02 -0.21697391653E+03 -0.31118320782E+02  0.22131736615E+03  0.00000000000E+00 0. -1.
         -1    1    6    6    0  503  0.15880106699E+02 -0.12617025700E+03  0.51958444776E+02  0.13737099957E+03  0.00000000000E+00 0.  1.
<mgrwt>
<rscale>  0 0.22206735E+04</rscale>
<asrwt>0</asrwt>
<pdfrwt beam="1">  1        2 0.20726139E+00 0.22206735E+04</pdfrwt>
<pdfrwt beam="2">  1       -1 0.14078758E+00 0.22206735E+04</pdfrwt>
<totfact> 0.66661798E+00</totfact>
</mgrwt>
</event>
<event>
12    7  0.1740517E-007  0.3186078E+04  0.7818608E-02  0.8192504E-01
         -1   -1    0    0    0  501 -0.00000000000E+00  0.00000000000E+00  0.11072441415E+04  0.11072441415E+04  0.00000000000E+00 0.  1.
          2   -1    0    0  501    0  0.00000000000E+00 -0.00000000000E+00 -0.22919722395E+04  0.22919722395E+04  0.00000000000E+00 0. -1.
         24    2    1    2    0    0  0.13182275075E+04  0.59291685585E+03 -0.77614644175E+03  0.16429720249E+04  0.87633419223E+02 0.  0.
        254    2    1    2    0    0 -0.13182275075E+04 -0.59291685585E+03 -0.40858165623E+03  0.17562443560E+04  0.91004456414E+03 0.  0.
         23    2    4    4    0    0 -0.32798497232E+03  0.83058028590E+02 -0.42852515740E+03  0.55363079037E+03  0.91654041574E+02 0.  0.
         23    2    4    4    0    0 -0.99024253519E+03 -0.67597488444E+03  0.19943501169E+02  0.12026135656E+04  0.91429328716E+02 0.  0.
          2    1    3    3  502    0  0.91154929070E+03  0.45262139481E+03 -0.53463987074E+03  0.11496208191E+04  0.00000000000E+00 0. -1.
         -1    1    3    3    0  502  0.40667821681E+03  0.14029546104E+03 -0.24150657101E+03  0.49335120579E+03  0.00000000000E+00 0.  1.
         13    1    5    5    0    0 -0.26779000171E+03  0.72686652419E+02 -0.39844415564E+03  0.48554359189E+03  0.00000000000E+00 0.  1.
        -13    1    5    5    0    0 -0.60194970606E+02  0.10371376171E+02 -0.30081001756E+02  0.68087198478E+02  0.00000000000E+00 0. -1.
          4    1    6    6  503    0 -0.29368011074E+03 -0.19797152139E+03 -0.35775784883E+02  0.35597842281E+03  0.00000000000E+00 0. -1.
         -4    1    6    6    0  503 -0.69656242445E+03 -0.47800336305E+03  0.55719286052E+02  0.84663514283E+03  0.00000000000E+00 0.  1.
<mgrwt>
<rscale>  0 0.31860777E+04</rscale>
<asrwt>0</asrwt>
<pdfrwt beam="1">  1        2 0.35261111E+00 0.31860777E+04</pdfrwt>
<pdfrwt beam="2">  1       -1 0.17034525E+00 0.31860777E+04</pdfrwt>
<totfact> 0.10740234E+00</totfact>
</mgrwt>
</event>
<event>
12    7  0.1740517E-007  0.1639419E+04  0.7818608E-02  0.8796691E-01
          2   -1    0    0  501    0  0.00000000000E+00  0.00000000000E+00  0.21412836358E+04  0.21412836358E+04  0.00000000000E+00 0. -1.
         -1   -1    0    0    0  501 -0.00000000000E+00 -0.00000000000E+00 -0.31379465338E+03  0.31379465338E+03  0.00000000000E+00 0.  1.
         24    2    1    2    0    0 -0.31074358067E+03 -0.58121970892E+02 -0.66283954030E+02  0.33274509485E+03  0.79912446834E+02 0.  0.
        254    2    1    2    0    0  0.31074358067E+03  0.58121970892E+02  0.18937729365E+04  0.21223331944E+04  0.90442385886E+03 0.  0.
         23    2    4    4    0    0  0.92185137596E+02  0.31319531631E+03  0.20158036793E+03  0.39469687915E+03  0.92528784303E+02 0.  0.
         23    2    4    4    0    0  0.21855844308E+03 -0.25507334541E+03  0.16921925686E+04  0.17276363152E+04  0.91549680355E+02 0.  0.
          2    1    3    3  502    0 -0.29879365894E+02  0.31896394103E+01  0.15566209903E+02  0.33841648845E+02  0.00000000000E+00 0. -1.
         -1    1    3    3    0  502 -0.28086421478E+03 -0.61311610303E+02 -0.81850163933E+02  0.29890344601E+03  0.00000000000E+00 0.  1.
         13    1    5    5    0    0 -0.14447564598E+02  0.98501069474E+02  0.55589852157E+02  0.11402378907E+03  0.00000000000E+00 0.  1.
        -13    1    5    5    0    0  0.10663270219E+03  0.21469424683E+03  0.14599051577E+03  0.28067309008E+03  0.00000000000E+00 0. -1.
          3    1    6    6  503    0  0.95955182713E+01 -0.19305813099E+02  0.27524813204E+03  0.27609114905E+03  0.00000000000E+00 0. -1.
         -3    1    6    6    0  503  0.20896292480E+03 -0.23576753231E+03  0.14169444365E+04  0.14515451662E+04  0.00000000000E+00 0.  1.
<mgrwt>
<rscale>  0 0.16394186E+04</rscale>
<asrwt>0</asrwt>
<pdfrwt beam="1">  1        2 0.32942824E+00 0.16394186E+04</pdfrwt>
<pdfrwt beam="2">  1       -1 0.48276102E-01 0.16394186E+04</pdfrwt>
<totfact> 0.26041330E+01</totfact>
</mgrwt>
</event>
<event>
12    7  0.1740517E-007  0.2057118E+04  0.7818608E-02  0.8580372E-01
         -1   -1    0    0    0  501 -0.00000000000E+00  0.00000000000E+00  0.10113000876E+04  0.10113000876E+04  0.00000000000E+00 0.  1.
          2   -1    0    0  501    0  0.00000000000E+00 -0.00000000000E+00 -0.10461119858E+04  0.10461119858E+04  0.00000000000E+00 0. -1.
         24    2    1    2    0    0  0.43587525786E+03  0.16132134171E+03  0.68867257903E+03  0.83469408945E+03  0.80202781429E+02 0.  0.
        254    2    1    2    0    0 -0.43587525786E+03 -0.16132134171E+03 -0.72348447730E+03  0.12227179839E+04  0.86925120859E+03 0.  0.
         23    2    4    4    0    0 -0.43719901747E+03 -0.21292051904E+03 -0.89445190119E+03  0.10221968460E+04  0.91455235471E+02 0.  0.
         23    2    4    4    0    0  0.13237596017E+01  0.51599177327E+02  0.17096742388E+03  0.20052113796E+03  0.91184643985E+02 0.  0.
          2    1    3    3  502    0  0.18410900065E+03  0.49656423103E+02  0.22049533873E+03  0.29151342830E+03  0.00000000000E+00 0. -1.
         -1    1    3    3    0  502  0.25176625722E+03  0.11166491861E+03  0.46817724030E+03  0.54318066116E+03  0.00000000000E+00 0.  1.
         13    1    5    5    0    0 -0.24511677579E+03 -0.72755603943E+02 -0.42574764409E+03  0.49662527939E+03  0.00000000000E+00 0. -1.
        -13    1    5    5    0    0 -0.19208224168E+03 -0.14016491509E+03 -0.46870425709E+03  0.52557156659E+03  0.00000000000E+00 0.  1.
          2    1    6    6  503    0  0.44803270423E+02  0.16986988513E+02  0.63666657642E+02  0.79682709007E+02  0.00000000000E+00 0. -1.
         -2    1    6    6    0  503 -0.43479510821E+02  0.34612188814E+02  0.10730076624E+03  0.12083842895E+03  0.00000000000E+00 0.  1.
<mgrwt>
<rscale>  0 0.20571175E+04</rscale>
<asrwt>0</asrwt>
<pdfrwt beam="1">  1        2 0.16094031E+00 0.20571175E+04</pdfrwt>
<pdfrwt beam="2">  1       -1 0.15558463E+00 0.20571175E+04</pdfrwt>
<totfact> 0.78423109E+00</totfact>
</mgrwt>
</event>
<event>
12    7  0.1740517E-007  0.1501777E+04  0.7818608E-02  0.8883272E-01
          2   -1    0    0  501    0  0.00000000000E+00  0.00000000000E+00  0.10220034648E+04  0.10220034648E+04  0.00000000000E+00 0. -1.
         -1   -1    0    0    0  501 -0.00000000000E+00 -0.00000000000E+00 -0.55169441881E+03  0.55169441881E+03  0.00000000000E+00 0.  1.
         24    2    1    2    0    0 -0.21081978260E+03 -0.30190845405E+03 -0.16424148070E+03  0.41054951245E+03  0.77343020563E+02 0.  0.
        254    2    1    2    0    0  0.21081978260E+03  0.30190845405E+03  0.63455052668E+03  0.11631483711E+04  0.90258853694E+03 0.  0.
         23    2    4    4    0    0  0.52534411713E+02  0.32207824145E+03 -0.14076663326E+03  0.36633486531E+03  0.88835412274E+02 0.  0.
         23    2    4    4    0    0  0.15828537089E+03 -0.20169787407E+02  0.77531715994E+03  0.79681350583E+03  0.91290665505E+02 0.  0.
          4    1    3    3  502    0 -0.10432822021E+03 -0.16637112670E+03 -0.46502519122E+02  0.20180736759E+03  0.00000000000E+00 0. -1.
         -3    1    3    3    0  502 -0.10649156240E+03 -0.13553732735E+03 -0.11773896158E+03  0.20874214486E+03  0.00000000000E+00 0.  1.
         13    1    5    5    0    0  0.50465891147E+02  0.17718753181E+03 -0.12019818439E+03  0.21997688772E+03  0.00000000000E+00 0.  1.
        -13    1    5    5    0    0  0.20685205656E+01  0.14489070964E+03 -0.20568448872E+02  0.14635797760E+03  0.00000000000E+00 0. -1.
          1    1    6    6  503    0  0.83441306906E+02 -0.47104767887E+02  0.53948129854E+03  0.54792461373E+03  0.00000000000E+00 0. -1.
         -1    1    6    6    0  503  0.74844063986E+02  0.26934980481E+02  0.23583586140E+03  0.24888889210E+03  0.00000000000E+00 0.  1.
<mgrwt>
<rscale>  0 0.15017771E+04</rscale>
<asrwt>0</asrwt>
<pdfrwt beam="1">  1        2 0.15723130E+00 0.15017771E+04</pdfrwt>
<pdfrwt beam="2">  1       -1 0.84876065E-01 0.15017771E+04</pdfrwt>
<totfact> 0.36918814E+01</totfact>
</mgrwt>
</event>
<event>
12    7  0.1740517E-007  0.1091620E+04  0.7818608E-02  0.9213398E-01
         -1   -1    0    0    0  501 -0.00000000000E+00  0.00000000000E+00  0.15653359751E+03  0.15653359751E+03  0.00000000000E+00 0.  1.
          2   -1    0    0  501    0  0.00000000000E+00 -0.00000000000E+00 -0.19031611146E+04  0.19031611146E+04  0.00000000000E+00 0. -1.
         24    2    1    2    0    0  0.93733084543E+02 -0.10956522837E+02 -0.42218672553E+02  0.13095979652E+03  0.80387284212E+02 0.  0.
        254    2    1    2    0    0 -0.93733084543E+02  0.10956522837E+02 -0.17044088446E+04  0.19287349156E+04  0.89783235002E+03 0.  0.
         23    2    4    4    0    0  0.41025996932E+01 -0.29336004169E+03 -0.15158423858E+04  0.15468127044E+04  0.93672079218E+02 0.  0.
         23    2    4    4    0    0 -0.97835684236E+02  0.30431656452E+03 -0.18856645878E+03  0.38192221126E+03  0.90149173729E+02 0.  0.
          4    1    3    3  502    0  0.16321564321E+02 -0.18695566311E+02 -0.46857743273E+02  0.53024199817E+02  0.00000000000E+00 0. -1.
         -3    1    3    3    0  502  0.77411520222E+02  0.77390434741E+01  0.46390707199E+01  0.77935596707E+02  0.00000000000E+00 0.  1.
         13    1    5    5    0    0  0.15000154785E+02 -0.29171209357E+03 -0.14946606960E+04  0.15229351747E+04  0.00000000000E+00 0.  1.
        -13    1    5    5    0    0 -0.10897555092E+02 -0.16479481137E+01 -0.21181689761E+02  0.23877529627E+02  0.00000000000E+00 0. -1.
          3    1    6    6  503    0 -0.46251939864E+02  0.10804247766E+03 -0.11935484382E+03  0.16750521683E+03  0.00000000000E+00 0. -1.
         -3    1    6    6    0  503 -0.51583744372E+02  0.19627408686E+03 -0.69211614960E+02  0.21441699443E+03  0.00000000000E+00 0.  1.
<mgrwt>
<rscale>  0 0.10916202E+04</rscale>
<asrwt>0</asrwt>
<pdfrwt beam="1">  1        2 0.29279401E+00 0.10916202E+04</pdfrwt>
<pdfrwt beam="2">  1       -1 0.24082093E-01 0.10916202E+04</pdfrwt>
<totfact> 0.12799531E+02</totfact>
</mgrwt>
</event>
<event>
12    7  0.1740517E-007  0.1361936E+04  0.7818608E-02  0.8981842E-01
         -1   -1    0    0    0  501 -0.00000000000E+00  0.00000000000E+00  0.28486949200E+03  0.28486949200E+03  0.00000000000E+00 0.  1.
          2   -1    0    0  501    0  0.00000000000E+00 -0.00000000000E+00 -0.16278236552E+04  0.16278236552E+04  0.00000000000E+00 0. -1.
         24    2    1    2    0    0  0.20654083893E+03 -0.23759911013E+03 -0.66109157976E+03  0.73646297029E+03  0.78887099655E+02 0.  0.
        254    2    1    2    0    0 -0.20654083893E+03  0.23759911013E+03 -0.68186258347E+03  0.11762301769E+04  0.90524493433E+03 0.  0.
         23    2    4    4    0    0 -0.21692946788E+03  0.42896567306E+03 -0.79696113336E+03  0.93503392302E+03  0.89841228933E+02 0.  0.
         23    2    4    4    0    0  0.10388628949E+02 -0.19136656293E+03  0.11509854989E+03  0.24119625392E+03  0.90547621173E+02 0.  0.
          2    1    3    3  502    0  0.16802893449E+03 -0.20018946158E+03 -0.46787980889E+03  0.53593008772E+03  0.00000000000E+00 0. -1.
         -1    1    3    3    0  502  0.38511904440E+02 -0.37409648547E+02 -0.19321177087E+03  0.20053288257E+03  0.00000000000E+00 0.  1.
         13    1    5    5    0    0 -0.73196667211E+02  0.22125896199E+03 -0.43749773156E+03  0.49569904727E+03  0.00000000000E+00 0.  1.
        -13    1    5    5    0    0 -0.14373280067E+03  0.20770671107E+03 -0.35946340180E+03  0.43933487575E+03  0.00000000000E+00 0. -1.
          3    1    6    6  503    0  0.25159233170E+02 -0.16072452581E+03  0.54256803449E+02  0.17149099373E+03  0.00000000000E+00 0. -1.
         -3    1    6    6    0  503 -0.14770604221E+02 -0.30642037114E+02  0.60841746441E+02  0.69705260185E+02  0.00000000000E+00 0.  1.
<mgrwt>
<rscale>  0 0.13619358E+04</rscale>
<asrwt>0</asrwt>
<pdfrwt beam="1">  1        2 0.25043441E+00 0.13619358E+04</pdfrwt>
<pdfrwt beam="2">  1       -1 0.43826076E-01 0.13619358E+04</pdfrwt>
<totfact> 0.61545411E+01</totfact>
</mgrwt>
</event>
<event>
12    7  0.1740517E-007  0.1553659E+04  0.7818608E-02  0.8849534E-01
         -1   -1    0    0    0  501 -0.00000000000E+00  0.00000000000E+00  0.25227438930E+03  0.25227438930E+03  0.00000000000E+00 0.  1.
          2   -1    0    0  501    0  0.00000000000E+00 -0.00000000000E+00 -0.23920951253E+04  0.23920951253E+04  0.00000000000E+00 0. -1.
         24    2    1    2    0    0 -0.34642753649E+03  0.29585398181E+03 -0.28910992139E+03  0.54547067400E+03  0.80075545349E+02 0.  0.
        254    2    1    2    0    0  0.34642753649E+03 -0.29585398181E+03 -0.18507108147E+04  0.20988988406E+04  0.87903595328E+03 0.  0.
         23    2    4    4    0    0  0.22866448331E+03 -0.57480053269E+03 -0.15164117467E+04  0.16402687172E+04  0.91070197050E+02 0.  0.
         23    2    4    4    0    0  0.11776305318E+03  0.27894655088E+03 -0.33429906800E+03  0.45863012348E+03  0.83104803445E+02 0.  0.
          2    1    3    3  502    0 -0.14504237740E+03  0.14632113452E+03 -0.17318520771E+03  0.26914732363E+03  0.00000000000E+00 0. -1.
         -1    1    3    3    0  502 -0.20138515908E+03  0.14953284729E+03 -0.11592471368E+03  0.27632335037E+03  0.00000000000E+00 0.  1.
         13    1    5    5    0    0  0.76907516340E+02 -0.96074832942E+02 -0.30255779662E+03  0.32662877995E+03  0.00000000000E+00 0. -1.
        -13    1    5    5    0    0  0.15175696697E+03 -0.47872569974E+03 -0.12138539500E+04  0.13136399372E+04  0.00000000000E+00 0.  1.
          3    1    6    6  503    0  0.30087637519E+02  0.10370372978E+03 -0.66563597212E+02  0.12684810592E+03  0.00000000000E+00 0. -1.
         -3    1    6    6    0  503  0.87675415657E+02  0.17524282110E+03 -0.26773547079E+03  0.33178201756E+03  0.00000000000E+00 0.  1.
<mgrwt>
<rscale>  0 0.15536593E+04</rscale>
<asrwt>0</asrwt>
<pdfrwt beam="1">  1        2 0.36801463E+00 0.15536593E+04</pdfrwt>
<pdfrwt beam="2">  1       -1 0.38811444E-01 0.15536593E+04</pdfrwt>
<totfact> 0.28387153E+01</totfact>
</mgrwt>
</event>
<event>
12    7  0.1740517E-007  0.1611492E+04  0.7818608E-02  0.8813519E-01
          2   -1    0    0  501    0  0.00000000000E+00  0.00000000000E+00  0.18401228605E+04  0.18401228605E+04  0.00000000000E+00 0. -1.
         -1   -1    0    0    0  501 -0.00000000000E+00 -0.00000000000E+00 -0.35281683664E+03  0.35281683664E+03  0.00000000000E+00 0.  1.
         24    2    1    2    0    0 -0.11141906276E+03  0.53964512166E+03  0.49644295950E+03  0.74617319367E+03  0.81778713900E+02 0.  0.
        254    2    1    2    0    0  0.11141906276E+03 -0.53964512166E+03  0.99086306432E+03  0.14467665034E+04  0.89871721822E+03 0.  0.
         23    2    4    4    0    0 -0.36294755024E+03 -0.30835342081E+03  0.65458095237E+03  0.81476816007E+03  0.92510405430E+02 0.  0.
         23    2    4    4    0    0  0.47436661300E+03 -0.23129170085E+03  0.33628211195E+03  0.63199834335E+03  0.88412175465E+02 0.  0.
          2    1    3    3  502    0 -0.19573724721E+02  0.48947467517E+02  0.81294262625E+02  0.96890362842E+02  0.00000000000E+00 0. -1.
         -1    1    3    3    0  502 -0.91845338037E+02  0.49069765414E+03  0.41514869687E+03  0.64928283083E+03  0.00000000000E+00 0.  1.
         13    1    5    5    0    0 -0.36560203502E+03 -0.29667870400E+03  0.62235629208E+03  0.78039121965E+03  0.00000000000E+00 0.  1.
        -13    1    5    5    0    0  0.26544847760E+01 -0.11674716805E+02  0.32224660292E+02  0.34376940423E+02  0.00000000000E+00 0. -1.
          4    1    6    6  503    0  0.27849914228E+03 -0.12905925845E+03  0.24583577704E+03  0.39325982978E+03  0.00000000000E+00 0.  1.
         -4    1    6    6    0  503  0.19586747073E+03 -0.10223244239E+03  0.90446334906E+02  0.23873851357E+03  0.00000000000E+00 0. -1.
<mgrwt>
<rscale>  0 0.16114916E+04</rscale>
<asrwt>0</asrwt>
<pdfrwt beam="1">  1        2 0.28309582E+00 0.16114916E+04</pdfrwt>
<pdfrwt beam="2">  1       -1 0.54279514E-01 0.16114916E+04</pdfrwt>
<totfact> 0.30665967E+01</totfact>
</mgrwt>
</event>
<event>
12    7  0.1740517E-007  0.2171174E+04  0.7818608E-02  0.8530523E-01
          4   -1    0    0  501    0  0.00000000000E+00  0.00000000000E+00  0.54678663397E+03  0.54678663397E+03  0.00000000000E+00 0. -1.
         -3   -1    0    0    0  501 -0.00000000000E+00 -0.00000000000E+00 -0.21553171702E+04  0.21553171702E+04  0.00000000000E+00 0.  1.
         24    2    1    2    0    0 -0.54705887950E+03 -0.44893795602E+03  0.19013579703E+02  0.71239305596E+03  0.79521342896E+02 0.  0.
        254    2    1    2    0    0  0.54705887950E+03  0.44893795602E+03 -0.16275441159E+04  0.19897107482E+04  0.89957229072E+03 0.  0.
         23    2    4    4    0    0  0.88817409845E+02  0.62339381073E+03 -0.78557989299E+03  0.10110130707E+04  0.92213259455E+02 0.  0.
         23    2    4    4    0    0  0.45824146965E+03 -0.17445585471E+03 -0.84196422292E+03  0.97869767753E+03  0.92332559690E+02 0.  0.
          2    1    3    3  502    0 -0.42742554594E+03 -0.39036313672E+03  0.11332751732E+02  0.57896839905E+03  0.00000000000E+00 0. -1.
         -1    1    3    3    0  502 -0.11963333356E+03 -0.58574819296E+02  0.76808279710E+01  0.13342465692E+03  0.00000000000E+00 0.  1.
         13    1    5    5    0    0  0.10594893898E+03  0.55684311225E+03 -0.71608996146E+03  0.91328213726E+03  0.00000000000E+00 0.  1.
        -13    1    5    5    0    0 -0.17131529137E+02  0.66550698475E+02 -0.69489931526E+02  0.97730933391E+02  0.00000000000E+00 0. -1.
          2    1    6    6  503    0  0.24362525839E+03 -0.44342346086E+02 -0.43619673178E+03  0.50158458808E+03  0.00000000000E+00 0. -1.
         -2    1    6    6    0  503  0.21461621127E+03 -0.13011350862E+03 -0.40576749114E+03  0.47711308945E+03  0.00000000000E+00 0.  1.
<mgrwt>
<rscale>  0 0.21711735E+04</rscale>
<asrwt>0</asrwt>
<pdfrwt beam="1">  1        4 0.84121023E-01 0.21711735E+04</pdfrwt>
<pdfrwt beam="2">  1       -3 0.33158725E+00 0.21711735E+04</pdfrwt>
<totfact> 0.65783963E-02</totfact>
</mgrwt>
</event>
<event>
12    7  0.1740517E-007  0.2620061E+04  0.7818608E-02  0.8361419E-01
          2   -1    0    0  501    0  0.00000000000E+00  0.00000000000E+00  0.85681807835E+03  0.85681807835E+03  0.00000000000E+00 0. -1.
         -1   -1    0    0    0  501 -0.00000000000E+00 -0.00000000000E+00 -0.20029682657E+04  0.20029682657E+04  0.00000000000E+00 0.  1.
         24    2    1    2    0    0  0.97304634468E+02 -0.77855517749E+03  0.41658772908E+03  0.89205682659E+03  0.81263088529E+02 0.  0.
        254    2    1    2    0    0 -0.97304634468E+02  0.77855517749E+03 -0.15627379164E+04  0.19677295175E+04  0.90232660504E+03 0.  0.
         23    2    4    4    0    0 -0.21631028451E+03  0.89229790445E+03 -0.94127548292E+03  0.13183999038E+04  0.95880561585E+02 0.  0.
         23    2    4    4    0    0  0.11900565004E+03 -0.11374272696E+03 -0.62146243353E+03  0.64932961369E+03  0.91179154714E+02 0.  0.
          2    1    3    3  502    0  0.39748170122E+02 -0.20722430107E+03  0.75114567925E+02  0.22397327139E+03  0.00000000000E+00 0. -1.
         -1    1    3    3    0  502  0.57556464346E+02 -0.57133087642E+03  0.34147316115E+03  0.66808355520E+03  0.00000000000E+00 0.  1.
         13    1    5    5    0    0 -0.49179312283E+02  0.39758569799E+03 -0.39098646023E+03  0.55978871379E+03  0.00000000000E+00 0. -1.
        -13    1    5    5    0    0 -0.16713097222E+03  0.49471220646E+03 -0.55028902268E+03  0.75861118999E+03  0.00000000000E+00 0.  1.
          1    1    6    6  503    0  0.10722244366E+03 -0.12964946053E+03 -0.56351670438E+03  0.58809583501E+03  0.00000000000E+00 0. -1.
         -1    1    6    6    0  503  0.11783206379E+02  0.15906733568E+02 -0.57945729145E+02  0.61233778681E+02  0.00000000000E+00 0.  1.
<mgrwt>
<rscale>  0 0.26200606E+04</rscale>
<asrwt>0</asrwt>
<pdfrwt beam="1">  1        2 0.13181817E+00 0.26200606E+04</pdfrwt>
<pdfrwt beam="2">  1       -1 0.30814896E+00 0.26200606E+04</pdfrwt>
<totfact> 0.92424447E-01</totfact>
</mgrwt>
</event>
<event>
12    7  0.1740517E-007  0.1599839E+04  0.7818608E-02  0.8820647E-01
          2   -1    0    0  501    0  0.00000000000E+00  0.00000000000E+00  0.26109465071E+04  0.26109465071E+04  0.00000000000E+00 0. -1.
         -1   -1    0    0    0  501 -0.00000000000E+00 -0.00000000000E+00 -0.24507238633E+03  0.24507238633E+03  0.00000000000E+00 0.  1.
         24    2    1    2    0    0 -0.42191647494E+03 -0.27393965945E+03  0.41878393376E+03  0.65944910862E+03  0.80229014919E+02 0.  0.
        254    2    1    2    0    0  0.42191647494E+03  0.27393965945E+03  0.19470901870E+04  0.21965697848E+04  0.88357352516E+03 0.  0.
         23    2    4    4    0    0 -0.16288002664E+03  0.28271195095E+03  0.11804813169E+04  0.12281165930E+04  0.90985032894E+02 0.  0.
         23    2    4    4    0    0  0.58479650158E+03 -0.87722915066E+01  0.76660887009E+03  0.96845319178E+03  0.90269173086E+02 0.  0.
          2    1    3    3  502    0 -0.40516286319E+02 -0.41423481773E+01  0.48432509217E+02  0.63280616736E+02  0.00000000000E+00 0. -1.
         -1    1    3    3    0  502 -0.38140018862E+03 -0.26979731127E+03  0.37035142454E+03  0.59616849188E+03  0.00000000000E+00 0.  1.
         13    1    5    5    0    0 -0.16408220394E+02  0.11345360230E+02  0.23900696815E+02  0.31131819791E+02  0.00000000000E+00 0.  1.
        -13    1    5    5    0    0 -0.14647180624E+03  0.27136659072E+03  0.11565806201E+04  0.11969847732E+04  0.00000000000E+00 0. -1.
          3    1    6    6  503    0  0.41444780164E+03  0.35959276480E+01  0.47403026283E+03  0.62967023199E+03  0.00000000000E+00 0. -1.
         -3    1    6    6    0  503  0.17034869995E+03 -0.12368219155E+02  0.29257860726E+03  0.33878295979E+03  0.00000000000E+00 0.  1.
<mgrwt>
<rscale>  0 0.15998386E+04</rscale>
<asrwt>0</asrwt>
<pdfrwt beam="1">  1        2 0.40168406E+00 0.15998386E+04</pdfrwt>
<pdfrwt beam="2">  1       -1 0.37703446E-01 0.15998386E+04</pdfrwt>
<totfact> 0.22277894E+01</totfact>
</mgrwt>
</event>
<event>
12    7  0.1740517E-007  0.1656190E+04  0.7818608E-02  0.8786753E-01
         -1   -1    0    0    0  501 -0.00000000000E+00  0.00000000000E+00  0.61046246259E+03  0.61046246259E+03  0.00000000000E+00 0.  1.
          2   -1    0    0  501    0  0.00000000000E+00 -0.00000000000E+00 -0.11233151667E+04  0.11233151667E+04  0.00000000000E+00 0. -1.
         24    2    1    2    0    0 -0.20489754381E+03  0.54035189721E+03 -0.16160511558E+03  0.60554677861E+03  0.81286600565E+02 0.  0.
        254    2    1    2    0    0  0.20489754381E+03 -0.54035189721E+03 -0.35124758854E+03  0.11282308507E+04  0.90308737547E+03 0.  0.
         23    2    4    4    0    0  0.42261490981E+03 -0.62775690029E+03 -0.89865016561E+02  0.76815578717E+03  0.96465041872E+02 0.  0.
         23    2    4    4    0    0 -0.21771736600E+03  0.87405003082E+02 -0.26138257198E+03  0.36007506353E+03  0.79326643814E+02 0.  0.
          4    1    3    3  502    0 -0.73510422721E+02  0.24027157228E+03 -0.32157469014E+02  0.25331465316E+03  0.00000000000E+00 0. -1.
         -3    1    3    3    0  502 -0.13138712109E+03  0.30008032493E+03 -0.12944764656E+03  0.35223212545E+03  0.00000000000E+00 0.  1.
         13    1    5    5    0    0  0.31923523001E+03 -0.43017157023E+03 -0.99957058297E+02  0.54493130339E+03  0.00000000000E+00 0. -1.
        -13    1    5    5    0    0  0.10337967980E+03 -0.19758533006E+03  0.10092041736E+02  0.22322448378E+03  0.00000000000E+00 0.  1.
          4    1    6    6  503    0 -0.16576791223E+03  0.41123525521E+02 -0.14296622067E+03  0.22273186869E+03  0.00000000000E+00 0. -1.
         -4    1    6    6    0  503 -0.51949453774E+02  0.46281477561E+02 -0.11841635131E+03  0.13734319484E+03  0.00000000000E+00 0.  1.
<mgrwt>
<rscale>  0 0.16561905E+04</rscale>
<asrwt>0</asrwt>
<pdfrwt beam="1">  1        2 0.17281772E+00 0.16561905E+04</pdfrwt>
<pdfrwt beam="2">  1       -1 0.93917303E-01 0.16561905E+04</pdfrwt>
<totfact> 0.25222040E+01</totfact>
</mgrwt>
</event>
<event>
12    7  0.1740517E-007  0.1052149E+04  0.7818608E-02  0.9253128E-01
         -1   -1    0    0    0  501 -0.00000000000E+00  0.00000000000E+00  0.23604296198E+03  0.23604296198E+03  0.00000000000E+00 0.  1.
          2   -1    0    0  501    0  0.00000000000E+00 -0.00000000000E+00 -0.11724742846E+04  0.11724742846E+04  0.00000000000E+00 0. -1.
         24    2    1    2    0    0 -0.98110898079E+02  0.30127495542E+02 -0.24603061487E+03  0.27685392096E+03  0.74723595939E+02 0.  0.
        254    2    1    2    0    0  0.98110898079E+02 -0.30127495542E+02 -0.69040070773E+03  0.11316633256E+04  0.89077232273E+03 0.  0.
         23    2    4    4    0    0  0.43728987228E+03 -0.15974650994E+03 -0.19547541758E+03  0.51119998903E+03  0.79833639946E+02 0.  0.
         23    2    4    4    0    0 -0.33917897420E+03  0.12961901440E+03 -0.49492529015E+03  0.62046333656E+03  0.90444700016E+02 0.  0.
          4    1    3    3  502    0 -0.73258076139E+02  0.48981913707E+02 -0.21711714738E+03  0.23431992932E+03  0.00000000000E+00 0. -1.
         -3    1    3    3    0  502 -0.24852821940E+02 -0.18854418165E+02 -0.28913467484E+02  0.42533991638E+02  0.00000000000E+00 0.  1.
         13    1    5    5    0    0  0.50582006056E+02 -0.25611927705E+02 -0.53533374709E+02  0.77976486105E+02  0.00000000000E+00 0. -1.
        -13    1    5    5    0    0  0.38670786622E+03 -0.13413458224E+03 -0.14194204287E+03  0.43322350292E+03  0.00000000000E+00 0.  1.
          3    1    6    6  503    0 -0.13601871078E+01 -0.54970228886E+01 -0.27753786649E+02  0.28325607548E+02  0.00000000000E+00 0. -1.
         -3    1    6    6    0  503 -0.33781878709E+03  0.13511603729E+03 -0.46717150350E+03  0.59213772902E+03  0.00000000000E+00 0.  1.
<mgrwt>
<rscale>  0 0.10521489E+04</rscale>
<asrwt>0</asrwt>
<pdfrwt beam="1">  1        2 0.18038066E+00 0.10521489E+04</pdfrwt>
<pdfrwt beam="2">  1       -1 0.36314302E-01 0.10521489E+04</pdfrwt>
<totfact> 0.16196830E+02</totfact>
</mgrwt>
</event>
<event>
12    7  0.1740517E-007  0.1487698E+04  0.7818608E-02  0.8892675E-01
          2   -1    0    0  501    0  0.00000000000E+00  0.00000000000E+00  0.13269961917E+04  0.13269961917E+04  0.00000000000E+00 0. -1.
         -1   -1    0    0    0  501 -0.00000000000E+00 -0.00000000000E+00 -0.41696551620E+03  0.41696551620E+03  0.00000000000E+00 0.  1.
         24    2    1    2    0    0  0.21554761779E+03  0.43028310537E+03  0.19150267992E+03  0.52447236562E+03  0.82423659069E+02 0.  0.
        254    2    1    2    0    0 -0.21554761779E+03 -0.43028310537E+03  0.71852799560E+03  0.12194893423E+04  0.85980663478E+03 0.  0.
         23    2    4    4    0    0 -0.45378908541E+03 -0.31965050214E+03  0.75081428504E+03  0.93798952691E+03  0.89449898893E+02 0.  0.
         23    2    4    4    0    0  0.23824146762E+03 -0.11063260323E+03 -0.32286289439E+02  0.28149981539E+03  0.95922738647E+02 0.  0.
          4    1    3    3  502    0  0.20310021014E+03  0.42982305618E+03  0.18988450170E+03  0.51191178827E+03  0.00000000000E+00 0. -1.
         -3    1    3    3    0  502  0.12447407655E+02  0.46004919261E+00  0.16181782197E+01  0.12560577349E+02  0.00000000000E+00 0.  1.
         13    1    5    5    0    0 -0.28227793527E+03 -0.20285330348E+03  0.53982521221E+03  0.64206039841E+03  0.00000000000E+00 0. -1.
        -13    1    5    5    0    0 -0.17151115014E+03 -0.11679719866E+03  0.21098907283E+03  0.29592912849E+03  0.00000000000E+00 0.  1.
          4    1    6    6  503    0  0.14953202454E+03 -0.11345186917E+03 -0.41612303902E+02  0.19225695518E+03  0.00000000000E+00 0. -1.
         -4    1    6    6    0  503  0.88709443081E+02  0.28192659421E+01  0.93260144626E+01  0.89242860207E+02  0.00000000000E+00 0.  1.
<mgrwt>
<rscale>  0 0.14876984E+04</rscale>
<asrwt>0</asrwt>
<pdfrwt beam="1">  1        2 0.20415326E+00 0.14876984E+04</pdfrwt>
<pdfrwt beam="2">  1       -1 0.64148541E-01 0.14876984E+04</pdfrwt>
<totfact> 0.43312716E+01</totfact>
</mgrwt>
</event>
<event>
12    7  0.2211364E-007  0.2234581E+04  0.7818608E-02  0.8504171E-01
          2   -1    0    0  501    0  0.00000000000E+00  0.00000000000E+00  0.12649053027E+04  0.12649053027E+04  0.00000000000E+00 0. -1.
         -1   -1    0    0    0  501 -0.00000000000E+00 -0.00000000000E+00 -0.98690265795E+03  0.98690265795E+03  0.00000000000E+00 0.  1.
         24    2    1    2    0    0  0.29288451476E+03 -0.64628700256E+03 -0.49275833326E+03  0.86761446421E+03  0.80472696201E+02 0.  0.
        254    2    1    2    0    0 -0.29288451476E+03  0.64628700256E+03  0.77076097797E+03  0.13841934964E+04  0.90468277403E+03 0.  0.
         23    2    4    4    0    0 -0.20087416284E+03 -0.17858365316E+03  0.64537183832E+02  0.29062331443E+03  0.89745820623E+02 0.  0.
         23    2    4    4    0    0 -0.92010351927E+02  0.82487065573E+03  0.70622379413E+03  0.10935701820E+04  0.90918600614E+02 0.  0.
          2    1    3    3  502    0  0.49578012560E+02 -0.52028623729E+02 -0.45323108146E+02  0.84965529178E+02  0.00000000000E+00 0. -1.
         -1    1    3    3    0  502  0.24330650220E+03 -0.59425837883E+03 -0.44743522511E+03  0.78264893503E+03  0.00000000000E+00 0.  1.
         13    1    5    5    0    0  0.37894715109E+01 -0.29354718462E+02  0.16625122652E+01  0.29644958043E+02  0.00000000000E+00 0. -1.
        -13    1    5    5    0    0 -0.20466363435E+03 -0.14922893470E+03  0.62874671567E+02  0.26097835639E+03  0.00000000000E+00 0.  1.
          4    1    6    6  503    0 -0.22170075638E+02  0.35047486620E+02  0.26691611859E+02  0.49318158074E+02  0.00000000000E+00 0. -1.
         -4    1    6    6    0  503 -0.69840276289E+02  0.78982316911E+03  0.67953218228E+03  0.10442520239E+04  0.00000000000E+00 0.  1.
<mgrwt>
<rscale>  0 0.22345813E+04</rscale>
<asrwt>0</asrwt>
<pdfrwt beam="1">  1        2 0.19460082E+00 0.22345813E+04</pdfrwt>
<pdfrwt beam="2">  1       -1 0.15183118E+00 0.22345813E+04</pdfrwt>
<totfact> 0.60800096E+00</totfact>
</mgrwt>
</event>
<event>
12    7  0.1740517E-007  0.2403811E+04  0.7818608E-02  0.8438078E-01
          2   -1    0    0  501    0  0.00000000000E+00  0.00000000000E+00  0.19689482851E+04  0.19689482851E+04  0.00000000000E+00 0. -1.
         -1   -1    0    0    0  501 -0.00000000000E+00 -0.00000000000E+00 -0.73367963966E+03  0.73367963966E+03  0.00000000000E+00 0.  1.
         24    2    1    2    0    0 -0.45497725734E+03  0.64069662604E+03  0.12916389441E+04  0.15141427288E+04  0.82465568030E+02 0.  0.
        254    2    1    2    0    0  0.45497725734E+03 -0.64069662604E+03 -0.56370298649E+02  0.11884851960E+04  0.88984435672E+03 0.  0.
         23    2    4    4    0    0  0.14532203444E+03 -0.13299417940E+02  0.33884559450E+03  0.37990215918E+03  0.90630819422E+02 0.  0.
         23    2    4    4    0    0  0.30965522290E+03 -0.62739720810E+03 -0.39521589314E+03  0.80858303680E+03  0.89985062149E+02 0.  0.
          2    1    3    3  502    0 -0.56852325128E+02  0.59856650455E+02  0.96683598584E+02  0.12713270119E+03  0.00000000000E+00 0. -1.
         -1    1    3    3    0  502 -0.39812493221E+03  0.58083997558E+03  0.11949553455E+04  0.13870100276E+04  0.00000000000E+00 0.  1.
         13    1    5    5    0    0  0.12372815521E+03 -0.30389238502E+02  0.19152883500E+03  0.23003359939E+03  0.00000000000E+00 0. -1.
        -13    1    5    5    0    0  0.21593879224E+02  0.17089820562E+02  0.14731675949E+03  0.14986855979E+03  0.00000000000E+00 0.  1.
          4    1    6    6  503    0  0.13768960640E+03 -0.18533374178E+03 -0.12042201124E+03  0.26040062278E+03  0.00000000000E+00 0.  1.
         -4    1    6    6    0  503  0.17196561650E+03 -0.44206346632E+03 -0.27479388190E+03  0.54818241402E+03  0.00000000000E+00 0. -1.
<mgrwt>
<rscale>  0 0.24038114E+04</rscale>
<asrwt>0</asrwt>
<pdfrwt beam="1">  1        2 0.30291512E+00 0.24038114E+04</pdfrwt>
<pdfrwt beam="2">  1       -1 0.11287379E+00 0.24038114E+04</pdfrwt>
<totfact> 0.51049568E+00</totfact>
</mgrwt>
</event>
<event>
12    7  0.1740517E-007  0.2515825E+04  0.7818608E-02  0.8397369E-01
          2   -1    0    0  501    0  0.00000000000E+00  0.00000000000E+00  0.29017683690E+04  0.29017683690E+04  0.00000000000E+00 0. -1.
         -1   -1    0    0    0  501 -0.00000000000E+00 -0.00000000000E+00 -0.54530328781E+03  0.54530328781E+03  0.00000000000E+00 0.  1.
         24    2    1    2    0    0 -0.34186307460E+03 -0.35719433080E+03  0.23473172833E+04  0.24007672871E+04  0.96576325327E+02 0.  0.
        254    2    1    2    0    0  0.34186307460E+03  0.35719433080E+03  0.91477979091E+01  0.10463043697E+04  0.92206886954E+03 0.  0.
         23    2    4    4    0    0  0.62604324414E+03  0.29011125502E+03 -0.13200210819E+03  0.70945968469E+03  0.99064644598E+02 0.  0.
         23    2    4    4    0    0 -0.28418016954E+03  0.67083075785E+02  0.14114990610E+03  0.33684468504E+03  0.91008450290E+02 0.  0.
          4    1    3    3  502    0 -0.23732031264E+03 -0.28131041265E+03  0.15530918663E+04  0.15961048913E+04  0.00000000000E+00 0. -1.
         -3    1    3    3    0  502 -0.10454276196E+03 -0.75883918148E+02  0.79422541705E+03  0.80466239579E+03  0.00000000000E+00 0.  1.
         13    1    5    5    0    0  0.31987651007E+03  0.15203190844E+03 -0.17443761766E+02  0.35459690876E+03  0.00000000000E+00 0. -1.
        -13    1    5    5    0    0  0.30616673407E+03  0.13807934657E+03 -0.11455834643E+03  0.35486277593E+03  0.00000000000E+00 0.  1.
          4    1    6    6  503    0 -0.23579547641E+03  0.46468516731E+02  0.15030379845E+03  0.28346086427E+03  0.00000000000E+00 0. -1.
         -4    1    6    6    0  503 -0.48384693134E+02  0.20614559054E+02 -0.91538923464E+01  0.53383820768E+02  0.00000000000E+00 0.  1.
<mgrwt>
<rscale>  0 0.25158250E+04</rscale>
<asrwt>0</asrwt>
<pdfrwt beam="1">  1        2 0.44642589E+00 0.25158250E+04</pdfrwt>
<pdfrwt beam="2">  1       -1 0.83892815E-01 0.25158250E+04</pdfrwt>
<totfact> 0.28593356E+00</totfact>
</mgrwt>
</event>
<event>
12    7  0.1740517E-007  0.1978516E+04  0.7818608E-02  0.8616732E-01
          2   -1    0    0  501    0  0.00000000000E+00  0.00000000000E+00  0.15444979814E+04  0.15444979814E+04  0.00000000000E+00 0. -1.
         -1   -1    0    0    0  501 -0.00000000000E+00 -0.00000000000E+00 -0.63362403132E+03  0.63362403132E+03  0.00000000000E+00 0.  1.
         24    2    1    2    0    0 -0.11152401366E+03 -0.72384882724E+03  0.62120239062E+02  0.73940757119E+03  0.80435700481E+02 0.  0.
        254    2    1    2    0    0  0.11152401366E+03  0.72384882724E+03  0.84875371107E+03  0.14387144416E+04  0.90173258342E+03 0.  0.
         23    2    4    4    0    0  0.69775654747E+02 -0.12612303086E+03  0.47345392673E+03  0.50349928098E+03  0.92613413227E+02 0.  0.
         23    2    4    4    0    0  0.41748358910E+02  0.84997185810E+03  0.37529978434E+03  0.93521516059E+03  0.97889649248E+02 0.  0.
          2    1    3    3  502    0 -0.49518955866E+02 -0.26245543382E+03 -0.15068244930E+02  0.26751081051E+03  0.00000000000E+00 0. -1.
         -1    1    3    3    0  502 -0.62005057791E+02 -0.46139339342E+03  0.77188483992E+02  0.47189676069E+03  0.00000000000E+00 0.  1.
         13    1    5    5    0    0  0.97982751453E+01  0.12518350105E+02  0.89457935481E+02  0.90859438176E+02  0.00000000000E+00 0.  1.
        -13    1    5    5    0    0  0.59977379602E+02 -0.13864138096E+03  0.38399599125E+03  0.41263984281E+03  0.00000000000E+00 0. -1.
          4    1    6    6  503    0 -0.11080683515E+02  0.53955156107E+03  0.20550439740E+03  0.57746924243E+03  0.00000000000E+00 0. -1.
         -4    1    6    6    0  503  0.52829042424E+02  0.31042029703E+03  0.16979538694E+03  0.35774591815E+03  0.00000000000E+00 0.  1.
<mgrwt>
<rscale>  0 0.19785156E+04</rscale>
<asrwt>0</asrwt>
<pdfrwt beam="1">  1        2 0.23761507E+00 0.19785156E+04</pdfrwt>
<pdfrwt beam="2">  1       -1 0.97480621E-01 0.19785156E+04</pdfrwt>
<totfact> 0.12833171E+01</totfact>
</mgrwt>
</event>
<event>
12    7  0.1803139E-007  0.2187709E+04  0.7818608E-02  0.8523561E-01
         -1   -1    0    0    0  501 -0.00000000000E+00  0.00000000000E+00  0.85825422779E+03  0.85825422779E+03  0.00000000000E+00 0.  1.
          2   -1    0    0  501    0  0.00000000000E+00 -0.00000000000E+00 -0.13941294766E+04  0.13941294766E+04  0.00000000000E+00 0. -1.
         24    2    1    2    0    0 -0.74261671385E+03 -0.15190999750E+03  0.23707419044E+03  0.79812222932E+03  0.78985379276E+02 0.  0.
        254    2    1    2    0    0  0.74261671385E+03  0.15190999750E+03 -0.77294943925E+03  0.14542614751E+04  0.97101460915E+03 0.  0.
         23    2    4    4    0    0  0.57130003131E+01  0.26884269652E+03  0.99762463154E+02  0.30241824430E+03  0.95891665889E+02 0.  0.
         23    2    4    4    0    0  0.73690371354E+03 -0.11693269902E+03 -0.87271190241E+03  0.11518432308E+04  0.91741073324E+02 0.  0.
          2    1    3    3  502    0 -0.11376530486E+03 -0.52919068917E+02  0.41792180382E+02  0.13224809559E+03  0.00000000000E+00 0. -1.
         -1    1    3    3    0  502 -0.62885140899E+03 -0.98990928584E+02  0.19528201006E+03  0.66587413374E+03  0.00000000000E+00 0.  1.
         13    1    5    5    0    0  0.13713240946E+02 -0.24696807422E+01  0.68453784334E+01  0.15524545279E+02  0.00000000000E+00 0. -1.
        -13    1    5    5    0    0 -0.80002406330E+01  0.27131237726E+03  0.92917084721E+02  0.28689369902E+03  0.00000000000E+00 0.  1.
          3    1    6    6  503    0  0.18471689713E+01  0.48632583038E+01 -0.14075050116E+02  0.15005677269E+02  0.00000000000E+00 0. -1.
         -3    1    6    6    0  503  0.73505654456E+03 -0.12179595732E+03 -0.85863685229E+03  0.11368375535E+04  0.00000000000E+00 0.  1.
<mgrwt>
<rscale>  0 0.21877089E+04</rscale>
<asrwt>0</asrwt>
<pdfrwt beam="1">  1        2 0.21448146E+00 0.21877089E+04</pdfrwt>
<pdfrwt beam="2">  1       -1 0.13203911E+00 0.21877089E+04</pdfrwt>
<totfact> 0.74126999E+00</totfact>
</mgrwt>
</event>
<event>
12    7  0.1740517E-007  0.1365823E+04  0.7818608E-02  0.8978936E-01
         -1   -1    0    0    0  501 -0.00000000000E+00  0.00000000000E+00  0.22970962355E+03  0.22970962355E+03  0.00000000000E+00 0.  1.
          2   -1    0    0  501    0  0.00000000000E+00 -0.00000000000E+00 -0.20302515765E+04  0.20302515765E+04  0.00000000000E+00 0. -1.
         24    2    1    2    0    0  0.25708253914E+03 -0.21207932942E+03 -0.83360274248E+03  0.90124439680E+03  0.79239236423E+02 0.  0.
        254    2    1    2    0    0 -0.25708253914E+03  0.21207932942E+03 -0.96693921043E+03  0.13587168032E+04  0.89446679132E+03 0.  0.
         23    2    4    4    0    0  0.31435138778E+03  0.16576979756E+03 -0.29614230768E+03  0.47148112508E+03  0.91092064043E+02 0.  0.
         23    2    4    4    0    0 -0.57143392691E+03  0.46309531862E+02 -0.67079690275E+03  0.88723567813E+03  0.92397825932E+02 0.  0.
          4    1    3    3  502    0  0.24716154938E+03 -0.18860989222E+03 -0.71072893397E+03  0.77575649563E+03  0.00000000000E+00 0. -1.
         -3    1    3    3    0  502  0.99209897543E+01 -0.23469437203E+02 -0.12287380851E+03  0.12548790116E+03  0.00000000000E+00 0.  1.
         13    1    5    5    0    0  0.26285717768E+03  0.97643539196E+02 -0.24175691811E+03  0.37023582223E+03  0.00000000000E+00 0.  1.
        -13    1    5    5    0    0  0.51494210095E+02  0.68126258362E+02 -0.54385389566E+02  0.10124530285E+03  0.00000000000E+00 0. -1.
          1    1    6    6  503    0 -0.18509113641E+03 -0.27083410675E+02 -0.20117316473E+03  0.27470508207E+03  0.00000000000E+00 0. -1.
         -1    1    6    6    0  503 -0.38634279051E+03  0.73392942536E+02 -0.46962373803E+03  0.61253059606E+03  0.00000000000E+00 0.  1.
<mgrwt>
<rscale>  0 0.13658233E+04</rscale>
<asrwt>0</asrwt>
<pdfrwt beam="1">  1        2 0.31234638E+00 0.13658233E+04</pdfrwt>
<pdfrwt beam="2">  1       -1 0.35339944E-01 0.13658233E+04</pdfrwt>
<totfact> 0.54519342E+01</totfact>
</mgrwt>
</event>
<event>
12    7  0.1740517E-007  0.1494612E+04  0.7818608E-02  0.8888044E-01
         -1   -1    0    0    0  501 -0.00000000000E+00  0.00000000000E+00  0.42088094076E+03  0.42088094076E+03  0.00000000000E+00 0.  1.
          2   -1    0    0  501    0  0.00000000000E+00 -0.00000000000E+00 -0.13268980346E+04  0.13268980346E+04  0.00000000000E+00 0. -1.
         24    2    1    2    0    0  0.15375822890E+03 -0.80958919613E+02  0.21377749717E+03  0.28723222012E+03  0.81274783071E+02 0.  0.
        254    2    1    2    0    0 -0.15375822890E+03  0.80958919613E+02 -0.11197945910E+04  0.14605467552E+04  0.92144503827E+03 0.  0.
         23    2    4    4    0    0  0.35543926376E+03  0.16491540669E+03 -0.37495692022E+03  0.54993219637E+03  0.91096470849E+02 0.  0.
         23    2    4    4    0    0 -0.50919749265E+03 -0.83956487077E+02 -0.74483767080E+03  0.91061455887E+03  0.90027444398E+02 0.  0.
          2    1    3    3  502    0  0.26049977921E+02 -0.51771210122E+02  0.43874126435E+02  0.72689741488E+02  0.00000000000E+00 0. -1.
         -1    1    3    3    0  502  0.12770825098E+03 -0.29187709491E+02  0.16990337073E+03  0.21454247863E+03  0.00000000000E+00 0.  1.
         13    1    5    5    0    0  0.21682668777E+03  0.67037182076E+02 -0.25922401278E+03  0.34453575302E+03  0.00000000000E+00 0. -1.
        -13    1    5    5    0    0  0.13861257598E+03  0.97878224614E+02 -0.11573290744E+03  0.20539644335E+03  0.00000000000E+00 0.  1.
          1    1    6    6  503    0 -0.44757272762E+03 -0.69936290222E+02 -0.59364233639E+03  0.74674202691E+03  0.00000000000E+00 0. -1.
         -1    1    6    6    0  503 -0.61624765036E+02 -0.14020196856E+02 -0.15119533441E+03  0.16387253197E+03  0.00000000000E+00 0.  1.
<mgrwt>
<rscale>  0 0.14946118E+04</rscale>
<asrwt>0</asrwt>
<pdfrwt beam="1">  1        2 0.20413816E+00 0.14946118E+04</pdfrwt>
<pdfrwt beam="2">  1       -1 0.64750914E-01 0.14946118E+04</pdfrwt>
<totfact> 0.42488250E+01</totfact>
</mgrwt>
</event>
<event>
12    7  0.1740517E-007  0.1363320E+04  0.7818608E-02  0.8980806E-01
          2   -1    0    0  501    0  0.00000000000E+00  0.00000000000E+00  0.22195107215E+04  0.22195107215E+04  0.00000000000E+00 0. -1.
         -3   -1    0    0    0  501 -0.00000000000E+00 -0.00000000000E+00 -0.20935249319E+03  0.20935249319E+03  0.00000000000E+00 0.  1.
         24    2    1    2    0    0  0.18650840110E+03  0.26532328449E+03  0.91725889990E+03  0.97617807895E+03  0.79861902074E+02 0.  0.
        254    2    1    2    0    0 -0.18650840110E+03 -0.26532328449E+03  0.10928993284E+04  0.14526851358E+04  0.90037954920E+03 0.  0.
         23    2    4    4    0    0  0.13286701291E+03 -0.32443600673E+03  0.10524779962E+04  0.11131408356E+04  0.91979463845E+02 0.  0.
         23    2    4    4    0    0 -0.31937541401E+03  0.59112722241E+02  0.40421332206E+02  0.33954430016E+03  0.90340902521E+02 0.  0.
          2    1    3    3  502    0  0.11913723678E+03  0.20983283360E+03  0.74443984793E+03  0.78256896593E+03  0.00000000000E+00 0. -1.
         -1    1    3    3    0  502  0.67371164323E+02  0.55490450893E+02  0.17281905197E+03  0.19360911302E+03  0.00000000000E+00 0.  1.
         13    1    5    5    0    0  0.12420428417E+03 -0.21649539338E+03  0.64765740986E+03  0.69408722802E+03  0.00000000000E+00 0.  1.
        -13    1    5    5    0    0  0.86627287353E+01 -0.10794061336E+03  0.40482058639E+03  0.41905360760E+03  0.00000000000E+00 0. -1.
          4    1    6    6  503    0 -0.17951639997E+03  0.77074427189E+02  0.34700696683E+02  0.19842062275E+03  0.00000000000E+00 0.  1.
         -4    1    6    6    0  503 -0.13985901404E+03 -0.17961704947E+02  0.57206355236E+01  0.14112367740E+03  0.00000000000E+00 0. -1.
<mgrwt>
<rscale>  0 0.13633196E+04</rscale>
<asrwt>0</asrwt>
<pdfrwt beam="1">  1        2 0.34146317E+00 0.13633196E+04</pdfrwt>
<pdfrwt beam="2">  1       -3 0.32208077E-01 0.13633196E+04</pdfrwt>
<totfact> 0.30164303E+01</totfact>
</mgrwt>
</event>
<event>
12    7  0.1740517E-007  0.1607049E+04  0.7818608E-02  0.8816229E-01
         -1   -1    0    0    0  501 -0.00000000000E+00  0.00000000000E+00  0.39754897761E+03  0.39754897761E+03  0.00000000000E+00 0.  1.
          2   -1    0    0  501    0  0.00000000000E+00 -0.00000000000E+00 -0.16240816690E+04  0.16240816690E+04  0.00000000000E+00 0. -1.
         24    2    1    2    0    0  0.22264464272E+03 -0.25083218052E+03  0.12376971992E+03  0.36663789145E+03  0.81344822599E+02 0.  0.
        254    2    1    2    0    0 -0.22264464272E+03  0.25083218052E+03 -0.13503024113E+04  0.16549927552E+04  0.89621258522E+03 0.  0.
         23    2    4    4    0    0  0.27567019734E+03 -0.96292445663E+02 -0.25214534673E+03  0.39671996216E+03  0.92429214579E+02 0.  0.
         23    2    4    4    0    0 -0.49831484006E+03  0.34712462618E+03 -0.10981570646E+04  0.12582727930E+04  0.92131955288E+02 0.  0.
          2    1    3    3  502    0  0.41376039264E+02 -0.66225165193E+02  0.64330691370E+02  0.10117404303E+03  0.00000000000E+00 0. -1.
         -1    1    3    3    0  502  0.18126860346E+03 -0.18460701532E+03  0.59439028549E+02  0.26546384842E+03  0.00000000000E+00 0.  1.
         13    1    5    5    0    0  0.26280700725E+03 -0.10337859752E+03 -0.25639085153E+03  0.38143272832E+03  0.00000000000E+00 0. -1.
        -13    1    5    5    0    0  0.12863190084E+02  0.70861518590E+01  0.42455048044E+01  0.15287233836E+02  0.00000000000E+00 0.  1.
          3    1    6    6  503    0 -0.26562521276E+03  0.18412310100E+03 -0.48947162861E+03  0.58654969542E+03  0.00000000000E+00 0. -1.
         -3    1    6    6    0  503 -0.23268962729E+03  0.16300152518E+03 -0.60868543598E+03  0.67172309759E+03  0.00000000000E+00 0.  1.
<mgrwt>
<rscale>  0 0.16070495E+04</rscale>
<asrwt>0</asrwt>
<pdfrwt beam="1">  1        2 0.24985872E+00 0.16070495E+04</pdfrwt>
<pdfrwt beam="2">  1       -1 0.61161380E-01 0.16070495E+04</pdfrwt>
<totfact> 0.32005308E+01</totfact>
</mgrwt>
</event>
<event>
12    7  0.1740517E-007  0.1555805E+04  0.7818608E-02  0.8848168E-01
         -1   -1    0    0    0  501 -0.00000000000E+00  0.00000000000E+00  0.90651321122E+03  0.90651321122E+03  0.00000000000E+00 0.  1.
          2   -1    0    0  501    0  0.00000000000E+00 -0.00000000000E+00 -0.66753844226E+03  0.66753844226E+03  0.00000000000E+00 0. -1.
         24    2    1    2    0    0 -0.18992740550E+03 -0.24969518313E+03 -0.33510633275E+03  0.46589757113E+03  0.79650415529E+02 0.  0.
        254    2    1    2    0    0  0.18992740550E+03  0.24969518313E+03  0.57408110172E+03  0.11081540824E+04  0.89443627780E+03 0.  0.
         23    2    4    4    0    0  0.21777648680E+03 -0.28772401019E+03  0.97590786453E+02  0.38353462093E+03  0.85808738519E+02 0.  0.
         23    2    4    4    0    0 -0.27849081304E+02  0.53741919332E+03  0.47649031527E+03  0.72461946143E+03  0.91844339309E+02 0.  0.
          4    1    3    3  502    0 -0.16626662188E+03 -0.15967603279E+03 -0.24316729384E+03  0.33506918359E+03  0.00000000000E+00 0. -1.
         -3    1    3    3    0  502 -0.23660783617E+02 -0.90019150334E+02 -0.91939038910E+02  0.13082838753E+03  0.00000000000E+00 0.  1.
         13    1    5    5    0    0  0.13377055005E+03 -0.10876124689E+03  0.58090117343E+02  0.18192864156E+03  0.00000000000E+00 0. -1.
        -13    1    5    5    0    0  0.84005936748E+02 -0.17896276330E+03  0.39500669110E+02  0.20160597937E+03  0.00000000000E+00 0.  1.
          1    1    6    6  503    0 -0.60495672516E+02  0.32057523577E+03  0.27127666970E+03  0.42428674232E+03  0.00000000000E+00 0. -1.
         -1    1    6    6    0  503  0.32646591213E+02  0.21684395755E+03  0.20521364557E+03  0.30033271911E+03  0.00000000000E+00 0.  1.
<mgrwt>
<rscale>  0 0.15558052E+04</rscale>
<asrwt>0</asrwt>
<pdfrwt beam="1">  1        2 0.10269822E+00 0.15558052E+04</pdfrwt>
<pdfrwt beam="2">  1       -1 0.13946357E+00 0.15558052E+04</pdfrwt>
<totfact> 0.20243394E+01</totfact>
</mgrwt>
</event>
<event>
12    7  0.1740517E-007  0.1553303E+04  0.7818608E-02  0.8849761E-01
         -1   -1    0    0    0  501 -0.00000000000E+00  0.00000000000E+00  0.17378929635E+03  0.17378929635E+03  0.00000000000E+00 0.  1.
          2   -1    0    0  501    0  0.00000000000E+00 -0.00000000000E+00 -0.34707964979E+04  0.34707964979E+04  0.00000000000E+00 0. -1.
         24    2    1    2    0    0 -0.96406413856E+02 -0.67728053396E+02 -0.22585043588E+04  0.22630338356E+04  0.81233716028E+02 0.  0.
        254    2    1    2    0    0  0.96406413856E+02  0.67728053396E+02 -0.10385028428E+04  0.13815519586E+04  0.90350228230E+03 0.  0.
         23    2    4    4    0    0  0.29624482823E+03  0.18272712293E+03 -0.51646360502E+02  0.36349555612E+03  0.91167280644E+02 0.  0.
         23    2    4    4    0    0 -0.19983841437E+03 -0.11499906953E+03 -0.98685648228E+03  0.10180564025E+04  0.96917203102E+02 0.  0.
          2    1    3    3  502    0 -0.46659490788E+02 -0.14131819255E+02 -0.15498507768E+04  0.15506173760E+04  0.00000000000E+00 0. -1.
         -1    1    3    3    0  502 -0.49746923068E+02 -0.53596234140E+02 -0.70865358199E+03  0.71241645962E+03  0.00000000000E+00 0.  1.
         13    1    5    5    0    0  0.18337995494E+03  0.74780038182E+02  0.29158495188E+01  0.19806252590E+03  0.00000000000E+00 0.  1.
        -13    1    5    5    0    0  0.11286487328E+03  0.10794708475E+03 -0.54562210020E+02  0.16543303022E+03  0.00000000000E+00 0. -1.
          4    1    6    6  503    0 -0.27575309120E+02 -0.24207459025E+02 -0.55304204294E+02  0.66369825659E+02  0.00000000000E+00 0. -1.
         -4    1    6    6    0  503 -0.17226310525E+03 -0.90791610508E+02 -0.93155227799E+03  0.95168657687E+03  0.00000000000E+00 0.  1.
<mgrwt>
<rscale>  0 0.15533027E+04</rscale>
<asrwt>0</asrwt>
<pdfrwt beam="1">  1        2 0.53396869E+00 0.15533027E+04</pdfrwt>
<pdfrwt beam="2">  1       -1 0.26736815E-01 0.15533027E+04</pdfrwt>
<totfact> 0.11793374E+01</totfact>
</mgrwt>
</event>
<event>
12    7  0.1740517E-007  0.1825498E+04  0.7818608E-02  0.8692857E-01
         -1   -1    0    0    0  501 -0.00000000000E+00  0.00000000000E+00  0.96834973986E+03  0.96834973986E+03  0.00000000000E+00 0.  1.
          2   -1    0    0  501    0  0.00000000000E+00 -0.00000000000E+00 -0.86034028580E+03  0.86034028580E+03  0.00000000000E+00 0. -1.
         24    2    1    2    0    0  0.31731834998E+03 -0.22885360948E+03  0.61734436734E+03  0.73528073452E+03  0.80366540661E+02 0.  0.
        254    2    1    2    0    0 -0.31731834998E+03  0.22885360948E+03 -0.50933491328E+03  0.10934092911E+04  0.88490503121E+03 0.  0.
         23    2    4    4    0    0 -0.29078758495E+03 -0.47834767161E+02 -0.68623311233E+03  0.75216352680E+03  0.89378420625E+02 0.  0.
         23    2    4    4    0    0 -0.26530765026E+02  0.27668837664E+03  0.17689819905E+03  0.34124576434E+03  0.88855836028E+02 0.  0.
          4    1    3    3  502    0 -0.28206339971E+01 -0.55972973808E+01  0.26013455575E+02  0.26757906963E+02  0.00000000000E+00 0. -1.
         -3    1    3    3    0  502  0.32013898398E+03 -0.22325631209E+03  0.59133091177E+03  0.70852282755E+03  0.00000000000E+00 0.  1.
         13    1    5    5    0    0 -0.77829573371E+02 -0.31482282676E+02 -0.29151941297E+03  0.30336800219E+03  0.00000000000E+00 0. -1.
        -13    1    5    5    0    0 -0.21295801158E+03 -0.16352484484E+02 -0.39471369936E+03  0.44879552461E+03  0.00000000000E+00 0.  1.
          4    1    6    6  503    0 -0.54326866593E+02  0.15379693426E+03  0.76589020194E+02  0.18019651338E+03  0.00000000000E+00 0. -1.
         -4    1    6    6    0  503  0.27796101567E+02  0.12289144238E+03  0.10030917886E+03  0.16104925096E+03  0.00000000000E+00 0.  1.
<mgrwt>
<rscale>  0 0.18254975E+04</rscale>
<asrwt>0</asrwt>
<pdfrwt beam="1">  1        2 0.13236004E+00 0.18254975E+04</pdfrwt>
<pdfrwt beam="2">  1       -1 0.14897688E+00 0.18254975E+04</pdfrwt>
<totfact> 0.11929944E+01</totfact>
</mgrwt>
</event>
<event>
12    7  0.1740517E-007  0.1663406E+04  0.7818608E-02  0.8782515E-01
          2   -1    0    0  501    0  0.00000000000E+00  0.00000000000E+00  0.97093599759E+03  0.97093599759E+03  0.00000000000E+00 0. -1.
         -1   -1    0    0    0  501 -0.00000000000E+00 -0.00000000000E+00 -0.71243625830E+03  0.71243625830E+03  0.00000000000E+00 0.  1.
         24    2    1    2    0    0  0.16836096059E+03 -0.55618661384E+03  0.10566022847E+03  0.59593282789E+03  0.79264676988E+02 0.  0.
        254    2    1    2    0    0 -0.16836096059E+03  0.55618661384E+03  0.15283951082E+03  0.10874394280E+04  0.90635292851E+03 0.  0.
         23    2    4    4    0    0 -0.29031367294E+03  0.90603161055E+02  0.42214336768E+03  0.52828438506E+03  0.91588247792E+02 0.  0.
         23    2    4    4    0    0  0.12195271235E+03  0.46558345278E+03 -0.26930385687E+03  0.55915504293E+03  0.92137826947E+02 0.  0.
          4    1    3    3  502    0 -0.19126092032E+01 -0.62733581656E+01  0.10600907770E+02  0.12465646481E+02  0.00000000000E+00 0. -1.
         -3    1    3    3    0  502  0.17027356980E+03 -0.54991325567E+03  0.95059320704E+02  0.58346718141E+03  0.00000000000E+00 0.  1.
         13    1    5    5    0    0 -0.92746175466E+02  0.24257417316E+02  0.68590022992E+02  0.11787648880E+03  0.00000000000E+00 0.  1.
        -13    1    5    5    0    0 -0.19756749747E+03  0.66345743739E+02  0.35355334469E+03  0.41040789626E+03  0.00000000000E+00 0. -1.
          3    1    6    6  503    0  0.37280922018E+02  0.31329899567E+03 -0.16439517442E+03  0.35576944952E+03  0.00000000000E+00 0. -1.
         -3    1    6    6    0  503  0.84671790330E+02  0.15228445711E+03 -0.10490868244E+03  0.20338559341E+03  0.00000000000E+00 0.  1.
<mgrwt>
<rscale>  0 0.16634062E+04</rscale>
<asrwt>0</asrwt>
<pdfrwt beam="1">  1        2 0.14937477E+00 0.16634062E+04</pdfrwt>
<pdfrwt beam="2">  1       -1 0.10960558E+00 0.16634062E+04</pdfrwt>
<totfact> 0.22049822E+01</totfact>
</mgrwt>
</event>
<event>
12    7  0.1740517E-007  0.1335785E+04  0.7818608E-02  0.9001659E-01
         -1   -1    0    0    0  501 -0.00000000000E+00  0.00000000000E+00  0.27938712037E+03  0.27938712037E+03  0.00000000000E+00 0.  1.
          2   -1    0    0  501    0  0.00000000000E+00 -0.00000000000E+00 -0.15966383262E+04  0.15966383262E+04  0.00000000000E+00 0. -1.
         24    2    1    2    0    0  0.18049549634E+03  0.22398157094E+03 -0.65742133937E+03  0.72170254785E+03  0.76846482015E+02 0.  0.
        254    2    1    2    0    0 -0.18049549634E+03 -0.22398157094E+03 -0.65982986645E+03  0.11543228987E+04  0.90240763155E+03 0.  0.
         23    2    4    4    0    0 -0.19748406486E+03 -0.43647022469E+03 -0.76039878688E+03  0.90317132562E+03  0.89475781154E+02 0.  0.
         23    2    4    4    0    0  0.16988568524E+02  0.21248865375E+03  0.10056892044E+03  0.25115157307E+03  0.86735030221E+02 0.  0.
          2    1    3    3  502    0  0.44615453079E+02  0.10546470855E+03 -0.30601433076E+03  0.32673860199E+03  0.00000000000E+00 0. -1.
         -1    1    3    3    0  502  0.13588004326E+03  0.11851686240E+03 -0.35140700861E+03  0.39496394586E+03  0.00000000000E+00 0.  1.
         13    1    5    5    0    0 -0.44823020959E+02 -0.77251125442E+02 -0.21209494071E+03  0.23013279528E+03  0.00000000000E+00 0. -1.
        -13    1    5    5    0    0 -0.15266104391E+03 -0.35921909925E+03 -0.54830384618E+03  0.67303853034E+03  0.00000000000E+00 0.  1.
          1    1    6    6  503    0  0.98706027346E+01  0.15721095022E+03  0.11323406209E+03  0.19399655792E+03  0.00000000000E+00 0. -1.
         -1    1    6    6    0  503  0.71179657898E+01  0.55277703526E+02 -0.12665141651E+02  0.57155015153E+02  0.00000000000E+00 0.  1.
<mgrwt>
<rscale>  0 0.13357847E+04</rscale>
<asrwt>0</asrwt>
<pdfrwt beam="1">  1        2 0.24563667E+00 0.13357847E+04</pdfrwt>
<pdfrwt beam="2">  1       -1 0.42982633E-01 0.13357847E+04</pdfrwt>
<totfact> 0.66545090E+01</totfact>
</mgrwt>
</event>
<event>
12    7  0.1740517E-007  0.2778047E+04  0.7818608E-02  0.8310116E-01
          2   -1    0    0  501    0  0.00000000000E+00  0.00000000000E+00  0.27391767261E+04  0.27391767261E+04  0.00000000000E+00 0. -1.
         -1   -1    0    0    0  501 -0.00000000000E+00 -0.00000000000E+00 -0.70436720067E+03  0.70436720067E+03  0.00000000000E+00 0.  1.
         24    2    1    2    0    0  0.99739799361E+03  0.72233678177E+03  0.10688558412E+04  0.16326399270E+04  0.80542770529E+02 0.  0.
        254    2    1    2    0    0 -0.99739799361E+03 -0.72233678177E+03  0.96595368418E+03  0.18109039998E+04  0.91089713603E+03 0.  0.
         23    2    4    4    0    0 -0.70161089179E+02 -0.11788015660E+03 -0.15950714842E+03  0.22972139836E+03  0.92255518600E+02 0.  0.
         23    2    4    4    0    0 -0.92723690444E+03 -0.60445662517E+03  0.11254608326E+04  0.15811826014E+04  0.91324939769E+02 0.  0.
          4    1    3    3  502    0  0.10328564793E+03  0.55961283183E+02  0.79008620908E+02  0.14156960288E+03  0.00000000000E+00 0. -1.
         -3    1    3    3    0  502  0.89411234569E+03  0.66637549858E+03  0.98984722032E+03  0.14910703241E+04  0.00000000000E+00 0.  1.
         13    1    5    5    0    0 -0.11443570621E+02  0.95903815234E+01  0.27581637175E+01  0.15183484231E+02  0.00000000000E+00 0. -1.
        -13    1    5    5    0    0 -0.58717518558E+02 -0.12747053812E+03 -0.16226531214E+03  0.21453791413E+03  0.00000000000E+00 0.  1.
          4    1    6    6  503    0 -0.42439588621E+03 -0.25663048680E+03  0.56448052704E+03  0.75140491108E+03  0.00000000000E+00 0. -1.
         -4    1    6    6    0  503 -0.50284101822E+03 -0.34782613837E+03  0.56098030556E+03  0.82977769032E+03  0.00000000000E+00 0.  1.
<mgrwt>
<rscale>  0 0.27780470E+04</rscale>
<asrwt>0</asrwt>
<pdfrwt beam="1">  1        2 0.42141180E+00 0.27780470E+04</pdfrwt>
<pdfrwt beam="2">  1       -1 0.10836419E+00 0.27780470E+04</pdfrwt>
<totfact> 0.19705759E+00</totfact>
</mgrwt>
</event>
<event>
12    7  0.1740517E-007  0.2280731E+04  0.7818608E-02  0.8485557E-01
         -1   -1    0    0    0  501 -0.00000000000E+00  0.00000000000E+00  0.59519737411E+03  0.59519737411E+03  0.00000000000E+00 0.  1.
          2   -1    0    0  501    0  0.00000000000E+00 -0.00000000000E+00 -0.21848786193E+04  0.21848786193E+04  0.00000000000E+00 0. -1.
         24    2    1    2    0    0 -0.92378705066E+03  0.14176900780E+03 -0.31290301201E+03  0.98894815776E+03  0.81419882535E+02 0.  0.
        254    2    1    2    0    0  0.92378705066E+03 -0.14176900780E+03 -0.12767782332E+04  0.17911278356E+04  0.83934218313E+03 0.  0.
         23    2    4    4    0    0  0.90006813885E+03 -0.26948496083E+03 -0.13222948184E+04  0.16246564016E+04  0.91104543002E+02 0.  0.
         23    2    4    4    0    0  0.23718911812E+02  0.12771595303E+03  0.45516585251E+02  0.16647143404E+03  0.93632405620E+02 0.  0.
          2    1    3    3  502    0 -0.15947678283E+03  0.18960425758E+02 -0.22560638337E+02  0.16217683068E+03  0.00000000000E+00 0. -1.
         -1    1    3    3    0  502 -0.76431026783E+03  0.12280858204E+03 -0.29034237367E+03  0.82677132708E+03  0.00000000000E+00 0.  1.
         13    1    5    5    0    0  0.46174126403E+03 -0.13302852819E+03 -0.75400608226E+03  0.89410668061E+03  0.00000000000E+00 0.  1.
        -13    1    5    5    0    0  0.43832687482E+03 -0.13645643264E+03 -0.56828873615E+03  0.73054972098E+03  0.00000000000E+00 0. -1.
          2    1    6    6  503    0  0.19711469219E+02  0.13207387057E+03  0.63262507328E+02  0.14776398120E+03  0.00000000000E+00 0. -1.
         -2    1    6    6    0  503  0.40074425924E+01 -0.43579175398E+01 -0.17745922077E+02  0.18707452841E+02  0.00000000000E+00 0.  1.
<mgrwt>
<rscale>  0 0.22807315E+04</rscale>
<asrwt>0</asrwt>
<pdfrwt beam="1">  1        2 0.33613517E+00 0.22807315E+04</pdfrwt>
<pdfrwt beam="2">  1       -1 0.91568828E-01 0.22807315E+04</pdfrwt>
<totfact> 0.63251507E+00</totfact>
</mgrwt>
</event>
<event>
12    7  0.1740517E-007  0.1672037E+04  0.7818608E-02  0.8777475E-01
          2   -1    0    0  501    0  0.00000000000E+00  0.00000000000E+00  0.20859003592E+04  0.20859003592E+04  0.00000000000E+00 0. -1.
         -1   -1    0    0    0  501 -0.00000000000E+00 -0.00000000000E+00 -0.33507197913E+03  0.33507197913E+03  0.00000000000E+00 0.  1.
         24    2    1    2    0    0 -0.49340715722E+03  0.24523176391E+03  0.33859736199E+03  0.65174146401E+03  0.80805454897E+02 0.  0.
        254    2    1    2    0    0  0.49340715722E+03 -0.24523176391E+03  0.14122310181E+04  0.17692308744E+04  0.91224568918E+03 0.  0.
         23    2    4    4    0    0  0.56877397214E+03 -0.51381141596E+03  0.99069586853E+03  0.12555831048E+04  0.86629248375E+02 0.  0.
         23    2    4    4    0    0 -0.75366814927E+02  0.26857965205E+03  0.42153514959E+03  0.51364776952E+03  0.91252191810E+02 0.  0.
          2    1    3    3  502    0 -0.57190813821E+02  0.38796084593E+02  0.15066153432E+02  0.70731282644E+02  0.00000000000E+00 0. -1.
         -1    1    3    3    0  502 -0.43621634339E+03  0.20643567932E+03  0.32353120855E+03  0.58101018136E+03  0.00000000000E+00 0.  1.
         13    1    5    5    0    0  0.38580380889E+03 -0.34327627687E+03  0.73114624868E+03  0.89513016829E+03  0.00000000000E+00 0.  1.
        -13    1    5    5    0    0  0.18297016325E+03 -0.17053513909E+03  0.25954961985E+03  0.36045293655E+03  0.00000000000E+00 0. -1.
          1    1    6    6  503    0  0.78845619881E+01  0.12983086998E+03  0.21489981616E+03  0.25119743650E+03  0.00000000000E+00 0. -1.
         -1    1    6    6    0  503 -0.83251376915E+02  0.13874878206E+03  0.20663533343E+03  0.26245033302E+03  0.00000000000E+00 0.  1.
<mgrwt>
<rscale>  0 0.16720368E+04</rscale>
<asrwt>0</asrwt>
<pdfrwt beam="1">  1        2 0.32090774E+00 0.16720368E+04</pdfrwt>
<pdfrwt beam="2">  1       -1 0.51549537E-01 0.16720368E+04</pdfrwt>
<totfact> 0.24613332E+01</totfact>
</mgrwt>
</event>
<event>
12    7  0.1740517E-007  0.1449993E+04  0.7818608E-02  0.8918406E-01
         -1   -1    0    0    0  501 -0.00000000000E+00  0.00000000000E+00  0.26634828639E+03  0.26634828639E+03  0.00000000000E+00 0.  1.
          2   -1    0    0  501    0  0.00000000000E+00 -0.00000000000E+00 -0.19734301398E+04  0.19734301398E+04  0.00000000000E+00 0. -1.
         24    2    1    2    0    0  0.58804783294E+02 -0.84220886057E+02 -0.11991449348E+04  0.12062217506E+04  0.80443625921E+02 0.  0.
        254    2    1    2    0    0 -0.58804783294E+02  0.84220886057E+02 -0.50793691860E+03  0.10335566755E+04  0.89425294410E+03 0.  0.
         23    2    4    4    0    0 -0.14770055219E+03 -0.35967991453E+02 -0.73017442750E+03  0.75134420685E+03  0.90853030025E+02 0.  0.
         23    2    4    4    0    0  0.88895768900E+02  0.12018887751E+03  0.22223750890E+03  0.28221246866E+03  0.88918744371E+02 0.  0.
          4    1    3    3  502    0  0.38079266896E+02 -0.92409785423E+02 -0.76447538641E+03  0.77098133274E+03  0.00000000000E+00 0. -1.
         -1    1    3    3    0  502  0.20725516398E+02  0.81888993665E+01 -0.43466954836E+03  0.43524041790E+03  0.00000000000E+00 0.  1.
         13    1    5    5    0    0 -0.10269268196E+03 -0.94210409020E+01 -0.62975972386E+03  0.63814720303E+03  0.00000000000E+00 0. -1.
        -13    1    5    5    0    0 -0.45007870235E+02 -0.26546950551E+02 -0.10041470364E+03  0.11319700382E+03  0.00000000000E+00 0.  1.
          2    1    6    6  503    0  0.67940567179E+02  0.12036769318E+03  0.22169108456E+03  0.26124938125E+03  0.00000000000E+00 0. -1.
         -2    1    6    6    0  503  0.20955201722E+02 -0.17881567033E+00  0.54642433959E+00  0.20963087411E+02  0.00000000000E+00 0.  1.
<mgrwt>
<rscale>  0 0.14499927E+04</rscale>
<asrwt>0</asrwt>
<pdfrwt beam="1">  1        2 0.30360463E+00 0.14499927E+04</pdfrwt>
<pdfrwt beam="2">  1       -1 0.40976660E-01 0.14499927E+04</pdfrwt>
<totfact> 0.44513774E+01</totfact>
</mgrwt>
</event>
<event>
12    7  0.1740517E-007  0.1205327E+04  0.7818608E-02  0.9108206E-01
          2   -1    0    0  501    0  0.00000000000E+00  0.00000000000E+00  0.14896371509E+04  0.14896371509E+04  0.00000000000E+00 0. -1.
         -1   -1    0    0    0  501 -0.00000000000E+00 -0.00000000000E+00 -0.24382009823E+03  0.24382009823E+03  0.00000000000E+00 0.  1.
         24    2    1    2    0    0 -0.91982855192E+02 -0.34391861800E+02  0.66582930036E+03  0.67804016875E+03  0.82256716537E+02 0.  0.
        254    2    1    2    0    0  0.91982855192E+02  0.34391861800E+02  0.57998775233E+03  0.10554170804E+04  0.87628521324E+03 0.  0.
         23    2    4    4    0    0 -0.10234923583E+03  0.36435548315E+03  0.53085483881E+03  0.65798220954E+03  0.88901316092E+02 0.  0.
         23    2    4    4    0    0  0.19433209102E+03 -0.32996362135E+03  0.49132913522E+02  0.39743487087E+03  0.94337057265E+02 0.  0.
          4    1    3    3  502    0 -0.95921732596E+02 -0.38704789473E+01  0.54255195715E+03  0.55097965988E+03  0.00000000000E+00 0. -1.
         -3    1    3    3    0  502  0.39388774036E+01 -0.30521382853E+02  0.12327734321E+03  0.12706050887E+03  0.00000000000E+00 0.  1.
         13    1    5    5    0    0 -0.12053822055E+02  0.20607901448E+03  0.28963407866E+03  0.35567085115E+03  0.00000000000E+00 0. -1.
        -13    1    5    5    0    0 -0.90295413776E+02  0.15827646867E+03  0.24122076015E+03  0.30231135839E+03  0.00000000000E+00 0.  1.
          4    1    6    6  503    0  0.33364277153E+02 -0.53781786056E+02 -0.27028780875E+02  0.68820131480E+02  0.00000000000E+00 0. -1.
         -4    1    6    6    0  503  0.16096781387E+03 -0.27618183529E+03  0.76161694397E+02  0.32861473939E+03  0.00000000000E+00 0.  1.
<mgrwt>
<rscale>  0 0.12053273E+04</rscale>
<asrwt>0</asrwt>
<pdfrwt beam="1">  1        2 0.22917494E+00 0.12053273E+04</pdfrwt>
<pdfrwt beam="2">  1       -1 0.37510785E-01 0.12053273E+04</pdfrwt>
<totfact> 0.98979205E+01</totfact>
</mgrwt>
</event>
<event>
12    7  0.1740517E-007  0.1504035E+04  0.7818608E-02  0.8881774E-01
         -1   -1    0    0    0  501 -0.00000000000E+00  0.00000000000E+00  0.39769063707E+03  0.39769063707E+03  0.00000000000E+00 0.  1.
          2   -1    0    0  501    0  0.00000000000E+00 -0.00000000000E+00 -0.14220361652E+04  0.14220361652E+04  0.00000000000E+00 0. -1.
         24    2    1    2    0    0  0.45202807552E+03  0.13082842789E+03 -0.36700073687E+03  0.60204740645E+03  0.79536659102E+02 0.  0.
        254    2    1    2    0    0 -0.45202807552E+03 -0.13082842789E+03 -0.65734479127E+03  0.12176793958E+04  0.91060171197E+03 0.  0.
         23    2    4    4    0    0  0.23241972286E+03 -0.10228019543E+03 -0.39535206336E+03  0.47857877485E+03  0.90852758783E+02 0.  0.
         23    2    4    4    0    0 -0.68444779838E+03 -0.28548232456E+02 -0.26199272791E+03  0.73910062100E+03  0.91355066571E+02 0.  0.
          2    1    3    3  502    0  0.15218959928E+03  0.50121408341E+02 -0.17354845966E+03  0.23620520221E+03  0.00000000000E+00 0. -1.
         -1    1    3    3    0  502  0.29983847624E+03  0.80707019545E+02 -0.19345227722E+03  0.36584220424E+03  0.00000000000E+00 0.  1.
         13    1    5    5    0    0  0.92604305265E+02 -0.89014062938E+02 -0.17049876170E+03  0.21346870613E+03  0.00000000000E+00 0. -1.
        -13    1    5    5    0    0  0.13981541760E+03 -0.13266132493E+02 -0.22485330166E+03  0.26511006872E+03  0.00000000000E+00 0.  1.
          3    1    6    6  503    0 -0.34988598299E+02 -0.17121600684E+02 -0.70823563422E+00  0.38959630628E+02  0.00000000000E+00 0. -1.
         -3    1    6    6    0  503 -0.64945920009E+03 -0.11426631772E+02 -0.26128449228E+03  0.70014099037E+03  0.00000000000E+00 0.  1.
<mgrwt>
<rscale>  0 0.15040352E+04</rscale>
<asrwt>0</asrwt>
<pdfrwt beam="1">  1        2 0.21877479E+00 0.15040352E+04</pdfrwt>
<pdfrwt beam="2">  1       -1 0.61183176E-01 0.15040352E+04</pdfrwt>
<totfact> 0.41921289E+01</totfact>
</mgrwt>
</event>
<event>
12    7  0.1740517E-007  0.1520103E+04  0.7818608E-02  0.8871194E-01
         -1   -1    0    0    0  501 -0.00000000000E+00  0.00000000000E+00  0.39701871613E+03  0.39701871613E+03  0.00000000000E+00 0.  1.
          2   -1    0    0  501    0  0.00000000000E+00 -0.00000000000E+00 -0.14550401348E+04  0.14550401348E+04  0.00000000000E+00 0. -1.
         24    2    1    2    0    0  0.12707080017E+03  0.30535357147E+03  0.90620574842E+02  0.35238908655E+03  0.81106028535E+02 0.  0.
        254    2    1    2    0    0 -0.12707080017E+03 -0.30535357147E+03 -0.11486419935E+04  0.14996697644E+04  0.90567277816E+03 0.  0.
         23    2    4    4    0    0 -0.36494363614E+02 -0.21115167782E+03  0.90990982853E+02  0.24977570393E+03  0.90507865363E+02 0.  0.
         23    2    4    4    0    0 -0.90576436554E+02 -0.94201893657E+02 -0.12396329764E+04  0.12498940604E+04  0.92017165014E+02 0.  0.
          2    1    3    3  502    0  0.90111813129E+02  0.15828468670E+03  0.14499631578E+02  0.18271403948E+03  0.00000000000E+00 0. -1.
         -1    1    3    3    0  502  0.36958987039E+02  0.14706888478E+03  0.76120943264E+02  0.16967504706E+03  0.00000000000E+00 0.  1.
         13    1    5    5    0    0  0.65211798604E+00 -0.11736946065E+02 -0.16461716898E+02  0.20227933261E+02  0.00000000000E+00 0. -1.
        -13    1    5    5    0    0 -0.37146481600E+02 -0.19941473175E+03  0.10745269975E+03  0.22954777067E+03  0.00000000000E+00 0.  1.
          3    1    6    6  503    0  0.17909453167E+02 -0.18741265175E+02 -0.14335663779E+03  0.14568153326E+03  0.00000000000E+00 0. -1.
         -3    1    6    6    0  503 -0.10848588972E+03 -0.75460628482E+02 -0.10962763386E+04  0.11042125272E+04  0.00000000000E+00 0.  1.
<mgrwt>
<rscale>  0 0.15201028E+04</rscale>
<asrwt>0</asrwt>
<pdfrwt beam="1">  1        2 0.22385233E+00 0.15201028E+04</pdfrwt>
<pdfrwt beam="2">  1       -1 0.61079803E-01 0.15201028E+04</pdfrwt>
<totfact> 0.40229147E+01</totfact>
</mgrwt>
</event>
<event>
12    7  0.1740517E-007  0.2524013E+04  0.7818608E-02  0.8394480E-01
          2   -1    0    0  501    0  0.00000000000E+00  0.00000000000E+00  0.21155246675E+04  0.21155246675E+04  0.00000000000E+00 0. -1.
         -1   -1    0    0    0  501 -0.00000000000E+00 -0.00000000000E+00 -0.75284416245E+03  0.75284416245E+03  0.00000000000E+00 0.  1.
         24    2    1    2    0    0  0.52293175658E+03  0.23251442149E+03 -0.47262722136E+03  0.74637330887E+03  0.78587833586E+02 0.  0.
        254    2    1    2    0    0 -0.52293175658E+03 -0.23251442149E+03  0.18353077264E+04  0.21219955211E+04  0.89832620055E+03 0.  0.
         23    2    4    4    0    0 -0.71661408903E+03 -0.36341137230E+02  0.97452926734E+03  0.12136893664E+04  0.92076893225E+02 0.  0.
         23    2    4    4    0    0  0.19368233245E+03 -0.19617328426E+03  0.86077845905E+03  0.90830615469E+03  0.89909464050E+02 0.  0.
          4    1    3    3  502    0  0.94361896961E+02  0.12551091231E+02 -0.92523173851E+02  0.13274876718E+03  0.00000000000E+00 0. -1.
         -3    1    3    3    0  502  0.42856985962E+03  0.21996333025E+03 -0.38010404751E+03  0.61362454169E+03  0.00000000000E+00 0.  1.
         13    1    5    5    0    0 -0.60427902888E+03 -0.10041254181E+02  0.76987739568E+03  0.97875695446E+03  0.00000000000E+00 0. -1.
        -13    1    5    5    0    0 -0.11233506015E+03 -0.26299883048E+02  0.20465187166E+03  0.23493241190E+03  0.00000000000E+00 0.  1.
          2    1    6    6  503    0  0.15577792045E+03 -0.18909187492E+03  0.66332433339E+03  0.70712210327E+03  0.00000000000E+00 0. -1.
         -2    1    6    6    0  503  0.37904412007E+02 -0.70814093333E+01  0.19745412566E+03  0.20118405143E+03  0.00000000000E+00 0.  1.
<mgrwt>
<rscale>  0 0.25240130E+04</rscale>
<asrwt>0</asrwt>
<pdfrwt beam="1">  1        2 0.32546533E+00 0.25240130E+04</pdfrwt>
<pdfrwt beam="2">  1       -1 0.11582218E+00 0.25240130E+04</pdfrwt>
<totfact> 0.39350213E+00</totfact>
</mgrwt>
</event>
<event>
12    7  0.1740517E-007  0.1578719E+04  0.7818608E-02  0.8833729E-01
          2   -1    0    0  501    0  0.00000000000E+00  0.00000000000E+00  0.90214632350E+03  0.90214632350E+03  0.00000000000E+00 0. -1.
         -1   -1    0    0    0  501 -0.00000000000E+00 -0.00000000000E+00 -0.69067359221E+03  0.69067359221E+03  0.00000000000E+00 0.  1.
         24    2    1    2    0    0 -0.22426830408E+03 -0.21528512874E+03  0.50291057892E+03  0.59640258840E+03  0.78313716506E+02 0.  0.
        254    2    1    2    0    0  0.22426830408E+03  0.21528512874E+03 -0.29143784762E+03  0.99641732731E+03  0.90070389821E+03 0.  0.
         23    2    4    4    0    0 -0.22482065839E+03 -0.21383314250E+03 -0.51856806899E+02  0.32436460528E+03  0.79084306070E+02 0.  0.
         23    2    4    4    0    0  0.44908896247E+03  0.42911827124E+03 -0.23958104072E+03  0.67205272202E+03  0.91828095797E+02 0.  0.
          2    1    3    3  502    0 -0.17190643857E+03 -0.15087128946E+03  0.30059154235E+03  0.37771582564E+03  0.00000000000E+00 0. -1.
         -1    1    3    3    0  502 -0.52361865514E+02 -0.64413839273E+02  0.20231903656E+03  0.21868676276E+03  0.00000000000E+00 0.  1.
         13    1    5    5    0    0 -0.17007976171E+03 -0.17638215330E+03 -0.85952201878E+01  0.24517680795E+03  0.00000000000E+00 0.  1.
        -13    1    5    5    0    0 -0.54740896677E+02 -0.37450989201E+02 -0.43261586711E+02  0.79187797329E+02  0.00000000000E+00 0. -1.
          1    1    6    6  503    0  0.76732432023E+02  0.37490026907E+02 -0.14328094985E+02  0.86594818249E+02  0.00000000000E+00 0. -1.
         -1    1    6    6    0  503  0.37235653045E+03  0.39162824433E+03 -0.22525294574E+03  0.58545790377E+03  0.00000000000E+00 0.  1.
<mgrwt>
<rscale>  0 0.15787193E+04</rscale>
<asrwt>0</asrwt>
<pdfrwt beam="1">  1        2 0.13879174E+00 0.15787193E+04</pdfrwt>
<pdfrwt beam="2">  1       -1 0.10625748E+00 0.15787193E+04</pdfrwt>
<totfact> 0.26531631E+01</totfact>
</mgrwt>
</event>
<event>
12    7  0.1740517E-007  0.2525940E+04  0.7818608E-02  0.8393802E-01
          2   -1    0    0  501    0  0.00000000000E+00  0.00000000000E+00  0.25561212335E+04  0.25561212335E+04  0.00000000000E+00 0. -1.
         -1   -1    0    0    0  501 -0.00000000000E+00 -0.00000000000E+00 -0.62402888082E+03  0.62402888082E+03  0.00000000000E+00 0.  1.
         24    2    1    2    0    0  0.31223782616E+03  0.42792570831E+03  0.20727900675E+04  0.21409058913E+04  0.80040611215E+02 0.  0.
        254    2    1    2    0    0 -0.31223782616E+03 -0.42792570831E+03 -0.14069771486E+03  0.10392442230E+04  0.88296083501E+03 0.  0.
         23    2    4    4    0    0 -0.39595610265E+03 -0.17190058204E+03  0.28625768642E+03  0.52580526475E+03  0.90535452010E+02 0.  0.
         23    2    4    4    0    0  0.83718276490E+02 -0.25602512627E+03 -0.42695540128E+03  0.51343895826E+03  0.93653799065E+02 0.  0.
          4    1    3    3  502    0  0.23596687979E+03  0.26077914735E+03  0.13965552747E+04  0.14401572023E+04  0.00000000000E+00 0. -1.
         -3    1    3    3    0  502  0.76270946367E+02  0.16714656096E+03  0.67623479279E+03  0.70074868896E+03  0.00000000000E+00 0.  1.
         13    1    5    5    0    0 -0.19662336422E+03 -0.70790553538E+02  0.19003403635E+03  0.28246235996E+03  0.00000000000E+00 0.  1.
        -13    1    5    5    0    0 -0.19933273843E+03 -0.10111002850E+03  0.96223650069E+02  0.24334290478E+03  0.00000000000E+00 0. -1.
          4    1    6    6  503    0 -0.11522589164E+02 -0.68397026353E+02 -0.66658053334E+02  0.96198853160E+02  0.00000000000E+00 0. -1.
         -4    1    6    6    0  503  0.95240865654E+02 -0.18762809991E+03 -0.36029734794E+03  0.41724010510E+03  0.00000000000E+00 0.  1.
<mgrwt>
<rscale>  0 0.25259402E+04</rscale>
<asrwt>0</asrwt>
<pdfrwt beam="1">  1        2 0.39324942E+00 0.25259402E+04</pdfrwt>
<pdfrwt beam="2">  1       -1 0.96004444E-01 0.25259402E+04</pdfrwt>
<totfact> 0.34167749E+00</totfact>
</mgrwt>
</event>
<event>
12    7  0.1740517E-007  0.3214202E+04  0.7818608E-02  0.8185077E-01
         -1   -1    0    0    0  501 -0.00000000000E+00  0.00000000000E+00  0.15984010134E+04  0.15984010134E+04  0.00000000000E+00 0.  1.
          2   -1    0    0  501    0  0.00000000000E+00 -0.00000000000E+00 -0.16158481056E+04  0.16158481056E+04  0.00000000000E+00 0. -1.
         24    2    1    2    0    0  0.84921752178E+03  0.30140226805E+03  0.11647709023E+04  0.14748259123E+04  0.80040554548E+02 0.  0.
        254    2    1    2    0    0 -0.84921752178E+03 -0.30140226805E+03 -0.11822179945E+04  0.17394232067E+04  0.90329396051E+03 0.  0.
         23    2    4    4    0    0 -0.47585948844E+03  0.10514103322E+03 -0.10547840507E+04  0.11654019862E+04  0.89975032025E+02 0.  0.
         23    2    4    4    0    0 -0.37335803333E+03 -0.40654330127E+03 -0.12743394381E+03  0.57402122047E+03  0.92667549078E+02 0.  0.
          2    1    3    3  502    0  0.82854695948E+02  0.16814802995E+02  0.79007752887E+02  0.11571457668E+03  0.00000000000E+00 0. -1.
         -1    1    3    3    0  502  0.76636282583E+03  0.28458746505E+03  0.10857631494E+04  0.13591113356E+04  0.00000000000E+00 0.  1.
         13    1    5    5    0    0 -0.44321613678E+03  0.90109099888E+02 -0.90966135820E+03  0.10158956543E+04  0.00000000000E+00 0. -1.
        -13    1    5    5    0    0 -0.32643351660E+02  0.15031933329E+02 -0.14512269246E+03  0.14950633196E+03  0.00000000000E+00 0.  1.
          2    1    6    6  503    0 -0.34165012034E+03 -0.39002854479E+03 -0.97937839153E+02  0.52767309086E+03  0.00000000000E+00 0. -1.
         -2    1    6    6    0  503 -0.31707912998E+02 -0.16514756473E+02 -0.29496104661E+02  0.46348129608E+02  0.00000000000E+00 0.  1.
<mgrwt>
<rscale>  0 0.32142018E+04</rscale>
<asrwt>0</asrwt>
<pdfrwt beam="1">  1        2 0.24859202E+00 0.32142018E+04</pdfrwt>
<pdfrwt beam="2">  1       -1 0.24590785E+00 0.32142018E+04</pdfrwt>
<totfact> 0.77571186E-01</totfact>
</mgrwt>
</event>
<event>
12    7  0.1740517E-007  0.1473389E+04  0.7818608E-02  0.8902344E-01
          2   -1    0    0  501    0  0.00000000000E+00  0.00000000000E+00  0.30149315455E+04  0.30149315455E+04  0.00000000000E+00 0. -1.
         -1   -1    0    0    0  501 -0.00000000000E+00 -0.00000000000E+00 -0.18001040327E+03  0.18001040327E+03  0.00000000000E+00 0.  1.
         24    2    1    2    0    0  0.29749171150E+03  0.23625254551E+03  0.14522367110E+04  0.15031787082E+04  0.78982150534E+02 0.  0.
        254    2    1    2    0    0 -0.29749171150E+03 -0.23625254551E+03  0.13826844312E+04  0.16917632406E+04  0.89773606500E+03 0.  0.
         23    2    4    4    0    0  0.39888958351E+01 -0.10530571736E+03 -0.98934639041E+02  0.17136848659E+03  0.92053734294E+02 0.  0.
         23    2    4    4    0    0 -0.30148060733E+03 -0.13094682815E+03  0.14816190702E+04  0.15203947540E+04  0.91474096848E+02 0.  0.
          4    1    3    3  502    0  0.24708532307E+03  0.17327308934E+03  0.12381682077E+04  0.12744156430E+04  0.00000000000E+00 0. -1.
         -3    1    3    3    0  502  0.50406388425E+02  0.62979456174E+02  0.21406850330E+03  0.22876306520E+03  0.00000000000E+00 0.  1.
         13    1    5    5    0    0 -0.85070209822E+00 -0.68854588901E+02 -0.11272785904E+03  0.13209560292E+03  0.00000000000E+00 0.  1.
        -13    1    5    5    0    0  0.48395979333E+01 -0.36451128456E+02  0.13793220003E+02  0.39272883672E+02  0.00000000000E+00 0. -1.
          4    1    6    6  503    0 -0.10099449668E+03 -0.44687670112E+02  0.32193451092E+03  0.34035085653E+03  0.00000000000E+00 0. -1.
         -4    1    6    6    0  503 -0.20048611065E+03 -0.86259158041E+02  0.11596845593E+04  0.11800438975E+04  0.00000000000E+00 0.  1.
<mgrwt>
<rscale>  0 0.14733893E+04</rscale>
<asrwt>0</asrwt>
<pdfrwt beam="1">  1        2 0.46383559E+00 0.14733893E+04</pdfrwt>
<pdfrwt beam="2">  1       -1 0.27693910E-01 0.14733893E+04</pdfrwt>
<totfact> 0.22222812E+01</totfact>
</mgrwt>
</event>
<event>
12    7  0.1740517E-007  0.2320554E+04  0.7818608E-02  0.8469861E-01
          2   -1    0    0  501    0  0.00000000000E+00  0.00000000000E+00  0.26457581319E+04  0.26457581319E+04  0.00000000000E+00 0. -1.
         -1   -1    0    0    0  501 -0.00000000000E+00 -0.00000000000E+00 -0.50883048712E+03  0.50883048712E+03  0.00000000000E+00 0.  1.
         24    2    1    2    0    0 -0.41103661452E+02  0.64204890073E+03 -0.10284539385E+03  0.65601457973E+03  0.76561425446E+02 0.  0.
        254    2    1    2    0    0  0.41103661452E+02 -0.64204890073E+03  0.22397730387E+04  0.24985740393E+04  0.90131718240E+03 0.  0.
         23    2    4    4    0    0  0.30250177159E+03 -0.37546996510E+03  0.19672007836E+04  0.20274835913E+04  0.91245676879E+02 0.  0.
         23    2    4    4    0    0 -0.26139811014E+03 -0.26657893563E+03  0.27257225507E+03  0.47109044801E+03  0.90759435097E+02 0.  0.
          4    1    3    3  502    0 -0.63387648578E+01  0.23063468546E+03 -0.73268834318E+02  0.24207614538E+03  0.00000000000E+00 0. -1.
         -3    1    3    3    0  502 -0.34764896594E+02  0.41141421527E+03 -0.29576559533E+02  0.41393843435E+03  0.00000000000E+00 0.  1.
         13    1    5    5    0    0  0.10814288415E+03 -0.20484142240E+03  0.88574986848E+03  0.91553684865E+03  0.00000000000E+00 0. -1.
        -13    1    5    5    0    0  0.19435888744E+03 -0.17062854270E+03  0.10814509151E+04  0.11119467427E+04  0.00000000000E+00 0.  1.
          4    1    6    6  503    0 -0.99922025656E+02 -0.16074065486E+03  0.15827465300E+03  0.24672420862E+03  0.00000000000E+00 0. -1.
         -4    1    6    6    0  503 -0.16147608448E+03 -0.10583828077E+03  0.11429760207E+03  0.22436623938E+03  0.00000000000E+00 0.  1.
<mgrwt>
<rscale>  0 0.23205537E+04</rscale>
<asrwt>0</asrwt>
<pdfrwt beam="1">  1        2 0.40703971E+00 0.23205537E+04</pdfrwt>
<pdfrwt beam="2">  1       -1 0.78281615E-01 0.23205537E+04</pdfrwt>
<totfact> 0.48113065E+00</totfact>
</mgrwt>
</event>
<event>
12    7  0.1740517E-007  0.1505497E+04  0.7818608E-02  0.8880805E-01
          2   -1    0    0  501    0  0.00000000000E+00  0.00000000000E+00  0.11391792421E+04  0.11391792421E+04  0.00000000000E+00 0. -1.
         -1   -1    0    0    0  501 -0.00000000000E+00 -0.00000000000E+00 -0.49740248835E+03  0.49740248835E+03  0.00000000000E+00 0.  1.
         24    2    1    2    0    0  0.40141565296E+03 -0.17237248229E+02  0.49142284047E+03  0.63964443994E+03  0.78847652083E+02 0.  0.
        254    2    1    2    0    0 -0.40141565296E+03  0.17237248229E+02  0.15035391331E+03  0.99693729053E+03  0.89991444751E+03 0.  0.
         23    2    4    4    0    0 -0.46716210365E+03 -0.19024034367E+03 -0.22043646820E+03  0.55806339019E+03  0.91709822362E+02 0.  0.
         23    2    4    4    0    0  0.65746450694E+02  0.20747759190E+03  0.37079038150E+03  0.43887390034E+03  0.88063877190E+02 0.  0.
          4    1    3    3  502    0  0.19056449102E+03 -0.22317765740E+02  0.29189806326E+03  0.34930987281E+03  0.00000000000E+00 0. -1.
         -3    1    3    3    0  502  0.21085116194E+03  0.50805175113E+01  0.19952477721E+03  0.29033456713E+03  0.00000000000E+00 0.  1.
         13    1    5    5    0    0 -0.28015686998E+03 -0.89646641177E+02 -0.84927389115E+02  0.30616507556E+03  0.00000000000E+00 0.  1.
        -13    1    5    5    0    0 -0.18700523367E+03 -0.10059370249E+03 -0.13550907908E+03  0.25189831463E+03  0.00000000000E+00 0. -1.
          4    1    6    6  503    0  0.35647718425E+02  0.17963291393E+03  0.34453968874E+03  0.39018757120E+03  0.00000000000E+00 0. -1.
         -4    1    6    6    0  503  0.30098732268E+02  0.27844677961E+02  0.26250692760E+02  0.48686329142E+02  0.00000000000E+00 0.  1.
<mgrwt>
<rscale>  0 0.15054974E+04</rscale>
<asrwt>0</asrwt>
<pdfrwt beam="1">  1        2 0.17525835E+00 0.15054974E+04</pdfrwt>
<pdfrwt beam="2">  1       -1 0.76523460E-01 0.15054974E+04</pdfrwt>
<totfact> 0.38917784E+01</totfact>
</mgrwt>
</event>
<event>
12    7  0.1740517E-007  0.2302187E+04  0.7818608E-02  0.8477059E-01
          2   -1    0    0  501    0  0.00000000000E+00  0.00000000000E+00  0.17116111079E+04  0.17116111079E+04  0.00000000000E+00 0. -1.
         -1   -1    0    0    0  501 -0.00000000000E+00 -0.00000000000E+00 -0.77413404882E+03  0.77413404882E+03  0.00000000000E+00 0.  1.
         24    2    1    2    0    0 -0.23205387250E+02  0.51329996142E+03 -0.49250795387E+03  0.71632950123E+03  0.80922983853E+02 0.  0.
        254    2    1    2    0    0  0.23205387250E+02 -0.51329996142E+03  0.14299850129E+04  0.17694156554E+04  0.90661970209E+03 0.  0.
         23    2    4    4    0    0 -0.27009876624E+03  0.12252468130E+03  0.27273050407E+03  0.41366818813E+03  0.93668569793E+02 0.  0.
         23    2    4    4    0    0  0.29330415349E+03 -0.63582464272E+03  0.11572545088E+04  0.13557474673E+04  0.92265346678E+02 0.  0.
          4    1    3    3  502    0  0.95778842605E+01  0.82500162415E+01 -0.49502618324E+01  0.13575850880E+02  0.00000000000E+00 0. -1.
         -3    1    3    3    0  502 -0.32783271511E+02  0.50504994518E+03 -0.48755769203E+03  0.70275365035E+03  0.00000000000E+00 0.  1.
         13    1    5    5    0    0 -0.53013829051E+02  0.68430528913E+02  0.89199181416E+02  0.12429681140E+03  0.00000000000E+00 0.  1.
        -13    1    5    5    0    0 -0.21708493719E+03  0.54094152385E+02  0.18353132266E+03  0.28937137673E+03  0.00000000000E+00 0. -1.
          1    1    6    6  503    0  0.12912718906E+03 -0.25127418960E+03  0.55220036053E+03  0.62027234944E+03  0.00000000000E+00 0. -1.
         -1    1    6    6    0  503  0.16417696443E+03 -0.38455045312E+03  0.60505414830E+03  0.73547511788E+03  0.00000000000E+00 0.  1.
<mgrwt>
<rscale>  0 0.23021872E+04</rscale>
<asrwt>0</asrwt>
<pdfrwt beam="1">  1        2 0.26332479E+00 0.23021872E+04</pdfrwt>
<pdfrwt beam="2">  1       -1 0.11909755E+00 0.23021872E+04</pdfrwt>
<totfact> 0.62890451E+00</totfact>
</mgrwt>
</event>
<event>
12    7  0.1740517E-007  0.1663811E+04  0.7818608E-02  0.8782278E-01
          2   -1    0    0  501    0  0.00000000000E+00  0.00000000000E+00  0.87808736823E+03  0.87808736823E+03  0.00000000000E+00 0. -1.
         -1   -1    0    0    0  501 -0.00000000000E+00 -0.00000000000E+00 -0.78815227306E+03  0.78815227306E+03  0.00000000000E+00 0.  1.
         24    2    1    2    0    0 -0.72550242082E+02  0.40746175560E+03  0.44819383035E+03  0.61519163425E+03  0.79337364395E+02 0.  0.
        254    2    1    2    0    0  0.72550242082E+02 -0.40746175560E+03 -0.35825873518E+03  0.10510480070E+04  0.89725357166E+03 0.  0.
         23    2    4    4    0    0 -0.10691096138E+03 -0.54968595217E+03 -0.50846197208E+03  0.76240474728E+03  0.95618104689E+02 0.  0.
         23    2    4    4    0    0  0.17946120346E+03  0.14222419658E+03  0.15020323690E+03  0.28864325975E+03  0.91213339958E+02 0.  0.
          4    1    3    3  502    0 -0.42040976120E+02  0.25917052068E+03  0.33771141156E+03  0.42776839524E+03  0.00000000000E+00 0. -1.
         -3    1    3    3    0  502 -0.30509265962E+02  0.14829123491E+03  0.11048241879E+03  0.18742323902E+03  0.00000000000E+00 0.  1.
         13    1    5    5    0    0  0.19345698907E+01 -0.23220885123E+03 -0.19671140836E+03  0.30433545855E+03  0.00000000000E+00 0.  1.
        -13    1    5    5    0    0 -0.10884553127E+03 -0.31747710094E+03 -0.31175056372E+03  0.45806928873E+03  0.00000000000E+00 0. -1.
          2    1    6    6  503    0  0.17225636532E+03  0.14444217356E+03  0.11474584996E+03  0.25239335764E+03  0.00000000000E+00 0. -1.
         -2    1    6    6    0  503  0.72048381399E+01 -0.22179769864E+01  0.35457386945E+02  0.36249902117E+02  0.00000000000E+00 0.  1.
<mgrwt>
<rscale>  0 0.16638108E+04</rscale>
<asrwt>0</asrwt>
<pdfrwt beam="1">  1        2 0.13509036E+00 0.16638108E+04</pdfrwt>
<pdfrwt beam="2">  1       -1 0.12125420E+00 0.16638108E+04</pdfrwt>
<totfact> 0.19949702E+01</totfact>
</mgrwt>
</event>
<event>
12    7  0.1740517E-007  0.1324412E+04  0.7818608E-02  0.9010427E-01
         -1   -1    0    0    0  501 -0.00000000000E+00  0.00000000000E+00  0.47695474230E+03  0.47695474230E+03  0.00000000000E+00 0.  1.
          2   -1    0    0  501    0  0.00000000000E+00 -0.00000000000E+00 -0.91940905894E+03  0.91940905894E+03  0.00000000000E+00 0. -1.
         24    2    1    2    0    0 -0.26318534012E+03 -0.24029688271E+03 -0.16027304830E+03  0.39835195556E+03  0.77380329512E+02 0.  0.
        254    2    1    2    0    0  0.26318534012E+03  0.24029688271E+03 -0.28218126833E+03  0.99801184568E+03  0.88847749596E+03 0.  0.
         23    2    4    4    0    0 -0.26484617132E+02  0.25415875140E+03 -0.53602267314E+03  0.60052054995E+03  0.89479153614E+02 0.  0.
         23    2    4    4    0    0  0.28966995725E+03 -0.13861868686E+02  0.25384140481E+03  0.39749129573E+03  0.97278136554E+02 0.  0.
          2    1    3    3  502    0 -0.26525457879E+03 -0.24392668364E+03 -0.15715487404E+03  0.39313849086E+03  0.00000000000E+00 0. -1.
         -3    1    3    3    0  502  0.20692386746E+01  0.36298009285E+01 -0.31181742627E+01  0.52134647026E+01  0.00000000000E+00 0.  1.
         13    1    5    5    0    0 -0.30949495550E+02  0.22515111744E+03 -0.38837801278E+03  0.44998708623E+03  0.00000000000E+00 0. -1.
        -13    1    5    5    0    0  0.44648784189E+01  0.29007633958E+02 -0.14764466036E+03  0.15053346372E+03  0.00000000000E+00 0.  1.
          1    1    6    6  503    0  0.26860600590E+03 -0.28536246703E+02  0.25543976003E+03  0.37177005633E+03  0.00000000000E+00 0. -1.
         -1    1    6    6    0  503  0.21063951351E+02  0.14674378017E+02 -0.15983552260E+01  0.25721239398E+02  0.00000000000E+00 0.  1.
<mgrwt>
<rscale>  0 0.13244116E+04</rscale>
<asrwt>0</asrwt>
<pdfrwt beam="1">  1        2 0.14144754E+00 0.13244116E+04</pdfrwt>
<pdfrwt beam="2">  1       -1 0.73377654E-01 0.13244116E+04</pdfrwt>
<totfact> 0.59473656E+01</totfact>
</mgrwt>
</event>
<event>
12    7  0.1740517E-007  0.1649556E+04  0.7818608E-02  0.8790669E-01
         -1   -1    0    0    0  501 -0.00000000000E+00  0.00000000000E+00  0.35551246141E+03  0.35551246141E+03  0.00000000000E+00 0.  1.
          2   -1    0    0  501    0  0.00000000000E+00 -0.00000000000E+00 -0.19134607441E+04  0.19134607441E+04  0.00000000000E+00 0. -1.
         24    2    1    2    0    0 -0.25169041232E+03 -0.64120948856E+02 -0.12914288318E+04  0.13196370014E+04  0.78700878239E+02 0.  0.
        254    2    1    2    0    0  0.25169041232E+03  0.64120948856E+02 -0.26651945093E+03  0.94933620411E+03  0.87335390935E+03 0.  0.
         23    2    4    4    0    0 -0.31726979363E+03  0.52965201481E+02 -0.77821422392E+02  0.34283986013E+03  0.89540836422E+02 0.  0.
         23    2    4    4    0    0  0.56896020595E+03  0.11155747375E+02 -0.18869802854E+03  0.60649634399E+03  0.91600778580E+02 0.  0.
          4    1    3    3  502    0 -0.23010265208E+03 -0.40668524787E+02 -0.12065835435E+04  0.12290016302E+04  0.00000000000E+00 0. -1.
         -3    1    3    3    0  502 -0.21587760240E+02 -0.23452424068E+02 -0.84845288247E+02  0.90635371266E+02  0.00000000000E+00 0.  1.
         13    1    5    5    0    0 -0.31081201167E+03  0.39373110738E+02 -0.59102054728E+02  0.31882189592E+03  0.00000000000E+00 0.  1.
        -13    1    5    5    0    0 -0.64577819643E+01  0.13592090742E+02 -0.18719367664E+02  0.24017964201E+02  0.00000000000E+00 0. -1.
          4    1    6    6  503    0  0.38461133812E+03 -0.31652387260E+02 -0.14507730055E+03  0.41228046056E+03  0.00000000000E+00 0.  1.
         -4    1    6    6    0  503  0.18434886784E+03  0.42808134636E+02 -0.43620727988E+02  0.19421588342E+03  0.00000000000E+00 0. -1.
<mgrwt>
<rscale>  0 0.16495565E+04</rscale>
<asrwt>0</asrwt>
<pdfrwt beam="1">  1        2 0.29437858E+00 0.16495565E+04</pdfrwt>
<pdfrwt beam="2">  1       -1 0.54694224E-01 0.16495565E+04</pdfrwt>
<totfact> 0.27431725E+01</totfact>
</mgrwt>
</event>
<event>
12    7  0.1740517E-007  0.1374700E+04  0.7818608E-02  0.8972338E-01
          2   -1    0    0  501    0  0.00000000000E+00  0.00000000000E+00  0.27009497062E+04  0.27009497062E+04  0.00000000000E+00 0. -1.
         -1   -1    0    0    0  501 -0.00000000000E+00 -0.00000000000E+00 -0.17492003728E+03  0.17492003728E+03  0.00000000000E+00 0.  1.
         24    2    1    2    0    0 -0.25991255927E+03  0.10063767252E+03  0.12685452494E+04  0.13019946779E+04  0.91107693535E+02 0.  0.
        254    2    1    2    0    0  0.25991255927E+03 -0.10063767252E+03  0.12574844194E+04  0.15738750655E+04  0.90450714602E+03 0.  0.
         23    2    4    4    0    0 -0.14536859289E+03 -0.51480023136E+02 -0.64762429695E+02  0.18708514361E+03  0.83812040190E+02 0.  0.
         23    2    4    4    0    0  0.40528115215E+03 -0.49157649387E+02  0.13222468491E+04  0.13867899219E+04  0.90444849071E+02 0.  0.
          2    1    3    3  502    0 -0.22207885677E+03  0.10042523990E+03  0.11913560020E+04  0.12160318133E+04  0.00000000000E+00 0. -1.
         -1    1    3    3    0  502 -0.37833702496E+02  0.21243262627E+00  0.77189247422E+02  0.85962864597E+02  0.00000000000E+00 0.  1.
         13    1    5    5    0    0 -0.98203078952E+02 -0.51810840731E+02 -0.80740906834E+02  0.13728547618E+03  0.00000000000E+00 0.  1.
        -13    1    5    5    0    0 -0.47165513935E+02  0.33081759567E+00  0.15978477139E+02  0.49799667436E+02  0.00000000000E+00 0. -1.
          3    1    6    6  503    0  0.25663076050E+03 -0.53152503544E+02  0.71246993355E+03  0.75914289965E+03  0.00000000000E+00 0. -1.
         -3    1    6    6    0  503  0.14865039165E+03  0.39948541572E+01  0.60977691558E+03  0.62764702227E+03  0.00000000000E+00 0.  1.
<mgrwt>
<rscale>  0 0.13747003E+04</rscale>
<asrwt>0</asrwt>
<pdfrwt beam="1">  1        2 0.41553069E+00 0.13747003E+04</pdfrwt>
<pdfrwt beam="2">  1       -1 0.26910777E-01 0.13747003E+04</pdfrwt>
<totfact> 0.36545457E+01</totfact>
</mgrwt>
</event>
<event>
12    7  0.1740517E-007  0.1365186E+04  0.7818608E-02  0.8979412E-01
         -1   -1    0    0    0  501 -0.00000000000E+00  0.00000000000E+00  0.50788445333E+03  0.50788445333E+03  0.00000000000E+00 0.  1.
          2   -1    0    0  501    0  0.00000000000E+00 -0.00000000000E+00 -0.91739956582E+03  0.91739956582E+03  0.00000000000E+00 0. -1.
         24    2    1    2    0    0 -0.27644890596E+03  0.20216238958E+03 -0.29775804560E+03  0.45997542004E+03  0.74992692700E+02 0.  0.
        254    2    1    2    0    0  0.27644890596E+03 -0.20216238958E+03 -0.11175706689E+03  0.96530859911E+03  0.89556541925E+03 0.  0.
         23    2    4    4    0    0  0.12005494816E+03 -0.30170691364E+03 -0.45371489433E+03  0.56533949595E+03  0.91166265827E+02 0.  0.
         23    2    4    4    0    0  0.15639395779E+03  0.99544524068E+02  0.34195782744E+03  0.39996910316E+03  0.93123280799E+02 0.  0.
          2    1    3    3  502    0 -0.10612644591E+03  0.76686103734E+02 -0.16330322100E+03  0.20931202310E+03  0.00000000000E+00 0. -1.
         -1    1    3    3    0  502 -0.17032246005E+03  0.12547628584E+03 -0.13445482460E+03  0.25066339694E+03  0.00000000000E+00 0.  1.
         13    1    5    5    0    0  0.94371265795E+02 -0.22617869348E+03 -0.40019316875E+03  0.46927317152E+03  0.00000000000E+00 0. -1.
        -13    1    5    5    0    0  0.25683682367E+02 -0.75528220162E+02 -0.53521725583E+02  0.96066324434E+02  0.00000000000E+00 0.  1.
          1    1    6    6  503    0 -0.53082215894E+01  0.21119410654E+02  0.75435743535E+02  0.78515973696E+02  0.00000000000E+00 0.  1.
         -1    1    6    6    0  503  0.16170217938E+03  0.78425113414E+02  0.26652208391E+03  0.32145312946E+03  0.00000000000E+00 0. -1.
<mgrwt>
<rscale>  0 0.13651857E+04</rscale>
<asrwt>0</asrwt>
<pdfrwt beam="1">  1        2 0.14113840E+00 0.13651857E+04</pdfrwt>
<pdfrwt beam="2">  1       -1 0.78136070E-01 0.13651857E+04</pdfrwt>
<totfact> 0.52135806E+01</totfact>
</mgrwt>
</event>
<event>
12    7  0.1740517E-007  0.1473726E+04  0.7818608E-02  0.8902115E-01
          2   -1    0    0  501    0  0.00000000000E+00  0.00000000000E+00  0.59576805226E+03  0.59576805226E+03  0.00000000000E+00 0. -1.
         -1   -1    0    0    0  501 -0.00000000000E+00 -0.00000000000E+00 -0.91137387371E+03  0.91137387371E+03  0.00000000000E+00 0.  1.
         24    2    1    2    0    0  0.90901637404E+02  0.12821742194E+03  0.32483813076E+03  0.37586431435E+03  0.10512543285E+03 0.  0.
        254    2    1    2    0    0 -0.90901637404E+02 -0.12821742194E+03 -0.64044395221E+03  0.11312776116E+04  0.91919408378E+03 0.  0.
         23    2    4    4    0    0  0.61780160681E+02 -0.40764312210E+03 -0.13585693944E+02  0.42238628692E+03  0.90751865273E+02 0.  0.
         23    2    4    4    0    0 -0.15268179808E+03  0.27942570015E+03 -0.62685825827E+03  0.70889132470E+03  0.90471989615E+02 0.  0.
          2    1    3    3  502    0  0.84557633231E+02  0.94757446008E+02  0.31616855766E+03  0.34072206234E+03  0.00000000000E+00 0. -1.
         -1    1    3    3    0  502  0.63440041723E+01  0.33459975935E+02  0.86695731019E+01  0.35142252009E+02  0.00000000000E+00 0.  1.
         13    1    5    5    0    0  0.68098367593E+02 -0.35019254052E+03  0.16684690225E+02  0.35714224336E+03  0.00000000000E+00 0. -1.
        -13    1    5    5    0    0 -0.63182069118E+01 -0.57450581579E+02 -0.30270384169E+02  0.65244043560E+02  0.00000000000E+00 0.  1.
          1    1    6    6  503    0 -0.74243228870E+02  0.76377090777E+02 -0.14286140900E+03  0.17819904380E+03  0.00000000000E+00 0.  1.
         -1    1    6    6    0  503 -0.78438569214E+02  0.20304860938E+03 -0.48399684927E+03  0.53069228090E+03  0.00000000000E+00 0. -1.
<mgrwt>
<rscale>  0 0.14737265E+04</rscale>
<asrwt>0</asrwt>
<pdfrwt beam="1">  1        2 0.91656624E-01 0.14737265E+04</pdfrwt>
<pdfrwt beam="2">  1       -1 0.14021136E+00 0.14737265E+04</pdfrwt>
<totfact> 0.23107908E+01</totfact>
</mgrwt>
</event>
<event>
12    7  0.1740517E-007  0.2352535E+04  0.7818608E-02  0.8457490E-01
         -1   -1    0    0    0  501 -0.00000000000E+00  0.00000000000E+00  0.87138494609E+03  0.87138494609E+03  0.00000000000E+00 0.  1.
          2   -1    0    0  501    0  0.00000000000E+00 -0.00000000000E+00 -0.15878235741E+04  0.15878235741E+04  0.00000000000E+00 0. -1.
         24    2    1    2    0    0 -0.94870857382E+03 -0.14023659442E+03  0.35340398797E+01  0.96251260907E+03  0.81876570070E+02 0.  0.
        254    2    1    2    0    0  0.94870857382E+03  0.14023659442E+03 -0.71997266787E+03  0.14966959111E+04  0.89555778560E+03 0.  0.
         23    2    4    4    0    0 -0.10123145173E+03 -0.83472974676E+02  0.56923781411E+02  0.16852054622E+03  0.89125267393E+02 0.  0.
         23    2    4    4    0    0  0.10499400255E+04  0.22370956910E+03 -0.77689644928E+03  0.13281753649E+04  0.89786849804E+02 0.  0.
          2    1    3    3  502    0 -0.11110120735E+03 -0.42527542332E+02  0.77543623548E+01  0.11921493307E+03  0.00000000000E+00 0. -1.
         -1    1    3    3    0  502 -0.83760736647E+03 -0.97709052091E+02 -0.42203224751E+01  0.84329767600E+03  0.00000000000E+00 0.  1.
         13    1    5    5    0    0 -0.11629540658E+03 -0.61854711349E+02  0.52519537691E+02  0.14180595455E+03  0.00000000000E+00 0.  1.
        -13    1    5    5    0    0  0.15063954853E+02 -0.21618263328E+02  0.44042437204E+01  0.26714591666E+02  0.00000000000E+00 0. -1.
          1    1    6    6  503    0  0.98558639292E+02  0.45656070243E+02 -0.63998566949E+02  0.12607179978E+03  0.00000000000E+00 0. -1.
         -1    1    6    6    0  503  0.95138138626E+03  0.17805349886E+03 -0.71289788233E+03  0.12021035651E+04  0.00000000000E+00 0.  1.
<mgrwt>
<rscale>  0 0.23525353E+04</rscale>
<asrwt>0</asrwt>
<pdfrwt beam="1">  1        2 0.24428055E+00 0.23525353E+04</pdfrwt>
<pdfrwt beam="2">  1       -1 0.13405922E+00 0.23525353E+04</pdfrwt>
<totfact> 0.54622834E+00</totfact>
</mgrwt>
</event>
<event>
12    7  0.1740517E-007  0.3632906E+04  0.7818608E-02  0.8082995E-01
          2   -1    0    0  501    0  0.00000000000E+00  0.00000000000E+00  0.25627531689E+04  0.25627531689E+04  0.00000000000E+00 0. -1.
         -1   -1    0    0    0  501 -0.00000000000E+00 -0.00000000000E+00 -0.12874834917E+04  0.12874834917E+04  0.00000000000E+00 0.  1.
         24    2    1    2    0    0 -0.13008212398E+04 -0.10791657379E+04  0.41052364507E+03  0.17410911291E+04  0.78320297549E+02 0.  0.
        254    2    1    2    0    0  0.13008212398E+04  0.10791657379E+04  0.86474603215E+03  0.21091455315E+04  0.91868089409E+03 0.  0.
         23    2    4    4    0    0 -0.48801245243E+02  0.37848050666E+03  0.25635605459E+03  0.46878419329E+03  0.91712254836E+02 0.  0.
         23    2    4    4    0    0  0.13496224850E+04  0.70068523121E+03  0.60838997756E+03  0.16403613382E+04  0.90588684274E+02 0.  0.
          2    1    3    3  502    0 -0.49616998568E+03 -0.39175051241E+03  0.18929388927E+03  0.65991309668E+03  0.00000000000E+00 0. -1.
         -1    1    3    3    0  502 -0.80465125412E+03 -0.68741522546E+03  0.22122975580E+03  0.10811780324E+04  0.00000000000E+00 0.  1.
         13    1    5    5    0    0 -0.19244286635E+02  0.52074000759E+02  0.49764386904E+01  0.55738757299E+02  0.00000000000E+00 0.  1.
        -13    1    5    5    0    0 -0.29556958608E+02  0.32640650590E+03  0.25137961590E+03  0.41304543599E+03  0.00000000000E+00 0. -1.
          3    1    6    6  503    0  0.99136548378E+03  0.51903792363E+03  0.40436179739E+03  0.11898379519E+04  0.00000000000E+00 0. -1.
         -3    1    6    6    0  503  0.35825700126E+03  0.18164730758E+03  0.20402818017E+03  0.45052338630E+03  0.00000000000E+00 0.  1.
<mgrwt>
<rscale>  0 0.36329065E+04</rscale>
<asrwt>0</asrwt>
<pdfrwt beam="1">  1        2 0.39426972E+00 0.36329065E+04</pdfrwt>
<pdfrwt beam="2">  1       -1 0.19807438E+00 0.36329065E+04</pdfrwt>
<totfact> 0.45865336E-01</totfact>
</mgrwt>
</event>
<event>
12    7  0.1740517E-007  0.2066512E+04  0.7818608E-02  0.8576140E-01
         -1   -1    0    0    0  501 -0.00000000000E+00  0.00000000000E+00  0.12246133040E+04  0.12246133040E+04  0.00000000000E+00 0.  1.
          2   -1    0    0  501    0  0.00000000000E+00 -0.00000000000E+00 -0.87179987943E+03  0.87179987943E+03  0.00000000000E+00 0. -1.
         24    2    1    2    0    0 -0.53335070562E+03 -0.45851123497E+03  0.59086827632E+03  0.92196674819E+03  0.78751743075E+02 0.  0.
        254    2    1    2    0    0  0.53335070562E+03  0.45851123497E+03 -0.23805485174E+03  0.11744464352E+04  0.90992240825E+03 0.  0.
         23    2    4    4    0    0 -0.88823144715E+02  0.20648106610E+03  0.24294206434E+03  0.34361523262E+03  0.92339589366E+02 0.  0.
         23    2    4    4    0    0  0.62217385033E+03  0.25203016887E+03 -0.48099691609E+03  0.83083120262E+03  0.91120513078E+02 0.  0.
          2    1    3    3  502    0 -0.16153047282E+03 -0.16936793542E+03  0.23466336564E+03  0.33142795050E+03  0.00000000000E+00 0. -1.
         -1    1    3    3    0  502 -0.37182023280E+03 -0.28914329955E+03  0.35620491068E+03  0.59053879770E+03  0.00000000000E+00 0.  1.
         13    1    5    5    0    0 -0.38064345507E+02  0.26655213463E+02  0.14902688313E+02  0.48800460270E+02  0.00000000000E+00 0.  1.
        -13    1    5    5    0    0 -0.50758799208E+02  0.17982585264E+03  0.22803937603E+03  0.29481477235E+03  0.00000000000E+00 0. -1.
          1    1    6    6  503    0  0.58629645594E+03  0.25082228361E+03 -0.47322567865E+03  0.79410194254E+03  0.00000000000E+00 0. -1.
         -1    1    6    6    0  503  0.35877394390E+02  0.12078852568E+01 -0.77712374402E+01  0.36729260085E+02  0.00000000000E+00 0.  1.
<mgrwt>
<rscale>  0 0.20665118E+04</rscale>
<asrwt>0</asrwt>
<pdfrwt beam="1">  1        2 0.13412306E+00 0.20665118E+04</pdfrwt>
<pdfrwt beam="2">  1       -1 0.18840205E+00 0.20665118E+04</pdfrwt>
<totfact> 0.58599067E+00</totfact>
</mgrwt>
</event>
<event>
12    7  0.1740517E-007  0.1961543E+04  0.7818608E-02  0.8624815E-01
         -1   -1    0    0    0  501 -0.00000000000E+00  0.00000000000E+00  0.62559766004E+03  0.62559766004E+03  0.00000000000E+00 0.  1.
          2   -1    0    0  501    0  0.00000000000E+00 -0.00000000000E+00 -0.15375898199E+04  0.15375898199E+04  0.00000000000E+00 0. -1.
         24    2    1    2    0    0  0.65514544264E+03  0.24630652113E+03  0.31381502363E+01  0.70488317718E+03  0.83474499794E+02 0.  0.
        254    2    1    2    0    0 -0.65514544264E+03 -0.24630652113E+03 -0.91513031012E+03  0.14583043028E+04  0.89403887033E+03 0.  0.
         23    2    4    4    0    0  0.13983151614E+03 -0.11690989423E+03 -0.51661333613E+03  0.55527427189E+03  0.90660915992E+02 0.  0.
         23    2    4    4    0    0 -0.79497695878E+03 -0.12939662691E+03 -0.39851697399E+03  0.90303003089E+03  0.88969691987E+02 0.  0.
          2    1    3    3  502    0  0.63763154863E+03  0.22375044495E+03  0.86174176621E+01  0.67580508529E+03  0.00000000000E+00 0. -1.
         -1    1    3    3    0  502  0.17513894014E+02  0.22556076178E+02 -0.54792674258E+01  0.29078091884E+02  0.00000000000E+00 0.  1.
         13    1    5    5    0    0  0.12643900803E+03 -0.74391173670E+02 -0.29787504737E+03  0.33203977671E+03  0.00000000000E+00 0.  1.
        -13    1    5    5    0    0  0.13392508107E+02 -0.42518720556E+02 -0.21873828876E+03  0.22323449519E+03  0.00000000000E+00 0. -1.
          3    1    6    6  503    0 -0.19461050518E+03 -0.62399288644E+02 -0.74491673663E+02  0.21752225034E+03  0.00000000000E+00 0. -1.
         -3    1    6    6    0  503 -0.60036645360E+03 -0.66997338263E+02 -0.32402530033E+03  0.68550778055E+03  0.00000000000E+00 0.  1.
<mgrwt>
<rscale>  0 0.19615429E+04</rscale>
<asrwt>0</asrwt>
<pdfrwt beam="1">  1        2 0.23655227E+00 0.19615429E+04</pdfrwt>
<pdfrwt beam="2">  1       -1 0.96245796E-01 0.19615429E+04</pdfrwt>
<totfact> 0.13346279E+01</totfact>
</mgrwt>
</event>
<event>
12    7  0.1740517E-007  0.1637658E+04  0.7818608E-02  0.8797741E-01
          2   -1    0    0  501    0  0.00000000000E+00  0.00000000000E+00  0.44432918108E+04  0.44432918108E+04  0.00000000000E+00 0. -1.
         -1   -1    0    0    0  501 -0.00000000000E+00 -0.00000000000E+00 -0.15089738655E+03  0.15089738655E+03  0.00000000000E+00 0.  1.
         24    2    1    2    0    0 -0.51837747304E+03  0.26019671167E+03  0.18076026076E+04  0.19000536958E+04  0.79745386049E+02 0.  0.
        254    2    1    2    0    0  0.51837747304E+03 -0.26019671167E+03  0.24847918167E+04  0.26941355016E+04  0.86473012861E+03 0.  0.
         23    2    4    4    0    0 -0.86196870936E+00 -0.44315153795E+03  0.80222002408E+03  0.92159528898E+03  0.96937511149E+02 0.  0.
         23    2    4    4    0    0  0.51923944175E+03  0.18295482628E+03  0.16825717926E+04  0.17725402126E+04  0.88141373304E+02 0.  0.
          4    1    3    3  502    0 -0.31458517745E+03  0.15590798110E+03  0.96422889011E+03  0.10261620169E+04  0.00000000000E+00 0. -1.
         -3    1    3    3    0  502 -0.20379229559E+03  0.10428873057E+03  0.84337371744E+03  0.87389167883E+03  0.00000000000E+00 0.  1.
         13    1    5    5    0    0  0.37411438373E+02 -0.24274958981E+03  0.49829769688E+03  0.55554259404E+03  0.00000000000E+00 0.  1.
        -13    1    5    5    0    0 -0.38273407083E+02 -0.20040194814E+03  0.30392232720E+03  0.36605269495E+03  0.00000000000E+00 0. -1.
          1    1    6    6  503    0  0.21321173690E+03  0.29788980027E+02  0.66010957693E+03  0.69432793523E+03  0.00000000000E+00 0. -1.
         -1    1    6    6    0  503  0.30602770485E+03  0.15316584626E+03  0.10224622157E+04  0.10782122774E+04  0.00000000000E+00 0.  1.
<mgrwt>
<rscale>  0 0.16376582E+04</rscale>
<asrwt>0</asrwt>
<pdfrwt beam="1">  1        2 0.68358326E+00 0.16376582E+04</pdfrwt>
<pdfrwt beam="2">  1       -1 0.23214986E-01 0.16376582E+04</pdfrwt>
<totfact> 0.24853427E+00</totfact>
</mgrwt>
</event>
<event>
12    7  0.1740517E-007  0.1633627E+04  0.7818608E-02  0.8800152E-01
         -1   -1    0    0    0  501 -0.00000000000E+00  0.00000000000E+00  0.12179616945E+04  0.12179616945E+04  0.00000000000E+00 0.  1.
          2   -1    0    0  501    0  0.00000000000E+00 -0.00000000000E+00 -0.54778771579E+03  0.54778771579E+03  0.00000000000E+00 0. -1.
         24    2    1    2    0    0 -0.16823919132E+03 -0.49198840419E+03  0.25555657329E+03  0.58399402537E+03  0.73367868796E+02 0.  0.
        254    2    1    2    0    0  0.16823919132E+03  0.49198840419E+03  0.41461740546E+03  0.11817553850E+04  0.97687316558E+03 0.  0.
         23    2    4    4    0    0 -0.28363003941E+03  0.36197593213E+03 -0.99324813198E+02  0.47925881382E+03  0.91383901265E+02 0.  0.
         23    2    4    4    0    0  0.45186923072E+03  0.13001247205E+03  0.51394221866E+03  0.70249657114E+03  0.90971334939E+02 0.  0.
          2    1    3    3  502    0 -0.16902311863E+01  0.91469901835E+00  0.72446851762E+01  0.74952664436E+01  0.00000000000E+00 0. -1.
         -1    1    3    3    0  502 -0.16654896013E+03 -0.49290310321E+03  0.24831188811E+03  0.57649875893E+03  0.00000000000E+00 0.  1.
         13    1    5    5    0    0 -0.20133268230E+03  0.24524193361E+03 -0.25083876016E+02  0.31828863599E+03  0.00000000000E+00 0. -1.
        -13    1    5    5    0    0 -0.82297357107E+02  0.11673399853E+03 -0.74240937182E+02  0.16097017783E+03  0.00000000000E+00 0.  1.
          2    1    6    6  503    0  0.13314667820E+03  0.18911419060E+02  0.95765375465E+02  0.16509599276E+03  0.00000000000E+00 0.  1.
         -2    1    6    6    0  503  0.31872255252E+03  0.11110105299E+03  0.41817684319E+03  0.53740057838E+03  0.00000000000E+00 0. -1.
<mgrwt>
<rscale>  0 0.16336272E+04</rscale>
<asrwt>0</asrwt>
<pdfrwt beam="1">  1        2 0.84275033E-01 0.16336272E+04</pdfrwt>
<pdfrwt beam="2">  1       -1 0.18737872E+00 0.16336272E+04</pdfrwt>
<totfact> 0.11145907E+01</totfact>
</mgrwt>
</event>
<event>
12    7  0.1740517E-007  0.1190539E+04  0.7818608E-02  0.9121178E-01
          2   -1    0    0  501    0  0.00000000000E+00  0.00000000000E+00  0.10219252937E+04  0.10219252937E+04  0.00000000000E+00 0. -1.
         -1   -1    0    0    0  501 -0.00000000000E+00 -0.00000000000E+00 -0.34674324787E+03  0.34674324787E+03  0.00000000000E+00 0.  1.
         24    2    1    2    0    0  0.16104751612E+03  0.14700211300E+03  0.19788329594E+03  0.30547895678E+03  0.81324476930E+02 0.  0.
        254    2    1    2    0    0 -0.16104751612E+03 -0.14700211300E+03  0.47729874992E+03  0.10631895848E+04  0.92466862871E+03 0.  0.
         23    2    4    4    0    0 -0.30897942272E+03  0.14240559816E+03  0.60613895401E+03  0.70086729948E+03  0.89793662689E+02 0.  0.
         23    2    4    4    0    0  0.14793190660E+03 -0.28940771116E+03 -0.12884020408E+03  0.36232228535E+03  0.95062968618E+02 0.  0.
          4    1    3    3  502    0  0.91703788348E+02  0.13167430920E+03  0.15132344885E+03  0.22055950370E+03  0.00000000000E+00 0. -1.
         -3    1    3    3    0  502  0.69343727771E+02  0.15327803806E+02  0.46559847093E+02  0.84919453084E+02  0.00000000000E+00 0.  1.
         13    1    5    5    0    0 -0.20185848051E+03  0.50373366616E+02  0.40188694365E+03  0.45254550897E+03  0.00000000000E+00 0. -1.
        -13    1    5    5    0    0 -0.10712094221E+03  0.92032231540E+02  0.20425201036E+03  0.24832179051E+03  0.00000000000E+00 0.  1.
          2    1    6    6  503    0  0.12799192838E+03 -0.27074978096E+03 -0.86111785079E+02  0.31161292841E+03  0.00000000000E+00 0. -1.
         -2    1    6    6    0  503  0.19939978217E+02 -0.18657930197E+02 -0.42728419004E+02  0.50709356938E+02  0.00000000000E+00 0.  1.
<mgrwt>
<rscale>  0 0.11905389E+04</rscale>
<asrwt>0</asrwt>
<pdfrwt beam="1">  1        2 0.15721928E+00 0.11905389E+04</pdfrwt>
<pdfrwt beam="2">  1       -1 0.53345115E-01 0.11905389E+04</pdfrwt>
<totfact> 0.97334481E+01</totfact>
</mgrwt>
</event>
<event>
12    7  0.1740517E-007  0.2708223E+04  0.7818608E-02  0.8332342E-01
          2   -1    0    0  501    0  0.00000000000E+00  0.00000000000E+00  0.13780733988E+04  0.13780733988E+04  0.00000000000E+00 0. -1.
         -1   -1    0    0    0  501 -0.00000000000E+00 -0.00000000000E+00 -0.13305666704E+04  0.13305666704E+04  0.00000000000E+00 0.  1.
         24    2    1    2    0    0  0.27811365236E+03  0.76990277593E+03  0.91785802390E+03  0.12325140747E+04  0.80809061076E+02 0.  0.
        254    2    1    2    0    0 -0.27811365236E+03 -0.76990277593E+03 -0.87035129550E+03  0.14761259945E+04  0.86679818073E+03 0.  0.
         23    2    4    4    0    0 -0.44710409408E+03 -0.45717417943E+03 -0.90030652493E+03  0.11082515425E+04  0.93591353473E+02 0.  0.
         23    2    4    4    0    0  0.16899044172E+03 -0.31272859650E+03  0.29955229425E+02  0.36787445198E+03  0.89874090768E+02 0.  0.
          2    1    3    3  502    0  0.17540921348E+03  0.56001738886E+03  0.69485871572E+03  0.90951443244E+03  0.00000000000E+00 0. -1.
         -1    1    3    3    0  502  0.10270443888E+03  0.20988538707E+03  0.22299930817E+03  0.32299964229E+03  0.00000000000E+00 0.  1.
         13    1    5    5    0    0 -0.31616625126E+03 -0.35564191262E+03 -0.60595225224E+03  0.77046765049E+03  0.00000000000E+00 0. -1.
        -13    1    5    5    0    0 -0.13093784282E+03 -0.10153226681E+03 -0.29435427269E+03  0.33778389206E+03  0.00000000000E+00 0.  1.
          1    1    6    6  503    0  0.17277260186E+03 -0.25915547587E+03  0.37202159483E+02  0.31368126067E+03  0.00000000000E+00 0. -1.
         -1    1    6    6    0  503 -0.37821601390E+01 -0.53573120630E+02 -0.72469300585E+01  0.54193191312E+02  0.00000000000E+00 0.  1.
<mgrwt>
<rscale>  0 0.27082234E+04</rscale>
<asrwt>0</asrwt>
<pdfrwt beam="1">  1        2 0.21201129E+00 0.27082234E+04</pdfrwt>
<pdfrwt beam="2">  1       -1 0.20470256E+00 0.27082234E+04</pdfrwt>
<totfact> 0.20783677E+00</totfact>
</mgrwt>
</event>
<event>
12    7  0.1740517E-007  0.2162960E+04  0.7818608E-02  0.8534005E-01
          2   -1    0    0  501    0  0.00000000000E+00  0.00000000000E+00  0.22007069023E+04  0.22007069023E+04  0.00000000000E+00 0. -1.
         -1   -1    0    0    0  501 -0.00000000000E+00 -0.00000000000E+00 -0.53146512397E+03  0.53146512397E+03  0.00000000000E+00 0.  1.
         24    2    1    2    0    0 -0.29184810505E+03  0.77264098879E+03  0.53942273041E+03  0.99011154556E+03  0.84820849956E+02 0.  0.
        254    2    1    2    0    0  0.29184810505E+03 -0.77264098879E+03  0.11298190479E+04  0.17420604807E+04  0.10373688946E+04 0.  0.
         23    2    4    4    0    0  0.38202649575E+03  0.12288909519E+03  0.45157228986E+03  0.61164662345E+03  0.95645626372E+02 0.  0.
         23    2    4    4    0    0 -0.90178390699E+02 -0.89553008399E+03  0.67824675807E+03  0.11304138573E+04  0.87809739725E+02 0.  0.
          2    1    3    3  502    0 -0.19442730399E+03  0.44535054021E+03  0.27616114969E+03  0.55893117716E+03  0.00000000000E+00 0. -1.
         -1    1    3    3    0  502 -0.97420801057E+02  0.32729044859E+03  0.26326158072E+03  0.43118036840E+03  0.00000000000E+00 0.  1.
         13    1    5    5    0    0  0.38209008598E+03  0.13118420933E+03  0.44532163452E+03  0.60125991780E+03  0.00000000000E+00 0.  1.
        -13    1    5    5    0    0 -0.63590229745E-01 -0.82951141343E+01  0.62506553382E+01  0.10386705656E+02  0.00000000000E+00 0. -1.
          4    1    6    6  503    0  0.10011440350E+02 -0.17126451021E+02  0.10248996563E+02  0.22329043710E+02  0.00000000000E+00 0. -1.
         -4    1    6    6    0  503 -0.10018983105E+03 -0.87840363297E+03  0.66799776151E+03  0.11080848136E+04  0.00000000000E+00 0.  1.
<mgrwt>
<rscale>  0 0.21629600E+04</rscale>
<asrwt>0</asrwt>
<pdfrwt beam="1">  1        2 0.33857029E+00 0.21629600E+04</pdfrwt>
<pdfrwt beam="2">  1       -1 0.81763866E-01 0.21629600E+04</pdfrwt>
<totfact> 0.80141201E+00</totfact>
</mgrwt>
</event>
<event>
12    7  0.1740517E-007  0.1818120E+04  0.7818608E-02  0.8696723E-01
          2   -1    0    0  501    0  0.00000000000E+00  0.00000000000E+00  0.12726548444E+04  0.12726548444E+04  0.00000000000E+00 0. -1.
         -1   -1    0    0    0  501 -0.00000000000E+00 -0.00000000000E+00 -0.64934318001E+03  0.64934318001E+03  0.00000000000E+00 0.  1.
         24    2    1    2    0    0 -0.31048197428E+03 -0.29759024159E+03  0.81111284609E+03  0.92172931569E+03  0.81987035924E+02 0.  0.
        254    2    1    2    0    0  0.31048197428E+03  0.29759024159E+03 -0.18780118173E+03  0.10002687087E+04  0.88335111789E+03 0.  0.
         23    2    4    4    0    0  0.46249137891E+03  0.51556096949E+03 -0.17239832453E+03  0.71856913515E+03  0.83180712049E+02 0.  0.
         23    2    4    4    0    0 -0.15200940464E+03 -0.21797072790E+03 -0.15402857196E+02  0.28169957354E+03  0.92191672098E+02 0.  0.
          4    1    3    3  502    0 -0.20292824349E+03 -0.13860354466E+03  0.46603483129E+03  0.52685793016E+03  0.00000000000E+00 0. -1.
         -3    1    3    3    0  502 -0.10755373078E+03 -0.15898669693E+03  0.34507801481E+03  0.39487138553E+03  0.00000000000E+00 0.  1.
         13    1    5    5    0    0  0.56789623148E+02  0.96556550326E+02 -0.49809846530E+02  0.12259383965E+03  0.00000000000E+00 0.  1.
        -13    1    5    5    0    0  0.40570175576E+03  0.41900441917E+03 -0.12258847801E+03  0.59597529550E+03  0.00000000000E+00 0. -1.
          1    1    6    6  503    0 -0.13812460939E+03 -0.14164336250E+03  0.14921978888E+02  0.19840341558E+03  0.00000000000E+00 0. -1.
         -1    1    6    6    0  503 -0.13884795246E+02 -0.76327365394E+02 -0.30324836084E+02  0.83296157958E+02  0.00000000000E+00 0.  1.
<mgrwt>
<rscale>  0 0.18181196E+04</rscale>
<asrwt>0</asrwt>
<pdfrwt beam="1">  1        2 0.19579305E+00 0.18181196E+04</pdfrwt>
<pdfrwt beam="2">  1       -1 0.99898950E-01 0.18181196E+04</pdfrwt>
<totfact> 0.17612240E+01</totfact>
</mgrwt>
</event>
<event>
12    7  0.1740517E-007  0.3346945E+04  0.7818608E-02  0.8151052E-01
          2   -1    0    0  501    0  0.00000000000E+00  0.00000000000E+00  0.17050778938E+04  0.17050778938E+04  0.00000000000E+00 0. -1.
         -1   -1    0    0    0  501 -0.00000000000E+00 -0.00000000000E+00 -0.16424528230E+04  0.16424528230E+04  0.00000000000E+00 0.  1.
         24    2    1    2    0    0 -0.12918616836E+03 -0.13682440231E+04 -0.68961136767E+03  0.15396332430E+04  0.78268204091E+02 0.  0.
        254    2    1    2    0    0  0.12918616836E+03  0.13682440231E+04  0.75223643846E+03  0.18078974737E+04  0.90213792916E+03 0.  0.
         23    2    4    4    0    0 -0.14413110911E+03  0.13274634229E+04  0.70479220677E+03  0.15126589838E+04  0.92044721620E+02 0.  0.
         23    2    4    4    0    0  0.27331727747E+03  0.40780600254E+02  0.47444231686E+02  0.29523848995E+03  0.92463069961E+02 0.  0.
          2    1    3    3  502    0 -0.59333728437E+02 -0.45425500097E+03 -0.26708180907E+03  0.53028368820E+03  0.00000000000E+00 0. -1.
         -1    1    3    3    0  502 -0.69852439927E+02 -0.91398902215E+03 -0.42252955861E+03  0.10093495548E+04  0.00000000000E+00 0.  1.
         13    1    5    5    0    0 -0.10099745495E+03  0.93498342522E+03  0.54319378831E+03  0.10860266953E+04  0.00000000000E+00 0.  1.
        -13    1    5    5    0    0 -0.43133654155E+02  0.39247999765E+03  0.16159841846E+03  0.42663228842E+03  0.00000000000E+00 0. -1.
          2    1    6    6  503    0  0.23471902363E+03 -0.35617342570E+00  0.33176760633E+02  0.23705240846E+03  0.00000000000E+00 0.  1.
         -2    1    6    6    0  503  0.38598253843E+02  0.41136773680E+02  0.14267471053E+02  0.58186081487E+02  0.00000000000E+00 0. -1.
<mgrwt>
<rscale>  0 0.33469449E+04</rscale>
<asrwt>0</asrwt>
<pdfrwt beam="1">  1        2 0.26231968E+00 0.33469449E+04</pdfrwt>
<pdfrwt beam="2">  1       -1 0.25268505E+00 0.33469449E+04</pdfrwt>
<totfact> 0.61777617E-01</totfact>
</mgrwt>
</event>
<event>
12    7  0.1740517E-007  0.1785500E+04  0.7818608E-02  0.8714049E-01
          2   -1    0    0  501    0  0.00000000000E+00  0.00000000000E+00  0.27917802728E+04  0.27917802728E+04  0.00000000000E+00 0. -1.
         -1   -1    0    0    0  501 -0.00000000000E+00 -0.00000000000E+00 -0.28548189464E+03  0.28548189464E+03  0.00000000000E+00 0.  1.
         24    2    1    2    0    0  0.67443617291E+03 -0.36832448489E+02  0.93690868637E+03  0.11577335606E+04  0.79550802969E+02 0.  0.
        254    2    1    2    0    0 -0.67443617291E+03  0.36832448489E+02  0.15693896918E+04  0.19195286068E+04  0.87486301041E+03 0.  0.
         23    2    4    4    0    0 -0.77297862308E+03  0.48413954140E+02  0.15987687277E+04  0.17787910876E+04  0.90534115100E+02 0.  0.
         23    2    4    4    0    0  0.98542450173E+02 -0.11581505651E+02 -0.29379035950E+02  0.14073751914E+03  0.95389599964E+02 0.  0.
          2    1    3    3  502    0  0.65112304461E+03 -0.20219797664E+02  0.89470413871E+03  0.11067364435E+04  0.00000000000E+00 0. -1.
         -1    1    3    3    0  502  0.23313128295E+02 -0.16612650826E+02  0.42204547656E+02  0.50997117185E+02  0.00000000000E+00 0.  1.
         13    1    5    5    0    0 -0.72775805472E+03  0.54158962901E+02  0.14514910354E+04  0.16246203265E+04  0.00000000000E+00 0.  1.
        -13    1    5    5    0    0 -0.45220568367E+02 -0.57450087613E+01  0.14727769230E+03  0.15417076110E+03  0.00000000000E+00 0. -1.
          1    1    6    6  503    0  0.10129039200E+03  0.21720327049E+02 -0.16365057621E+02  0.10487769653E+03  0.00000000000E+00 0.  1.
         -1    1    6    6    0  503 -0.27479418301E+01 -0.33301832699E+02 -0.13013978329E+02  0.35859822607E+02  0.00000000000E+00 0. -1.
<mgrwt>
<rscale>  0 0.17855002E+04</rscale>
<asrwt>0</asrwt>
<pdfrwt beam="1">  1        2 0.42950464E+00 0.17855002E+04</pdfrwt>
<pdfrwt beam="2">  1       -1 0.43920293E-01 0.17855002E+04</pdfrwt>
<totfact> 0.12933012E+01</totfact>
</mgrwt>
</event>
<event>
12    7  0.1740517E-007  0.1253226E+04  0.7818608E-02  0.9067502E-01
          2   -1    0    0  501    0  0.00000000000E+00  0.00000000000E+00  0.21442336874E+04  0.21442336874E+04  0.00000000000E+00 0. -1.
         -1   -1    0    0    0  501 -0.00000000000E+00 -0.00000000000E+00 -0.18311620566E+03  0.18311620566E+03  0.00000000000E+00 0.  1.
         24    2    1    2    0    0 -0.61014876372E+02  0.34515893512E+02  0.10980777042E+04  0.11031420321E+04  0.78952748483E+02 0.  0.
        254    2    1    2    0    0  0.61014876372E+02 -0.34515893512E+02  0.86303977754E+03  0.12242078609E+04  0.86540919058E+03 0.  0.
         23    2    4    4    0    0  0.93538105536E+02  0.33267504356E+03  0.74650604439E+03  0.82769267330E+03  0.91552309261E+02 0.  0.
         23    2    4    4    0    0 -0.32523229165E+02 -0.36719093707E+03  0.11653373315E+03  0.39651518765E+03  0.88075185924E+02 0.  0.
          2    1    3    3  502    0 -0.15304633335E+02  0.64842346909E+01  0.80672348311E+03  0.80689469902E+03  0.00000000000E+00 0. -1.
         -1    1    3    3    0  502 -0.45710243037E+02  0.28031658821E+02  0.29135422107E+03  0.29624733307E+03  0.00000000000E+00 0.  1.
         13    1    5    5    0    0  0.18727197997E+02  0.13852449903E+03  0.21015375644E+03  0.25239719911E+03  0.00000000000E+00 0. -1.
        -13    1    5    5    0    0  0.74810907540E+02  0.19415054453E+03  0.53635228795E+03  0.57529547419E+03  0.00000000000E+00 0.  1.
          3    1    6    6  503    0  0.24468812769E+02 -0.19865980140E+03  0.75583152847E+02  0.21395619291E+03  0.00000000000E+00 0. -1.
         -3    1    6    6    0  503 -0.56992041934E+02 -0.16853113566E+03  0.40950580306E+02  0.18255899474E+03  0.00000000000E+00 0.  1.
<mgrwt>
<rscale>  0 0.12532261E+04</rscale>
<asrwt>0</asrwt>
<pdfrwt beam="1">  1        2 0.32988209E+00 0.12532261E+04</pdfrwt>
<pdfrwt beam="2">  1       -1 0.28171726E-01 0.12532261E+04</pdfrwt>
<totfact> 0.70956639E+01</totfact>
</mgrwt>
</event>
<event>
12    7  0.1740517E-007  0.1410817E+04  0.7818608E-02  0.8946026E-01
         -1   -1    0    0    0  501 -0.00000000000E+00  0.00000000000E+00  0.12938520588E+04  0.12938520588E+04  0.00000000000E+00 0.  1.
          2   -1    0    0  501    0  0.00000000000E+00 -0.00000000000E+00 -0.38458880600E+03  0.38458880600E+03  0.00000000000E+00 0. -1.
         24    2    1    2    0    0 -0.16253974180E+03 -0.52392180368E+02  0.71932553804E+03  0.74367899332E+03  0.80405890327E+02 0.  0.
        254    2    1    2    0    0  0.16253974180E+03  0.52392180368E+02  0.18993771481E+03  0.93476187153E+03  0.89918814089E+03 0.  0.
         23    2    4    4    0    0  0.47585094831E+03  0.24147503387E+02 -0.10218327488E+03  0.49595386397E+03  0.92258260312E+02 0.  0.
         23    2    4    4    0    0 -0.31331120651E+03  0.28244676981E+02  0.29212098969E+03  0.43880800755E+03  0.90863199220E+02 0.  0.
          4    1    3    3  502    0 -0.15595443729E+02  0.13886163340E+02  0.16730927721E+03  0.16860734753E+03  0.00000000000E+00 0. -1.
         -3    1    3    3    0  502 -0.14694429807E+03 -0.66278343708E+02  0.55201626083E+03  0.57507164580E+03  0.00000000000E+00 0.  1.
         13    1    5    5    0    0  0.41414788424E+03  0.51253398387E+02 -0.96505446325E+02  0.42832077003E+03  0.00000000000E+00 0.  1.
        -13    1    5    5    0    0  0.61703064072E+02 -0.27105895000E+02 -0.56778285562E+01  0.67633093946E+02  0.00000000000E+00 0. -1.
          1    1    6    6  503    0 -0.46694590979E+02 -0.21964478853E+02  0.76401116218E+02  0.92195193569E+02  0.00000000000E+00 0. -1.
         -1    1    6    6    0  503 -0.26661661553E+03  0.50209155834E+02  0.21571987347E+03  0.34661281398E+03  0.00000000000E+00 0.  1.
<mgrwt>
<rscale>  0 0.14108168E+04</rscale>
<asrwt>0</asrwt>
<pdfrwt beam="1">  1        2 0.59167509E-01 0.14108168E+04</pdfrwt>
<pdfrwt beam="2">  1       -1 0.19905416E+00 0.14108168E+04</pdfrwt>
<totfact> 0.14133515E+01</totfact>
</mgrwt>
</event>
<event>
12    7  0.1740517E-007  0.1812910E+04  0.7818608E-02  0.8699464E-01
         -1   -1    0    0    0  501 -0.00000000000E+00  0.00000000000E+00  0.51498188547E+03  0.51498188547E+03  0.00000000000E+00 0.  1.
          2   -1    0    0  501    0  0.00000000000E+00 -0.00000000000E+00 -0.15955144101E+04  0.15955144101E+04  0.00000000000E+00 0. -1.
         24    2    1    2    0    0 -0.65301181799E+03 -0.46223042804E+02 -0.19611614281E+03  0.68790764606E+03  0.78704408427E+02 0.  0.
        254    2    1    2    0    0  0.65301181799E+03  0.46223042804E+02 -0.88441638181E+03  0.14225886495E+04  0.90166796835E+03 0.  0.
         23    2    4    4    0    0  0.53391583239E+03 -0.16282119302E+03 -0.71351941739E+02  0.57019245361E+03  0.91931918270E+02 0.  0.
         23    2    4    4    0    0  0.11909598561E+03  0.20904423582E+03 -0.81306444007E+03  0.85239619589E+03  0.87304895321E+02 0.  0.
          2    1    3    3  502    0 -0.38311411490E+03 -0.26016498247E+02 -0.15522235673E+03  0.41418264479E+03  0.00000000000E+00 0. -1.
         -1    1    3    3    0  502 -0.26989770310E+03 -0.20206544556E+02 -0.40893786082E+02  0.27372500127E+03  0.00000000000E+00 0.  1.
         13    1    5    5    0    0  0.33918895998E+03 -0.91322296527E+02 -0.87889628002E+02  0.36209598054E+03  0.00000000000E+00 0. -1.
        -13    1    5    5    0    0  0.19472687241E+03 -0.71498896489E+02  0.16537686262E+02  0.20809647307E+03  0.00000000000E+00 0.  1.
          1    1    6    6  503    0  0.53928970323E+02  0.15640090840E+03 -0.44082346893E+03  0.47084488820E+03  0.00000000000E+00 0. -1.
         -1    1    6    6    0  503  0.65167015286E+02  0.52643327421E+02 -0.37224097114E+03  0.38155130769E+03  0.00000000000E+00 0.  1.
<mgrwt>
<rscale>  0 0.18129104E+04</rscale>
<asrwt>0</asrwt>
<pdfrwt beam="1">  1        2 0.24546376E+00 0.18129104E+04</pdfrwt>
<pdfrwt beam="2">  1       -1 0.79227981E-01 0.18129104E+04</pdfrwt>
<totfact> 0.19191002E+01</totfact>
</mgrwt>
</event>
<event>
12    7  0.1740517E-007  0.3007211E+04  0.7818608E-02  0.8241675E-01
          2   -1    0    0  501    0  0.00000000000E+00  0.00000000000E+00  0.31312864673E+04  0.31312864673E+04  0.00000000000E+00 0. -1.
         -1   -1    0    0    0  501 -0.00000000000E+00 -0.00000000000E+00 -0.72201311877E+03  0.72201311877E+03  0.00000000000E+00 0.  1.
         24    2    1    2    0    0  0.86550155252E+03 -0.16880648654E+03  0.24181189611E+04  0.25751259462E+04  0.79910957581E+02 0.  0.
        254    2    1    2    0    0 -0.86550155252E+03  0.16880648654E+03 -0.88456125713E+01  0.12781736399E+04  0.92523566816E+03 0.  0.
         23    2    4    4    0    0  0.16232432621E+03 -0.34391282236E+02  0.11134618648E+03  0.21966775485E+03  0.91235969355E+02 0.  0.
         23    2    4    4    0    0 -0.10278258787E+04  0.20319776878E+03 -0.12019179905E+03  0.10585058851E+04  0.90957517454E+02 0.  0.
          2    1    3    3  502    0  0.51993309396E+03 -0.10293572638E+03  0.13377070568E+04  0.14388837186E+04  0.00000000000E+00 0. -1.
         -3    1    3    3    0  502  0.34556845856E+03 -0.65870760166E+02  0.10804119044E+04  0.11362422276E+04  0.00000000000E+00 0.  1.
         13    1    5    5    0    0  0.16185807310E+03 -0.52401605125E+02  0.10749623178E+03  0.20124463693E+03  0.00000000000E+00 0. -1.
        -13    1    5    5    0    0  0.46625310751E+00  0.18010322889E+02  0.38499546968E+01  0.18423117914E+02  0.00000000000E+00 0.  1.
          3    1    6    6  503    0 -0.84990325532E+03  0.17829799685E+03 -0.66256819679E+02  0.87092805974E+03  0.00000000000E+00 0. -1.
         -3    1    6    6    0  503 -0.17792262341E+03  0.24899771932E+02 -0.53934979371E+02  0.18757782535E+03  0.00000000000E+00 0.  1.
<mgrwt>
<rscale>  0 0.30072113E+04</rscale>
<asrwt>0</asrwt>
<pdfrwt beam="1">  1        2 0.48173637E+00 0.30072113E+04</pdfrwt>
<pdfrwt beam="2">  1       -1 0.11107894E+00 0.30072113E+04</pdfrwt>
<totfact> 0.10407121E+00</totfact>
</mgrwt>
</event>
<event>
12    7  0.1740517E-007  0.1568412E+04  0.7818608E-02  0.8840192E-01
         -1   -1    0    0    0  501 -0.00000000000E+00  0.00000000000E+00  0.72788167641E+03  0.72788167641E+03  0.00000000000E+00 0.  1.
          2   -1    0    0  501    0  0.00000000000E+00 -0.00000000000E+00 -0.84488883638E+03  0.84488883638E+03  0.00000000000E+00 0. -1.
         24    2    1    2    0    0 -0.49348561478E+03 -0.10352193077E+03 -0.16431982334E+03  0.53625813478E+03  0.79542068270E+02 0.  0.
        254    2    1    2    0    0  0.49348561478E+03  0.10352193077E+03  0.47312663369E+02  0.10365123780E+04  0.90436418522E+03 0.  0.
         23    2    4    4    0    0  0.48145366374E+03 -0.21088618113E+03 -0.25493038213E+03  0.59126801093E+03  0.91311276964E+02 0.  0.
         23    2    4    4    0    0  0.12031951042E+02  0.31440811190E+03  0.30224304550E+03  0.44524436708E+03  0.88850769240E+02 0.  0.
          2    1    3    3  502    0 -0.35494250218E+03 -0.37859155352E+02 -0.10820819916E+03  0.37299666201E+03  0.00000000000E+00 0. -1.
         -1    1    3    3    0  502 -0.13854311260E+03 -0.65662775417E+02 -0.56111624176E+02  0.16326147277E+03  0.00000000000E+00 0.  1.
         13    1    5    5    0    0  0.29586795954E+03 -0.13791898636E+03 -0.10896709107E+03  0.34414142909E+03  0.00000000000E+00 0. -1.
        -13    1    5    5    0    0  0.18558570420E+03 -0.72967194765E+02 -0.14596329106E+03  0.24712658184E+03  0.00000000000E+00 0.  1.
          2    1    6    6  503    0  0.22886628676E+02  0.17183849603E+03  0.10870845946E+03  0.20462110264E+03  0.00000000000E+00 0. -1.
         -2    1    6    6    0  503 -0.10854677634E+02  0.14256961587E+03  0.19353458604E+03  0.24062326444E+03  0.00000000000E+00 0.  1.
<mgrwt>
<rscale>  0 0.15684121E+04</rscale>
<asrwt>0</asrwt>
<pdfrwt beam="1">  1        2 0.12998290E+00 0.15684121E+04</pdfrwt>
<pdfrwt beam="2">  1       -1 0.11198180E+00 0.15684121E+04</pdfrwt>
<totfact> 0.25692676E+01</totfact>
</mgrwt>
</event>
<event>
12    7  0.1740517E-007  0.1952808E+04  0.7818608E-02  0.8629008E-01
         -1   -1    0    0    0  501 -0.00000000000E+00  0.00000000000E+00  0.17927088688E+04  0.17927088688E+04  0.00000000000E+00 0.  1.
          2   -1    0    0  501    0  0.00000000000E+00 -0.00000000000E+00 -0.53180115465E+03  0.53180115465E+03  0.00000000000E+00 0. -1.
         24    2    1    2    0    0 -0.35664205760E+03 -0.12873125793E+03  0.13300644861E+04  0.13853443032E+04  0.79636720069E+02 0.  0.
        254    2    1    2    0    0  0.35664205760E+03  0.12873125793E+03 -0.69156771894E+02  0.93916572031E+03  0.85643697788E+03 0.  0.
         23    2    4    4    0    0  0.60091205178E+03  0.21571978131E+03 -0.12880694522E+03  0.65762556444E+03  0.90828606988E+02 0.  0.
         23    2    4    4    0    0 -0.24426999418E+03 -0.86988523378E+02  0.59650173324E+02  0.28154015587E+03  0.92042832060E+02 0.  0.
          4    1    3    3  502    0 -0.27920679604E+03 -0.11470910834E+03  0.93495460070E+03  0.98247377566E+03  0.00000000000E+00 0. -1.
         -3    1    3    3    0  502 -0.77435261557E+02 -0.14022149590E+02  0.39510988539E+03  0.40287052752E+03  0.00000000000E+00 0.  1.
         13    1    5    5    0    0  0.42292878173E+03  0.11209687670E+03 -0.10772404535E+03  0.45059841780E+03  0.00000000000E+00 0. -1.
        -13    1    5    5    0    0  0.17798327005E+03  0.10362290461E+03 -0.21082899864E+02  0.20702714663E+03  0.00000000000E+00 0.  1.
          3    1    6    6  503    0 -0.18251874379E+03 -0.10477110498E+03  0.52355727985E+02  0.21686677598E+03  0.00000000000E+00 0. -1.
         -3    1    6    6    0  503 -0.61751250388E+02  0.17782581600E+02  0.72944453389E+01  0.64673379884E+02  0.00000000000E+00 0.  1.
<mgrwt>
<rscale>  0 0.19528079E+04</rscale>
<asrwt>0</asrwt>
<pdfrwt beam="1">  1        2 0.81815563E-01 0.19528079E+04</pdfrwt>
<pdfrwt beam="2">  1       -1 0.27580136E+00 0.19528079E+04</pdfrwt>
<totfact> 0.28927817E+00</totfact>
</mgrwt>
</event>
<event>
12    7  0.1740517E-007  0.2584054E+04  0.7818608E-02  0.8373638E-01
         -1   -1    0    0    0  501 -0.00000000000E+00  0.00000000000E+00  0.18851810912E+04  0.18851810912E+04  0.00000000000E+00 0.  1.
          2   -1    0    0  501    0  0.00000000000E+00 -0.00000000000E+00 -0.88550313092E+03  0.88550313092E+03  0.00000000000E+00 0. -1.
         24    2    1    2    0    0  0.69832050666E+03  0.43850779214E+02 -0.51584775398E+03  0.87315537363E+03  0.82018170948E+02 0.  0.
        254    2    1    2    0    0 -0.69832050666E+03 -0.43850779214E+02  0.15155257142E+04  0.18975288485E+04  0.90234312732E+03 0.  0.
         23    2    4    4    0    0 -0.75485672110E+03  0.13370325116E+02  0.58448207887E+03  0.95855606689E+03  0.84988221863E+02 0.  0.
         23    2    4    4    0    0  0.56536214444E+02 -0.57221104331E+02  0.93104363536E+03  0.93897278159E+03  0.91416821659E+02 0.  0.
          2    1    3    3  502    0  0.45175022294E+03  0.67391760012E+02 -0.32970306465E+03  0.56331520846E+03  0.00000000000E+00 0. -1.
         -3    1    3    3    0  502  0.24657028372E+03 -0.23540980798E+02 -0.18614468932E+03  0.30984016517E+03  0.00000000000E+00 0.  1.
         13    1    5    5    0    0 -0.35898998515E+03 -0.27521211811E+02  0.30994322129E+03  0.47507475934E+03  0.00000000000E+00 0. -1.
        -13    1    5    5    0    0 -0.39586673595E+03  0.40891536928E+02  0.27453885759E+03  0.48348130755E+03  0.00000000000E+00 0.  1.
          2    1    6    6  503    0  0.71268454751E+02 -0.33162954104E+02  0.83972079143E+03  0.84339195024E+03  0.00000000000E+00 0. -1.
         -2    1    6    6    0  503 -0.14732240306E+02 -0.24058150227E+02  0.91322843934E+02  0.95580831347E+02  0.00000000000E+00 0.  1.
<mgrwt>
<rscale>  0 0.25840540E+04</rscale>
<asrwt>0</asrwt>
<pdfrwt beam="1">  1        2 0.13623125E+00 0.25840540E+04</pdfrwt>
<pdfrwt beam="2">  1       -1 0.29002786E+00 0.25840540E+04</pdfrwt>
<totfact> 0.11610154E+00</totfact>
</mgrwt>
</event>
<event>
12    7  0.1740517E-007  0.2317592E+04  0.7818608E-02  0.8471017E-01
         -1   -1    0    0    0  501 -0.00000000000E+00  0.00000000000E+00  0.77171216631E+03  0.77171216631E+03  0.00000000000E+00 0.  1.
          2   -1    0    0  501    0  0.00000000000E+00 -0.00000000000E+00 -0.17400374822E+04  0.17400374822E+04  0.00000000000E+00 0. -1.
         24    2    1    2    0    0 -0.95221693730E+03 -0.13149129583E+03 -0.18861297967E+03  0.98275764582E+03  0.78934642299E+02 0.  0.
        254    2    1    2    0    0  0.95221693730E+03  0.13149129583E+03 -0.77971233620E+03  0.15289920027E+04  0.89769602896E+03 0.  0.
         23    2    4    4    0    0  0.25501834056E+03  0.34382586885E+02  0.18607551805E+03  0.33040093759E+03  0.91236861191E+02 0.  0.
         23    2    4    4    0    0  0.69719859675E+03  0.97108708943E+02 -0.96578785425E+03  0.11985910651E+04  0.91424160816E+02 0.  0.
          2    1    3    3  502    0 -0.83796242922E+02 -0.13816336945E+02 -0.40049668537E+02  0.93897164198E+02  0.00000000000E+00 0. -1.
         -1    1    3    3    0  502 -0.86842069438E+03 -0.11767495888E+03 -0.14856331113E+03  0.88886048163E+03  0.00000000000E+00 0.  1.
         13    1    5    5    0    0  0.58381987960E+02 -0.10501100595E+02  0.88000205442E+02  0.10612617863E+03  0.00000000000E+00 0.  1.
        -13    1    5    5    0    0  0.19663635260E+03  0.44883687481E+02  0.98075312611E+02  0.22427475896E+03  0.00000000000E+00 0. -1.
          4    1    6    6  503    0  0.66805325104E+03  0.96074656906E+02 -0.95024754091E+03  0.11655453123E+04  0.00000000000E+00 0. -1.
         -4    1    6    6    0  503  0.29145345703E+02  0.10340520366E+01 -0.15540313343E+02  0.33045752806E+02  0.00000000000E+00 0.  1.
<mgrwt>
<rscale>  0 0.23175919E+04</rscale>
<asrwt>0</asrwt>
<pdfrwt beam="1">  1        2 0.26769807E+00 0.23175919E+04</pdfrwt>
<pdfrwt beam="2">  1       -1 0.11872495E+00 0.23175919E+04</pdfrwt>
<totfact> 0.61027651E+00</totfact>
</mgrwt>
</event>
<event>
12    7  0.1740517E-007  0.2955978E+04  0.7818608E-02  0.8256414E-01
          2   -1    0    0  501    0  0.00000000000E+00  0.00000000000E+00  0.17237594161E+04  0.17237594161E+04  0.00000000000E+00 0. -1.
         -1   -1    0    0    0  501 -0.00000000000E+00 -0.00000000000E+00 -0.12672604360E+04  0.12672604360E+04  0.00000000000E+00 0.  1.
         24    2    1    2    0    0  0.10506564983E+04 -0.63681829041E+03 -0.32578280659E+03  0.12735079805E+04  0.79192973114E+02 0.  0.
        254    2    1    2    0    0 -0.10506564983E+04  0.63681829041E+03  0.78228178671E+03  0.17175118715E+04  0.91020086937E+03 0.  0.
         23    2    4    4    0    0 -0.55000667703E+03  0.55548832701E+03  0.89315603447E+03  0.11904327095E+04  0.91256275187E+02 0.  0.
         23    2    4    4    0    0 -0.50064982129E+03  0.81329963398E+02 -0.11087424777E+03  0.52707916201E+03  0.90854486453E+02 0.  0.
          2    1    3    3  502    0  0.42505341911E+03 -0.27425685135E+03 -0.17174111380E+03  0.53421179300E+03  0.00000000000E+00 0. -1.
         -1    1    3    3    0  502  0.62560307920E+03 -0.36256143906E+03 -0.15404169279E+03  0.73929618754E+03  0.00000000000E+00 0.  1.
         13    1    5    5    0    0 -0.11139831395E+03  0.16389586067E+03  0.20133065613E+03  0.28249862052E+03  0.00000000000E+00 0.  1.
        -13    1    5    5    0    0 -0.43860836308E+03  0.39159246634E+03  0.69182537834E+03  0.90793408900E+03  0.00000000000E+00 0. -1.
          2    1    6    6  503    0 -0.44377738637E+03  0.90045032558E+02 -0.12088461119E+03  0.46867853137E+03  0.00000000000E+00 0. -1.
         -2    1    6    6    0  503 -0.56872434912E+02 -0.87150691600E+01  0.10010363425E+02  0.58400630640E+02  0.00000000000E+00 0.  1.
<mgrwt>
<rscale>  0 0.29559784E+04</rscale>
<asrwt>0</asrwt>
<pdfrwt beam="1">  1        2 0.26519376E+00 0.29559784E+04</pdfrwt>
<pdfrwt beam="2">  1       -1 0.19496314E+00 0.29559784E+04</pdfrwt>
<totfact> 0.15173246E+00</totfact>
</mgrwt>
</event>
<event>
12    7  0.1747370E-007  0.2200043E+04  0.7818608E-02  0.8518410E-01
          2   -1    0    0  501    0  0.00000000000E+00  0.00000000000E+00  0.23460023011E+04  0.23460023011E+04  0.00000000000E+00 0. -1.
         -1   -1    0    0    0  501 -0.00000000000E+00 -0.00000000000E+00 -0.51579108954E+03  0.51579108954E+03  0.00000000000E+00 0.  1.
         24    2    1    2    0    0  0.85863316342E+03  0.12824393962E+03  0.11300285142E+04  0.14273263449E+04  0.81231979944E+02 0.  0.
        254    2    1    2    0    0 -0.85863316342E+03 -0.12824393962E+03  0.70018269735E+03  0.14344670457E+04  0.90207675849E+03 0.  0.
         23    2    4    4    0    0  0.24600754490E+02 -0.23827851449E+02  0.51166896278E+03  0.52074726592E+03  0.90551774516E+02 0.  0.
         23    2    4    4    0    0 -0.88323391791E+03 -0.10441608817E+03  0.18851373457E+03  0.91371977980E+03  0.91332002358E+02 0.  0.
          4    1    3    3  502    0  0.71119014076E+03  0.94674285178E+02  0.88361007008E+03  0.11382097314E+04  0.00000000000E+00 0. -1.
         -3    1    3    3    0  502  0.14744302266E+03  0.33569654440E+02  0.24641844409E+03  0.28911661353E+03  0.00000000000E+00 0.  1.
         13    1    5    5    0    0  0.44066790522E+02 -0.17244964763E+02  0.48386715503E+03  0.48617557996E+03  0.00000000000E+00 0.  1.
        -13    1    5    5    0    0 -0.19466036032E+02 -0.65828866864E+01  0.27801807753E+02  0.34571685962E+02  0.00000000000E+00 0. -1.
          3    1    6    6  503    0 -0.42332014762E+02 -0.19645064382E+02 -0.42194955112E+01  0.46858640300E+02  0.00000000000E+00 0. -1.
         -3    1    6    6    0  503 -0.84090190315E+03 -0.84771023786E+02  0.19273323008E+03  0.86686113950E+03  0.00000000000E+00 0.  1.
<mgrwt>
<rscale>  0 0.22000428E+04</rscale>
<asrwt>0</asrwt>
<pdfrwt beam="1">  1        2 0.36092343E+00 0.22000428E+04</pdfrwt>
<pdfrwt beam="2">  1       -1 0.79352477E-01 0.22000428E+04</pdfrwt>
<totfact> 0.70466189E+00</totfact>
</mgrwt>
</event>
<event>
12    7  0.1740517E-007  0.1825887E+04  0.7818608E-02  0.8692653E-01
          2   -1    0    0  501    0  0.00000000000E+00  0.00000000000E+00  0.36783478060E+04  0.36783478060E+04  0.00000000000E+00 0. -1.
         -1   -1    0    0    0  501 -0.00000000000E+00 -0.00000000000E+00 -0.22658711590E+03  0.22658711590E+03  0.00000000000E+00 0.  1.
         24    2    1    2    0    0  0.35025016495E+03 -0.58447065322E+03  0.11173435965E+04  0.13110862698E+04  0.78799566350E+02 0.  0.
        254    2    1    2    0    0 -0.35025016495E+03  0.58447065322E+03  0.23344170935E+04  0.25938486521E+04  0.90236718729E+03 0.  0.
         23    2    4    4    0    0 -0.49976392881E+02 -0.27249267617E+02  0.15380920358E+04  0.15417905334E+04  0.90281647274E+02 0.  0.
         23    2    4    4    0    0 -0.30027377207E+03  0.61171992083E+03  0.79632505773E+03  0.10520581187E+04  0.91252878019E+02 0.  0.
          2    1    3    3  502    0 -0.17952276763E+01  0.11529785461E+01  0.13495542878E+01  0.25245789180E+01  0.00000000000E+00 0. -1.
         -1    1    3    3    0  502  0.35204539262E+03 -0.58562363176E+03  0.11159940422E+04  0.13085616909E+04  0.00000000000E+00 0.  1.
         13    1    5    5    0    0 -0.82975721942E+01  0.25657840792E+02  0.84584013574E+03  0.84626987996E+03  0.00000000000E+00 0. -1.
        -13    1    5    5    0    0 -0.41678820687E+02 -0.52907108409E+02  0.69225190005E+03  0.69552065343E+03  0.00000000000E+00 0.  1.
          3    1    6    6  503    0 -0.13966528850E+03  0.27262250291E+03  0.28961181895E+03  0.42155002975E+03  0.00000000000E+00 0. -1.
         -3    1    6    6    0  503 -0.16060848357E+03  0.33909741792E+03  0.50671323878E+03  0.63050808892E+03  0.00000000000E+00 0.  1.
<mgrwt>
<rscale>  0 0.18258874E+04</rscale>
<asrwt>0</asrwt>
<pdfrwt beam="1">  1        2 0.56589962E+00 0.18258874E+04</pdfrwt>
<pdfrwt beam="2">  1       -1 0.34859559E-01 0.18258874E+04</pdfrwt>
<totfact> 0.51261596E+00</totfact>
</mgrwt>
</event>
<event>
12    7  0.1740517E-007  0.1416244E+04  0.7818608E-02  0.8942143E-01
         -1   -1    0    0    0  501 -0.00000000000E+00  0.00000000000E+00  0.32965616574E+03  0.32965616574E+03  0.00000000000E+00 0.  1.
          2   -1    0    0  501    0  0.00000000000E+00 -0.00000000000E+00 -0.15210909759E+04  0.15210909759E+04  0.00000000000E+00 0. -1.
         24    2    1    2    0    0  0.75736690670E+02 -0.32841793392E+02 -0.81359539292E+03  0.82186459841E+03  0.81910469549E+02 0.  0.
        254    2    1    2    0    0 -0.75736690670E+02  0.32841793392E+02 -0.37783941720E+03  0.10288825432E+04  0.95342646953E+03 0.  0.
         23    2    4    4    0    0 -0.70709806344E+02  0.30321065936E+03 -0.58969977865E+03  0.67305544236E+03  0.91220715176E+02 0.  0.
         23    2    4    4    0    0 -0.50268843257E+01 -0.27036886597E+03  0.21186036145E+03  0.35582710084E+03  0.92755159886E+02 0.  0.
          2    1    3    3  502    0  0.24842924351E+02 -0.44186454050E+02 -0.59418710476E+03  0.59634547795E+03  0.00000000000E+00 0. -1.
         -1    1    3    3    0  502  0.50893766319E+02  0.11344660658E+02 -0.21940828816E+03  0.22551912045E+03  0.00000000000E+00 0.  1.
         13    1    5    5    0    0  0.12625584016E+02  0.60448046572E+02 -0.17255103106E+03  0.18326819153E+03  0.00000000000E+00 0. -1.
        -13    1    5    5    0    0 -0.83335390360E+02  0.24276261279E+03 -0.41714874760E+03  0.48978725083E+03  0.00000000000E+00 0.  1.
          1    1    6    6  503    0  0.17272981590E+02 -0.15615103278E+02  0.44437499648E+02  0.50168503250E+02  0.00000000000E+00 0. -1.
         -1    1    6    6    0  503 -0.22299865915E+02 -0.25475376269E+03  0.16742286180E+03  0.30565859759E+03  0.00000000000E+00 0.  1.
<mgrwt>
<rscale>  0 0.14162444E+04</rscale>
<asrwt>0</asrwt>
<pdfrwt beam="1">  1        2 0.23401400E+00 0.14162444E+04</pdfrwt>
<pdfrwt beam="2">  1       -1 0.50716333E-01 0.14162444E+04</pdfrwt>
<totfact> 0.53436918E+01</totfact>
</mgrwt>
</event>
<event>
12    7  0.1740517E-007  0.1908216E+04  0.7818608E-02  0.8650777E-01
         -1   -1    0    0    0  501 -0.00000000000E+00  0.00000000000E+00  0.90532088038E+03  0.90532088038E+03  0.00000000000E+00 0.  1.
          2   -1    0    0  501    0  0.00000000000E+00 -0.00000000000E+00 -0.10055243177E+04  0.10055243177E+04  0.00000000000E+00 0. -1.
         24    2    1    2    0    0  0.58705129434E+03 -0.53083355613E+03 -0.77878506824E+02  0.79935088072E+03  0.80518831267E+02 0.  0.
        254    2    1    2    0    0 -0.58705129434E+03  0.53083355613E+03 -0.22324930521E+02  0.11114943174E+04  0.78006905372E+03 0.  0.
         23    2    4    4    0    0 -0.30410064182E+03  0.41842947934E+01 -0.30779720928E+03  0.44222728014E+03  0.91275060051E+02 0.  0.
         23    2    4    4    0    0 -0.28295065252E+03  0.52664926133E+03  0.28547227875E+03  0.66926703725E+03  0.94886400442E+02 0.  0.
          2    1    3    3  502    0  0.47247055104E+03 -0.45708508775E+03 -0.85244584805E+02  0.66288900902E+03  0.00000000000E+00 0. -1.
         -1    1    3    3    0  502  0.11458074329E+03 -0.73748468377E+02  0.73660779815E+01  0.13646187169E+03  0.00000000000E+00 0.  1.
         13    1    5    5    0    0 -0.29142056450E+02  0.86126561016E+01 -0.12546459810E+01  0.30414000655E+02  0.00000000000E+00 0.  1.
        -13    1    5    5    0    0 -0.27495858537E+03 -0.44283613082E+01 -0.30654256329E+03  0.41181327949E+03  0.00000000000E+00 0. -1.
          1    1    6    6  503    0 -0.17635049489E+03  0.33260557181E+03  0.22950236775E+03  0.44090509211E+03  0.00000000000E+00 0. -1.
         -1    1    6    6    0  503 -0.10660015763E+03  0.19404368952E+03  0.55969911008E+02  0.22836194514E+03  0.00000000000E+00 0.  1.
<mgrwt>
<rscale>  0 0.19082161E+04</rscale>
<asrwt>0</asrwt>
<pdfrwt beam="1">  1        2 0.15469605E+00 0.19082161E+04</pdfrwt>
<pdfrwt beam="2">  1       -1 0.13928014E+00 0.19082161E+04</pdfrwt>
<totfact> 0.11333775E+01</totfact>
</mgrwt>
</event>
<event>
12    7  0.1740517E-007  0.1943394E+04  0.7818608E-02  0.8633553E-01
          2   -1    0    0  501    0  0.00000000000E+00  0.00000000000E+00  0.30453843656E+04  0.30453843656E+04  0.00000000000E+00 0. -1.
         -1   -1    0    0    0  501 -0.00000000000E+00 -0.00000000000E+00 -0.31004140676E+03  0.31004140676E+03  0.00000000000E+00 0.  1.
         24    2    1    2    0    0  0.44038999714E+03 -0.60097396050E+03  0.11934048643E+04  0.14091804603E+04  0.80382516314E+02 0.  0.
        254    2    1    2    0    0 -0.44038999714E+03  0.60097396050E+03  0.15419380945E+04  0.19462453120E+04  0.92476195657E+03 0.  0.
         23    2    4    4    0    0  0.14826779098E+03  0.16863304990E+03  0.72491963620E+01  0.24443689511E+03  0.96314077277E+02 0.  0.
         23    2    4    4    0    0 -0.58865778812E+03  0.43234091060E+03  0.15346888982E+04  0.17018084169E+04  0.86285683175E+02 0.  0.
          4    1    3    3  502    0  0.15676432342E+03 -0.16679051717E+03  0.32068120030E+03  0.39399309884E+03  0.00000000000E+00 0. -1.
         -3    1    3    3    0  502  0.28362567372E+03 -0.43418344333E+03  0.87272366396E+03  0.10151873615E+04  0.00000000000E+00 0.  1.
         13    1    5    5    0    0 -0.89054451143E+01  0.26056997340E+02 -0.14496845408E+02  0.31119649578E+02  0.00000000000E+00 0. -1.
        -13    1    5    5    0    0  0.15717323610E+03  0.14257605256E+03  0.21746041770E+02  0.21331724553E+03  0.00000000000E+00 0.  1.
          3    1    6    6  503    0 -0.82881041896E+01  0.38647493134E+01  0.53576598546E+02  0.54351456927E+02  0.00000000000E+00 0. -1.
         -3    1    6    6    0  503 -0.58036968393E+03  0.42847616129E+03  0.14811122996E+04  0.16474569600E+04  0.00000000000E+00 0.  1.
<mgrwt>
<rscale>  0 0.19433942E+04</rscale>
<asrwt>0</asrwt>
<pdfrwt beam="1">  1        2 0.46852065E+00 0.19433942E+04</pdfrwt>
<pdfrwt beam="2">  1       -1 0.47698680E-01 0.19433942E+04</pdfrwt>
<totfact> 0.76251622E+00</totfact>
</mgrwt>
</event>
<event>
12    7  0.1740517E-007  0.1411413E+04  0.7818608E-02  0.8945599E-01
          4   -1    0    0  501    0  0.00000000000E+00  0.00000000000E+00  0.60463078994E+03  0.60463078994E+03  0.00000000000E+00 0. -1.
         -3   -1    0    0    0  501 -0.00000000000E+00 -0.00000000000E+00 -0.82367872118E+03  0.82367872118E+03  0.00000000000E+00 0.  1.
         24    2    1    2    0    0  0.12296734301E+02  0.35662379978E+03 -0.29711267450E+03  0.47058613762E+03  0.76443621892E+02 0.  0.
        254    2    1    2    0    0 -0.12296734301E+02 -0.35662379978E+03  0.78064743266E+02  0.95772337350E+03  0.88532943686E+03 0.  0.
         23    2    4    4    0    0 -0.66605913441E+02 -0.34216632024E+03 -0.35783388445E+03  0.50852066754E+03  0.95047577772E+02 0.  0.
         23    2    4    4    0    0  0.54309179141E+02 -0.14457479535E+02  0.43589862772E+03  0.44920270596E+03  0.92827537644E+02 0.  0.
          4    1    3    3  502    0 -0.14212010909E+02  0.54595460624E+02 -0.79077134842E+02  0.97138245968E+02  0.00000000000E+00 0. -1.
         -3    1    3    3    0  502  0.26508745210E+02  0.30202833915E+03 -0.21803553966E+03  0.37344789165E+03  0.00000000000E+00 0.  1.
         13    1    5    5    0    0 -0.74961335565E+02 -0.31170267782E+03 -0.35250686611E+03  0.47648594087E+03  0.00000000000E+00 0. -1.
        -13    1    5    5    0    0  0.83554221235E+01 -0.30463642420E+02 -0.53270183378E+01  0.32034726668E+02  0.00000000000E+00 0.  1.
          2    1    6    6  503    0  0.56044711071E+02 -0.22665703943E+02  0.43661689018E+03  0.44078231880E+03  0.00000000000E+00 0. -1.
         -2    1    6    6    0  503 -0.17355319303E+01  0.82082244079E+01 -0.71826246449E+00  0.84203871633E+01  0.00000000000E+00 0.  1.
<mgrwt>
<rscale>  0 0.14114128E+04</rscale>
<asrwt>0</asrwt>
<pdfrwt beam="1">  1        4 0.93020122E-01 0.14114128E+04</pdfrwt>
<pdfrwt beam="2">  1       -3 0.12671980E+00 0.14114128E+04</pdfrwt>
<totfact> 0.10778226E+00</totfact>
</mgrwt>
</event>
<event>
12    7  0.1740517E-007  0.3293682E+04  0.7818608E-02  0.8164505E-01
         -1   -1    0    0    0  501 -0.00000000000E+00  0.00000000000E+00  0.72048385370E+03  0.72048385370E+03  0.00000000000E+00 0.  1.
          2   -1    0    0  501    0  0.00000000000E+00 -0.00000000000E+00 -0.37642556574E+04  0.37642556574E+04  0.00000000000E+00 0. -1.
         24    2    1    2    0    0 -0.45196047232E+02  0.35763586765E+03  0.60610299222E+03  0.70964375800E+03  0.79292683004E+02 0.  0.
        254    2    1    2    0    0  0.45196047232E+02 -0.35763586765E+03 -0.36498747959E+04  0.37750957531E+04  0.89432422682E+03 0.  0.
         23    2    4    4    0    0  0.35601482863E+03  0.10912763316E+03 -0.17623468232E+04  0.18038468125E+04  0.96651948109E+02 0.  0.
         23    2    4    4    0    0 -0.31081878140E+03 -0.46676350081E+03 -0.18875279727E+04  0.19712489406E+04  0.92650189415E+02 0.  0.
          2    1    3    3  502    0  0.18085542657E+02  0.65940528348E+02  0.14579889728E+03  0.16103589221E+03  0.00000000000E+00 0. -1.
         -3    1    3    3    0  502 -0.63281589890E+02  0.29169533931E+03  0.46030409494E+03  0.54860786579E+03  0.00000000000E+00 0.  1.
         13    1    5    5    0    0  0.16402189505E+03  0.63529175783E+02 -0.61523004302E+03  0.63988057015E+03  0.00000000000E+00 0. -1.
        -13    1    5    5    0    0  0.19199293359E+03  0.45598457372E+02 -0.11471167802E+04  0.11639662423E+04  0.00000000000E+00 0.  1.
          1    1    6    6  503    0 -0.20208905224E+03 -0.27667803306E+03 -0.99851144376E+03  0.10556589517E+04  0.00000000000E+00 0. -1.
         -1    1    6    6    0  503 -0.10872972916E+03 -0.19008546775E+03 -0.88901652891E+03  0.91558998888E+03  0.00000000000E+00 0.  1.
<mgrwt>
<rscale>  0 0.32936821E+04</rscale>
<asrwt>0</asrwt>
<pdfrwt beam="1">  1        2 0.57911625E+00 0.32936821E+04</pdfrwt>
<pdfrwt beam="2">  1       -1 0.11084367E+00 0.32936821E+04</pdfrwt>
<totfact> 0.37102081E-01</totfact>
</mgrwt>
</event>
<event>
12    7  0.1740517E-007  0.2187299E+04  0.7818608E-02  0.8523733E-01
         -1   -1    0    0    0  501 -0.00000000000E+00  0.00000000000E+00  0.75364584029E+03  0.75364584029E+03  0.00000000000E+00 0.  1.
          2   -1    0    0  501    0  0.00000000000E+00 -0.00000000000E+00 -0.15870436816E+04  0.15870436816E+04  0.00000000000E+00 0. -1.
         24    2    1    2    0    0 -0.21395542036E+03  0.76735953910E+03 -0.81117947121E+03  0.11391152278E+04  0.70383119225E+02 0.  0.
        254    2    1    2    0    0  0.21395542036E+03 -0.76735953910E+03 -0.22218370087E+02  0.12015742941E+04  0.89926055409E+03 0.  0.
         23    2    4    4    0    0 -0.26890798178E+03 -0.48033619406E+03 -0.21986326762E+03  0.59967659821E+03  0.90762349053E+02 0.  0.
         23    2    4    4    0    0  0.48286340214E+03 -0.28702334504E+03  0.19764489754E+03  0.60189769590E+03  0.87623427687E+02 0.  0.
          4    1    3    3  502    0 -0.19425720071E+03  0.73095703850E+03 -0.74916878553E+03  0.10645599661E+04  0.00000000000E+00 0. -1.
         -3    1    3    3    0  502 -0.19698219649E+02  0.36402500597E+02 -0.62010685683E+02  0.74555261692E+02  0.00000000000E+00 0.  1.
         13    1    5    5    0    0 -0.26906275243E+02 -0.11315732653E+02 -0.39890728449E+01  0.29460247030E+02  0.00000000000E+00 0.  1.
        -13    1    5    5    0    0 -0.24200170654E+03 -0.46902046140E+03 -0.21587419478E+03  0.57021635118E+03  0.00000000000E+00 0. -1.
          2    1    6    6  503    0  0.14961683739E+03 -0.13720286642E+03  0.64108332068E+02  0.21288424748E+03  0.00000000000E+00 0.  1.
         -2    1    6    6    0  503  0.33324656475E+03 -0.14982047862E+03  0.13353656547E+03  0.38901344842E+03  0.00000000000E+00 0. -1.
<mgrwt>
<rscale>  0 0.21872987E+04</rscale>
<asrwt>0</asrwt>
<pdfrwt beam="1">  1        2 0.24416057E+00 0.21872987E+04</pdfrwt>
<pdfrwt beam="2">  1       -1 0.11594551E+00 0.21872987E+04</pdfrwt>
<totfact> 0.79540249E+00</totfact>
</mgrwt>
</event>
<event>
12    7  0.1740517E-007  0.2088323E+04  0.7818608E-02  0.8566405E-01
         -1   -1    0    0    0  501 -0.00000000000E+00  0.00000000000E+00  0.67867067991E+03  0.67867067991E+03  0.00000000000E+00 0.  1.
          2   -1    0    0  501    0  0.00000000000E+00 -0.00000000000E+00 -0.16064828985E+04  0.16064828985E+04  0.00000000000E+00 0. -1.
         24    2    1    2    0    0  0.47150384596E+03  0.46015759261E+03 -0.96574611921E+03  0.11718084263E+04  0.80053321667E+02 0.  0.
        254    2    1    2    0    0 -0.47150384596E+03 -0.46015759261E+03  0.37933900641E+02  0.11133451521E+04  0.89668141507E+03 0.  0.
         23    2    4    4    0    0 -0.38589787816E+03 -0.24960944763E+03 -0.39745360485E+03  0.61384943998E+03  0.87290997476E+02 0.  0.
         23    2    4    4    0    0 -0.85605967795E+02 -0.21054814498E+03  0.43538750549E+03  0.49949571214E+03  0.90965836604E+02 0.  0.
          2    1    3    3  502    0  0.31528799633E+03  0.34028476665E+03 -0.72614685024E+03  0.86167829911E+03  0.00000000000E+00 0. -1.
         -1    1    3    3    0  502  0.15621584963E+03  0.11987282597E+03 -0.23959926897E+03  0.31013012716E+03  0.00000000000E+00 0.  1.
         13    1    5    5    0    0 -0.13609071178E+03 -0.45589309072E+02 -0.14745735824E+03  0.20577351490E+03  0.00000000000E+00 0.  1.
        -13    1    5    5    0    0 -0.24980716638E+03 -0.20402013856E+03 -0.24999624661E+03  0.40807592508E+03  0.00000000000E+00 0. -1.
          2    1    6    6  503    0 -0.68950178613E+02 -0.76492421848E+02  0.24765198280E+03  0.26821022037E+03  0.00000000000E+00 0. -1.
         -2    1    6    6    0  503 -0.16655789182E+02 -0.13405572314E+03  0.18773552270E+03  0.23128549176E+03  0.00000000000E+00 0.  1.
<mgrwt>
<rscale>  0 0.20883226E+04</rscale>
<asrwt>0</asrwt>
<pdfrwt beam="1">  1        2 0.24715121E+00 0.20883226E+04</pdfrwt>
<pdfrwt beam="2">  1       -1 0.10441087E+00 0.20883226E+04</pdfrwt>
<totfact> 0.10023205E+01</totfact>
</mgrwt>
</event>
<event>
12    7  0.1740517E-007  0.3680967E+04  0.7818608E-02  0.8072193E-01
         -1   -1    0    0    0  501 -0.00000000000E+00  0.00000000000E+00  0.18964712365E+04  0.18964712365E+04  0.00000000000E+00 0.  1.
          2   -1    0    0  501    0  0.00000000000E+00 -0.00000000000E+00 -0.17861484283E+04  0.17861484283E+04  0.00000000000E+00 0. -1.
         24    2    1    2    0    0  0.39641501921E+03  0.43173526365E+03  0.16798342343E+04  0.17816384255E+04  0.94086232287E+02 0.  0.
        254    2    1    2    0    0 -0.39641501921E+03 -0.43173526365E+03 -0.15695114261E+04  0.19009812394E+04  0.89823346113E+03 0.  0.
         23    2    4    4    0    0 -0.41276784234E+03  0.14852005201E+02 -0.13096188602E+04  0.13762332511E+04  0.91205968180E+02 0.  0.
         23    2    4    4    0    0  0.16352823134E+02 -0.44658726885E+03 -0.25989256587E+03  0.52474798834E+03  0.90048331174E+02 0.  0.
          2    1    3    3  502    0  0.13321460417E+03  0.88517035123E+02  0.50456111545E+03  0.52930455835E+03  0.00000000000E+00 0. -1.
         -1    1    3    3    0  502  0.26320041503E+03  0.34321822852E+03  0.11752731188E+04  0.12523338671E+04  0.00000000000E+00 0.  1.
         13    1    5    5    0    0 -0.32469985191E+02  0.37713964289E+01 -0.44972724995E+02  0.55597386294E+02  0.00000000000E+00 0.  1.
        -13    1    5    5    0    0 -0.38029785715E+03  0.11080608772E+02 -0.12646461352E+04  0.13206358648E+04  0.00000000000E+00 0. -1.
          4    1    6    6  503    0  0.16763757895E+02 -0.10583046383E+02 -0.99146424629E+01  0.22165842747E+02  0.00000000000E+00 0.  1.
         -4    1    6    6    0  503 -0.41093476119E+00 -0.43600422247E+03 -0.24997792341E+03  0.50258214559E+03  0.00000000000E+00 0. -1.
<mgrwt>
<rscale>  0 0.36809668E+04</rscale>
<asrwt>0</asrwt>
<pdfrwt beam="1">  1        2 0.27479207E+00 0.36809668E+04</pdfrwt>
<pdfrwt beam="2">  1       -1 0.29176481E+00 0.36809668E+04</pdfrwt>
<totfact> 0.30219190E-01</totfact>
</mgrwt>
</event>
<event>
12    7  0.1740517E-007  0.1316649E+04  0.7818608E-02  0.9016465E-01
         -1   -1    0    0    0  501 -0.00000000000E+00  0.00000000000E+00  0.96557140131E+03  0.96557140131E+03  0.00000000000E+00 0.  1.
          2   -1    0    0  501    0  0.00000000000E+00 -0.00000000000E+00 -0.44884439419E+03  0.44884439419E+03  0.00000000000E+00 0. -1.
         24    2    1    2    0    0 -0.32997423614E+02  0.34235178591E+03  0.10912828458E+03  0.36910508106E+03  0.77691718270E+02 0.  0.
        254    2    1    2    0    0  0.32997423614E+02 -0.34235178591E+03  0.40759872254E+03  0.10453107144E+04  0.89902402404E+03 0.  0.
         23    2    4    4    0    0 -0.20315586532E+03 -0.24009975134E+03 -0.19720517470E+03  0.38193359528E+03  0.89795289805E+02 0.  0.
         23    2    4    4    0    0  0.23615328893E+03 -0.10225203457E+03  0.60480389724E+03  0.66337711914E+03  0.89764099967E+02 0.  0.
          2    1    3    3  502    0 -0.52999843968E+02  0.22408331550E+03  0.91894994940E+02  0.24792540379E+03  0.00000000000E+00 0. -1.
         -1    1    3    3    0  502  0.20002420354E+02  0.11826847041E+03  0.17233289643E+02  0.12117967728E+03  0.00000000000E+00 0.  1.
         13    1    5    5    0    0 -0.13559593896E+03 -0.18466813540E+03 -0.18338032968E+03  0.29345685238E+03  0.00000000000E+00 0.  1.
        -13    1    5    5    0    0 -0.67559926362E+02 -0.55431615941E+02 -0.13824845022E+02  0.88476742909E+02  0.00000000000E+00 0. -1.
          1    1    6    6  503    0  0.25949499070E+02 -0.49398438323E+02  0.12367928666E+03  0.13568400112E+03  0.00000000000E+00 0. -1.
         -1    1    6    6    0  503  0.21020378986E+03 -0.52853596250E+02  0.48112461058E+03  0.52769311802E+03  0.00000000000E+00 0.  1.
<mgrwt>
<rscale>  0 0.13166492E+04</rscale>
<asrwt>0</asrwt>
<pdfrwt beam="1">  1        2 0.69052984E-01 0.13166492E+04</pdfrwt>
<pdfrwt beam="2">  1       -1 0.14854945E+00 0.13166492E+04</pdfrwt>
<totfact> 0.27982236E+01</totfact>
</mgrwt>
</event>
<event>
12    7  0.1740517E-007  0.1828579E+04  0.7818608E-02  0.8691248E-01
         -1   -1    0    0    0  501 -0.00000000000E+00  0.00000000000E+00  0.18811676555E+04  0.18811676555E+04  0.00000000000E+00 0.  1.
          2   -1    0    0  501    0  0.00000000000E+00 -0.00000000000E+00 -0.44436491349E+03  0.44436491349E+03  0.00000000000E+00 0. -1.
         24    2    1    2    0    0  0.22278991246E+03 -0.10450103628E+03 -0.27233836313E+03  0.37551789930E+03  0.79307609907E+02 0.  0.
        254    2    1    2    0    0 -0.22278991246E+03  0.10450103628E+03  0.17091411051E+04  0.19500146697E+04  0.90600114958E+03 0.  0.
         23    2    4    4    0    0 -0.48076008139E+03 -0.10087313142E+03  0.14083736321E+04  0.14942844629E+04  0.89800467923E+02 0.  0.
         23    2    4    4    0    0  0.25797016893E+03  0.20537416769E+03  0.30076747306E+03  0.45573020678E+03  0.92205160975E+02 0.  0.
          4    1    3    3  502    0  0.11488661234E+03 -0.28885989287E+02 -0.17658346573E+03  0.21263831837E+03  0.00000000000E+00 0. -1.
         -3    1    3    3    0  502  0.10790330012E+03 -0.75615046989E+02 -0.95754897402E+02  0.16287958093E+03  0.00000000000E+00 0.  1.
         13    1    5    5    0    0 -0.44035577657E+03 -0.73087842424E+02  0.12032343691E+04  0.12833658830E+04  0.00000000000E+00 0.  1.
        -13    1    5    5    0    0 -0.40404304825E+02 -0.27785288991E+02  0.20513926299E+03  0.21091857991E+03  0.00000000000E+00 0. -1.
          2    1    6    6  503    0  0.44474986303E+02 -0.23128939352E+01  0.39755711255E+02  0.59698328807E+02  0.00000000000E+00 0. -1.
         -2    1    6    6    0  503  0.21349518263E+03  0.20768706163E+03  0.26101176181E+03  0.39603187798E+03  0.00000000000E+00 0.  1.
<mgrwt>
<rscale>  0 0.18285786E+04</rscale>
<asrwt>0</asrwt>
<pdfrwt beam="1">  1        2 0.68363834E-01 0.18285786E+04</pdfrwt>
<pdfrwt beam="2">  1       -1 0.28941040E+00 0.18285786E+04</pdfrwt>
<totfact> 0.29406805E+00</totfact>
</mgrwt>
</event>
<event>
12    7  0.1740517E-007  0.1302158E+04  0.7818608E-02  0.9027855E-01
         -1   -1    0    0    0  501 -0.00000000000E+00  0.00000000000E+00  0.15412589884E+04  0.15412589884E+04  0.00000000000E+00 0.  1.
          2   -1    0    0  501    0  0.00000000000E+00 -0.00000000000E+00 -0.27503745756E+03  0.27503745756E+03  0.00000000000E+00 0. -1.
         24    2    1    2    0    0 -0.14319239907E+03 -0.13138897779E+03  0.72251391642E+03  0.75229999901E+03  0.78497149297E+02 0.  0.
        254    2    1    2    0    0  0.14319239907E+03  0.13138897779E+03  0.54370761438E+03  0.10639964469E+04  0.89370204345E+03 0.  0.
         23    2    4    4    0    0 -0.15260942904E+03  0.43976248679E+03  0.24213326326E+03  0.53320994340E+03  0.94887533124E+02 0.  0.
         23    2    4    4    0    0  0.29580182811E+03 -0.30837350900E+03  0.30157435111E+03  0.53078650350E+03  0.90522265115E+02 0.  0.
          4    1    3    3  502    0 -0.13202898225E+03 -0.98365692873E+02  0.48364966271E+03  0.51090552740E+03  0.00000000000E+00 0. -1.
         -1    1    3    3    0  502 -0.11163416825E+02 -0.33023284916E+02  0.23886425371E+03  0.24139447161E+03  0.00000000000E+00 0.  1.
         13    1    5    5    0    0 -0.26208615247E+02  0.15719341342E+02  0.28771847970E+02  0.41973901904E+02  0.00000000000E+00 0. -1.
        -13    1    5    5    0    0 -0.12640081379E+03  0.42404314545E+03  0.21336141529E+03  0.49123604150E+03  0.00000000000E+00 0.  1.
          1    1    6    6  503    0  0.10920110716E+02 -0.20776365025E+02  0.47135137142E+02  0.52655743420E+02  0.00000000000E+00 0. -1.
         -1    1    6    6    0  503  0.28488171740E+03 -0.28759714398E+03  0.25443921397E+03  0.47813076008E+03  0.00000000000E+00 0.  1.
<mgrwt>
<rscale>  0 0.13021581E+04</rscale>
<asrwt>0</asrwt>
<pdfrwt beam="1">  1        2 0.42313456E-01 0.13021581E+04</pdfrwt>
<pdfrwt beam="2">  1       -1 0.23711676E+00 0.13021581E+04</pdfrwt>
<totfact> 0.11517786E+01</totfact>
</mgrwt>
</event>
<event>
12    7  0.1740517E-007  0.1326876E+04  0.7818608E-02  0.9008520E-01
         -1   -1    0    0    0  501 -0.00000000000E+00  0.00000000000E+00  0.89272506359E+03  0.89272506359E+03  0.00000000000E+00 0.  1.
          2   -1    0    0  501    0  0.00000000000E+00 -0.00000000000E+00 -0.49304091267E+03  0.49304091267E+03  0.00000000000E+00 0. -1.
         24    2    1    2    0    0  0.19089345950E+03  0.14466950432E+03 -0.15935656940E+03  0.29956907797E+03  0.83531658098E+02 0.  0.
        254    2    1    2    0    0 -0.19089345950E+03 -0.14466950432E+03  0.55904072032E+03  0.10861968983E+04  0.89995977494E+03 0.  0.
         23    2    4    4    0    0  0.16385810172E+03 -0.22641264787E+03 -0.11383290872E+03  0.31521061575E+03  0.91036457311E+02 0.  0.
         23    2    4    4    0    0 -0.35475156122E+03  0.81743143550E+02  0.67287362905E+03  0.77098628253E+03  0.95552684335E+02 0.  0.
          4    1    3    3  502    0  0.87853613502E+02  0.11506812572E+03 -0.10845880397E+03  0.18089290511E+03  0.00000000000E+00 0. -1.
         -3    1    3    3    0  502  0.10303984600E+03  0.29601378604E+02 -0.50897765436E+02  0.11867617286E+03  0.00000000000E+00 0.  1.
         13    1    5    5    0    0  0.13207373925E+03 -0.16956271360E+03 -0.12572566682E+03  0.24900186694E+03  0.00000000000E+00 0. -1.
        -13    1    5    5    0    0  0.31784362464E+02 -0.56849934272E+02  0.11892758094E+02  0.66208748810E+02  0.00000000000E+00 0.  1.
          1    1    6    6  503    0 -0.28941055020E+03  0.45854481996E+02  0.45963477620E+03  0.54509194415E+03  0.00000000000E+00 0. -1.
         -1    1    6    6    0  503 -0.65341011014E+02  0.35888661554E+02  0.21323885285E+03  0.22589433838E+03  0.00000000000E+00 0.  1.
<mgrwt>
<rscale>  0 0.13268760E+04</rscale>
<asrwt>0</asrwt>
<pdfrwt beam="1">  1        2 0.75852449E-01 0.13268760E+04</pdfrwt>
<pdfrwt beam="2">  1       -1 0.13734232E+00 0.13268760E+04</pdfrwt>
<totfact> 0.30864330E+01</totfact>
</mgrwt>
</event>
<event>
12    7  0.1740517E-007  0.1547894E+04  0.7818608E-02  0.8853214E-01
          2   -1    0    0  501    0  0.00000000000E+00  0.00000000000E+00  0.48032666353E+03  0.48032666353E+03  0.00000000000E+00 0. -1.
         -1   -1    0    0    0  501 -0.00000000000E+00 -0.00000000000E+00 -0.12470560113E+04  0.12470560113E+04  0.00000000000E+00 0.  1.
         24    2    1    2    0    0  0.41200616564E+03  0.13609421354E+03 -0.55208805398E+03  0.70637401265E+03  0.76761389482E+02 0.  0.
        254    2    1    2    0    0 -0.41200616564E+03 -0.13609421354E+03 -0.21464129382E+03  0.10210086622E+04  0.89895332906E+03 0.  0.
         23    2    4    4    0    0  0.20781358141E+03 -0.53316660452E+02  0.16064060625E+03  0.28567354048E+03  0.98867671424E+02 0.  0.
         23    2    4    4    0    0 -0.61981974705E+03 -0.82777553084E+02 -0.37528190008E+03  0.73533512174E+03  0.94088227728E+02 0.  0.
          4    1    3    3  502    0  0.11047418291E+02  0.19189635104E+02 -0.38372913196E+02  0.44303137738E+02  0.00000000000E+00 0. -1.
         -3    1    3    3    0  502  0.40095874735E+03  0.11690457843E+03 -0.51371514078E+03  0.66207087491E+03  0.00000000000E+00 0.  1.
         13    1    5    5    0    0  0.67679219924E+02  0.28757315839E+02  0.56734063560E+02  0.92877413787E+02  0.00000000000E+00 0. -1.
        -13    1    5    5    0    0  0.14013436149E+03 -0.82073976291E+02  0.10390654269E+03  0.19279612670E+03  0.00000000000E+00 0.  1.
          1    1    6    6  503    0 -0.20081892892E+03 -0.39259119551E+02 -0.74670601960E+02  0.21781923579E+03  0.00000000000E+00 0. -1.
         -1    1    6    6    0  503 -0.41900081813E+03 -0.43518433533E+02 -0.30061129812E+03  0.51751588595E+03  0.00000000000E+00 0.  1.
<mgrwt>
<rscale>  0 0.15478944E+04</rscale>
<asrwt>0</asrwt>
<pdfrwt beam="1">  1        2 0.73896410E-01 0.15478944E+04</pdfrwt>
<pdfrwt beam="2">  1       -1 0.19185477E+00 0.15478944E+04</pdfrwt>
<totfact> 0.12176019E+01</totfact>
</mgrwt>
</event>
<event>
12    7  0.1740517E-007  0.3176996E+04  0.7818608E-02  0.8194919E-01
         -1   -1    0    0    0  501 -0.00000000000E+00  0.00000000000E+00  0.10335498901E+04  0.10335498901E+04  0.00000000000E+00 0.  1.
          2   -1    0    0  501    0  0.00000000000E+00 -0.00000000000E+00 -0.24414159536E+04  0.24414159536E+04  0.00000000000E+00 0. -1.
         24    2    1    2    0    0 -0.29062843348E+03  0.62335686459E+03 -0.20524029361E+04  0.21660532171E+04  0.79937851883E+02 0.  0.
        254    2    1    2    0    0  0.29062843348E+03 -0.62335686459E+03  0.64453687265E+03  0.13089126266E+04  0.90817719459E+03 0.  0.
         23    2    4    4    0    0  0.46829617525E+03 -0.23528214117E+01  0.18762464953E+03  0.51242558902E+03  0.89833911461E+02 0.  0.
         23    2    4    4    0    0 -0.17766774177E+03 -0.62100404318E+03  0.45691222313E+03  0.79648703754E+03  0.91711358140E+02 0.  0.
          2    1    3    3  502    0 -0.20403992907E+03  0.51302587221E+03 -0.16464093367E+04  0.17365170723E+04  0.00000000000E+00 0. -1.
         -3    1    3    3    0  502 -0.86588504411E+02  0.11033099238E+03 -0.40599359940E+03  0.42953614485E+03  0.00000000000E+00 0.  1.
         13    1    5    5    0    0  0.30467265812E+03  0.26686823383E+02  0.86263462195E+02  0.31777193088E+03  0.00000000000E+00 0.  1.
        -13    1    5    5    0    0  0.16362351713E+03 -0.29039644794E+02  0.10136118733E+03  0.19465365814E+03  0.00000000000E+00 0. -1.
          4    1    6    6  503    0 -0.15668417165E+03 -0.43088772239E+03  0.35427746437E+03  0.57941926160E+03  0.00000000000E+00 0. -1.
         -4    1    6    6    0  503 -0.20983570121E+02 -0.19011632079E+03  0.10263475876E+03  0.21706777594E+03  0.00000000000E+00 0.  1.
<mgrwt>
<rscale>  0 0.31769956E+04</rscale>
<asrwt>0</asrwt>
<pdfrwt beam="1">  1        2 0.37560245E+00 0.31769956E+04</pdfrwt>
<pdfrwt beam="2">  1       -1 0.15900768E+00 0.31769956E+04</pdfrwt>
<totfact> 0.10728901E+00</totfact>
</mgrwt>
</event>
<event>
12    7  0.1740517E-007  0.1118621E+04  0.7818608E-02  0.9187230E-01
         -1   -1    0    0    0  501 -0.00000000000E+00  0.00000000000E+00  0.19107106904E+03  0.19107106904E+03  0.00000000000E+00 0.  1.
          2   -1    0    0  501    0  0.00000000000E+00 -0.00000000000E+00 -0.16372345127E+04  0.16372345127E+04  0.00000000000E+00 0. -1.
         24    2    1    2    0    0 -0.15822197883E+03 -0.21935437668E+02 -0.11358541690E+03  0.21213407241E+03  0.81140986760E+02 0.  0.
        254    2    1    2    0    0  0.15822197883E+03  0.21935437668E+02 -0.13325780268E+04  0.16161715094E+04  0.90040590412E+03 0.  0.
         23    2    4    4    0    0  0.33034366215E+03 -0.31218438937E+03 -0.10148933142E+04  0.11156678238E+04  0.90112294876E+02 0.  0.
         23    2    4    4    0    0 -0.17212168332E+03  0.33411982703E+03 -0.31768471261E+03  0.50050368561E+03  0.91205427468E+02 0.  0.
          4    1    3    3  502    0 -0.11678999892E+01  0.17217204282E+02 -0.95628801602E+01  0.19729287636E+02  0.00000000000E+00 0. -1.
         -3    1    3    3    0  502 -0.15705407884E+03 -0.39152641950E+02 -0.10402253674E+03  0.19240478477E+03  0.00000000000E+00 0.  1.
         13    1    5    5    0    0  0.19869686537E+03 -0.19895223487E+03 -0.72673222589E+03  0.77923177824E+03  0.00000000000E+00 0.  1.
        -13    1    5    5    0    0  0.13164679677E+03 -0.11323215450E+03 -0.28816108831E+03  0.33643604553E+03  0.00000000000E+00 0. -1.
          3    1    6    6  503    0  0.29137588366E+01  0.43662952904E+02 -0.15937395892E+02  0.46571923244E+02  0.00000000000E+00 0. -1.
         -3    1    6    6    0  503 -0.17503544215E+03  0.29045687413E+03 -0.30174731672E+03  0.45393176237E+03  0.00000000000E+00 0.  1.
<mgrwt>
<rscale>  0 0.11186208E+04</rscale>
<asrwt>0</asrwt>
<pdfrwt beam="1">  1        2 0.25188224E+00 0.11186208E+04</pdfrwt>
<pdfrwt beam="2">  1       -1 0.29395548E-01 0.11186208E+04</pdfrwt>
<totfact> 0.12697839E+02</totfact>
</mgrwt>
</event>
<event>
12    7  0.1740517E-007  0.1381030E+04  0.7818608E-02  0.8967666E-01
         -1   -1    0    0    0  501 -0.00000000000E+00  0.00000000000E+00  0.31596687694E+03  0.31596687694E+03  0.00000000000E+00 0.  1.
          2   -1    0    0  501    0  0.00000000000E+00 -0.00000000000E+00 -0.15090539304E+04  0.15090539304E+04  0.00000000000E+00 0. -1.
         24    2    1    2    0    0  0.24238680608E+03  0.19889921844E+03 -0.36495320548E+02  0.32556385923E+03  0.79672173046E+02 0.  0.
        254    2    1    2    0    0 -0.24238680608E+03 -0.19889921844E+03 -0.11565917330E+04  0.14994569481E+04  0.90130707296E+03 0.  0.
         23    2    4    4    0    0 -0.24331213360E+02  0.16514657219E+03  0.66596747741E+02  0.20159777366E+03  0.91329826911E+02 0.  0.
         23    2    4    4    0    0 -0.21805559272E+03 -0.36404579063E+03 -0.12231884807E+04  0.12978591745E+04  0.90392468230E+02 0.  0.
          4    1    3    3  502    0  0.84722937008E+01 -0.76747599931E+01 -0.85618677864E+00  0.11463627580E+02  0.00000000000E+00 0. -1.
         -3    1    3    3    0  502  0.23391451238E+03  0.20657397843E+03 -0.35639133769E+02  0.31410023165E+03  0.00000000000E+00 0.  1.
         13    1    5    5    0    0 -0.19879412767E+02  0.15574946340E+03  0.25332393527E+02  0.15904344238E+03  0.00000000000E+00 0.  1.
        -13    1    5    5    0    0 -0.44518005934E+01  0.93971087955E+01  0.41264354215E+02  0.42554331284E+02  0.00000000000E+00 0. -1.
          1    1    6    6  503    0 -0.38576067044E+02 -0.21624417885E+02 -0.17949474610E+03  0.18486236035E+03  0.00000000000E+00 0. -1.
         -1    1    6    6    0  503 -0.17947952568E+03 -0.34242137275E+03 -0.10436937346E+04  0.11129968141E+04  0.00000000000E+00 0.  1.
<mgrwt>
<rscale>  0 0.13810301E+04</rscale>
<asrwt>0</asrwt>
<pdfrwt beam="1">  1        2 0.23216215E+00 0.13810301E+04</pdfrwt>
<pdfrwt beam="2">  1       -1 0.48610288E-01 0.13810301E+04</pdfrwt>
<totfact> 0.58992885E+01</totfact>
</mgrwt>
</event>
<event>
12    7  0.1740517E-007  0.1913030E+04  0.7818608E-02  0.8648398E-01
          2   -1    0    0  501    0  0.00000000000E+00  0.00000000000E+00  0.22387179195E+04  0.22387179195E+04  0.00000000000E+00 0. -1.
         -1   -1    0    0    0  501 -0.00000000000E+00 -0.00000000000E+00 -0.40868072242E+03  0.40868072242E+03  0.00000000000E+00 0.  1.
         24    2    1    2    0    0  0.45628411063E+03  0.43791638014E+03  0.12922210760E+04  0.14409120975E+04  0.80164940797E+02 0.  0.
        254    2    1    2    0    0 -0.45628411063E+03 -0.43791638014E+03  0.53781612107E+03  0.12064865444E+04  0.87544140652E+03 0.  0.
         23    2    4    4    0    0 -0.14178311413E+03 -0.79819920521E+02  0.67692081041E+03  0.70211676486E+03  0.90953266881E+02 0.  0.
         23    2    4    4    0    0 -0.31450099649E+03 -0.35809645962E+03 -0.13910468935E+03  0.50436977959E+03  0.88852736500E+02 0.  0.
          2    1    3    3  502    0  0.43826444794E+03  0.43694919439E+03  0.12443025531E+04  0.13897083033E+04  0.00000000000E+00 0. -1.
         -1    1    3    3    0  502  0.18019662691E+02  0.96718575002E+00  0.47918522961E+02  0.51203794142E+02  0.00000000000E+00 0.  1.
         13    1    5    5    0    0 -0.10555452203E+03 -0.17630585405E+02  0.49583749977E+03  0.50725478888E+03  0.00000000000E+00 0. -1.
        -13    1    5    5    0    0 -0.36228592100E+02 -0.62189335117E+02  0.18108331064E+03  0.19486197597E+03  0.00000000000E+00 0.  1.
          4    1    6    6  503    0 -0.12750861852E+02 -0.13996626820E+02  0.11986186485E+02  0.22408897938E+02  0.00000000000E+00 0.  1.
         -4    1    6    6    0  503 -0.30175013464E+03 -0.34409983280E+03 -0.15109087583E+03  0.48196088166E+03  0.00000000000E+00 0. -1.
<mgrwt>
<rscale>  0 0.19130299E+04</rscale>
<asrwt>0</asrwt>
<pdfrwt beam="1">  1        2 0.34441814E+00 0.19130299E+04</pdfrwt>
<pdfrwt beam="2">  1       -1 0.62873958E-01 0.19130299E+04</pdfrwt>
<totfact> 0.13423758E+01</totfact>
</mgrwt>
</event>
<event>
12    7  0.1740517E-007  0.1546113E+04  0.7818608E-02  0.8854355E-01
         -1   -1    0    0    0  501 -0.00000000000E+00  0.00000000000E+00  0.52133040870E+03  0.52133040870E+03  0.00000000000E+00 0.  1.
          2   -1    0    0  501    0  0.00000000000E+00 -0.00000000000E+00 -0.11463287066E+04  0.11463287066E+04  0.00000000000E+00 0. -1.
         24    2    1    2    0    0  0.11488489268E+03 -0.94352565178E+02 -0.72227540190E+03  0.74118703570E+03  0.74669408566E+02 0.  0.
        254    2    1    2    0    0 -0.11488489268E+03  0.94352565178E+02  0.97277104007E+02  0.92647207960E+03  0.90927813907E+03 0.  0.
         23    2    4    4    0    0  0.34914715263E+03  0.17187271731E+03  0.18297377252E+03  0.43968623229E+03  0.91654875989E+02 0.  0.
         23    2    4    4    0    0 -0.46403204531E+03 -0.77520152132E+02 -0.85696668513E+02  0.48678584731E+03  0.91002357580E+02 0.  0.
          4    1    3    3  502    0  0.86662534358E+02 -0.81400669265E+02 -0.66932329802E+03  0.67980154537E+03  0.00000000000E+00 0. -1.
         -3    1    3    3    0  502  0.28222358327E+02 -0.12951895913E+02 -0.52952103875E+02  0.61385490322E+02  0.00000000000E+00 0.  1.
         13    1    5    5    0    0  0.34512044762E+03  0.17020938027E+03  0.19171216634E+03  0.42992198271E+03  0.00000000000E+00 0. -1.
        -13    1    5    5    0    0  0.40267050116E+01  0.16633370430E+01 -0.87383938193E+01  0.97642495825E+01  0.00000000000E+00 0.  1.
          3    1    6    6  503    0 -0.20542028447E+03  0.91786975807E+01 -0.50777867643E+02  0.21180210953E+03  0.00000000000E+00 0. -1.
         -3    1    6    6    0  503 -0.25861176085E+03 -0.86698849713E+02 -0.34918800870E+02  0.27498373778E+03  0.00000000000E+00 0.  1.
<mgrwt>
<rscale>  0 0.15461126E+04</rscale>
<asrwt>0</asrwt>
<pdfrwt beam="1">  1        2 0.17635826E+00 0.15461126E+04</pdfrwt>
<pdfrwt beam="2">  1       -1 0.80204679E-01 0.15461126E+04</pdfrwt>
<totfact> 0.34769563E+01</totfact>
</mgrwt>
</event>
<event>
12    7  0.1740517E-007  0.1436837E+04  0.7818608E-02  0.8927577E-01
          2   -1    0    0  501    0  0.00000000000E+00  0.00000000000E+00  0.15715570063E+04  0.15715570063E+04  0.00000000000E+00 0. -1.
         -1   -1    0    0    0  501 -0.00000000000E+00 -0.00000000000E+00 -0.32841660588E+03  0.32841660588E+03  0.00000000000E+00 0.  1.
         24    2    1    2    0    0 -0.43240845680E+03  0.63071272579E+02  0.40482180305E+03  0.60096454838E+03  0.79515012703E+02 0.  0.
        254    2    1    2    0    0  0.43240845680E+03 -0.63071272579E+02  0.83831859741E+03  0.12990090638E+04  0.89089360657E+03 0.  0.
         23    2    4    4    0    0 -0.22008656340E+03 -0.10698914692E+03  0.41392790036E+02  0.26412329865E+03  0.90349216212E+02 0.  0.
         23    2    4    4    0    0  0.65249502020E+03  0.43917874346E+02  0.79692580738E+03  0.10348857652E+04  0.90660208831E+02 0.  0.
          2    1    3    3  502    0 -0.12865962562E+03  0.39256148292E+02  0.16710758538E+03  0.21452107014E+03  0.00000000000E+00 0. -1.
         -1    1    3    3    0  502 -0.30374883118E+03  0.23815124287E+02  0.23771421767E+03  0.38644347824E+03  0.00000000000E+00 0.  1.
         13    1    5    5    0    0 -0.21530282552E+03 -0.11818503000E+03  0.48025505799E+02  0.25025878047E+03  0.00000000000E+00 0. -1.
        -13    1    5    5    0    0 -0.47837378824E+01  0.11195883075E+02 -0.66327157623E+01  0.13864518179E+02  0.00000000000E+00 0.  1.
          4    1    6    6  503    0  0.44008359325E+03  0.45426897355E+02  0.59797653942E+03  0.74385019577E+03  0.00000000000E+00 0. -1.
         -4    1    6    6    0  503  0.21241142695E+03 -0.15090230088E+01  0.19894926796E+03  0.29103556943E+03  0.00000000000E+00 0.  1.
<mgrwt>
<rscale>  0 0.14368374E+04</rscale>
<asrwt>0</asrwt>
<pdfrwt beam="1">  1        2 0.24177800E+00 0.14368374E+04</pdfrwt>
<pdfrwt beam="2">  1       -1 0.50525633E-01 0.14368374E+04</pdfrwt>
<totfact> 0.50339695E+01</totfact>
</mgrwt>
</event>
<event>
12    7  0.1740517E-007  0.1145782E+04  0.7818608E-02  0.9161683E-01
         -1   -1    0    0    0  501 -0.00000000000E+00  0.00000000000E+00  0.32302714718E+03  0.32302714718E+03  0.00000000000E+00 0.  1.
          2   -1    0    0  501    0  0.00000000000E+00 -0.00000000000E+00 -0.10160269932E+04  0.10160269932E+04  0.00000000000E+00 0. -1.
         24    2    1    2    0    0 -0.15137390056E+03 -0.76886628058E+02  0.37311875115E+01  0.18703175861E+03  0.78366737982E+02 0.  0.
        254    2    1    2    0    0  0.15137390056E+03  0.76886628058E+02 -0.69673103354E+03  0.11520223818E+04  0.90160735560E+03 0.  0.
         23    2    4    4    0    0  0.26076492733E+03 -0.15585981718E+03 -0.79990737891E+03  0.86037758178E+03  0.90039649409E+02 0.  0.
         23    2    4    4    0    0 -0.10939102676E+03  0.23274644524E+03  0.10317634537E+03  0.29164479999E+03  0.90961676581E+02 0.  0.
          4    1    3    3  502    0 -0.58291128980E+02 -0.54863383282E+02  0.33613620319E+02  0.86820055366E+02  0.00000000000E+00 0. -1.
         -3    1    3    3    0  502 -0.93082771584E+02 -0.22023244777E+02 -0.29882432807E+02  0.10021170324E+03  0.00000000000E+00 0.  1.
         13    1    5    5    0    0 -0.46651704420E+01 -0.94763839634E+01 -0.57699502284E+02  0.58658317672E+02  0.00000000000E+00 0.  1.
        -13    1    5    5    0    0  0.26543009777E+03 -0.14638343322E+03 -0.74220787662E+03  0.80171926411E+03  0.00000000000E+00 0. -1.
          1    1    6    6  503    0 -0.11784086664E+03  0.19868628904E+03  0.65398574245E+02  0.24008266247E+03  0.00000000000E+00 0. -1.
         -1    1    6    6    0  503  0.84498398789E+01  0.34060156202E+02  0.37777771128E+02  0.51562137522E+02  0.00000000000E+00 0.  1.
<mgrwt>
<rscale>  0 0.11457824E+04</rscale>
<asrwt>0</asrwt>
<pdfrwt beam="1">  1        2 0.15631184E+00 0.11457824E+04</pdfrwt>
<pdfrwt beam="2">  1       -1 0.49696485E-01 0.11457824E+04</pdfrwt>
<totfact> 0.11276607E+02</totfact>
</mgrwt>
</event>
<event>
12    7  0.1740517E-007  0.2018768E+04  0.7818608E-02  0.8597896E-01
         -1   -1    0    0    0  501 -0.00000000000E+00  0.00000000000E+00  0.59522617293E+03  0.59522617293E+03  0.00000000000E+00 0.  1.
          2   -1    0    0  501    0  0.00000000000E+00 -0.00000000000E+00 -0.17117130669E+04  0.17117130669E+04  0.00000000000E+00 0. -1.
         24    2    1    2    0    0  0.56014131405E+02 -0.21374641936E+03  0.43991589880E+03  0.49733295719E+03  0.70632553257E+02 0.  0.
        254    2    1    2    0    0 -0.56014131405E+02  0.21374641936E+03 -0.15564027928E+04  0.18096062827E+04  0.89635937553E+03 0.  0.
         23    2    4    4    0    0 -0.26603543371E+03 -0.21542413085E+03 -0.10474733751E+04  0.11057353074E+04  0.90926839450E+02 0.  0.
         23    2    4    4    0    0  0.21002130230E+03  0.42917055021E+03 -0.50892941764E+03  0.70387097530E+03  0.90160352402E+02 0.  0.
          2    1    3    3  502    0  0.14259627626E+02 -0.16744436578E+03  0.29371126700E+03  0.33838921522E+03  0.00000000000E+00 0. -1.
         -1    1    3    3    0  502  0.41754503780E+02 -0.46302053579E+02  0.14620463180E+03  0.15894374197E+03  0.00000000000E+00 0.  1.
         13    1    5    5    0    0 -0.12839976425E+02  0.93730918324E+00 -0.11213716118E+03  0.11287376339E+03  0.00000000000E+00 0. -1.
        -13    1    5    5    0    0 -0.25319545728E+03 -0.21636144003E+03 -0.93533621397E+03  0.99286154396E+03  0.00000000000E+00 0.  1.
          1    1    6    6  503    0  0.60497811356E+01  0.82641222218E+02 -0.68655713395E+02  0.10760937897E+03  0.00000000000E+00 0. -1.
         -1    1    6    6    0  503  0.20397152117E+03  0.34652932799E+03 -0.44027370425E+03  0.59626159633E+03  0.00000000000E+00 0.  1.
<mgrwt>
<rscale>  0 0.20187684E+04</rscale>
<asrwt>0</asrwt>
<pdfrwt beam="1">  1        2 0.26334047E+00 0.20187684E+04</pdfrwt>
<pdfrwt beam="2">  1       -1 0.91573257E-01 0.20187684E+04</pdfrwt>
<totfact> 0.11864195E+01</totfact>
</mgrwt>
</event>
<event>
12    7  0.1740517E-007  0.1983769E+04  0.7818608E-02  0.8614247E-01
          2   -1    0    0  501    0  0.00000000000E+00  0.00000000000E+00  0.20756940845E+04  0.20756940845E+04  0.00000000000E+00 0. -1.
         -1   -1    0    0    0  501 -0.00000000000E+00 -0.00000000000E+00 -0.47397864505E+03  0.47397864505E+03  0.00000000000E+00 0.  1.
         24    2    1    2    0    0  0.29027699605E+03  0.20552596489E+03 -0.27071874255E+03  0.45452950954E+03  0.82503216851E+02 0.  0.
        254    2    1    2    0    0 -0.29027699605E+03 -0.20552596489E+03  0.18724341820E+04  0.20951432201E+04  0.87012280156E+03 0.  0.
         23    2    4    4    0    0 -0.47165252036E+03 -0.25994614899E+03  0.62345153253E+03  0.82877000171E+03  0.90220851161E+02 0.  0.
         23    2    4    4    0    0  0.18137552431E+03  0.54420184107E+02  0.12489826495E+04  0.12663732183E+04  0.88796577084E+02 0.  0.
          4    1    3    3  502    0  0.15951681128E+03  0.67517584417E+02 -0.10673624828E+03  0.20346219300E+03  0.00000000000E+00 0. -1.
         -1    1    3    3    0  502  0.13076018477E+03  0.13800838047E+03 -0.16398249428E+03  0.25106731653E+03  0.00000000000E+00 0.  1.
         13    1    5    5    0    0 -0.18826168963E+03 -0.13040370693E+03  0.20738702347E+03  0.30896111093E+03  0.00000000000E+00 0.  1.
        -13    1    5    5    0    0 -0.28339083074E+03 -0.12954244207E+03  0.41606450906E+03  0.51980889078E+03  0.00000000000E+00 0. -1.
          3    1    6    6  503    0  0.79215729075E+02  0.20449061836E+00  0.29669068083E+03  0.30708391954E+03  0.00000000000E+00 0. -1.
         -3    1    6    6    0  503  0.10215979524E+03  0.54215693489E+02  0.95229196869E+03  0.95928929881E+03  0.00000000000E+00 0.  1.
<mgrwt>
<rscale>  0 0.19837688E+04</rscale>
<asrwt>0</asrwt>
<pdfrwt beam="1">  1        2 0.31933755E+00 0.19837688E+04</pdfrwt>
<pdfrwt beam="2">  1       -1 0.72919793E-01 0.19837688E+04</pdfrwt>
<totfact> 0.12174316E+01</totfact>
</mgrwt>
</event>
<event>
12    7  0.1740517E-007  0.2379431E+04  0.7818608E-02  0.8447244E-01
          2   -1    0    0  501    0  0.00000000000E+00  0.00000000000E+00  0.11274831391E+04  0.11274831391E+04  0.00000000000E+00 0. -1.
         -1   -1    0    0    0  501 -0.00000000000E+00 -0.00000000000E+00 -0.12553832562E+04  0.12553832562E+04  0.00000000000E+00 0.  1.
         24    2    1    2    0    0 -0.78080796264E+03  0.14305275011E+03  0.57122614612E+03  0.98126640549E+03  0.80369675336E+02 0.  0.
        254    2    1    2    0    0  0.78080796264E+03 -0.14305275011E+03 -0.69912626327E+03  0.14015999898E+04  0.91955415041E+03 0.  0.
         23    2    4    4    0    0  0.65485429247E+03  0.26196874574E+03 -0.19833447748E+03  0.73838979026E+03  0.91766820287E+02 0.  0.
         23    2    4    4    0    0  0.12595367017E+03 -0.40502149584E+03 -0.50079178579E+03  0.66321019952E+03  0.95648402526E+02 0.  0.
          2    1    3    3  502    0 -0.69348083679E+03  0.10897564328E+03  0.52595970958E+03  0.87716872830E+03  0.00000000000E+00 0. -1.
         -1    1    3    3    0  502 -0.87327125852E+02  0.34077106829E+02  0.45266436540E+02  0.10409767719E+03  0.00000000000E+00 0.  1.
         13    1    5    5    0    0  0.42404192665E+03  0.19137157564E+03 -0.17022932421E+03  0.49539141932E+03  0.00000000000E+00 0.  1.
        -13    1    5    5    0    0  0.23081236582E+03  0.70597170103E+02 -0.28105153270E+02  0.24299837094E+03  0.00000000000E+00 0. -1.
          2    1    6    6  503    0  0.80770969130E+02 -0.16424803702E+03 -0.15748195725E+03  0.24145793418E+03  0.00000000000E+00 0. -1.
         -2    1    6    6    0  503  0.45182701042E+02 -0.24077345883E+03 -0.34330982853E+03  0.42175226534E+03  0.00000000000E+00 0.  1.
<mgrwt>
<rscale>  0 0.23794314E+04</rscale>
<asrwt>0</asrwt>
<pdfrwt beam="1">  1        2 0.17345894E+00 0.23794314E+04</pdfrwt>
<pdfrwt beam="2">  1       -1 0.19313589E+00 0.23794314E+04</pdfrwt>
<totfact> 0.36143378E+00</totfact>
</mgrwt>
</event>
<event>
12    7  0.1740517E-007  0.1405659E+04  0.7818608E-02  0.8949733E-01
          2   -1    0    0  501    0  0.00000000000E+00  0.00000000000E+00  0.12856512449E+04  0.12856512449E+04  0.00000000000E+00 0. -1.
         -1   -1    0    0    0  501 -0.00000000000E+00 -0.00000000000E+00 -0.38421692368E+03  0.38421692368E+03  0.00000000000E+00 0.  1.
         24    2    1    2    0    0 -0.16021769974E+03  0.13487585616E+03  0.73863678791E+03  0.77209986844E+03  0.81808890134E+02 0.  0.
        254    2    1    2    0    0  0.16021769974E+03 -0.13487585616E+03  0.16279753331E+03  0.89776830015E+03  0.85768506809E+03 0.  0.
         23    2    4    4    0    0  0.26584137492E+02 -0.35131925354E+03 -0.22353267282E+03  0.42738080589E+03  0.92496287195E+02 0.  0.
         23    2    4    4    0    0  0.13363356225E+03  0.21644339739E+03  0.38633020613E+03  0.47038749427E+03  0.85485047567E+02 0.  0.
          4    1    3    3  502    0 -0.59281539478E+02  0.91701796798E+02  0.45597837185E+03  0.46887076690E+03  0.00000000000E+00 0. -1.
         -3    1    3    3    0  502 -0.10093616026E+03  0.43174059358E+02  0.28265841606E+03  0.30322910154E+03  0.00000000000E+00 0.  1.
         13    1    5    5    0    0  0.82025778325E+01 -0.20479531265E+03 -0.18168392124E+03  0.27389313537E+03  0.00000000000E+00 0. -1.
        -13    1    5    5    0    0  0.18381559659E+02 -0.14652394090E+03 -0.41848751578E+02  0.15348767052E+03  0.00000000000E+00 0.  1.
          3    1    6    6  503    0 -0.90518926731E+01  0.19467569429E+01  0.24697954790E+02  0.26376421182E+02  0.00000000000E+00 0. -1.
         -3    1    6    6    0  503  0.14268545492E+03  0.21449664044E+03  0.36163225135E+03  0.44401107308E+03  0.00000000000E+00 0.  1.
<mgrwt>
<rscale>  0 0.14056585E+04</rscale>
<asrwt>0</asrwt>
<pdfrwt beam="1">  1        2 0.19779250E+00 0.14056585E+04</pdfrwt>
<pdfrwt beam="2">  1       -1 0.59110296E-01 0.14056585E+04</pdfrwt>
<totfact> 0.54224899E+01</totfact>
</mgrwt>
</event>
<event>
12    7  0.1740517E-007  0.1809961E+04  0.7818608E-02  0.8701020E-01
          2   -1    0    0  501    0  0.00000000000E+00  0.00000000000E+00  0.21692145700E+04  0.21692145700E+04  0.00000000000E+00 0. -1.
         -1   -1    0    0    0  501 -0.00000000000E+00 -0.00000000000E+00 -0.37755106406E+03  0.37755106406E+03  0.00000000000E+00 0.  1.
         24    2    1    2    0    0  0.40668407694E+03 -0.14362029226E+03  0.14221983849E+04  0.14882553678E+04  0.78975103438E+02 0.  0.
        254    2    1    2    0    0 -0.40668407694E+03  0.14362029226E+03  0.36946512097E+03  0.10585102662E+04  0.89326411617E+03 0.  0.
         23    2    4    4    0    0 -0.57661737658E+03 -0.24228163215E+02 -0.27250605148E+02  0.58507563765E+03  0.92175394887E+02 0.  0.
         23    2    4    4    0    0  0.16993329964E+03  0.16784845548E+03  0.39671572612E+03  0.47343462854E+03  0.98521824092E+02 0.  0.
          4    1    3    3  502    0  0.39901625526E+03 -0.14308952639E+03  0.13341732046E+04  0.13998952548E+04  0.00000000000E+00 0. -1.
         -3    1    3    3    0  502  0.76678216777E+01 -0.53076587341E+00  0.88025180331E+02  0.88360113027E+02  0.00000000000E+00 0.  1.
         13    1    5    5    0    0 -0.23007485169E+03  0.32539771866E+02 -0.26879557687E+02  0.23391405421E+03  0.00000000000E+00 0. -1.
        -13    1    5    5    0    0 -0.34654252489E+03 -0.56767935081E+02 -0.37104746136E+00  0.35116158344E+03  0.00000000000E+00 0.  1.
          1    1    6    6  503    0  0.56528267685E+02  0.37210023582E+01  0.11548355719E+03  0.12863025650E+03  0.00000000000E+00 0. -1.
         -1    1    6    6    0  503  0.11340503196E+03  0.16412745312E+03  0.28123216892E+03  0.34480437204E+03  0.00000000000E+00 0.  1.
<mgrwt>
<rscale>  0 0.18099605E+04</rscale>
<asrwt>0</asrwt>
<pdfrwt beam="1">  1        2 0.33372531E+00 0.18099605E+04</pdfrwt>
<pdfrwt beam="2">  1       -1 0.58084780E-01 0.18099605E+04</pdfrwt>
<totfact> 0.17338126E+01</totfact>
</mgrwt>
</event>
<event>
12    7  0.1740517E-007  0.1850864E+04  0.7818608E-02  0.8679709E-01
          2   -1    0    0  501    0  0.00000000000E+00  0.00000000000E+00  0.10413691316E+04  0.10413691316E+04  0.00000000000E+00 0. -1.
         -1   -1    0    0    0  501 -0.00000000000E+00 -0.00000000000E+00 -0.82240220728E+03  0.82240220728E+03  0.00000000000E+00 0.  1.
         24    2    1    2    0    0  0.48962647338E+03 -0.43604848476E+02 -0.41224497939E+03  0.64617923550E+03  0.77241278570E+02 0.  0.
        254    2    1    2    0    0 -0.48962647338E+03  0.43604848476E+02  0.63121190373E+03  0.12175921034E+04  0.91785979138E+03 0.  0.
         23    2    4    4    0    0  0.11602379869E+02 -0.37242204234E+03  0.24897440588E+03  0.45703236801E+03  0.89763788821E+02 0.  0.
         23    2    4    4    0    0 -0.50122885325E+03  0.41602689082E+03  0.38223749785E+03  0.76055973540E+03  0.89648586914E+02 0.  0.
          2    1    3    3  502    0  0.29067036920E+03 -0.14272462845E+02 -0.19597662296E+03  0.35085581579E+03  0.00000000000E+00 0. -1.
         -1    1    3    3    0  502  0.19895610418E+03 -0.29332385632E+02 -0.21626835643E+03  0.29532341971E+03  0.00000000000E+00 0.  1.
         13    1    5    5    0    0  0.11643738293E+02 -0.17979226741E+03  0.67545011915E+02  0.19241404495E+03  0.00000000000E+00 0. -1.
        -13    1    5    5    0    0 -0.41358424252E-01 -0.19262977494E+03  0.18142939397E+03  0.26461832306E+03  0.00000000000E+00 0.  1.
          2    1    6    6  503    0 -0.22672413510E+01  0.53061697650E+00 -0.43122202699E+01  0.49007327387E+01  0.00000000000E+00 0. -1.
         -2    1    6    6    0  503 -0.49896161190E+03  0.41549627384E+03  0.38654971812E+03  0.75565900266E+03  0.00000000000E+00 0.  1.
<mgrwt>
<rscale>  0 0.18508639E+04</rscale>
<asrwt>0</asrwt>
<pdfrwt beam="1">  1        2 0.16021064E+00 0.18508639E+04</pdfrwt>
<pdfrwt beam="2">  1       -1 0.12652342E+00 0.18508639E+04</pdfrwt>
<totfact> 0.13805041E+01</totfact>
</mgrwt>
</event>
<event>
12    7  0.1740517E-007  0.1957469E+04  0.7818608E-02  0.8626768E-01
          2   -1    0    0  501    0  0.00000000000E+00  0.00000000000E+00  0.15352536353E+04  0.15352536353E+04  0.00000000000E+00 0. -1.
         -1   -1    0    0    0  501 -0.00000000000E+00 -0.00000000000E+00 -0.62394973987E+03  0.62394973987E+03  0.00000000000E+00 0.  1.
         24    2    1    2    0    0 -0.24623058762E+03  0.25868880080E+03 -0.38947754866E+03  0.53462881611E+03  0.81153016940E+02 0.  0.
        254    2    1    2    0    0  0.24623058762E+03 -0.25868880080E+03  0.13007814441E+04  0.16245745590E+04  0.90535116652E+03 0.  0.
         23    2    4    4    0    0 -0.22031568877E+03 -0.40798508191E+03  0.68645017519E+03  0.83327338770E+03  0.90221205131E+02 0.  0.
         23    2    4    4    0    0  0.46654627638E+03  0.14929628111E+03  0.61433126887E+03  0.79130117134E+03  0.93807399969E+02 0.  0.
          4    1    3    3  502    0 -0.83902435692E+02  0.85067747786E+02 -0.77469562823E+02  0.14239969660E+03  0.00000000000E+00 0. -1.
         -3    1    3    3    0  502 -0.16232815192E+03  0.17362105302E+03 -0.31200798584E+03  0.39222911950E+03  0.00000000000E+00 0.  1.
         13    1    5    5    0    0 -0.77228764272E+02 -0.14973307329E+03  0.17635260629E+03  0.24389447926E+03  0.00000000000E+00 0.  1.
        -13    1    5    5    0    0 -0.14308692449E+03 -0.25825200862E+03  0.51009756890E+03  0.58937890844E+03  0.00000000000E+00 0. -1.
          3    1    6    6  503    0  0.18719859678E+03  0.66874205604E+02  0.17885055467E+03  0.26740043926E+03  0.00000000000E+00 0. -1.
         -3    1    6    6    0  503  0.27934767961E+03  0.82422075502E+02  0.43548071420E+03  0.52390073208E+03  0.00000000000E+00 0.  1.
<mgrwt>
<rscale>  0 0.19574689E+04</rscale>
<asrwt>0</asrwt>
<pdfrwt beam="1">  1        2 0.23619287E+00 0.19574689E+04</pdfrwt>
<pdfrwt beam="2">  1       -1 0.95992268E-01 0.19574689E+04</pdfrwt>
<totfact> 0.13471246E+01</totfact>
</mgrwt>
</event>
<event>
12    7  0.1740517E-007  0.2707461E+04  0.7818608E-02  0.8332588E-01
          2   -1    0    0  501    0  0.00000000000E+00  0.00000000000E+00  0.19974651822E+04  0.19974651822E+04  0.00000000000E+00 0. -1.
         -1   -1    0    0    0  501 -0.00000000000E+00 -0.00000000000E+00 -0.91745581613E+03  0.91745581613E+03  0.00000000000E+00 0.  1.
         24    2    1    2    0    0  0.82175092537E+02 -0.94981379638E+03 -0.30755653263E+03  0.10049268386E+04  0.79924567293E+02 0.  0.
        254    2    1    2    0    0 -0.82175092537E+02  0.94981379638E+03  0.13875658987E+04  0.19099941598E+04  0.90213057452E+03 0.  0.
         23    2    4    4    0    0 -0.36701047478E+03  0.18993425666E+03  0.19858145677E+03  0.46756178393E+03  0.91693600496E+02 0.  0.
         23    2    4    4    0    0  0.28483538224E+03  0.75987953972E+03  0.11889844419E+04  0.14424323758E+04  0.91537128269E+02 0.  0.
          4    1    3    3  502    0 -0.28442787925E+01 -0.16560874894E+02  0.41866095939E+01  0.17317049373E+02  0.00000000000E+00 0. -1.
         -3    1    3    3    0  502  0.85019371329E+02 -0.93325292148E+03 -0.31174314223E+03  0.98760978918E+03  0.00000000000E+00 0.  1.
         13    1    5    5    0    0 -0.27108506022E+03  0.14314583146E+03  0.18960941639E+03  0.36045744509E+03  0.00000000000E+00 0.  1.
        -13    1    5    5    0    0 -0.95925414554E+02  0.46788425195E+02  0.89720403890E+01  0.10710433884E+03  0.00000000000E+00 0. -1.
          3    1    6    6  503    0  0.13672845637E+03  0.24380606399E+03  0.39121363162E+03  0.48081615321E+03  0.00000000000E+00 0.  1.
         -3    1    6    6    0  503  0.14810692587E+03  0.51607347572E+03  0.79777081028E+03  0.96161622261E+03  0.00000000000E+00 0. -1.
<mgrwt>
<rscale>  0 0.27074608E+04</rscale>
<asrwt>0</asrwt>
<pdfrwt beam="1">  1        2 0.30730234E+00 0.27074608E+04</pdfrwt>
<pdfrwt beam="2">  1       -1 0.14114705E+00 0.27074608E+04</pdfrwt>
<totfact> 0.27431243E+00</totfact>
</mgrwt>
</event>
<event>
12    7  0.1740517E-007  0.1471370E+04  0.7818608E-02  0.8903718E-01
          2   -1    0    0  501    0  0.00000000000E+00  0.00000000000E+00  0.97914922837E+03  0.97914922837E+03  0.00000000000E+00 0. -1.
         -1   -1    0    0    0  501 -0.00000000000E+00 -0.00000000000E+00 -0.55275768850E+03  0.55275768850E+03  0.00000000000E+00 0.  1.
         24    2    1    2    0    0  0.12121821507E+03  0.44448439701E+03  0.22127534293E+03  0.51732723404E+03  0.80027837915E+02 0.  0.
        254    2    1    2    0    0 -0.12121821507E+03 -0.44448439701E+03  0.20511619694E+03  0.10145796828E+04  0.88036301815E+03 0.  0.
         23    2    4    4    0    0 -0.40480815812E+02 -0.66548934020E+03 -0.23751404075E+02  0.67416645809E+03  0.97064543745E+02 0.  0.
         23    2    4    4    0    0 -0.80737399257E+02  0.22100494319E+03  0.22886760101E+03  0.34041322475E+03  0.90216806842E+02 0.  0.
          2    1    3    3  502    0  0.88962341593E+02  0.29747050732E+03  0.18869600676E+03  0.36333068121E+03  0.00000000000E+00 0. -1.
         -1    1    3    3    0  502  0.32255873475E+02  0.14701388969E+03  0.32579336165E+02  0.15399655282E+03  0.00000000000E+00 0.  1.
         13    1    5    5    0    0  0.74459538182E+01 -0.65858279652E+02  0.24569850471E+02  0.70685449558E+02  0.00000000000E+00 0.  1.
        -13    1    5    5    0    0 -0.47926769630E+02 -0.59963106054E+03 -0.48321254546E+02  0.60348100853E+03  0.00000000000E+00 0. -1.
          2    1    6    6  503    0  0.19389581334E+02  0.22936249710E+02  0.25852895390E+02  0.39628267879E+02  0.00000000000E+00 0.  1.
         -2    1    6    6    0  503 -0.10012698059E+03  0.19806869348E+03  0.20301470562E+03  0.30078495687E+03  0.00000000000E+00 0. -1.
<mgrwt>
<rscale>  0 0.14713698E+04</rscale>
<asrwt>0</asrwt>
<pdfrwt beam="1">  1        2 0.15063834E+00 0.14713698E+04</pdfrwt>
<pdfrwt beam="2">  1       -1 0.85039645E-01 0.14713698E+04</pdfrwt>
<totfact> 0.39270274E+01</totfact>
</mgrwt>
</event>
<event>
12    7  0.1740517E-007  0.1395948E+04  0.7818608E-02  0.8956757E-01
          2   -1    0    0  501    0  0.00000000000E+00  0.00000000000E+00  0.53448681009E+03  0.53448681009E+03  0.00000000000E+00 0. -1.
         -1   -1    0    0    0  501 -0.00000000000E+00 -0.00000000000E+00 -0.91146763787E+03  0.91146763787E+03  0.00000000000E+00 0.  1.
         24    2    1    2    0    0  0.18837316724E+03 -0.70260305008E+02 -0.46459854769E+03  0.51574479804E+03  0.98589682987E+02 0.  0.
        254    2    1    2    0    0 -0.18837316724E+03  0.70260305008E+02  0.87617719909E+02  0.93020964992E+03  0.90398681814E+03 0.  0.
         23    2    4    4    0    0 -0.49958944192E+03  0.29426054413E+02 -0.14565592392E+03  0.52917196302E+03  0.91388265781E+02 0.  0.
         23    2    4    4    0    0  0.31121627468E+03  0.40834250595E+02  0.23327364383E+03  0.40103768690E+03  0.88834834181E+02 0.  0.
          2    1    3    3  502    0  0.20179347951E+02  0.47310987010E+00 -0.43507909792E+01  0.20648469648E+02  0.00000000000E+00 0. -1.
         -1    1    3    3    0  502  0.16819381929E+03 -0.70733414878E+02 -0.46024775671E+03  0.49509632839E+03  0.00000000000E+00 0.  1.
         13    1    5    5    0    0 -0.93601268695E+02 -0.25751427272E+02 -0.46412462708E+02  0.10760320721E+03  0.00000000000E+00 0.  1.
        -13    1    5    5    0    0 -0.40598817322E+03  0.55177481685E+02 -0.99243461209E+02  0.42156875581E+03  0.00000000000E+00 0. -1.
          1    1    6    6  503    0  0.27902805917E+03  0.18814825630E+02  0.22965125938E+03  0.36187063489E+03  0.00000000000E+00 0. -1.
         -1    1    6    6    0  503  0.32188215514E+02  0.22019424965E+02  0.36223844477E+01  0.39167052006E+02  0.00000000000E+00 0.  1.
<mgrwt>
<rscale>  0 0.13959476E+04</rscale>
<asrwt>0</asrwt>
<pdfrwt beam="1">  1        2 0.82228741E-01 0.13959476E+04</pdfrwt>
<pdfrwt beam="2">  1       -1 0.14022579E+00 0.13959476E+04</pdfrwt>
<totfact> 0.26460210E+01</totfact>
</mgrwt>
</event>
<event>
12    7  0.1740517E-007  0.1261219E+04  0.7818608E-02  0.9060897E-01
         -3   -1    0    0    0  501 -0.00000000000E+00  0.00000000000E+00  0.66583641021E+03  0.66583641021E+03  0.00000000000E+00 0.  1.
          2   -1    0    0  501    0  0.00000000000E+00 -0.00000000000E+00 -0.59724637519E+03  0.59724637519E+03  0.00000000000E+00 0. -1.
         24    2    1    2    0    0  0.15622193783E+03  0.17277721874E+03 -0.99697044055E+01  0.24660177634E+03  0.80347868134E+02 0.  0.
        254    2    1    2    0    0 -0.15622193783E+03 -0.17277721874E+03  0.78559739425E+02  0.10164810091E+04  0.98630864741E+03 0.  0.
         23    2    4    4    0    0 -0.13704082422E+03  0.29805371919E+03  0.33042946263E+03  0.47432493024E+03  0.90467135714E+02 0.  0.
         23    2    4    4    0    0 -0.19181113605E+02 -0.47083093793E+03 -0.25186972320E+03  0.54215607882E+03  0.91897601203E+02 0.  0.
          4    1    3    3  502    0  0.57189564522E+02  0.41967588932E+02 -0.37501612573E+02  0.80238991497E+02  0.00000000000E+00 0. -1.
         -3    1    3    3    0  502  0.99032373306E+02  0.13080962981E+03  0.27531908167E+02  0.16636278484E+03  0.00000000000E+00 0.  1.
         13    1    5    5    0    0  0.87317864492E+01  0.58722241846E+02  0.46668835090E+02  0.75515071017E+02  0.00000000000E+00 0.  1.
        -13    1    5    5    0    0 -0.14577261067E+03  0.23933147735E+03  0.28376062754E+03  0.39880985922E+03  0.00000000000E+00 0. -1.
          1    1    6    6  503    0  0.31950597352E+01 -0.39078033267E+03 -0.17230260978E+03  0.42709210499E+03  0.00000000000E+00 0. -1.
         -1    1    6    6    0  503 -0.22376173340E+02 -0.80050605261E+02 -0.79567113419E+02  0.11506397383E+03  0.00000000000E+00 0.  1.
<mgrwt>
<rscale>  0 0.12612191E+04</rscale>
<asrwt>0</asrwt>
<pdfrwt beam="1">  1        2 0.91884058E-01 0.12612191E+04</pdfrwt>
<pdfrwt beam="2">  1       -3 0.10243637E+00 0.12612191E+04</pdfrwt>
<totfact> 0.25524015E+01</totfact>
</mgrwt>
</event>
<event>
12    7  0.1740517E-007  0.2438150E+04  0.7818608E-02  0.8425357E-01
          2   -1    0    0  501    0  0.00000000000E+00  0.00000000000E+00  0.24079583503E+04  0.24079583503E+04  0.00000000000E+00 0. -1.
         -1   -1    0    0    0  501 -0.00000000000E+00 -0.00000000000E+00 -0.61718010762E+03  0.61718010762E+03  0.00000000000E+00 0.  1.
         24    2    1    2    0    0 -0.58251446046E+03 -0.74993861250E+03  0.13200474870E+04  0.16279737861E+04  0.77731983619E+02 0.  0.
        254    2    1    2    0    0  0.58251446046E+03  0.74993861250E+03  0.47073075565E+03  0.13971646717E+04  0.91035743335E+03 0.  0.
         23    2    4    4    0    0  0.61764556866E+03  0.80732356297E+02  0.14590118956E+03  0.64640968842E+03  0.92490898621E+02 0.  0.
         23    2    4    4    0    0 -0.35131108199E+02  0.66920625621E+03  0.32482956609E+03  0.75075498331E+03  0.95118819658E+02 0.  0.
          4    1    3    3  502    0 -0.54443492138E+03 -0.67463815602E+03  0.11754748389E+04  0.14605776672E+04  0.00000000000E+00 0. -1.
         -3    1    3    3    0  502 -0.38079539082E+02 -0.75300456477E+02  0.14457264813E+03  0.16739611892E+03  0.00000000000E+00 0.  1.
         13    1    5    5    0    0  0.17272819805E+03 -0.18631211102E+02  0.45931998269E+02  0.17969947383E+03  0.00000000000E+00 0. -1.
        -13    1    5    5    0    0  0.44491737061E+03  0.99363567399E+02  0.99969191290E+02  0.46671021459E+03  0.00000000000E+00 0.  1.
          1    1    6    6  503    0  0.13346029945E+02  0.50744168892E+03  0.25418715095E+03  0.56770264389E+03  0.00000000000E+00 0. -1.
         -1    1    6    6    0  503 -0.48477138143E+02  0.16176456729E+03  0.70642415138E+02  0.18305233942E+03  0.00000000000E+00 0.  1.
<mgrwt>
<rscale>  0 0.24381501E+04</rscale>
<asrwt>0</asrwt>
<pdfrwt beam="1">  1        2 0.37045513E+00 0.24381501E+04</pdfrwt>
<pdfrwt beam="2">  1       -1 0.94950787E-01 0.24381501E+04</pdfrwt>
<totfact> 0.42996704E+00</totfact>
</mgrwt>
</event>
<event>
12    7  0.1740517E-007  0.1566946E+04  0.7818608E-02  0.8841116E-01
         -1   -1    0    0    0  501 -0.00000000000E+00  0.00000000000E+00  0.45266950431E+03  0.45266950431E+03  0.00000000000E+00 0.  1.
          2   -1    0    0  501    0  0.00000000000E+00 -0.00000000000E+00 -0.13560219038E+04  0.13560219038E+04  0.00000000000E+00 0. -1.
         24    2    1    2    0    0  0.49132253729E+02 -0.19057908119E+03  0.25004603752E+03  0.32806670768E+03  0.79814655722E+02 0.  0.
        254    2    1    2    0    0 -0.49132253729E+02  0.19057908119E+03 -0.11533984370E+04  0.14806247004E+04  0.90729663532E+03 0.  0.
         23    2    4    4    0    0  0.30448916077E+03  0.39499657295E+03 -0.70554373457E+03  0.86880171936E+03  0.91041334080E+02 0.  0.
         23    2    4    4    0    0 -0.35362141450E+03 -0.20441749176E+03 -0.44785470244E+03  0.61182298106E+03  0.83179985118E+02 0.  0.
          4    1    3    3  502    0  0.62063674618E+02 -0.83892808177E+02  0.13506611844E+03  0.17068321336E+03  0.00000000000E+00 0. -1.
         -3    1    3    3    0  502 -0.12931420889E+02 -0.10668627301E+03  0.11497991907E+03  0.15738349433E+03  0.00000000000E+00 0.  1.
         13    1    5    5    0    0  0.13245134578E+03  0.13188995907E+03 -0.32795022271E+03  0.37747803761E+03  0.00000000000E+00 0.  1.
        -13    1    5    5    0    0  0.17203781498E+03  0.26310661388E+03 -0.37759351185E+03  0.49132368175E+03  0.00000000000E+00 0. -1.
          3    1    6    6  503    0 -0.35103062029E+03 -0.19962984188E+03 -0.45113064026E+03  0.60546959026E+03  0.00000000000E+00 0. -1.
         -3    1    6    6    0  503 -0.25907942059E+01 -0.47876498825E+01  0.32759378195E+01  0.63533907964E+01  0.00000000000E+00 0.  1.
<mgrwt>
<rscale>  0 0.15669458E+04</rscale>
<asrwt>0</asrwt>
<pdfrwt beam="1">  1        2 0.20861875E+00 0.15669458E+04</pdfrwt>
<pdfrwt beam="2">  1       -1 0.69641463E-01 0.15669458E+04</pdfrwt>
<totfact> 0.35046444E+01</totfact>
</mgrwt>
</event>
<event>
12    7  0.1740517E-007  0.1495682E+04  0.7818608E-02  0.8887329E-01
          4   -1    0    0  501    0  0.00000000000E+00  0.00000000000E+00  0.15536122813E+04  0.15536122813E+04  0.00000000000E+00 0. -1.
         -3   -1    0    0    0  501 -0.00000000000E+00 -0.00000000000E+00 -0.35997806464E+03  0.35997806464E+03  0.00000000000E+00 0.  1.
         24    2    1    2    0    0  0.20085203360E+03  0.40394407249E+03  0.19524777171E+03  0.49793846257E+03  0.79427117805E+02 0.  0.
        254    2    1    2    0    0 -0.20085203360E+03 -0.40394407249E+03  0.99838644494E+03  0.14156518834E+04  0.89653912817E+03 0.  0.
         23    2    4    4    0    0  0.99012384943E+01 -0.64702109698E+03  0.54133400101E+03  0.84852414818E+03  0.90644332085E+02 0.  0.
         23    2    4    4    0    0 -0.21075327210E+03  0.24307702449E+03  0.45705244392E+03  0.56712773518E+03  0.96091362702E+02 0.  0.
          4    1    3    3  502    0  0.17333662933E+03  0.29944613947E+03  0.17596506913E+03  0.38817171853E+03  0.00000000000E+00 0. -1.
         -3    1    3    3    0  502  0.27515404271E+02  0.10449793302E+03  0.19282702581E+02  0.10976674404E+03  0.00000000000E+00 0.  1.
         13    1    5    5    0    0  0.46234843620E+02 -0.37692429916E+03  0.29034015566E+03  0.47802405175E+03  0.00000000000E+00 0.  1.
        -13    1    5    5    0    0 -0.36333605126E+02 -0.27009679782E+03  0.25099384535E+03  0.37050009644E+03  0.00000000000E+00 0. -1.
          4    1    6    6  503    0 -0.99391724680E+02  0.49146886970E+02  0.17514002344E+03  0.20728762444E+03  0.00000000000E+00 0.  1.
         -4    1    6    6    0  503 -0.11136154742E+03  0.19393013752E+03  0.28191242048E+03  0.35984011075E+03  0.00000000000E+00 0. -1.
<mgrwt>
<rscale>  0 0.14956822E+04</rscale>
<asrwt>0</asrwt>
<pdfrwt beam="1">  1        4 0.23901727E+00 0.14956822E+04</pdfrwt>
<pdfrwt beam="2">  1       -3 0.55381241E-01 0.14956822E+04</pdfrwt>
<totfact> 0.52562373E-01</totfact>
</mgrwt>
</event>
<event>
12    7  0.1740517E-007  0.1728970E+04  0.7818608E-02  0.8745012E-01
         -1   -1    0    0    0  501 -0.00000000000E+00  0.00000000000E+00  0.77365676094E+03  0.77365676094E+03  0.00000000000E+00 0.  1.
          2   -1    0    0  501    0  0.00000000000E+00 -0.00000000000E+00 -0.96597618235E+03  0.96597618235E+03  0.00000000000E+00 0. -1.
         24    2    1    2    0    0  0.40037892151E+03  0.39756399182E+03  0.20932980724E+03  0.60693848517E+03  0.78707993285E+02 0.  0.
        254    2    1    2    0    0 -0.40037892151E+03 -0.39756399182E+03 -0.40164922865E+03  0.11326944581E+04  0.89627798377E+03 0.  0.
         23    2    4    4    0    0  0.18401888026E+03 -0.54493864543E+02 -0.39580582701E+03  0.44935993219E+03  0.91812670131E+02 0.  0.
         23    2    4    4    0    0 -0.58439780176E+03 -0.34307012727E+03 -0.58434016406E+01  0.68333452592E+03  0.87715597470E+02 0.  0.
          2    1    3    3  502    0  0.33061876303E+03  0.33460213512E+03  0.14207107333E+03  0.49137719236E+03  0.00000000000E+00 0. -1.
         -1    1    3    3    0  502  0.69760158474E+02  0.62961856700E+02  0.67258733908E+02  0.11556129281E+03  0.00000000000E+00 0.  1.
         13    1    5    5    0    0  0.40273408889E+02 -0.18296071724E+01 -0.18191372003E+03  0.18632739053E+03  0.00000000000E+00 0. -1.
        -13    1    5    5    0    0  0.14374547137E+03 -0.52664257371E+02 -0.21389210698E+03  0.26303254166E+03  0.00000000000E+00 0.  1.
          3    1    6    6  503    0 -0.28380992363E+02 -0.90583864948E+01  0.17006684151E+02  0.34303970604E+02  0.00000000000E+00 0. -1.
         -3    1    6    6    0  503 -0.55601680940E+03 -0.33401174078E+03 -0.22850085792E+02  0.64903055532E+03  0.00000000000E+00 0.  1.
<mgrwt>
<rscale>  0 0.17289696E+04</rscale>
<asrwt>0</asrwt>
<pdfrwt beam="1">  1        2 0.14861172E+00 0.17289696E+04</pdfrwt>
<pdfrwt beam="2">  1       -1 0.11902412E+00 0.17289696E+04</pdfrwt>
<totfact> 0.18135117E+01</totfact>
</mgrwt>
</event>
<event>
12    7  0.1740517E-007  0.2249610E+04  0.7818608E-02  0.8498058E-01
         -3   -1    0    0    0  501 -0.00000000000E+00  0.00000000000E+00  0.12279865989E+04  0.12279865989E+04  0.00000000000E+00 0.  1.
          4   -1    0    0  501    0  0.00000000000E+00 -0.00000000000E+00 -0.10302935389E+04  0.10302935389E+04  0.00000000000E+00 0. -1.
         24    2    1    2    0    0 -0.75574757114E+03 -0.20063168478E+02  0.65107147173E+03  0.10009056190E+04  0.79756346387E+02 0.  0.
        254    2    1    2    0    0  0.75574757114E+03  0.20063168478E+02 -0.45337841177E+03  0.12573745188E+04  0.89659454286E+03 0.  0.
         23    2    4    4    0    0 -0.86063059457E+02  0.19071267615E+03  0.79143277099E+02  0.24227278261E+03  0.93028317391E+02 0.  0.
         23    2    4    4    0    0  0.84181063060E+03 -0.17064950767E+03 -0.53252168887E+03  0.10151017362E+04  0.95319428557E+02 0.  0.
          4    1    3    3  502    0 -0.71495922018E+03 -0.31256198091E+02  0.59507174717E+03  0.93072768344E+03  0.00000000000E+00 0. -1.
         -3    1    3    3    0  502 -0.40788350962E+02  0.11193029613E+02  0.55999724558E+02  0.70177935540E+02  0.00000000000E+00 0.  1.
         13    1    5    5    0    0  0.29573284445E+01  0.35693664766E+02  0.49456678218E+02  0.61063463022E+02  0.00000000000E+00 0.  1.
        -13    1    5    5    0    0 -0.89020387902E+02  0.15501901138E+03  0.29686598882E+02  0.18120931959E+03  0.00000000000E+00 0. -1.
          3    1    6    6  503    0  0.64865991696E+03 -0.13229767769E+03 -0.36150736398E+03  0.75428770214E+03  0.00000000000E+00 0. -1.
         -3    1    6    6    0  503  0.19315071363E+03 -0.38351829983E+02 -0.17101432490E+03  0.26081403405E+03  0.00000000000E+00 0.  1.
<mgrwt>
<rscale>  0 0.22496103E+04</rscale>
<asrwt>0</asrwt>
<pdfrwt beam="1">  1        4 0.15850670E+00 0.22496103E+04</pdfrwt>
<pdfrwt beam="2">  1       -3 0.18892101E+00 0.22496103E+04</pdfrwt>
<totfact> 0.92050615E-02</totfact>
</mgrwt>
</event>
<event>
12    7  0.1740517E-007  0.1764664E+04  0.7818608E-02  0.8725320E-01
          2   -1    0    0  501    0  0.00000000000E+00  0.00000000000E+00  0.17068527651E+04  0.17068527651E+04  0.00000000000E+00 0. -1.
         -1   -1    0    0    0  501 -0.00000000000E+00 -0.00000000000E+00 -0.45610808866E+03  0.45610808866E+03  0.00000000000E+00 0.  1.
         24    2    1    2    0    0  0.36311378266E+03  0.56088667284E+02 -0.19850497329E+03  0.42523131901E+03  0.80124231615E+02 0.  0.
        254    2    1    2    0    0 -0.36311378266E+03 -0.56088667284E+02  0.14492496497E+04  0.17377295347E+04  0.88565333564E+03 0.  0.
         23    2    4    4    0    0 -0.45760590964E+02 -0.35506710694E+03  0.11366439546E+04  0.11946945528E+04  0.84669434090E+02 0.  0.
         23    2    4    4    0    0 -0.31735319170E+03  0.29897843966E+03  0.31260569512E+03  0.54303498185E+03  0.84044721598E+02 0.  0.
          4    1    3    3  502    0  0.39238093949E+02  0.29884331243E+02 -0.12727437069E+02  0.50938089137E+02  0.00000000000E+00 0. -1.
         -3    1    3    3    0  502  0.32387568872E+03  0.26204336041E+02 -0.18577753622E+03  0.37429322988E+03  0.00000000000E+00 0.  1.
         13    1    5    5    0    0  0.72434019842E+01 -0.13531757183E+02  0.16928982873E+02  0.22850947155E+02  0.00000000000E+00 0. -1.
        -13    1    5    5    0    0 -0.53003992949E+02 -0.34153534976E+03  0.11197149717E+04  0.11718436057E+04  0.00000000000E+00 0.  1.
          2    1    6    6  503    0 -0.23000491652E+03  0.25756911038E+03  0.26500760529E+03  0.43528512392E+03  0.00000000000E+00 0.  1.
         -2    1    6    6    0  503 -0.87348275179E+02  0.41409329278E+02  0.47598089829E+02  0.10774985793E+03  0.00000000000E+00 0. -1.
<mgrwt>
<rscale>  0 0.17646635E+04</rscale>
<asrwt>0</asrwt>
<pdfrwt beam="1">  1        2 0.26259273E+00 0.17646635E+04</pdfrwt>
<pdfrwt beam="2">  1       -1 0.70170476E-01 0.17646635E+04</pdfrwt>
<totfact> 0.21521018E+01</totfact>
</mgrwt>
</event>
<event>
12    7  0.1740517E-007  0.1725838E+04  0.7818608E-02  0.8746763E-01
         -1   -1    0    0    0  501 -0.00000000000E+00  0.00000000000E+00  0.23085519023E+03  0.23085519023E+03  0.00000000000E+00 0.  1.
          2   -1    0    0  501    0  0.00000000000E+00 -0.00000000000E+00 -0.32255265786E+04  0.32255265786E+04  0.00000000000E+00 0. -1.
         24    2    1    2    0    0 -0.19595911592E+03 -0.56083827585E+03 -0.73110168203E+03  0.94542019070E+03  0.79813036185E+02 0.  0.
        254    2    1    2    0    0  0.19595911592E+03  0.56083827585E+03 -0.22635697064E+04  0.25109615782E+04  0.91007729599E+03 0.  0.
         23    2    4    4    0    0  0.44673212579E+03  0.65290277409E+03 -0.18186993051E+04  0.19853969077E+04  0.91006010569E+02 0.  0.
         23    2    4    4    0    0 -0.25077300987E+03 -0.92064498246E+02 -0.44487040121E+03  0.52556467045E+03  0.83340114181E+02 0.  0.
          4    1    3    3  502    0 -0.28049284079E+02 -0.72420986825E+02 -0.57629639230E+02  0.96709549621E+02  0.00000000000E+00 0. -1.
         -3    1    3    3    0  502 -0.16790983184E+03 -0.48841728902E+03 -0.67347204280E+03  0.84871064108E+03  0.00000000000E+00 0.  1.
         13    1    5    5    0    0  0.44712981982E+03  0.64305277867E+03 -0.17675565978E+04  0.19333127730E+04  0.00000000000E+00 0. -1.
        -13    1    5    5    0    0 -0.39769402196E+00  0.98499954187E+01 -0.51142707381E+02  0.52084134710E+02  0.00000000000E+00 0.  1.
          1    1    6    6  503    0 -0.92265362759E+02 -0.29364010509E+02 -0.91451197658E+02  0.13318582444E+03  0.00000000000E+00 0. -1.
         -1    1    6    6    0  503 -0.15850764711E+03 -0.62700487737E+02 -0.35341920355E+03  0.39237884601E+03  0.00000000000E+00 0.  1.
<mgrwt>
<rscale>  0 0.17258384E+04</rscale>
<asrwt>0</asrwt>
<pdfrwt beam="1">  1        2 0.49623488E+00 0.17258384E+04</pdfrwt>
<pdfrwt beam="2">  1       -1 0.35516181E-01 0.17258384E+04</pdfrwt>
<totfact> 0.10263894E+01</totfact>
</mgrwt>
</event>
<event>
12    7  0.1740517E-007  0.1669937E+04  0.7818608E-02  0.8778699E-01
          2   -1    0    0  501    0  0.00000000000E+00  0.00000000000E+00  0.13130333204E+04  0.13130333204E+04  0.00000000000E+00 0. -1.
         -1   -1    0    0    0  501 -0.00000000000E+00 -0.00000000000E+00 -0.53096323314E+03  0.53096323314E+03  0.00000000000E+00 0.  1.
         24    2    1    2    0    0 -0.99260308764E+01 -0.29775513979E+03 -0.27895983723E+03  0.41583135337E+03  0.79627095218E+02 0.  0.
        254    2    1    2    0    0  0.99260308764E+01  0.29775513979E+03  0.10610299245E+04  0.14281652002E+04  0.90835823824E+03 0.  0.
         23    2    4    4    0    0 -0.41619228376E+03  0.21081411089E+03  0.73998327181E+03  0.87999120243E+03  0.95659120701E+02 0.  0.
         23    2    4    4    0    0  0.42611831463E+03  0.86941028904E+02  0.32104665272E+03  0.54817399779E+03  0.91039650998E+02 0.  0.
          2    1    3    3  502    0  0.52839394712E+01 -0.98806355090E+02 -0.14485202182E+03  0.17542156096E+03  0.00000000000E+00 0. -1.
         -1    1    3    3    0  502 -0.15209970348E+02 -0.19894878470E+03 -0.13410781541E+03  0.24040979241E+03  0.00000000000E+00 0.  1.
         13    1    5    5    0    0 -0.83942678245E+02  0.78465708407E+02  0.22997622830E+03  0.25708423952E+03  0.00000000000E+00 0. -1.
        -13    1    5    5    0    0 -0.33224960551E+03  0.13234840248E+03  0.51000704352E+03  0.62290696291E+03  0.00000000000E+00 0.  1.
          3    1    6    6  503    0  0.12210828101E+02 -0.40743423747E+01 -0.46451741720E+01  0.13685109856E+02  0.00000000000E+00 0. -1.
         -3    1    6    6    0  503  0.41390748653E+03  0.91015371278E+02  0.32569182689E+03  0.53448888793E+03  0.00000000000E+00 0.  1.
<mgrwt>
<rscale>  0 0.16699370E+04</rscale>
<asrwt>0</asrwt>
<pdfrwt beam="1">  1        2 0.20200512E+00 0.16699370E+04</pdfrwt>
<pdfrwt beam="2">  1       -1 0.81686652E-01 0.16699370E+04</pdfrwt>
<totfact> 0.26350256E+01</totfact>
</mgrwt>
</event>
<event>
12    7  0.1740517E-007  0.2401749E+04  0.7818608E-02  0.8438849E-01
          2   -1    0    0  501    0  0.00000000000E+00  0.00000000000E+00  0.25999490979E+04  0.25999490979E+04  0.00000000000E+00 0. -1.
         -1   -1    0    0    0  501 -0.00000000000E+00 -0.00000000000E+00 -0.55466470259E+03  0.55466470259E+03  0.00000000000E+00 0.  1.
         24    2    1    2    0    0 -0.57175609802E+03 -0.97507233591E+02 -0.23875971934E+03  0.63272851527E+03  0.83225442217E+02 0.  0.
        254    2    1    2    0    0  0.57175609802E+03  0.97507233591E+02  0.22840441146E+04  0.25218852852E+04  0.89812870895E+03 0.  0.
         23    2    4    4    0    0  0.17935625426E+03  0.25019740501E+03  0.16962496144E+03  0.36403249047E+03  0.94760852448E+02 0.  0.
         23    2    4    4    0    0  0.39239984376E+03 -0.15269017142E+03  0.21144191532E+04  0.21578527947E+04  0.90930756511E+02 0.  0.
          4    1    3    3  502    0 -0.53072083847E+03 -0.80475481540E+02 -0.19712061922E+03  0.57183690860E+03  0.00000000000E+00 0. -1.
         -3    1    3    3    0  502 -0.41035259552E+02 -0.17031752051E+02 -0.41639100120E+02  0.60891606673E+02  0.00000000000E+00 0.  1.
         13    1    5    5    0    0  0.16218827990E+03  0.15303655309E+03  0.10872702451E+03  0.24808625633E+03  0.00000000000E+00 0.  1.
        -13    1    5    5    0    0  0.17167974357E+02  0.97160851917E+02  0.60897936930E+02  0.11594623414E+03  0.00000000000E+00 0. -1.
          2    1    6    6  503    0  0.37065345303E+03 -0.12117810324E+03  0.18479403668E+04  0.18886375285E+04  0.00000000000E+00 0. -1.
         -2    1    6    6    0  503  0.21746390729E+02 -0.31512068181E+02  0.26647878644E+03  0.26921526623E+03  0.00000000000E+00 0.  1.
<mgrwt>
<rscale>  0 0.24017494E+04</rscale>
<asrwt>0</asrwt>
<pdfrwt beam="1">  1        2 0.39999216E+00 0.24017494E+04</pdfrwt>
<pdfrwt beam="2">  1       -1 0.85333032E-01 0.24017494E+04</pdfrwt>
<totfact> 0.42252572E+00</totfact>
</mgrwt>
</event>
<event>
12    7  0.1740517E-007  0.1198091E+04  0.7818608E-02  0.9114529E-01
          2   -1    0    0  501    0  0.00000000000E+00  0.00000000000E+00  0.10415933644E+04  0.10415933644E+04  0.00000000000E+00 0. -1.
         -1   -1    0    0    0  501 -0.00000000000E+00 -0.00000000000E+00 -0.34452529378E+03  0.34452529378E+03  0.00000000000E+00 0.  1.
         24    2    1    2    0    0 -0.13943569985E+03  0.11865322426E+03 -0.72214893260E+02  0.21205520474E+03  0.78939958354E+02 0.  0.
        254    2    1    2    0    0  0.13943569985E+03 -0.11865322426E+03  0.76928296384E+03  0.11740634534E+04  0.86781784503E+03 0.  0.
         23    2    4    4    0    0  0.13627580729E+03 -0.32956690387E+02 -0.16285164126E+03  0.23372545679E+03  0.91922211654E+02 0.  0.
         23    2    4    4    0    0  0.31598925673E+01 -0.85696533876E+02  0.93213460510E+03  0.94033799662E+03  0.89480416968E+02 0.  0.
          4    1    3    3  502    0 -0.90115430278E+02  0.39769745528E+02 -0.66499644737E+02  0.11884707057E+03  0.00000000000E+00 0. -1.
         -3    1    3    3    0  502 -0.49320269576E+02  0.78883478735E+02 -0.57152485228E+01  0.93208134162E+02  0.00000000000E+00 0.  1.
         13    1    5    5    0    0  0.19094760292E+02  0.12077329840E+02 -0.80445601878E+02  0.83558163145E+02  0.00000000000E+00 0.  1.
        -13    1    5    5    0    0  0.11718104699E+03 -0.45034020228E+02 -0.82406039384E+02  0.15016729364E+03  0.00000000000E+00 0. -1.
          3    1    6    6  503    0 -0.30358083106E+02 -0.58355976012E+02  0.76039885821E+03  0.76323879403E+03  0.00000000000E+00 0. -1.
         -3    1    6    6    0  503  0.33517975673E+02 -0.27340557864E+02  0.17173574689E+03  0.17709920259E+03  0.00000000000E+00 0.  1.
<mgrwt>
<rscale>  0 0.11980906E+04</rscale>
<asrwt>0</asrwt>
<pdfrwt beam="1">  1        2 0.16024513E+00 0.11980906E+04</pdfrwt>
<pdfrwt beam="2">  1       -1 0.53003892E-01 0.11980906E+04</pdfrwt>
<totfact> 0.95702254E+01</totfact>
</mgrwt>
</event>
<event>
12    7  0.1740517E-007  0.1498513E+04  0.7818608E-02  0.8885443E-01
          2   -1    0    0  501    0  0.00000000000E+00  0.00000000000E+00  0.12811653762E+04  0.12811653762E+04  0.00000000000E+00 0. -1.
         -1   -1    0    0    0  501 -0.00000000000E+00 -0.00000000000E+00 -0.43818305292E+03  0.43818305292E+03  0.00000000000E+00 0.  1.
         24    2    1    2    0    0  0.28461407711E+03  0.27949948617E+03 -0.36991788231E+02  0.40840031771E+03  0.79355475244E+02 0.  0.
        254    2    1    2    0    0 -0.28461407711E+03 -0.27949948617E+03  0.87997411151E+03  0.13109481114E+04  0.88606172371E+03 0.  0.
         23    2    4    4    0    0 -0.33411803925E+03 -0.56601120842E+03  0.55007494048E+03  0.86166711258E+03  0.88793133450E+02 0.  0.
         23    2    4    4    0    0  0.49503962142E+02  0.28651172225E+03  0.32989917103E+03  0.44928099883E+03  0.92088781128E+02 0.  0.
          4    1    3    3  502    0  0.19841108401E+03  0.23616773263E+03 -0.11763850988E+02  0.30867546773E+03  0.00000000000E+00 0. -1.
         -3    1    3    3    0  502  0.86202993104E+02  0.43331753540E+02 -0.25227937243E+02  0.99724849975E+02  0.00000000000E+00 0.  1.
         13    1    5    5    0    0 -0.17722663217E+03 -0.23323625491E+03  0.20764062252E+03  0.35905857165E+03  0.00000000000E+00 0.  1.
        -13    1    5    5    0    0 -0.15689140709E+03 -0.33277495351E+03  0.34243431797E+03  0.50260854094E+03  0.00000000000E+00 0. -1.
          3    1    6    6  503    0 -0.21697566866E+02  0.28049707033E+02  0.25632706438E+02  0.43756212266E+02  0.00000000000E+00 0.  1.
         -3    1    6    6    0  503  0.71201529008E+02  0.25846201522E+03  0.30426646459E+03  0.40552478656E+03  0.00000000000E+00 0. -1.
<mgrwt>
<rscale>  0 0.14985125E+04</rscale>
<asrwt>0</asrwt>
<pdfrwt beam="1">  1        2 0.19710236E+00 0.14985125E+04</pdfrwt>
<pdfrwt beam="2">  1       -1 0.67412778E-01 0.14985125E+04</pdfrwt>
<totfact> 0.41629724E+01</totfact>
</mgrwt>
</event>
<event>
12    7  0.1740517E-007  0.1601591E+04  0.7818608E-02  0.8819571E-01
         -1   -1    0    0    0  501 -0.00000000000E+00  0.00000000000E+00  0.38835689271E+03  0.38835689271E+03  0.00000000000E+00 0.  1.
          2   -1    0    0  501    0  0.00000000000E+00 -0.00000000000E+00 -0.16512484645E+04  0.16512484645E+04  0.00000000000E+00 0. -1.
         24    2    1    2    0    0  0.51974508959E+03 -0.77677054275E+02 -0.52699170021E+03  0.74867266567E+03  0.81374598695E+02 0.  0.
        254    2    1    2    0    0 -0.51974508959E+03  0.77677054275E+02 -0.73589987158E+03  0.12909326915E+04  0.92129794863E+03 0.  0.
         23    2    4    4    0    0  0.16239730136E+03  0.18996700196E+03  0.13189342609E+02  0.26633905214E+03  0.91116335605E+02 0.  0.
         23    2    4    4    0    0 -0.68214239095E+03 -0.11228994769E+03 -0.74908921419E+03  0.10245936394E+04  0.10358668437E+03 0.  0.
          2    1    3    3  502    0  0.13821924239E+03 -0.30963638638E+02 -0.19341789760E+03  0.23973691621E+03  0.00000000000E+00 0. -1.
         -1    1    3    3    0  502  0.38152584720E+03 -0.46713415636E+02 -0.33357380261E+03  0.50893574945E+03  0.00000000000E+00 0.  1.
         13    1    5    5    0    0  0.11627014230E+03  0.66219130457E+02  0.22845873839E+01  0.13382428243E+03  0.00000000000E+00 0. -1.
        -13    1    5    5    0    0  0.46127159060E+02  0.12374787151E+03  0.10904755225E+02  0.13251476971E+03  0.00000000000E+00 0.  1.
          1    1    6    6  503    0 -0.38060410257E+03 -0.22098146957E+02 -0.36237814389E+03  0.52599023771E+03  0.00000000000E+00 0. -1.
         -1    1    6    6    0  503 -0.30153828838E+03 -0.90191800733E+02 -0.38671107030E+03  0.49860340168E+03  0.00000000000E+00 0.  1.
<mgrwt>
<rscale>  0 0.16015914E+04</rscale>
<asrwt>0</asrwt>
<pdfrwt beam="1">  1        2 0.25403822E+00 0.16015914E+04</pdfrwt>
<pdfrwt beam="2">  1       -1 0.59747216E-01 0.16015914E+04</pdfrwt>
<totfact> 0.32388741E+01</totfact>
</mgrwt>
</event>
<event>
12    7  0.1740517E-007  0.1415248E+04  0.7818608E-02  0.8942855E-01
          2   -1    0    0  501    0  0.00000000000E+00  0.00000000000E+00  0.18605556615E+04  0.18605556615E+04  0.00000000000E+00 0. -1.
         -1   -1    0    0    0  501 -0.00000000000E+00 -0.00000000000E+00 -0.26913027935E+03  0.26913027935E+03  0.00000000000E+00 0.  1.
         24    2    1    2    0    0 -0.19462617612E+03 -0.61943748724E+02  0.10100044701E+04  0.10335523092E+04  0.80031055943E+02 0.  0.
        254    2    1    2    0    0  0.19462617612E+03  0.61943748724E+02  0.58142091211E+03  0.10961336317E+04  0.90650001928E+03 0.  0.
         23    2    4    4    0    0 -0.22921504138E+03  0.12750595540E+03 -0.91936518455E+02  0.29249454878E+03  0.91123179183E+02 0.  0.
         23    2    4    4    0    0  0.42384121751E+03 -0.65562206672E+02  0.67335743057E+03  0.80363908287E+03  0.92118215428E+02 0.  0.
          4    1    3    3  502    0 -0.16965504075E+03 -0.41061253929E+02  0.68379326932E+03  0.70572097503E+03  0.00000000000E+00 0. -1.
         -3    1    3    3    0  502 -0.24971135373E+02 -0.20882494795E+02  0.32621120075E+03  0.32783133420E+03  0.00000000000E+00 0.  1.
         13    1    5    5    0    0 -0.13476720076E+03  0.51588846219E+02 -0.69216313508E+01  0.14446977689E+03  0.00000000000E+00 0.  1.
        -13    1    5    5    0    0 -0.94447840628E+02  0.75917109178E+02 -0.85014887104E+02  0.14802477190E+03  0.00000000000E+00 0. -1.
          4    1    6    6  503    0  0.31913302463E+03 -0.35116193154E+02  0.56537815962E+03  0.65017805085E+03  0.00000000000E+00 0. -1.
         -4    1    6    6    0  503  0.10470819287E+03 -0.30446013518E+02  0.10797927095E+03  0.15346103202E+03  0.00000000000E+00 0.  1.
<mgrwt>
<rscale>  0 0.14152482E+04</rscale>
<asrwt>0</asrwt>
<pdfrwt beam="1">  1        2 0.28623932E+00 0.14152482E+04</pdfrwt>
<pdfrwt beam="2">  1       -1 0.41404660E-01 0.14152482E+04</pdfrwt>
<totfact> 0.50571187E+01</totfact>
</mgrwt>
</event>
<event>
12    7  0.1740517E-007  0.1890695E+04  0.7818608E-02  0.8659502E-01
          2   -1    0    0  501    0  0.00000000000E+00  0.00000000000E+00  0.24788501793E+04  0.24788501793E+04  0.00000000000E+00 0. -1.
         -1   -1    0    0    0  501 -0.00000000000E+00 -0.00000000000E+00 -0.36052258108E+03  0.36052258108E+03  0.00000000000E+00 0.  1.
         24    2    1    2    0    0 -0.45260443355E+03  0.17400128832E+03  0.26475026834E+02  0.49173689181E+03  0.77311203025E+02 0.  0.
        254    2    1    2    0    0  0.45260443355E+03 -0.17400128832E+03  0.20918525714E+04  0.23476358686E+04  0.94890451014E+03 0.  0.
         23    2    4    4    0    0  0.71983007268E+03 -0.14709305094E+03  0.17701577335E+04  0.19187377546E+04  0.91128866327E+02 0.  0.
         23    2    4    4    0    0 -0.26722563913E+03 -0.26908237380E+02  0.32169483786E+03  0.42889811395E+03  0.91282134028E+02 0.  0.
          2    1    3    3  502    0 -0.25929702754E+02  0.29502968318E+02  0.11826687554E+02  0.41020058057E+02  0.00000000000E+00 0. -1.
         -1    1    3    3    0  502 -0.42667473080E+03  0.14449832000E+03  0.14648339280E+02  0.45071683375E+03  0.00000000000E+00 0.  1.
         13    1    5    5    0    0  0.63877795074E+03 -0.10535250227E+03  0.15048706609E+04  0.16382222456E+04  0.00000000000E+00 0.  1.
        -13    1    5    5    0    0  0.81052121938E+02 -0.41740548668E+02  0.26528707262E+03  0.28051550897E+03  0.00000000000E+00 0. -1.
          4    1    6    6  503    0 -0.10163794756E+02  0.19481589017E+02  0.18734357070E+02  0.28875788635E+02  0.00000000000E+00 0. -1.
         -4    1    6    6    0  503 -0.25706184438E+03 -0.46389826397E+02  0.30296048079E+03  0.40002232531E+03  0.00000000000E+00 0.  1.
<mgrwt>
<rscale>  0 0.18906945E+04</rscale>
<asrwt>0</asrwt>
<pdfrwt beam="1">  1        2 0.38136156E+00 0.18906945E+04</pdfrwt>
<pdfrwt beam="2">  1       -1 0.55465014E-01 0.18906945E+04</pdfrwt>
<totfact> 0.12568431E+01</totfact>
</mgrwt>
</event>
<event>
12    7  0.1740517E-007  0.1555263E+04  0.7818608E-02  0.8848513E-01
          2   -1    0    0  501    0  0.00000000000E+00  0.00000000000E+00  0.11841778690E+04  0.11841778690E+04  0.00000000000E+00 0. -1.
         -1   -1    0    0    0  501 -0.00000000000E+00 -0.00000000000E+00 -0.51065865584E+03  0.51065865584E+03  0.00000000000E+00 0.  1.
         24    2    1    2    0    0  0.34253842915E+02  0.33115391779E+03  0.66216871589E+03  0.74534519061E+03  0.78967093386E+02 0.  0.
        254    2    1    2    0    0 -0.34253842915E+02 -0.33115391779E+03  0.11350497257E+02  0.94949133422E+03  0.88913931245E+03 0.  0.
         23    2    4    4    0    0 -0.18782506500E+03 -0.51969084564E+03 -0.22132795294E+03  0.60209561412E+03  0.90422539768E+02 0.  0.
         23    2    4    4    0    0  0.15357122208E+03  0.18853692786E+03  0.23267845020E+03  0.34739572010E+03  0.86105933228E+02 0.  0.
          4    1    3    3  502    0  0.69493681704E+01  0.17659890599E+03  0.43204561783E+03  0.46679640444E+03  0.00000000000E+00 0. -1.
         -3    1    3    3    0  502  0.27304474745E+02  0.15455501180E+03  0.23012309806E+03  0.27854878617E+03  0.00000000000E+00 0.  1.
         13    1    5    5    0    0 -0.89700902556E+02 -0.15757870605E+03 -0.41294005598E+02  0.18596369382E+03  0.00000000000E+00 0. -1.
        -13    1    5    5    0    0 -0.98124162440E+02 -0.36211213959E+03 -0.18003394734E+03  0.41613192030E+03  0.00000000000E+00 0.  1.
          3    1    6    6  503    0 -0.88129539890E+01  0.18014005209E+01  0.16555801882E+02  0.18841650082E+02  0.00000000000E+00 0. -1.
         -3    1    6    6    0  503  0.16238417607E+03  0.18673552734E+03  0.21612264832E+03  0.32855407002E+03  0.00000000000E+00 0.  1.
<mgrwt>
<rscale>  0 0.15552629E+04</rscale>
<asrwt>0</asrwt>
<pdfrwt beam="1">  1        2 0.18218121E+00 0.15552629E+04</pdfrwt>
<pdfrwt beam="2">  1       -1 0.78562871E-01 0.15552629E+04</pdfrwt>
<totfact> 0.34440889E+01</totfact>
</mgrwt>
</event>
<event>
12    7  0.1740517E-007  0.1446309E+04  0.7818608E-02  0.8920963E-01
          2   -1    0    0  501    0  0.00000000000E+00  0.00000000000E+00  0.13123688008E+04  0.13123688008E+04  0.00000000000E+00 0. -1.
         -1   -1    0    0    0  501 -0.00000000000E+00 -0.00000000000E+00 -0.39847968734E+03  0.39847968734E+03  0.00000000000E+00 0.  1.
         24    2    1    2    0    0 -0.29418282741E+03  0.32396683733E+03  0.32716862640E+03  0.55227907122E+03  0.80466233732E+02 0.  0.
        254    2    1    2    0    0  0.29418282741E+03 -0.32396683733E+03  0.58672048706E+03  0.11585694169E+04  0.89807801234E+03 0.  0.
         23    2    4    4    0    0  0.20508002417E+03 -0.77245307573E+02  0.78358918626E+03  0.81873687682E+03  0.91068143672E+02 0.  0.
         23    2    4    4    0    0  0.89102803244E+02 -0.24672152976E+03 -0.19686869919E+03  0.33983254010E+03  0.88983413034E+02 0.  0.
          2    1    3    3  502    0 -0.10654027356E+03  0.70913906407E+02  0.11839988288E+03  0.17435063602E+03  0.00000000000E+00 0. -1.
         -1    1    3    3    0  502 -0.18764255385E+03  0.25305293093E+03  0.20876874351E+03  0.37792843520E+03  0.00000000000E+00 0.  1.
         13    1    5    5    0    0  0.36030882999E+02  0.48940931219E+01  0.52412644812E+02  0.63790767462E+02  0.00000000000E+00 0. -1.
        -13    1    5    5    0    0  0.16904914117E+03 -0.82139400695E+02  0.73117654145E+03  0.75494610936E+03  0.00000000000E+00 0.  1.
          2    1    6    6  503    0  0.49880998434E+02 -0.20635185880E+03 -0.18654162506E+03  0.28260746897E+03  0.00000000000E+00 0. -1.
         -2    1    6    6    0  503  0.39221804810E+02 -0.40369670962E+02 -0.10327074130E+02  0.57225071133E+02  0.00000000000E+00 0.  1.
<mgrwt>
<rscale>  0 0.14463088E+04</rscale>
<asrwt>0</asrwt>
<pdfrwt beam="1">  1        2 0.20190289E+00 0.14463088E+04</pdfrwt>
<pdfrwt beam="2">  1       -1 0.61304568E-01 0.14463088E+04</pdfrwt>
<totfact> 0.48516962E+01</totfact>
</mgrwt>
</event>
<event>
12    7  0.1740517E-007  0.1127282E+04  0.7818608E-02  0.9179001E-01
          2   -1    0    0  501    0  0.00000000000E+00  0.00000000000E+00  0.63643353041E+03  0.63643353041E+03  0.00000000000E+00 0. -1.
         -1   -1    0    0    0  501 -0.00000000000E+00 -0.00000000000E+00 -0.49917427677E+03  0.49917427677E+03  0.00000000000E+00 0.  1.
         24    2    1    2    0    0 -0.17888198347E+03 -0.55464726905E+02 -0.78148049142E+01  0.20358096128E+03  0.79429444648E+02 0.  0.
        254    2    1    2    0    0  0.17888198347E+03  0.55464726905E+02  0.14507405855E+03  0.93202684590E+03  0.90141691746E+03 0.  0.
         23    2    4    4    0    0  0.51235824198E+03  0.18063264205E+03  0.99818421590E+02  0.56009902730E+03  0.92779758564E+02 0.  0.
         23    2    4    4    0    0 -0.33347625850E+03 -0.12516791515E+03  0.45255636958E+02  0.37192781860E+03  0.96999008281E+02 0.  0.
          4    1    3    3  502    0 -0.16857464391E+03 -0.32300925850E+02  0.11023228559E+02  0.17199497652E+03  0.00000000000E+00 0. -1.
         -3    1    3    3    0  502 -0.10307339567E+02 -0.23163801055E+02 -0.18838033473E+02  0.31585984762E+02  0.00000000000E+00 0.  1.
         13    1    5    5    0    0  0.35906119812E+03  0.13665878203E+03  0.11192799438E+03  0.40016052107E+03  0.00000000000E+00 0.  1.
        -13    1    5    5    0    0  0.15329704386E+03  0.43973860025E+02 -0.12109572793E+02  0.15993850623E+03  0.00000000000E+00 0. -1.
          1    1    6    6  503    0 -0.32124634350E+03 -0.13382034224E+03  0.28078277291E+02  0.34913534176E+03  0.00000000000E+00 0. -1.
         -1    1    6    6    0  503 -0.12229915000E+02  0.86524270920E+01  0.17177359667E+02  0.22792476843E+02  0.00000000000E+00 0.  1.
<mgrwt>
<rscale>  0 0.11272821E+04</rscale>
<asrwt>0</asrwt>
<pdfrwt beam="1">  1        2 0.97912851E-01 0.11272821E+04</pdfrwt>
<pdfrwt beam="2">  1       -1 0.76796042E-01 0.11272821E+04</pdfrwt>
<totfact> 0.88958168E+01</totfact>
</mgrwt>
</event>
<event>
12    7  0.1740517E-007  0.2614100E+04  0.7818608E-02  0.8363428E-01
         -1   -1    0    0    0  501 -0.00000000000E+00  0.00000000000E+00  0.59452048481E+03  0.59452048481E+03  0.00000000000E+00 0.  1.
          2   -1    0    0  501    0  0.00000000000E+00 -0.00000000000E+00 -0.28735417717E+04  0.28735417717E+04  0.00000000000E+00 0. -1.
         24    2    1    2    0    0  0.56137545544E+03 -0.24843739767E+03 -0.22993832485E+04  0.23812772074E+04  0.80338488965E+02 0.  0.
        254    2    1    2    0    0 -0.56137545544E+03  0.24843739767E+03  0.20361961601E+02  0.10867850490E+04  0.89656209535E+03 0.  0.
         23    2    4    4    0    0 -0.60320318142E+03 -0.55905384625E+02 -0.25577918026E+03  0.66372950211E+03  0.90190757913E+02 0.  0.
         23    2    4    4    0    0  0.41827725982E+02  0.30434278229E+03  0.27614114186E+03  0.42305554693E+03  0.91367268593E+02 0.  0.
          2    1    3    3  502    0  0.54014685992E+03 -0.21921265635E+03 -0.21734307785E+04  0.22502475792E+04  0.00000000000E+00 0. -1.
         -1    1    3    3    0  502  0.21228595520E+02 -0.29224741320E+02 -0.12595247000E+03  0.13102962822E+03  0.00000000000E+00 0.  1.
         13    1    5    5    0    0 -0.15670859109E+03 -0.37530575450E+02 -0.10399070794E+03  0.19178163090E+03  0.00000000000E+00 0. -1.
        -13    1    5    5    0    0 -0.44649459034E+03 -0.18374809175E+02 -0.15178847232E+03  0.47194787121E+03  0.00000000000E+00 0.  1.
          4    1    6    6  503    0 -0.29273757450E+02  0.93314875845E+02  0.82104117877E+02  0.12769379430E+03  0.00000000000E+00 0. -1.
         -4    1    6    6    0  503  0.71101483432E+02  0.21102790645E+03  0.19403702398E+03  0.29536175264E+03  0.00000000000E+00 0.  1.
<mgrwt>
<rscale>  0 0.26140998E+04</rscale>
<asrwt>0</asrwt>
<pdfrwt beam="1">  1        2 0.44208336E+00 0.26140998E+04</pdfrwt>
<pdfrwt beam="2">  1       -1 0.91464688E-01 0.26140998E+04</pdfrwt>
<totfact> 0.24415182E+00</totfact>
</mgrwt>
</event>
<event>
12    7  0.1740517E-007  0.1923357E+04  0.7818608E-02  0.8643317E-01
         -1   -1    0    0    0  501 -0.00000000000E+00  0.00000000000E+00  0.74139648709E+03  0.74139648709E+03  0.00000000000E+00 0.  1.
          2   -1    0    0  501    0  0.00000000000E+00 -0.00000000000E+00 -0.12474100857E+04  0.12474100857E+04  0.00000000000E+00 0. -1.
         24    2    1    2    0    0 -0.28191855575E+03 -0.20879943417E+03 -0.87471326214E+03  0.94586340426E+03  0.80367983401E+02 0.  0.
        254    2    1    2    0    0  0.28191855575E+03  0.20879943417E+03  0.36869966355E+03  0.10429431685E+04  0.91033825310E+03 0.  0.
         23    2    4    4    0    0 -0.88161653628E+02  0.96076854954E+02 -0.25666472150E+03  0.30192213320E+03  0.90977777622E+02 0.  0.
         23    2    4    4    0    0  0.37008020937E+03  0.11272257922E+03  0.62536438506E+03  0.74102103531E+03  0.91464853606E+02 0.  0.
          2    1    3    3  502    0 -0.19681578881E+03 -0.18049206730E+03 -0.70552147359E+03  0.75437019478E+03  0.00000000000E+00 0. -1.
         -1    1    3    3    0  502 -0.85102766940E+02 -0.28307366875E+02 -0.16919178856E+03  0.19149320948E+03  0.00000000000E+00 0.  1.
         13    1    5    5    0    0 -0.10581795746E+03  0.76572875857E+02 -0.19309465788E+03  0.23312312699E+03  0.00000000000E+00 0.  1.
        -13    1    5    5    0    0  0.17656303827E+02  0.19503979097E+02 -0.63570063628E+02  0.68799006208E+02  0.00000000000E+00 0. -1.
          4    1    6    6  503    0  0.13992016837E+03  0.86885681286E+02  0.28885978278E+03  0.33251578795E+03  0.00000000000E+00 0. -1.
         -4    1    6    6    0  503  0.23016004100E+03  0.25836897931E+02  0.33650460228E+03  0.40850524736E+03  0.00000000000E+00 0.  1.
<mgrwt>
<rscale>  0 0.19233569E+04</rscale>
<asrwt>0</asrwt>
<pdfrwt beam="1">  1        2 0.19190924E+00 0.19233569E+04</pdfrwt>
<pdfrwt beam="2">  1       -1 0.11406100E+00 0.19233569E+04</pdfrwt>
<totfact> 0.13244005E+01</totfact>
</mgrwt>
</event>
<event>
12    7  0.1740517E-007  0.9408085E+03  0.7818608E-02  0.9375959E-01
         -1   -1    0    0    0  501 -0.00000000000E+00  0.00000000000E+00  0.19427759450E+03  0.19427759450E+03  0.00000000000E+00 0.  1.
          2   -1    0    0  501    0  0.00000000000E+00 -0.00000000000E+00 -0.11389896329E+04  0.11389896329E+04  0.00000000000E+00 0. -1.
         24    2    1    2    0    0 -0.74356612517E+02 -0.15399326772E+03 -0.19261762493E+03  0.26767644677E+03  0.72844343595E+02 0.  0.
        254    2    1    2    0    0  0.74356612517E+02  0.15399326772E+03 -0.75209441349E+03  0.10655907806E+04  0.73525157100E+03 0.  0.
         23    2    4    4    0    0  0.20243275100E+03  0.25207450955E+03 -0.50475572510E+02  0.33977985767E+03  0.91553215204E+02 0.  0.
         23    2    4    4    0    0 -0.12807613849E+03 -0.98081241833E+02 -0.70161884098E+03  0.72581092297E+03  0.92244623912E+02 0.  0.
          4    1    3    3  502    0 -0.20824426537E+02 -0.26816605349E+02 -0.88585847818E+02  0.94869592055E+02  0.00000000000E+00 0. -1.
         -3    1    3    3    0  502 -0.53532185980E+02 -0.12717666237E+03 -0.10403177711E+03  0.17280685471E+03  0.00000000000E+00 0.  1.
         13    1    5    5    0    0  0.81437535108E+02  0.72704384968E+02  0.22454446959E+02  0.11145493218E+03  0.00000000000E+00 0.  1.
        -13    1    5    5    0    0  0.12099521590E+03  0.17937012458E+03 -0.72930019469E+02  0.22832492549E+03  0.00000000000E+00 0. -1.
          4    1    6    6  503    0 -0.34525065326E+02 -0.53320024181E+02 -0.12802983126E+03  0.14292180662E+03  0.00000000000E+00 0. -1.
         -4    1    6    6    0  503 -0.93551073160E+02 -0.44761217653E+02 -0.57358900971E+03  0.58288911635E+03  0.00000000000E+00 0.  1.
<mgrwt>
<rscale>  0 0.94080852E+03</rscale>
<asrwt>0</asrwt>
<pdfrwt beam="1">  1        2 0.17522917E+00 0.94080852E+03</pdfrwt>
<pdfrwt beam="2">  1       -1 0.29888861E-01 0.94080852E+03</pdfrwt>
<totfact> 0.24123511E+02</totfact>
</mgrwt>
</event>
<event>
12    7  0.1740517E-007  0.1782084E+04  0.7818608E-02  0.8715885E-01
          2   -1    0    0  501    0  0.00000000000E+00  0.00000000000E+00  0.82971811580E+03  0.82971811580E+03  0.00000000000E+00 0. -1.
         -1   -1    0    0    0  501 -0.00000000000E+00 -0.00000000000E+00 -0.95689856352E+03  0.95689856352E+03  0.00000000000E+00 0.  1.
         24    2    1    2    0    0 -0.62705190584E+02 -0.60119203826E+03 -0.26790371219E+03  0.66573882755E+03  0.77922908748E+02 0.  0.
        254    2    1    2    0    0  0.62705190584E+02  0.60119203826E+03  0.14072326447E+03  0.11208778518E+04  0.93338111917E+03 0.  0.
         23    2    4    4    0    0 -0.13261246543E+03  0.80127814456E+03  0.12963937655E+03  0.82731164147E+03  0.89473198347E+02 0.  0.
         23    2    4    4    0    0  0.19531765602E+03 -0.20008610629E+03  0.11083887915E+02  0.29356621030E+03  0.88740242149E+02 0.  0.
          2    1    3    3  502    0  0.51177196795E+01 -0.14811625189E+03 -0.95179739106E+02  0.17613573705E+03  0.00000000000E+00 0. -1.
         -1    1    3    3    0  502 -0.67822910264E+02 -0.45307578637E+03 -0.17272397309E+03  0.48960309051E+03  0.00000000000E+00 0.  1.
         13    1    5    5    0    0 -0.21441141182E+02  0.21590823309E+03 -0.25761827074E+01  0.21698553954E+03  0.00000000000E+00 0. -1.
        -13    1    5    5    0    0 -0.11117132425E+03  0.58536991146E+03  0.13221555926E+03  0.61032610193E+03  0.00000000000E+00 0.  1.
          1    1    6    6  503    0  0.99944464988E+02 -0.58414551072E+02  0.35413140295E+02  0.12105885496E+03  0.00000000000E+00 0. -1.
         -1    1    6    6    0  503  0.95373191027E+02 -0.14167155522E+03 -0.24329252379E+02  0.17250735534E+03  0.00000000000E+00 0.  1.
<mgrwt>
<rscale>  0 0.17820843E+04</rscale>
<asrwt>0</asrwt>
<pdfrwt beam="1">  1        2 0.12764894E+00 0.17820843E+04</pdfrwt>
<pdfrwt beam="2">  1       -1 0.14721516E+00 0.17820843E+04</pdfrwt>
<totfact> 0.12988078E+01</totfact>
</mgrwt>
</event>
<event>
12    7  0.1740517E-007  0.1133643E+04  0.7818608E-02  0.9173008E-01
          2   -1    0    0  501    0  0.00000000000E+00  0.00000000000E+00  0.23423692040E+04  0.23423692040E+04  0.00000000000E+00 0. -1.
         -3   -1    0    0    0  501 -0.00000000000E+00 -0.00000000000E+00 -0.13716309612E+03  0.13716309612E+03  0.00000000000E+00 0.  1.
         24    2    1    2    0    0  0.10268578463E+03  0.15543301648E+03  0.29238139862E+03  0.35559905273E+03  0.79120231735E+02 0.  0.
        254    2    1    2    0    0 -0.10268578463E+03 -0.15543301648E+03  0.19128247092E+04  0.21239332473E+04  0.90415168972E+03 0.  0.
         23    2    4    4    0    0 -0.32055464908E+03 -0.29681643688E+03  0.44923027752E+03  0.63467189001E+03  0.10072380788E+03 0.  0.
         23    2    4    4    0    0  0.21786886446E+03  0.14138342040E+03  0.14635944317E+04  0.14892613573E+04  0.91294119819E+02 0.  0.
          2    1    3    3  502    0  0.13950904249E+02  0.73393072085E+02  0.15861143085E+03  0.17532471804E+03  0.00000000000E+00 0. -1.
         -1    1    3    3    0  502  0.88734880380E+02  0.82039944397E+02  0.13376996777E+03  0.18027433469E+03  0.00000000000E+00 0.  1.
         13    1    5    5    0    0 -0.19491361126E+03 -0.24331673009E+03  0.31465755881E+03  0.44294889808E+03  0.00000000000E+00 0. -1.
        -13    1    5    5    0    0 -0.12564103782E+03 -0.53499706794E+02  0.13457271870E+03  0.19172299192E+03  0.00000000000E+00 0.  1.
          3    1    6    6  503    0  0.82397065676E+02  0.10787732047E+03  0.72452971139E+03  0.73713641572E+03  0.00000000000E+00 0. -1.
         -3    1    6    6    0  503  0.13547179878E+03  0.33506099933E+02  0.73906472031E+03  0.75212494162E+03  0.00000000000E+00 0.  1.
<mgrwt>
<rscale>  0 0.11336430E+04</rscale>
<asrwt>0</asrwt>
<pdfrwt beam="1">  1        2 0.36036446E+00 0.11336430E+04</pdfrwt>
<pdfrwt beam="2">  1       -3 0.21102017E-01 0.11336430E+04</pdfrwt>
<totfact> 0.57938452E+01</totfact>
</mgrwt>
</event>
<event>
12    7  0.1740517E-007  0.2210422E+04  0.7818608E-02  0.8514103E-01
         -1   -1    0    0    0  501 -0.00000000000E+00  0.00000000000E+00  0.40248817028E+03  0.40248817028E+03  0.00000000000E+00 0.  1.
          2   -1    0    0  501    0  0.00000000000E+00 -0.00000000000E+00 -0.30348497885E+04  0.30348497885E+04  0.00000000000E+00 0. -1.
         24    2    1    2    0    0  0.65598459723E+03  0.31881261484E+03 -0.23562411488E+03  0.77256273203E+03  0.96835820954E+02 0.  0.
        254    2    1    2    0    0 -0.65598459723E+03 -0.31881261484E+03 -0.23967375034E+04  0.26647752268E+04  0.90814044838E+03 0.  0.
         23    2    4    4    0    0  0.14560702136E+03 -0.80453573006E+02 -0.11190276155E+04  0.11349868752E+04  0.91094568341E+02 0.  0.
         23    2    4    4    0    0 -0.80159161859E+03 -0.23835904183E+03 -0.12777098879E+04  0.15297883516E+04  0.91354734093E+02 0.  0.
          2    1    3    3  502    0  0.36970318101E+02  0.15741017990E+02 -0.38626983505E+02  0.55737132350E+02  0.00000000000E+00 0. -1.
         -1    1    3    3    0  502  0.61901427913E+03  0.30307159685E+03 -0.19699713137E+03  0.71682559968E+03  0.00000000000E+00 0.  1.
         13    1    5    5    0    0  0.12665202379E+03 -0.86799438610E+02 -0.10826125966E+04  0.10934463462E+04  0.00000000000E+00 0. -1.
        -13    1    5    5    0    0  0.18954997574E+02  0.63458656036E+01 -0.36415018911E+02  0.41540528951E+02  0.00000000000E+00 0.  1.
          4    1    6    6  503    0 -0.27137956967E+03 -0.10230520071E+03 -0.51382318139E+03  0.59002329332E+03  0.00000000000E+00 0.  1.
         -4    1    6    6    0  503 -0.53021204893E+03 -0.13605384112E+03 -0.76388670647E+03  0.93976505832E+03  0.00000000000E+00 0. -1.
<mgrwt>
<rscale>  0 0.22104218E+04</rscale>
<asrwt>0</asrwt>
<pdfrwt beam="1">  1        2 0.46689996E+00 0.22104218E+04</pdfrwt>
<pdfrwt beam="2">  1       -1 0.61921258E-01 0.22104218E+04</pdfrwt>
<totfact> 0.45563606E+00</totfact>
</mgrwt>
</event>
<event>
12    7  0.1740517E-007  0.1608815E+04  0.7818608E-02  0.8815151E-01
         -1   -1    0    0    0  501 -0.00000000000E+00  0.00000000000E+00  0.30900445752E+03  0.30900445752E+03  0.00000000000E+00 0.  1.
          2   -1    0    0  501    0  0.00000000000E+00 -0.00000000000E+00 -0.20940521018E+04  0.20940521018E+04  0.00000000000E+00 0. -1.
         24    2    1    2    0    0  0.16832617947E+03 -0.49977230922E+03 -0.85550889518E+03  0.10081775597E+04  0.80127763014E+02 0.  0.
        254    2    1    2    0    0 -0.16832617947E+03  0.49977230922E+03 -0.92953874910E+03  0.13948789996E+04  0.89640341016E+03 0.  0.
         23    2    4    4    0    0  0.98376757059E+02 -0.12697016130E+03  0.55201668859E+02  0.19407134881E+03  0.93899179948E+02 0.  0.
         23    2    4    4    0    0 -0.26670293653E+03  0.62674247051E+03 -0.98474041796E+03  0.12008076508E+04  0.91042532845E+02 0.  0.
          2    1    3    3  502    0  0.92886970291E+02 -0.25503838209E+03 -0.36526248732E+03  0.45507059917E+03  0.00000000000E+00 0. -1.
         -1    1    3    3    0  502  0.75439209179E+02 -0.24473392713E+03 -0.49024640786E+03  0.55310696053E+03  0.00000000000E+00 0.  1.
         13    1    5    5    0    0  0.31956980986E+02 -0.79123047881E+02 -0.14501579152E+02  0.86556346605E+02  0.00000000000E+00 0.  1.
        -13    1    5    5    0    0  0.66419776073E+02 -0.47847113415E+02  0.69703248011E+02  0.10751500220E+03  0.00000000000E+00 0. -1.
          2    1    6    6  503    0 -0.71907523573E+02  0.21203957139E+03 -0.39447769595E+03  0.45359026046E+03  0.00000000000E+00 0. -1.
         -2    1    6    6    0  503 -0.19479541296E+03  0.41470289913E+03 -0.59026272200E+03  0.74721739035E+03  0.00000000000E+00 0.  1.
<mgrwt>
<rscale>  0 0.16088150E+04</rscale>
<asrwt>0</asrwt>
<pdfrwt beam="1">  1        2 0.32216185E+00 0.16088150E+04</pdfrwt>
<pdfrwt beam="2">  1       -1 0.47539149E-01 0.16088150E+04</pdfrwt>
<totfact> 0.28559670E+01</totfact>
</mgrwt>
</event>
<event>
12    7  0.1740517E-007  0.1546698E+04  0.7818608E-02  0.8853980E-01
          2   -1    0    0  501    0  0.00000000000E+00  0.00000000000E+00  0.76350517394E+03  0.76350517394E+03  0.00000000000E+00 0. -1.
         -1   -1    0    0    0  501 -0.00000000000E+00 -0.00000000000E+00 -0.78331946685E+03  0.78331946685E+03  0.00000000000E+00 0.  1.
         24    2    1    2    0    0  0.18529900068E+03  0.12975654195E+03 -0.46047873224E+03  0.51920042955E+03  0.79724170569E+02 0.  0.
        254    2    1    2    0    0 -0.18529900068E+03 -0.12975654195E+03  0.44066443933E+03  0.10276242112E+04  0.90036319982E+03 0.  0.
         23    2    4    4    0    0 -0.16558690528E+03 -0.35663826201E+03 -0.11647943602E+03  0.41846418579E+03  0.83276303019E+02 0.  0.
         23    2    4    4    0    0 -0.19712095399E+02  0.22688172006E+03  0.55714387535E+03  0.60916002544E+03  0.93823009721E+02 0.  0.
          4    1    3    3  502    0  0.89900919727E+02  0.52090107266E+02 -0.12905280616E+03  0.16568096276E+03  0.00000000000E+00 0. -1.
         -3    1    3    3    0  502  0.95398080956E+02  0.77666434681E+02 -0.33142592608E+03  0.35351946680E+03  0.00000000000E+00 0.  1.
         13    1    5    5    0    0 -0.59604124808E+02 -0.51065034054E+02 -0.23812560461E+02  0.82020286715E+02  0.00000000000E+00 0. -1.
        -13    1    5    5    0    0 -0.10598278048E+03 -0.30557322795E+03 -0.92666875561E+02  0.33644389907E+03  0.00000000000E+00 0.  1.
          2    1    6    6  503    0  0.64657795288E+01  0.18443091880E+02  0.14751409763E+03  0.14880310125E+03  0.00000000000E+00 0. -1.
         -2    1    6    6    0  503 -0.26177874927E+02  0.20843862818E+03  0.40962977772E+03  0.46035692419E+03  0.00000000000E+00 0.  1.
<mgrwt>
<rscale>  0 0.15466977E+04</rscale>
<asrwt>0</asrwt>
<pdfrwt beam="1">  1        2 0.11746233E+00 0.15466977E+04</pdfrwt>
<pdfrwt beam="2">  1       -1 0.12051069E+00 0.15466977E+04</pdfrwt>
<totfact> 0.24683729E+01</totfact>
</mgrwt>
</event>
<event>
12    7  0.1740517E-007  0.1415361E+04  0.7818608E-02  0.8942774E-01
          2   -1    0    0  501    0  0.00000000000E+00  0.00000000000E+00  0.32254098444E+03  0.32254098444E+03  0.00000000000E+00 0. -1.
         -1   -1    0    0    0  501 -0.00000000000E+00 -0.00000000000E+00 -0.15527062433E+04  0.15527062433E+04  0.00000000000E+00 0.  1.
         24    2    1    2    0    0 -0.32594347093E+03  0.14630241609E+03 -0.64204501255E+03  0.73925880973E+03  0.81475434590E+02 0.  0.
        254    2    1    2    0    0  0.32594347093E+03 -0.14630241609E+03 -0.58812024630E+03  0.11359884180E+04  0.90384772971E+03 0.  0.
         23    2    4    4    0    0  0.32273247842E+03  0.33946116812E+03 -0.31138341320E+03  0.56951074078E+03  0.89401994136E+02 0.  0.
         23    2    4    4    0    0  0.32109925114E+01 -0.48576358421E+03 -0.27673683310E+03  0.56647767721E+03  0.91307796893E+02 0.  0.
          2    1    3    3  502    0 -0.61597624824E+02  0.33609632300E+02 -0.20062656744E+03  0.21254386448E+03  0.00000000000E+00 0. -1.
         -1    1    3    3    0  502 -0.26434584610E+03  0.11269278379E+03 -0.44141844511E+03  0.52671494525E+03  0.00000000000E+00 0.  1.
         13    1    5    5    0    0  0.25949841571E+03  0.29568231422E+03 -0.29274549894E+03  0.49037474022E+03  0.00000000000E+00 0.  1.
        -13    1    5    5    0    0  0.63234062712E+02  0.43778853900E+02 -0.18637914259E+02  0.79136000555E+02  0.00000000000E+00 0. -1.
          1    1    6    6  503    0  0.22099108353E+02 -0.51955163755E+02 -0.11378305379E+02  0.57594925680E+02  0.00000000000E+00 0. -1.
         -1    1    6    6    0  503 -0.18888115841E+02 -0.43380842045E+03 -0.26535852772E+03  0.50888275153E+03  0.00000000000E+00 0.  1.
<mgrwt>
<rscale>  0 0.14153606E+04</rscale>
<asrwt>0</asrwt>
<pdfrwt beam="1">  1        2 0.49621690E-01 0.14153606E+04</pdfrwt>
<pdfrwt beam="2">  1       -1 0.23887788E+00 0.14153606E+04</pdfrwt>
<totfact> 0.93011260E+00</totfact>
</mgrwt>
</event>
<event>
12    7  0.1740517E-007  0.1536468E+04  0.7818608E-02  0.8860558E-01
         -3   -1    0    0    0  501 -0.00000000000E+00  0.00000000000E+00  0.88664896793E+03  0.88664896793E+03  0.00000000000E+00 0.  1.
          4   -1    0    0  501    0  0.00000000000E+00 -0.00000000000E+00 -0.66563400138E+03  0.66563400138E+03  0.00000000000E+00 0. -1.
         24    2    1    2    0    0 -0.10379106177E+03  0.64809679780E+02 -0.40856395000E+03  0.43391376160E+03  0.79898511670E+02 0.  0.
        254    2    1    2    0    0  0.10379106177E+03 -0.64809679780E+02  0.62957891656E+03  0.11183692077E+04  0.91619167945E+03 0.  0.
         23    2    4    4    0    0  0.35384720478E+03  0.23521071081E+03  0.56340392701E+03  0.71189770487E+03  0.94034219388E+02 0.  0.
         23    2    4    4    0    0 -0.25005614301E+03 -0.30002039059E+03  0.66174989546E+02  0.40647150285E+03  0.91102381747E+02 0.  0.
          4    1    3    3  502    0 -0.10727918455E+03  0.65346199502E+02 -0.41090650761E+03  0.42967791102E+03  0.00000000000E+00 0. -1.
         -3    1    3    3    0  502  0.34881227807E+01 -0.53651972166E+00  0.23425576069E+01  0.42358505742E+01  0.00000000000E+00 0.  1.
         13    1    5    5    0    0  0.21024066665E+03  0.12130323693E+03  0.39128914904E+03  0.46045934822E+03  0.00000000000E+00 0. -1.
        -13    1    5    5    0    0  0.14360653814E+03  0.11390747388E+03  0.17211477797E+03  0.25143835665E+03  0.00000000000E+00 0.  1.
          1    1    6    6  503    0 -0.18209898483E+03 -0.22829047085E+03  0.86776122541E+01  0.29215044123E+03  0.00000000000E+00 0. -1.
         -1    1    6    6    0  503 -0.67957158182E+02 -0.71729919734E+02  0.57497377292E+02  0.11432106161E+03  0.00000000000E+00 0.  1.
<mgrwt>
<rscale>  0 0.15364683E+04</rscale>
<asrwt>0</asrwt>
<pdfrwt beam="1">  1        4 0.10240523E+00 0.15364683E+04</pdfrwt>
<pdfrwt beam="2">  1       -3 0.13640753E+00 0.15364683E+04</pdfrwt>
<totfact> 0.70750994E-01</totfact>
</mgrwt>
</event>
<event>
12    7  0.1740517E-007  0.1541050E+04  0.7818608E-02  0.8857605E-01
          2   -1    0    0  501    0  0.00000000000E+00  0.00000000000E+00  0.76994635650E+03  0.76994635650E+03  0.00000000000E+00 0. -1.
         -1   -1    0    0    0  501 -0.00000000000E+00 -0.00000000000E+00 -0.77110374891E+03  0.77110374891E+03  0.00000000000E+00 0.  1.
         24    2    1    2    0    0  0.12981392808E+02  0.43449700062E+03  0.25065690615E+03  0.50835254848E+03  0.81469434962E+02 0.  0.
        254    2    1    2    0    0 -0.12981392808E+02 -0.43449700062E+03 -0.25181429856E+03  0.10326975569E+04  0.90227359654E+03 0.  0.
         23    2    4    4    0    0  0.42280165787E+03 -0.10050273233E+03 -0.89868744441E+02  0.45306682221E+03  0.91274931121E+02 0.  0.
         23    2    4    4    0    0 -0.43578305068E+03 -0.33399426829E+03 -0.16194555412E+03  0.57963073472E+03  0.91029597509E+02 0.  0.
          2    1    3    3  502    0 -0.98698202345E+01  0.39950194669E+03  0.21733321881E+03  0.45489883134E+03  0.00000000000E+00 0. -1.
         -1    1    3    3    0  502  0.22851213043E+02  0.34995053935E+02  0.33323687345E+02  0.53453717137E+02  0.00000000000E+00 0.  1.
         13    1    5    5    0    0  0.27290764387E+03 -0.54592247013E+02 -0.10058707722E+03  0.29593353244E+03  0.00000000000E+00 0.  1.
        -13    1    5    5    0    0  0.14989401400E+03 -0.45910485316E+02  0.10718332784E+02  0.15713328976E+03  0.00000000000E+00 0. -1.
          2    1    6    6  503    0 -0.62195037663E+02 -0.93101276605E+02 -0.36114519940E+02  0.11764492750E+03  0.00000000000E+00 0. -1.
         -2    1    6    6    0  503 -0.37358801302E+03 -0.24089299169E+03 -0.12583103418E+03  0.46198580723E+03  0.00000000000E+00 0.  1.
<mgrwt>
<rscale>  0 0.15410497E+04</rscale>
<asrwt>0</asrwt>
<pdfrwt beam="1">  1        2 0.11845329E+00 0.15410497E+04</pdfrwt>
<pdfrwt beam="2">  1       -1 0.11863135E+00 0.15410497E+04</pdfrwt>
<totfact> 0.25382707E+01</totfact>
</mgrwt>
</event>
<event>
12    7  0.1740517E-007  0.1496253E+04  0.7818608E-02  0.8886949E-01
          2   -1    0    0  501    0  0.00000000000E+00  0.00000000000E+00  0.35206819096E+04  0.35206819096E+04  0.00000000000E+00 0. -1.
         -1   -1    0    0    0  501 -0.00000000000E+00 -0.00000000000E+00 -0.15897288387E+03  0.15897288387E+03  0.00000000000E+00 0.  1.
         24    2    1    2    0    0  0.20913442793E+03 -0.10426136229E+03  0.20893964597E+04  0.21039174027E+04  0.79266833218E+02 0.  0.
        254    2    1    2    0    0 -0.20913442793E+03  0.10426136229E+03  0.12723125661E+04  0.15757373908E+04  0.89975631061E+03 0.  0.
         23    2    4    4    0    0 -0.45761575095E+03  0.94518560285E+02  0.28715215417E+03  0.55558156408E+03  0.88705022101E+02 0.  0.
         23    2    4    4    0    0  0.24848132302E+03  0.97428020008E+01  0.98516041190E+03  0.10201558268E+04  0.91318035486E+02 0.  0.
          4    1    3    3  502    0  0.16238187872E+03 -0.70391048876E+02  0.18091516652E+04  0.18177878100E+04  0.00000000000E+00 0. -1.
         -3    1    3    3    0  502  0.46752549205E+02 -0.33870313411E+02  0.28024479446E+03  0.28612959268E+03  0.00000000000E+00 0.  1.
         13    1    5    5    0    0 -0.11535903409E+03 -0.14453525788E+02  0.76715025700E+02  0.13929036694E+03  0.00000000000E+00 0. -1.
        -13    1    5    5    0    0 -0.34225671686E+03  0.10897208607E+03  0.21043712847E+03  0.41629119714E+03  0.00000000000E+00 0.  1.
          3    1    6    6  503    0  0.61519430170E+02  0.17109935735E+02  0.42004108145E+03  0.42486692068E+03  0.00000000000E+00 0. -1.
         -3    1    6    6    0  503  0.18696189285E+03 -0.73671337339E+01  0.56511933046E+03  0.59528890607E+03  0.00000000000E+00 0.  1.
<mgrwt>
<rscale>  0 0.14962526E+04</rscale>
<asrwt>0</asrwt>
<pdfrwt beam="1">  1        2 0.54164331E+00 0.14962526E+04</pdfrwt>
<pdfrwt beam="2">  1       -1 0.24457369E-01 0.14962526E+04</pdfrwt>
<totfact> 0.12771000E+01</totfact>
</mgrwt>
</event>
<event>
12    7  0.1740517E-007  0.3832386E+04  0.7818608E-02  0.8039241E-01
         -1   -1    0    0    0  501 -0.00000000000E+00  0.00000000000E+00  0.10299972635E+04  0.10299972635E+04  0.00000000000E+00 0.  1.
          2   -1    0    0  501    0  0.00000000000E+00 -0.00000000000E+00 -0.35648586524E+04  0.35648586524E+04  0.00000000000E+00 0. -1.
         24    2    1    2    0    0 -0.61323743931E+03 -0.57794202699E+03  0.72461085102E+03  0.11141712731E+04  0.78991118423E+02 0.  0.
        254    2    1    2    0    0  0.61323743931E+03  0.57794202699E+03 -0.32594722399E+04  0.34806846429E+04  0.88370196154E+03 0.  0.
         23    2    4    4    0    0  0.30098081869E+03 -0.12509993560E+03 -0.42996047783E+03  0.54714119087E+03  0.90873665859E+02 0.  0.
         23    2    4    4    0    0  0.31225662063E+03  0.70304196259E+03 -0.28295117621E+04  0.29335434520E+04  0.88137249365E+02 0.  0.
          2    1    3    3  502    0  0.23747206908E+01 -0.42075474293E+01  0.37939585117E+01  0.61430346668E+01  0.00000000000E+00 0. -1.
         -1    1    3    3    0  502 -0.61561216000E+03 -0.57373447956E+03  0.72081689251E+03  0.11080282384E+04  0.00000000000E+00 0.  1.
         13    1    5    5    0    0  0.28389854115E+03 -0.13465028807E+03 -0.42172146513E+03  0.52590690801E+03  0.00000000000E+00 0. -1.
        -13    1    5    5    0    0  0.17082277541E+02  0.95503524704E+01 -0.82390127002E+01  0.21234282859E+02  0.00000000000E+00 0.  1.
          1    1    6    6  503    0  0.16861130554E+03  0.47954077817E+03 -0.18192572483E+04  0.18889378141E+04  0.00000000000E+00 0. -1.
         -1    1    6    6    0  503  0.14364531509E+03  0.22350118442E+03 -0.10102545138E+04  0.10446056379E+04  0.00000000000E+00 0.  1.
<mgrwt>
<rscale>  0 0.38323855E+04</rscale>
<asrwt>0</asrwt>
<pdfrwt beam="1">  1        2 0.54843979E+00 0.38323855E+04</pdfrwt>
<pdfrwt beam="2">  1       -1 0.15846112E+00 0.38323855E+04</pdfrwt>
<totfact> 0.19892750E-01</totfact>
</mgrwt>
</event>
<event>
12    7  0.1740517E-007  0.1249694E+04  0.7818608E-02  0.9070438E-01
          2   -1    0    0  501    0  0.00000000000E+00  0.00000000000E+00  0.10005306842E+04  0.10005306842E+04  0.00000000000E+00 0. -1.
         -1   -1    0    0    0  501 -0.00000000000E+00 -0.00000000000E+00 -0.39022666749E+03  0.39022666749E+03  0.00000000000E+00 0.  1.
         24    2    1    2    0    0 -0.14387969714E+03  0.12211231864E+03  0.40334853371E+03  0.45249152620E+03  0.80285465858E+02 0.  0.
        254    2    1    2    0    0  0.14387969714E+03 -0.12211231864E+03  0.20695548304E+03  0.93826582552E+03  0.89548835937E+03 0.  0.
         23    2    4    4    0    0 -0.10171962378E+03  0.16923994184E+03  0.43389872230E+03  0.48542182679E+03  0.91527094042E+02 0.  0.
         23    2    4    4    0    0  0.24559932091E+03 -0.29135226048E+03 -0.22694323926E+03  0.45284399873E+03  0.91429137692E+02 0.  0.
          4    1    3    3  502    0 -0.13072130223E+03  0.76791587735E+02  0.34903491941E+03  0.38053959291E+03  0.00000000000E+00 0. -1.
         -3    1    3    3    0  502 -0.13158394906E+02  0.45320730906E+02  0.54313614293E+02  0.71951933289E+02  0.00000000000E+00 0.  1.
         13    1    5    5    0    0 -0.28201362084E+02  0.10792787344E+03  0.30575704678E+03  0.32547060442E+03  0.00000000000E+00 0. -1.
        -13    1    5    5    0    0 -0.73518261692E+02  0.61312068401E+02  0.12814167551E+03  0.15995122237E+03  0.00000000000E+00 0.  1.
          2    1    6    6  503    0  0.10399169231E+03 -0.61459377855E+02 -0.54913901360E+02  0.13269161148E+03  0.00000000000E+00 0.  1.
         -2    1    6    6    0  503  0.14160762861E+03 -0.22989288263E+03 -0.17202933790E+03  0.32015238725E+03  0.00000000000E+00 0. -1.
<mgrwt>
<rscale>  0 0.12496940E+04</rscale>
<asrwt>0</asrwt>
<pdfrwt beam="1">  1        2 0.15392780E+00 0.12496940E+04</pdfrwt>
<pdfrwt beam="2">  1       -1 0.60034872E-01 0.12496940E+04</pdfrwt>
<totfact> 0.79442720E+01</totfact>
</mgrwt>
</event>
<event>
12    7  0.1740517E-007  0.2891289E+04  0.7818608E-02  0.8275474E-01
         -1   -1    0    0    0  501 -0.00000000000E+00  0.00000000000E+00  0.12090026417E+04  0.12090026417E+04  0.00000000000E+00 0.  1.
          2   -1    0    0  501    0  0.00000000000E+00 -0.00000000000E+00 -0.17286047154E+04  0.17286047154E+04  0.00000000000E+00 0. -1.
         24    2    1    2    0    0  0.10241285389E+04 -0.78444774191E+03 -0.27624990591E+02  0.12929621720E+04  0.82404577152E+02 0.  0.
        254    2    1    2    0    0 -0.10241285389E+04  0.78444774191E+03 -0.49197708315E+03  0.16446451850E+04  0.89365474897E+03 0.  0.
         23    2    4    4    0    0 -0.11586532901E+04  0.67768525432E+03 -0.31471429217E+03  0.13817073000E+04  0.91297462839E+02 0.  0.
         23    2    4    4    0    0  0.13452475123E+03  0.10676248759E+03 -0.17726279098E+03  0.26293788497E+03  0.90659234718E+02 0.  0.
          2    1    3    3  502    0  0.48209889404E+02 -0.18589023407E+02  0.55865910807E+01  0.51970715095E+02  0.00000000000E+00 0. -1.
         -1    1    3    3    0  502  0.97591864946E+03 -0.76585871850E+03 -0.33211581671E+02  0.12409914570E+04  0.00000000000E+00 0.  1.
         13    1    5    5    0    0 -0.88849355545E+03  0.48936035104E+03 -0.20729441492E+03  0.10353092899E+04  0.00000000000E+00 0. -1.
        -13    1    5    5    0    0 -0.27015973465E+03  0.18832490328E+03 -0.10741987724E+03  0.34639801016E+03  0.00000000000E+00 0.  1.
          4    1    6    6  503    0  0.79370862539E+02  0.11387925825E+02 -0.10093148229E+03  0.12890532492E+03  0.00000000000E+00 0. -1.
         -4    1    6    6    0  503  0.55153888692E+02  0.95374561762E+02 -0.76331308686E+02  0.13403256005E+03  0.00000000000E+00 0.  1.
<mgrwt>
<rscale>  0 0.28912888E+04</rscale>
<asrwt>0</asrwt>
<pdfrwt beam="1">  1        2 0.26593919E+00 0.28912888E+04</pdfrwt>
<pdfrwt beam="2">  1       -1 0.18600041E+00 0.28912888E+04</pdfrwt>
<totfact> 0.17525139E+00</totfact>
</mgrwt>
</event>
<event>
12    7  0.1740517E-007  0.1491818E+04  0.7818608E-02  0.8889912E-01
         -1   -1    0    0    0  501 -0.00000000000E+00  0.00000000000E+00  0.79941989333E+03  0.79941989333E+03  0.00000000000E+00 0.  1.
          2   -1    0    0  501    0  0.00000000000E+00 -0.00000000000E+00 -0.69598009888E+03  0.69598009888E+03  0.00000000000E+00 0. -1.
         24    2    1    2    0    0  0.45956586000E+03  0.18793503242E+02 -0.82614444649E+02  0.47378581804E+03  0.78063304265E+02 0.  0.
        254    2    1    2    0    0 -0.45956586000E+03 -0.18793503242E+02  0.18605423910E+03  0.10216141742E+04  0.89304275683E+03 0.  0.
         23    2    4    4    0    0 -0.37081277752E+03 -0.18629022121E+03  0.49195876861E+03  0.64954951870E+03  0.87664044715E+02 0.  0.
         23    2    4    4    0    0 -0.88753082479E+02  0.16749671797E+03 -0.30590452951E+03  0.37206465547E+03  0.94457749768E+02 0.  0.
          4    1    3    3  502    0  0.99379586925E+02  0.26609403228E+02 -0.42408484350E+02  0.11127821971E+03  0.00000000000E+00 0. -1.
         -3    1    3    3    0  502  0.36018627307E+03 -0.78158999859E+01 -0.40205960299E+02  0.36250759833E+03  0.00000000000E+00 0.  1.
         13    1    5    5    0    0 -0.12436729873E+03 -0.23957620403E+02  0.18034066860E+03  0.22037229709E+03  0.00000000000E+00 0. -1.
        -13    1    5    5    0    0 -0.24644547878E+03 -0.16233260081E+03  0.31161810001E+03  0.42917722161E+03  0.00000000000E+00 0.  1.
          1    1    6    6  503    0  0.15293890291E+02  0.13041775391E+01 -0.16975881107E+02  0.22886338691E+02  0.00000000000E+00 0. -1.
         -1    1    6    6    0  503 -0.10404697277E+03  0.16619254043E+03 -0.28892864841E+03  0.34917831678E+03  0.00000000000E+00 0.  1.
<mgrwt>
<rscale>  0 0.14918181E+04</rscale>
<asrwt>0</asrwt>
<pdfrwt beam="1">  1        2 0.10707386E+00 0.14918181E+04</pdfrwt>
<pdfrwt beam="2">  1       -1 0.12298768E+00 0.14918181E+04</pdfrwt>
<totfact> 0.26562888E+01</totfact>
</mgrwt>
</event>
<event>
12    7  0.1740517E-007  0.1646860E+04  0.7818608E-02  0.8792266E-01
         -1   -1    0    0    0  501 -0.00000000000E+00  0.00000000000E+00  0.12334188382E+04  0.12334188382E+04  0.00000000000E+00 0.  1.
          2   -1    0    0  501    0  0.00000000000E+00 -0.00000000000E+00 -0.54972172057E+03  0.54972172057E+03  0.00000000000E+00 0. -1.
         24    2    1    2    0    0  0.34570716435E+03 -0.19512254977E+03 -0.21375423852E+03  0.45900222067E+03  0.86057603818E+02 0.  0.
        254    2    1    2    0    0 -0.34570716435E+03  0.19512254977E+03  0.89745135618E+03  0.13241383381E+04  0.88900908257E+03 0.  0.
         23    2    4    4    0    0  0.22716571872E+03  0.16390170459E+03  0.60700435413E+03  0.67469978388E+03  0.91090503978E+02 0.  0.
         23    2    4    4    0    0 -0.57287288308E+03  0.31220845189E+02  0.29044700205E+03  0.64943855425E+03  0.90845436901E+02 0.  0.
          4    1    3    3  502    0  0.27137229263E+03 -0.16061517155E+03 -0.20603938698E+03  0.37668605433E+03  0.00000000000E+00 0. -1.
         -3    1    3    3    0  502  0.74334871722E+02 -0.34507378221E+02 -0.77148515405E+01  0.82316166334E+02  0.00000000000E+00 0.  1.
         13    1    5    5    0    0  0.21046958449E+03  0.13949432464E+03  0.45993510258E+03  0.52468696495E+03  0.00000000000E+00 0. -1.
        -13    1    5    5    0    0  0.16696134231E+02  0.24407379948E+02  0.14706925155E+03  0.15001281893E+03  0.00000000000E+00 0.  1.
          4    1    6    6  503    0 -0.94777995571E+02  0.18573822995E+02  0.85962121846E+02  0.12929555962E+03  0.00000000000E+00 0.  1.
         -4    1    6    6    0  503 -0.47809488751E+03  0.12647022194E+02  0.20448488021E+03  0.52014299463E+03  0.00000000000E+00 0. -1.
<mgrwt>
<rscale>  0 0.16468602E+04</rscale>
<asrwt>0</asrwt>
<pdfrwt beam="1">  1        2 0.84572573E-01 0.16468602E+04</pdfrwt>
<pdfrwt beam="2">  1       -1 0.18975674E+00 0.16468602E+04</pdfrwt>
<totfact> 0.10667952E+01</totfact>
</mgrwt>
</event>
<event>
12    7  0.1740517E-007  0.3800164E+04  0.7818608E-02  0.8046120E-01
          2   -1    0    0  501    0  0.00000000000E+00  0.00000000000E+00  0.35122050834E+04  0.35122050834E+04  0.00000000000E+00 0. -1.
         -1   -1    0    0    0  501 -0.00000000000E+00 -0.00000000000E+00 -0.10279332023E+04  0.10279332023E+04  0.00000000000E+00 0.  1.
         24    2    1    2    0    0 -0.89882514784E+03 -0.50959928413E+03 -0.57723394977E+03  0.11861129163E+04  0.78017566266E+02 0.  0.
        254    2    1    2    0    0  0.89882514784E+03  0.50959928413E+03  0.30615058308E+04  0.33540253694E+04  0.89949438566E+03 0.  0.
         23    2    4    4    0    0  0.87668193635E+03  0.71812413489E+03  0.26414818764E+04  0.28757972151E+04  0.92247647550E+02 0.  0.
         23    2    4    4    0    0  0.22143211491E+02 -0.20852485076E+03  0.42002395442E+03  0.47822815431E+03  0.91154320200E+02 0.  0.
          4    1    3    3  502    0 -0.70478341221E+03 -0.41644468488E+03 -0.42413459959E+03  0.92197396507E+03  0.00000000000E+00 0. -1.
         -3    1    3    3    0  502 -0.19404173563E+03 -0.93154599251E+02 -0.15309935018E+03  0.26413895122E+03  0.00000000000E+00 0.  1.
         13    1    5    5    0    0  0.73293669555E+03  0.57169414012E+03  0.20902832699E+04  0.22876438836E+04  0.00000000000E+00 0. -1.
        -13    1    5    5    0    0  0.14374524080E+03  0.14642999477E+03  0.55119860647E+03  0.58815333153E+03  0.00000000000E+00 0.  1.
          4    1    6    6  503    0 -0.96068863341E+01 -0.18662969016E+03  0.37469862304E+03  0.41871469000E+03  0.00000000000E+00 0. -1.
         -4    1    6    6    0  503  0.31750097825E+02 -0.21895160598E+02  0.45325331374E+02  0.59513464306E+02  0.00000000000E+00 0.  1.
<mgrwt>
<rscale>  0 0.38001643E+04</rscale>
<asrwt>0</asrwt>
<pdfrwt beam="1">  1        2 0.54033924E+00 0.38001643E+04</pdfrwt>
<pdfrwt beam="2">  1       -1 0.15814357E+00 0.38001643E+04</pdfrwt>
<totfact> 0.21858426E-01</totfact>
</mgrwt>
</event>
<event>
12    7  0.1740517E-007  0.1658642E+04  0.7818608E-02  0.8785310E-01
         -3   -1    0    0    0  501 -0.00000000000E+00  0.00000000000E+00  0.71725946904E+03  0.71725946904E+03  0.00000000000E+00 0.  1.
          4   -1    0    0  501    0  0.00000000000E+00 -0.00000000000E+00 -0.95889075952E+03  0.95889075952E+03  0.00000000000E+00 0. -1.
         24    2    1    2    0    0  0.50930772964E+03  0.27941230893E+03 -0.89822488203E+02  0.59323344492E+03  0.79951478630E+02 0.  0.
        254    2    1    2    0    0 -0.50930772964E+03 -0.27941230893E+03 -0.15180880227E+03  0.10829167836E+04  0.90121986551E+03 0.  0.
         23    2    4    4    0    0 -0.48198883748E+03  0.76091535273E+01  0.27348132100E+03  0.56137199452E+03  0.89304785022E+02 0.  0.
         23    2    4    4    0    0 -0.27318892161E+02 -0.28702146246E+03 -0.42529012327E+03  0.52154478912E+03  0.89496571567E+02 0.  0.
          2    1    3    3  502    0  0.50209501511E+03  0.26528305440E+03 -0.96522024987E+02  0.57601302456E+03  0.00000000000E+00 0. -1.
         -1    1    3    3    0  502  0.72127145236E+01  0.14129254525E+02  0.66995367840E+01  0.17220420359E+02  0.00000000000E+00 0.  1.
         13    1    5    5    0    0 -0.18503704156E+02  0.10204107674E+02  0.33055586993E+02  0.39232419150E+02  0.00000000000E+00 0.  1.
        -13    1    5    5    0    0 -0.46348513332E+03 -0.25949541470E+01  0.24042573401E+03  0.52213957537E+03  0.00000000000E+00 0. -1.
          3    1    6    6  503    0  0.11459733940E+02 -0.19840408856E+03 -0.33332880841E+03  0.38807679959E+03  0.00000000000E+00 0. -1.
         -3    1    6    6    0  503 -0.38778626102E+02 -0.88617373894E+02 -0.91961314858E+02  0.13346798953E+03  0.00000000000E+00 0.  1.
<mgrwt>
<rscale>  0 0.16586422E+04</rscale>
<asrwt>0</asrwt>
<pdfrwt beam="1">  1        4 0.14752166E+00 0.16586422E+04</pdfrwt>
<pdfrwt beam="2">  1       -3 0.11034761E+00 0.16586422E+04</pdfrwt>
<totfact> 0.47033980E-01</totfact>
</mgrwt>
</event>
<event>
12    7  0.1740517E-007  0.1372459E+04  0.7818608E-02  0.8973999E-01
         -1   -1    0    0    0  501 -0.00000000000E+00  0.00000000000E+00  0.16981576355E+03  0.16981576355E+03  0.00000000000E+00 0.  1.
          2   -1    0    0  501    0  0.00000000000E+00 -0.00000000000E+00 -0.27730688207E+04  0.27730688207E+04  0.00000000000E+00 0. -1.
         24    2    1    2    0    0  0.76040548423E+02 -0.20870547648E+03 -0.68251862016E+02  0.24557084923E+03  0.79414006370E+02 0.  0.
        254    2    1    2    0    0 -0.76040548423E+02  0.20870547648E+03 -0.25350011952E+04  0.26973137350E+04  0.89438816228E+03 0.  0.
         23    2    4    4    0    0 -0.36455972761E+03 -0.18634201484E+03 -0.10391291073E+04  0.11207615172E+04  0.93219822556E+02 0.  0.
         23    2    4    4    0    0  0.28851917918E+03  0.39504749132E+03 -0.14958720879E+04  0.15765522178E+04  0.92616171142E+02 0.  0.
          2    1    3    3  502    0 -0.13699332823E+02 -0.21481137925E+02  0.38923011886E+01  0.25773261627E+02  0.00000000000E+00 0. -1.
         -1    1    3    3    0  502  0.89739881247E+02 -0.18722433855E+03 -0.72144163205E+02  0.21979758761E+03  0.00000000000E+00 0.  1.
         13    1    5    5    0    0 -0.17170265059E+03 -0.10912426253E+03 -0.62793022487E+03  0.66006535449E+03  0.00000000000E+00 0. -1.
        -13    1    5    5    0    0 -0.19285707701E+03 -0.77217752309E+02 -0.41119888242E+03  0.46069616270E+03  0.00000000000E+00 0.  1.
          1    1    6    6  503    0  0.54423675780E+01  0.14281222988E+01 -0.75524194753E+02  0.75733499135E+02  0.00000000000E+00 0. -1.
         -1    1    6    6    0  503  0.28307681160E+03  0.39361936902E+03 -0.14203478931E+04  0.15008187187E+04  0.00000000000E+00 0.  1.
<mgrwt>
<rscale>  0 0.13724588E+04</rscale>
<asrwt>0</asrwt>
<pdfrwt beam="1">  1        2 0.42662594E+00 0.13724588E+04</pdfrwt>
<pdfrwt beam="2">  1       -1 0.26125504E-01 0.13724588E+04</pdfrwt>
<totfact> 0.34856181E+01</totfact>
</mgrwt>
</event>
<event>
12    7  0.1740517E-007  0.1609560E+04  0.7818608E-02  0.8814697E-01
         -1   -1    0    0    0  501 -0.00000000000E+00  0.00000000000E+00  0.79298132055E+03  0.79298132055E+03  0.00000000000E+00 0.  1.
          2   -1    0    0  501    0  0.00000000000E+00 -0.00000000000E+00 -0.81675399911E+03  0.81675399911E+03  0.00000000000E+00 0. -1.
         24    2    1    2    0    0 -0.46098231008E+03 -0.30105678215E+03  0.78000974328E+02  0.56168616198E+03  0.79166383459E+02 0.  0.
        254    2    1    2    0    0  0.46098231008E+03  0.30105678215E+03 -0.10177365289E+03  0.10480491577E+04  0.88595106197E+03 0.  0.
         23    2    4    4    0    0  0.15024861761E+03  0.24471426623E+03  0.36612178221E+03  0.47630524061E+03  0.10179294492E+03 0.  0.
         23    2    4    4    0    0  0.31073369248E+03  0.56342515927E+02 -0.46789543511E+03  0.57174391707E+03  0.90747241105E+02 0.  0.
          2    1    3    3  502    0 -0.13740029729E+03 -0.58043807059E+02 -0.20475896290E+01  0.14917143780E+03  0.00000000000E+00 0. -1.
         -1    1    3    3    0  502 -0.32358201279E+03 -0.24301297510E+03  0.80048563958E+02  0.41251472417E+03  0.00000000000E+00 0.  1.
         13    1    5    5    0    0  0.91915830875E+02  0.18133216499E+03  0.18130106885E+03  0.27239668058E+03  0.00000000000E+00 0. -1.
        -13    1    5    5    0    0  0.58332786730E+02  0.63382101235E+02  0.18482071337E+03  0.20390856003E+03  0.00000000000E+00 0.  1.
          1    1    6    6  503    0  0.25460637005E+02  0.32122164778E+02 -0.76824477414E+02  0.87075127543E+02  0.00000000000E+00 0. -1.
         -1    1    6    6    0  503  0.28527305547E+03  0.24220351149E+02 -0.39107095769E+03  0.48466878952E+03  0.00000000000E+00 0.  1.
<mgrwt>
<rscale>  0 0.16095598E+04</rscale>
<asrwt>0</asrwt>
<pdfrwt beam="1">  1        2 0.12565446E+00 0.16095598E+04</pdfrwt>
<pdfrwt beam="2">  1       -1 0.12199713E+00 0.16095598E+04</pdfrwt>
<totfact> 0.21790805E+01</totfact>
</mgrwt>
</event>
<event>
12    7  0.1740517E-007  0.1659966E+04  0.7818608E-02  0.8784533E-01
         -1   -1    0    0    0  501 -0.00000000000E+00  0.00000000000E+00  0.97388660565E+03  0.97388660565E+03  0.00000000000E+00 0.  1.
          2   -1    0    0  501    0  0.00000000000E+00 -0.00000000000E+00 -0.70734264814E+03  0.70734264814E+03  0.00000000000E+00 0. -1.
         24    2    1    2    0    0  0.13172746978E+03  0.32012222725E+03 -0.37817227995E+03  0.52083098549E+03  0.91762058889E+02 0.  0.
        254    2    1    2    0    0 -0.13172746978E+03 -0.32012222725E+03  0.64471623746E+03  0.11603982683E+04  0.90057467629E+03 0.  0.
         23    2    4    4    0    0 -0.44197606519E+03 -0.26663236065E+03  0.11665396570E+03  0.53900825641E+03  0.10240163482E+03 0.  0.
         23    2    4    4    0    0  0.31024859541E+03 -0.53489866592E+02  0.52806227176E+03  0.62139001190E+03  0.90335083161E+02 0.  0.
          2    1    3    3  502    0  0.14396309458E+03  0.26987693163E+03 -0.31307314265E+03  0.43769135641E+03  0.00000000000E+00 0. -1.
         -1    1    3    3    0  502 -0.12235624807E+02  0.50245295613E+02 -0.65099137297E+02  0.83139629073E+02  0.00000000000E+00 0.  1.
         13    1    5    5    0    0 -0.15718902015E+03 -0.41465834456E+02  0.48219988530E+02  0.16956700969E+03  0.00000000000E+00 0.  1.
        -13    1    5    5    0    0 -0.28478704504E+03 -0.22516652620E+03  0.68433977167E+02  0.36944124671E+03  0.00000000000E+00 0. -1.
          1    1    6    6  503    0  0.28099242436E+03 -0.28413252814E+02  0.49802909108E+03  0.57253561553E+03  0.00000000000E+00 0. -1.
         -1    1    6    6    0  503  0.29256171053E+02 -0.25076613778E+02  0.30033180674E+02  0.48854396369E+02  0.00000000000E+00 0.  1.
<mgrwt>
<rscale>  0 0.16599657E+04</rscale>
<asrwt>0</asrwt>
<pdfrwt beam="1">  1        2 0.10882195E+00 0.16599657E+04</pdfrwt>
<pdfrwt beam="2">  1       -1 0.14982871E+00 0.16599657E+04</pdfrwt>
<totfact> 0.15426164E+01</totfact>
</mgrwt>
</event>
<event>
12    7  0.1740517E-007  0.2200487E+04  0.7818608E-02  0.8518225E-01
          2   -1    0    0  501    0  0.00000000000E+00  0.00000000000E+00  0.22862330143E+04  0.22862330143E+04  0.00000000000E+00 0. -1.
         -1   -1    0    0    0  501 -0.00000000000E+00 -0.00000000000E+00 -0.52948945278E+03  0.52948945278E+03  0.00000000000E+00 0.  1.
         24    2    1    2    0    0 -0.60912110592E+03  0.42969529751E+03  0.14208604589E+04  0.16063827970E+04  0.77166549723E+02 0.  0.
        254    2    1    2    0    0  0.60912110592E+03 -0.42969529751E+03  0.33588310263E+03  0.12093396701E+04  0.89107710591E+03 0.  0.
         23    2    4    4    0    0  0.46157533927E+03 -0.39950000750E+03  0.62017598313E+03  0.87480037083E+03  0.89472839157E+02 0.  0.
         23    2    4    4    0    0  0.14754576665E+03 -0.30195290019E+02 -0.28429288050E+03  0.33453929928E+03  0.91720183511E+02 0.  0.
          2    1    3    3  502    0 -0.52139441455E+03  0.39126474279E+03  0.11994361181E+04  0.13651326807E+04  0.00000000000E+00 0. -1.
         -1    1    3    3    0  502 -0.87726691365E+02  0.38430554728E+02  0.22142434079E+03  0.24125011629E+03  0.00000000000E+00 0.  1.
         13    1    5    5    0    0  0.79117894695E+02 -0.11590314182E+03  0.12652762274E+03  0.18895083716E+03  0.00000000000E+00 0.  1.
        -13    1    5    5    0    0  0.38245744457E+03 -0.28359686567E+03  0.49364836038E+03  0.68584953367E+03  0.00000000000E+00 0. -1.
          3    1    6    6  503    0  0.87153956190E+02 -0.58877442989E+02 -0.13644508958E+03  0.17227776363E+03  0.00000000000E+00 0. -1.
         -3    1    6    6    0  503  0.60391810463E+02  0.28682152970E+02 -0.14784779092E+03  0.16226153564E+03  0.00000000000E+00 0.  1.
<mgrwt>
<rscale>  0 0.22004875E+04</rscale>
<asrwt>0</asrwt>
<pdfrwt beam="1">  1        2 0.35172815E+00 0.22004875E+04</pdfrwt>
<pdfrwt beam="2">  1       -1 0.81459917E-01 0.22004875E+04</pdfrwt>
<totfact> 0.72049290E+00</totfact>
</mgrwt>
</event>
<event>
12    7  0.1740517E-007  0.2535964E+04  0.7818608E-02  0.8390284E-01
         -1   -1    0    0    0  501 -0.00000000000E+00  0.00000000000E+00  0.62711824255E+03  0.62711824255E+03  0.00000000000E+00 0.  1.
          2   -1    0    0  501    0  0.00000000000E+00 -0.00000000000E+00 -0.25637570697E+04  0.25637570697E+04  0.00000000000E+00 0. -1.
         24    2    1    2    0    0  0.27667191229E+03 -0.10795488258E+04 -0.70590137354E+03  0.13216435490E+04  0.80448164917E+02 0.  0.
        254    2    1    2    0    0 -0.27667191229E+03  0.10795488258E+04 -0.12307374536E+04  0.18692317633E+04  0.85868486108E+03 0.  0.
         23    2    4    4    0    0 -0.47183038713E+03  0.67604258029E+03 -0.11250287941E+04  0.13977080310E+04  0.90777022205E+02 0.  0.
         23    2    4    4    0    0  0.19515847483E+03  0.40350624549E+03 -0.10570865957E+03  0.47152373228E+03  0.10127284408E+03 0.  0.
          4    1    3    3  502    0  0.13005661298E+02 -0.94950290108E+02 -0.38432915622E+02  0.10325596264E+03  0.00000000000E+00 0. -1.
         -3    1    3    3    0  502  0.26366625100E+03 -0.98459853567E+03 -0.66746845791E+03  0.12183875864E+04  0.00000000000E+00 0.  1.
         13    1    5    5    0    0 -0.40134217160E+03  0.58907958838E+03 -0.10186820580E+04  0.12433034366E+04  0.00000000000E+00 0.  1.
        -13    1    5    5    0    0 -0.70488215525E+02  0.86962991914E+02 -0.10634673604E+03  0.15440459435E+03  0.00000000000E+00 0. -1.
          1    1    6    6  503    0  0.16776926323E+03  0.26267213275E+03 -0.10220701247E+03  0.32800830540E+03  0.00000000000E+00 0. -1.
         -1    1    6    6    0  503  0.27389211606E+02  0.14083411273E+03 -0.35016470987E+01  0.14351542689E+03  0.00000000000E+00 0.  1.
<mgrwt>
<rscale>  0 0.25359644E+04</rscale>
<asrwt>0</asrwt>
<pdfrwt beam="1">  1        2 0.39442416E+00 0.25359644E+04</pdfrwt>
<pdfrwt beam="2">  1       -1 0.96479730E-01 0.25359644E+04</pdfrwt>
<totfact> 0.33414711E+00</totfact>
</mgrwt>
</event>
<event>
12    7  0.1740517E-007  0.1850035E+04  0.7818608E-02  0.8680135E-01
         -1   -1    0    0    0  501 -0.00000000000E+00  0.00000000000E+00  0.21229450806E+03  0.21229450806E+03  0.00000000000E+00 0.  1.
          2   -1    0    0  501    0  0.00000000000E+00 -0.00000000000E+00 -0.40305225658E+04  0.40305225658E+04  0.00000000000E+00 0. -1.
         24    2    1    2    0    0  0.46650434766E+03 -0.49729200732E+03 -0.10745138955E+04  0.12746134958E+04  0.71650576353E+02 0.  0.
        254    2    1    2    0    0 -0.46650434766E+03  0.49729200732E+03 -0.27437141622E+04  0.29682035780E+04  0.90406826617E+03 0.  0.
         23    2    4    4    0    0 -0.22582678145E+03 -0.19962113179E+02 -0.20548756229E+04  0.20696101886E+04  0.96831224232E+02 0.  0.
         23    2    4    4    0    0 -0.24067756621E+03  0.51725412050E+03 -0.68883853923E+03  0.89859338937E+03  0.86568067122E+02 0.  0.
          2    1    3    3  502    0  0.10847959126E+03 -0.89505262763E+02 -0.18087593849E+03  0.22911813308E+03  0.00000000000E+00 0. -1.
         -3    1    3    3    0  502  0.35802475640E+03 -0.40778674456E+03 -0.89363795703E+03  0.10454953627E+04  0.00000000000E+00 0.  1.
         13    1    5    5    0    0  0.91230599532E+01 -0.53122292521E+00 -0.42440384133E+02  0.43413115830E+02  0.00000000000E+00 0. -1.
        -13    1    5    5    0    0 -0.23494984140E+03 -0.19430890254E+02 -0.20124352388E+04  0.20261970728E+04  0.00000000000E+00 0.  1.
          2    1    6    6  503    0 -0.92029446401E+02  0.12987047543E+03 -0.23315099781E+03  0.28230328934E+03  0.00000000000E+00 0. -1.
         -2    1    6    6    0  503 -0.14864811981E+03  0.38738364507E+03 -0.45568754142E+03  0.61629010003E+03  0.00000000000E+00 0.  1.
<mgrwt>
<rscale>  0 0.18500355E+04</rscale>
<asrwt>0</asrwt>
<pdfrwt beam="1">  1        2 0.62008043E+00 0.18500355E+04</pdfrwt>
<pdfrwt beam="2">  1       -1 0.32660691E-01 0.18500355E+04</pdfrwt>
<totfact> 0.30791190E+00</totfact>
</mgrwt>
</event>
<event>
12    7  0.1740517E-007  0.1484495E+04  0.7818608E-02  0.8894830E-01
         -1   -1    0    0    0  501 -0.00000000000E+00  0.00000000000E+00  0.88407577319E+03  0.88407577319E+03  0.00000000000E+00 0.  1.
          2   -1    0    0  501    0  0.00000000000E+00 -0.00000000000E+00 -0.62317178072E+03  0.62317178072E+03  0.00000000000E+00 0. -1.
         24    2    1    2    0    0 -0.32937130422E+03  0.31853762401E+03  0.18812154039E+03  0.50152482473E+03  0.78649614813E+02 0.  0.
        254    2    1    2    0    0  0.32937130422E+03 -0.31853762401E+03  0.72782452089E+02  0.10057227292E+04  0.89231678719E+03 0.  0.
         23    2    4    4    0    0  0.18692475975E+03  0.26402377257E+03  0.19168205174E+03  0.38666908227E+03  0.90119653450E+02 0.  0.
         23    2    4    4    0    0  0.14244654447E+03 -0.58256139658E+03 -0.11889959965E+03  0.61905364691E+03  0.97064432953E+02 0.  0.
          4    1    3    3  502    0 -0.16512644232E+02  0.43728087919E+02  0.32729472929E+02  0.57061646408E+02  0.00000000000E+00 0. -1.
         -3    1    3    3    0  502 -0.31285865999E+03  0.27480953609E+03  0.15539206746E+03  0.44446317832E+03  0.00000000000E+00 0.  1.
         13    1    5    5    0    0  0.16595751597E+03  0.25942649183E+03  0.15648758239E+03  0.34544516962E+03  0.00000000000E+00 0. -1.
        -13    1    5    5    0    0  0.20967243780E+02  0.45972807379E+01  0.35194469345E+02  0.41223912653E+02  0.00000000000E+00 0.  1.
          2    1    6    6  503    0  0.15605070673E+03 -0.54664790032E+03 -0.10433378112E+03  0.57798035251E+03  0.00000000000E+00 0. -1.
         -2    1    6    6    0  503 -0.13604162262E+02 -0.35913496253E+02 -0.14565818523E+02  0.41073294404E+02  0.00000000000E+00 0.  1.
<mgrwt>
<rscale>  0 0.14844946E+04</rscale>
<asrwt>0</asrwt>
<pdfrwt beam="1">  1        2 0.95872581E-01 0.14844946E+04</pdfrwt>
<pdfrwt beam="2">  1       -1 0.13601166E+00 0.14844946E+04</pdfrwt>
<totfact> 0.23656835E+01</totfact>
</mgrwt>
</event>
<event>
12    7  0.1740517E-007  0.1386900E+04  0.7818608E-02  0.8963356E-01
          2   -1    0    0  501    0  0.00000000000E+00  0.00000000000E+00  0.22004470167E+04  0.22004470167E+04  0.00000000000E+00 0. -1.
         -1   -1    0    0    0  501 -0.00000000000E+00 -0.00000000000E+00 -0.21853428218E+03  0.21853428218E+03  0.00000000000E+00 0.  1.
         24    2    1    2    0    0  0.57923121426E+02 -0.12170327740E+01  0.12581580725E+04  0.12625591903E+04  0.87962517247E+02 0.  0.
        254    2    1    2    0    0 -0.57923121426E+02  0.12170327740E+01  0.72375466201E+03  0.11564221086E+04  0.90007483758E+03 0.  0.
         23    2    4    4    0    0 -0.28753532614E+02  0.13688919244E+03 -0.17778827889E+03  0.23968643844E+03  0.79218053620E+02 0.  0.
         23    2    4    4    0    0 -0.29169588812E+02 -0.13567215966E+03  0.90154294089E+03  0.91673567012E+03  0.91470294497E+02 0.  0.
          2    1    3    3  502    0  0.62168221504E+02 -0.25830916492E+02  0.11291707168E+04  0.11311757740E+04  0.00000000000E+00 0. -1.
         -1    1    3    3    0  502 -0.42451000779E+01  0.24613883718E+02  0.12898735565E+03  0.13138341624E+03  0.00000000000E+00 0.  1.
         13    1    5    5    0    0 -0.53185500474E+02  0.60704984899E+02 -0.91855706193E+02  0.12227535897E+03  0.00000000000E+00 0. -1.
        -13    1    5    5    0    0  0.24431967860E+02  0.76184207539E+02 -0.85932572696E+02  0.11741107947E+03  0.00000000000E+00 0.  1.
          4    1    6    6  503    0 -0.96401657965E+01 -0.14065817635E+03  0.69141330923E+03  0.70564156592E+03  0.00000000000E+00 0. -1.
         -4    1    6    6    0  503 -0.19529423016E+02  0.49860166854E+01  0.21012963166E+03  0.21109410420E+03  0.00000000000E+00 0.  1.
<mgrwt>
<rscale>  0 0.13869003E+04</rscale>
<asrwt>0</asrwt>
<pdfrwt beam="1">  1        2 0.33853029E+00 0.13869003E+04</pdfrwt>
<pdfrwt beam="2">  1       -1 0.33620660E-01 0.13869003E+04</pdfrwt>
<totfact> 0.47832030E+01</totfact>
</mgrwt>
</event>
<event>
12    7  0.1740517E-007  0.2399033E+04  0.7818608E-02  0.8439866E-01
         -3   -1    0    0    0  501 -0.00000000000E+00  0.00000000000E+00  0.75409343429E+03  0.75409343429E+03  0.00000000000E+00 0.  1.
          2   -1    0    0  501    0  0.00000000000E+00 -0.00000000000E+00 -0.19080386815E+04  0.19080386815E+04  0.00000000000E+00 0. -1.
         24    2    1    2    0    0 -0.13879481157E+03 -0.52045032834E+03  0.47600141263E+03  0.72330105165E+03  0.80340043014E+02 0.  0.
        254    2    1    2    0    0  0.13879481157E+03  0.52045032834E+03 -0.16299466598E+04  0.19388310641E+04  0.90122540873E+03 0.  0.
         23    2    4    4    0    0  0.15566210342E+03  0.63034807870E+03 -0.56901968685E+03  0.86823008718E+03  0.92036348773E+02 0.  0.
         23    2    4    4    0    0 -0.16867291848E+02 -0.10989775036E+03 -0.10609269730E+04  0.10706009770E+04  0.90875677621E+02 0.  0.
          4    1    3    3  502    0  0.20750841768E+01  0.16947858304E+01 -0.23501509524E+00  0.26895176978E+01  0.00000000000E+00 0. -1.
         -3    1    3    3    0  502 -0.14086989575E+03 -0.52214511417E+03  0.47623642772E+03  0.72061153395E+03  0.00000000000E+00 0.  1.
         13    1    5    5    0    0  0.10307767062E+03  0.54400092324E+03 -0.46326433337E+03  0.72192510223E+03  0.00000000000E+00 0. -1.
        -13    1    5    5    0    0  0.52584432803E+02  0.86347155464E+02 -0.10575535348E+03  0.14630498495E+03  0.00000000000E+00 0.  1.
          1    1    6    6  503    0  0.18226554147E+02 -0.90543917359E+02 -0.51588189092E+03  0.52408447184E+03  0.00000000000E+00 0. -1.
         -1    1    6    6    0  503 -0.35093845995E+02 -0.19353833002E+02 -0.54504508206E+03  0.54651650511E+03  0.00000000000E+00 0.  1.
<mgrwt>
<rscale>  0 0.23990327E+04</rscale>
<asrwt>0</asrwt>
<pdfrwt beam="1">  1        2 0.29354442E+00 0.23990327E+04</pdfrwt>
<pdfrwt beam="2">  1       -3 0.11601437E+00 0.23990327E+04</pdfrwt>
<totfact> 0.26405522E+00</totfact>
</mgrwt>
</event>
<event>
12    7  0.1740517E-007  0.1279586E+04  0.7818608E-02  0.9045912E-01
         -1   -1    0    0    0  501 -0.00000000000E+00  0.00000000000E+00  0.30833882286E+03  0.30833882286E+03  0.00000000000E+00 0.  1.
          2   -1    0    0  501    0  0.00000000000E+00 -0.00000000000E+00 -0.13275499419E+04  0.13275499419E+04  0.00000000000E+00 0. -1.
         24    2    1    2    0    0  0.78306901946E+02  0.22683951222E+03 -0.34523952765E+01  0.25171835646E+03  0.75908344380E+02 0.  0.
        254    2    1    2    0    0 -0.78306901946E+02 -0.22683951222E+03 -0.10157587237E+04  0.13841704083E+04  0.90916104135E+03 0.  0.
         23    2    4    4    0    0 -0.30794292721E+02 -0.23908978785E+03 -0.11706539879E+04  0.11986624228E+04  0.90821964405E+02 0.  0.
         23    2    4    4    0    0 -0.47512609225E+02  0.12250275627E+02  0.15489526421E+03  0.18550798548E+03  0.89516213691E+02 0.  0.
          4    1    3    3  502    0  0.19163542696E+02  0.21253702133E+02  0.22258759994E+02  0.36254842704E+02  0.00000000000E+00 0. -1.
         -3    1    3    3    0  502  0.59143359250E+02  0.20558581009E+03 -0.25711155270E+02  0.21546351375E+03  0.00000000000E+00 0.  1.
         13    1    5    5    0    0  0.14444702238E+02 -0.60323704510E+01 -0.33313448705E+02  0.36807944532E+02  0.00000000000E+00 0. -1.
        -13    1    5    5    0    0 -0.45238994959E+02 -0.23305741740E+03 -0.11373405392E+04  0.11618544783E+04  0.00000000000E+00 0.  1.
          3    1    6    6  503    0 -0.55617216636E+01 -0.22599098137E+02  0.22138210731E+01  0.23378472751E+02  0.00000000000E+00 0. -1.
         -3    1    6    6    0  503 -0.41950887562E+02  0.34849373764E+02  0.15268144314E+03  0.16212951273E+03  0.00000000000E+00 0.  1.
<mgrwt>
<rscale>  0 0.12795862E+04</rscale>
<asrwt>0</asrwt>
<pdfrwt beam="1">  1        2 0.20423846E+00 0.12795862E+04</pdfrwt>
<pdfrwt beam="2">  1       -1 0.47436741E-01 0.12795862E+04</pdfrwt>
<totfact> 0.79029885E+01</totfact>
</mgrwt>
</event>
<event>
12    7  0.1740517E-007  0.1609875E+04  0.7818608E-02  0.8814504E-01
         -1   -1    0    0    0  501 -0.00000000000E+00  0.00000000000E+00  0.20265807412E+03  0.20265807412E+03  0.00000000000E+00 0.  1.
          2   -1    0    0  501    0  0.00000000000E+00 -0.00000000000E+00 -0.31971316934E+04  0.31971316934E+04  0.00000000000E+00 0. -1.
         24    2    1    2    0    0  0.59350517044E+02  0.48849900491E+03 -0.14990279716E+04  0.15799227863E+04  0.83170845206E+02 0.  0.
        254    2    1    2    0    0 -0.59350517044E+02 -0.48849900491E+03 -0.14954456477E+04  0.18198669812E+04  0.91290984348E+03 0.  0.
         23    2    4    4    0    0  0.14408552781E+02  0.19719610495E+03 -0.60502305565E+02  0.22524476224E+03  0.89335120385E+02 0.  0.
         23    2    4    4    0    0 -0.73759069825E+02 -0.68569510986E+03 -0.14349433421E+04  0.15946222189E+04  0.90218855957E+02 0.  0.
          4    1    3    3  502    0  0.11052353110E+02  0.58357682761E+02 -0.10993088056E+03  0.12495027870E+03  0.00000000000E+00 0. -1.
         -3    1    3    3    0  502  0.48298163934E+02  0.43014132215E+03 -0.13890970910E+04  0.14549725076E+04  0.00000000000E+00 0.  1.
         13    1    5    5    0    0 -0.27340607267E+02  0.36288409563E+02 -0.34363382607E+02  0.56966652864E+02  0.00000000000E+00 0. -1.
        -13    1    5    5    0    0  0.41749160048E+02  0.16090769539E+03 -0.26138922958E+02  0.16827810937E+03  0.00000000000E+00 0.  1.
          4    1    6    6  503    0 -0.60098519984E+01 -0.53009588140E+02 -0.64798675106E+02  0.83934516448E+02  0.00000000000E+00 0. -1.
         -4    1    6    6    0  503 -0.67749217827E+02 -0.63268552172E+03 -0.13701446670E+04  0.15106877025E+04  0.00000000000E+00 0.  1.
<mgrwt>
<rscale>  0 0.16098752E+04</rscale>
<asrwt>0</asrwt>
<pdfrwt beam="1">  1        2 0.49186638E+00 0.16098752E+04</pdfrwt>
<pdfrwt beam="2">  1       -1 0.31178167E-01 0.16098752E+04</pdfrwt>
<totfact> 0.13654970E+01</totfact>
</mgrwt>
</event>
<event>
12    7  0.1740517E-007  0.2438648E+04  0.7818608E-02  0.8425174E-01
          2   -1    0    0  501    0  0.00000000000E+00  0.00000000000E+00  0.12788542280E+04  0.12788542280E+04  0.00000000000E+00 0. -1.
         -1   -1    0    0    0  501 -0.00000000000E+00 -0.00000000000E+00 -0.11625653397E+04  0.11625653397E+04  0.00000000000E+00 0.  1.
         24    2    1    2    0    0  0.54833584368E+03  0.19108001495E+03  0.92710293230E+03  0.10964349626E+04  0.73932473075E+02 0.  0.
        254    2    1    2    0    0 -0.54833584368E+03 -0.19108001495E+03 -0.81081404393E+03  0.13449846051E+04  0.90243027677E+03 0.  0.
         23    2    4    4    0    0 -0.55622372831E+03  0.25263123273E+03 -0.49163126297E+03  0.78945519249E+03  0.91273361576E+02 0.  0.
         23    2    4    4    0    0  0.78878846319E+01 -0.44371124769E+03 -0.31918278096E+03  0.55552941257E+03  0.98961560811E+02 0.  0.
          2    1    3    3  502    0  0.44260905985E+03  0.13783863585E+03  0.78305564203E+03  0.90998813614E+03  0.00000000000E+00 0. -1.
         -1    1    3    3    0  502  0.10572678383E+03  0.53241379103E+02  0.14404729027E+03  0.18644682647E+03  0.00000000000E+00 0.  1.
         13    1    5    5    0    0 -0.31421252236E+03  0.17813558084E+03 -0.32853010345E+03  0.48825589934E+03  0.00000000000E+00 0.  1.
        -13    1    5    5    0    0 -0.24201120595E+03  0.74495651889E+02 -0.16310115952E+03  0.30119929315E+03  0.00000000000E+00 0. -1.
          3    1    6    6  503    0  0.25812297805E+02 -0.17555708100E+03 -0.18046158241E+03  0.25308683516E+03  0.00000000000E+00 0. -1.
         -3    1    6    6    0  503 -0.17924413173E+02 -0.26815416669E+03 -0.13872119855E+03  0.30244257741E+03  0.00000000000E+00 0.  1.
<mgrwt>
<rscale>  0 0.24386485E+04</rscale>
<asrwt>0</asrwt>
<pdfrwt beam="1">  1        2 0.19674681E+00 0.24386485E+04</pdfrwt>
<pdfrwt beam="2">  1       -1 0.17885620E+00 0.24386485E+04</pdfrwt>
<totfact> 0.36852597E+00</totfact>
</mgrwt>
</event>
<event>
12    7  0.1740517E-007  0.1798960E+04  0.7818608E-02  0.8706853E-01
          2   -1    0    0  501    0  0.00000000000E+00  0.00000000000E+00  0.95196925845E+03  0.95196925845E+03  0.00000000000E+00 0. -1.
         -1   -1    0    0    0  501 -0.00000000000E+00 -0.00000000000E+00 -0.84988522161E+03  0.84988522161E+03  0.00000000000E+00 0.  1.
         24    2    1    2    0    0 -0.44054628815E+03  0.46542141108E+02  0.54588918750E+03  0.70753521389E+03  0.79773873918E+02 0.  0.
        254    2    1    2    0    0  0.44054628815E+03 -0.46542141108E+02 -0.44380515066E+03  0.10943192662E+04  0.89684136929E+03 0.  0.
         23    2    4    4    0    0  0.38629026528E+03 -0.37581031962E+03 -0.19953297926E+02  0.54639065246E+03  0.87698606683E+02 0.  0.
         23    2    4    4    0    0  0.54256022873E+02  0.32926817851E+03 -0.42385185274E+03  0.54792861372E+03  0.95990224829E+02 0.  0.
          4    1    3    3  502    0 -0.28968898149E+03  0.50875065144E+02  0.40905225953E+03  0.50381715858E+03  0.00000000000E+00 0. -1.
         -3    1    3    3    0  502 -0.15085730666E+03 -0.43329240356E+01  0.13683692797E+03  0.20371805531E+03  0.00000000000E+00 0.  1.
         13    1    5    5    0    0  0.36486343108E+03 -0.35898195378E+03 -0.38707914006E+02  0.51331439595E+03  0.00000000000E+00 0.  1.
        -13    1    5    5    0    0  0.21426834198E+02 -0.16828365843E+02  0.18754616079E+02  0.33076256514E+02  0.00000000000E+00 0. -1.
          4    1    6    6  503    0 -0.12798233641E+02  0.40642673929E+02 -0.10149189419E+03  0.11007373126E+03  0.00000000000E+00 0. -1.
         -4    1    6    6    0  503  0.67054256514E+02  0.28862550458E+03 -0.32235995855E+03  0.43785488245E+03  0.00000000000E+00 0.  1.
<mgrwt>
<rscale>  0 0.17989604E+04</rscale>
<asrwt>0</asrwt>
<pdfrwt beam="1">  1        2 0.14645681E+00 0.17989604E+04</pdfrwt>
<pdfrwt beam="2">  1       -1 0.13075157E+00 0.17989604E+04</pdfrwt>
<totfact> 0.14576220E+01</totfact>
</mgrwt>
</event>
<event>
12    7  0.1740517E-007  0.2408547E+04  0.7818608E-02  0.8436311E-01
          2   -1    0    0  501    0  0.00000000000E+00  0.00000000000E+00  0.24921113682E+04  0.24921113682E+04  0.00000000000E+00 0. -1.
         -1   -1    0    0    0  501 -0.00000000000E+00 -0.00000000000E+00 -0.58194602086E+03  0.58194602086E+03  0.00000000000E+00 0.  1.
         24    2    1    2    0    0 -0.47050843131E+03 -0.13131254313E+03  0.19842693050E+04  0.20465197352E+04  0.11089266770E+03 0.  0.
        254    2    1    2    0    0  0.47050843131E+03  0.13131254313E+03 -0.74103957679E+02  0.10275376539E+04  0.90095564022E+03 0.  0.
         23    2    4    4    0    0 -0.58476499862E+02 -0.30868767448E+03 -0.67857168970E+02  0.33363206166E+03  0.89432520791E+02 0.  0.
         23    2    4    4    0    0  0.52898493117E+03  0.44000021761E+03 -0.62467887092E+01  0.69390559221E+03  0.89669948273E+02 0.  0.
          4    1    3    3  502    0 -0.46530444675E+03 -0.11697145938E+03  0.19598854267E+04  0.20177565354E+04  0.00000000000E+00 0. -1.
         -3    1    3    3    0  502 -0.52039845574E+01 -0.14341083746E+02  0.24383878307E+02  0.28763199745E+02  0.00000000000E+00 0.  1.
         13    1    5    5    0    0 -0.58041813597E+02 -0.18732074381E+03 -0.32374948530E+01  0.19613361405E+03  0.00000000000E+00 0. -1.
        -13    1    5    5    0    0 -0.43468626494E+00 -0.12136693067E+03 -0.64619674117E+02  0.13749844761E+03  0.00000000000E+00 0.  1.
          1    1    6    6  503    0  0.49279146805E+03  0.42830054843E+03  0.88940567534E+01  0.65296546234E+03  0.00000000000E+00 0. -1.
         -1    1    6    6    0  503  0.36193463128E+02  0.11699669175E+02 -0.15140845463E+02  0.40940129865E+02  0.00000000000E+00 0.  1.
<mgrwt>
<rscale>  0 0.24085467E+04</rscale>
<asrwt>0</asrwt>
<pdfrwt beam="1">  1        2 0.38340174E+00 0.24085467E+04</pdfrwt>
<pdfrwt beam="2">  1       -1 0.89530158E-01 0.24085467E+04</pdfrwt>
<totfact> 0.43938734E+00</totfact>
</mgrwt>
</event>
<event>
12    7  0.1740517E-007  0.1960550E+04  0.7818608E-02  0.8625290E-01
         -1   -1    0    0    0  501 -0.00000000000E+00  0.00000000000E+00  0.21742546424E+03  0.21742546424E+03  0.00000000000E+00 0.  1.
          2   -1    0    0  501    0  0.00000000000E+00 -0.00000000000E+00 -0.44196238001E+04  0.44196238001E+04  0.00000000000E+00 0. -1.
         24    2    1    2    0    0  0.34923632223E+03 -0.10776972180E+03 -0.55685563861E+02  0.37873040216E+03  0.82191932675E+02 0.  0.
        254    2    1    2    0    0 -0.34923632223E+03  0.10776972180E+03 -0.41465127720E+04  0.42583188622E+04  0.89784800608E+03 0.  0.
         23    2    4    4    0    0  0.15324017123E+03  0.32183064775E+03 -0.23446741361E+04  0.23733547047E+04  0.90874824443E+02 0.  0.
         23    2    4    4    0    0 -0.50247649346E+03 -0.21406092595E+03 -0.18018386359E+04  0.18849641575E+04  0.90347655506E+02 0.  0.
          4    1    3    3  502    0  0.41361921447E+02 -0.80489929531E+01  0.19590915671E+02  0.46469331932E+02  0.00000000000E+00 0. -1.
         -3    1    3    3    0  502  0.30787440078E+03 -0.99720728850E+02 -0.75276479531E+02  0.33226107023E+03  0.00000000000E+00 0.  1.
         13    1    5    5    0    0  0.13677674003E+03  0.18553300899E+03 -0.14478907316E+04  0.14661234411E+04  0.00000000000E+00 0.  1.
        -13    1    5    5    0    0  0.16463431197E+02  0.13629763877E+03 -0.89678340457E+03  0.90723126358E+03  0.00000000000E+00 0. -1.
          4    1    6    6  503    0 -0.26155545000E+03 -0.15840675084E+03 -0.95447832309E+03  0.10022638482E+04  0.00000000000E+00 0. -1.
         -4    1    6    6    0  503 -0.24092104346E+03 -0.55654175114E+02 -0.84736031278E+03  0.88270030931E+03  0.00000000000E+00 0.  1.
<mgrwt>
<rscale>  0 0.19605497E+04</rscale>
<asrwt>0</asrwt>
<pdfrwt beam="1">  1        2 0.67994207E+00 0.19605497E+04</pdfrwt>
<pdfrwt beam="2">  1       -1 0.33450074E-01 0.19605497E+04</pdfrwt>
<totfact> 0.13349210E+00</totfact>
</mgrwt>
</event>
<event>
12    7  0.1740517E-007  0.1774749E+04  0.7818608E-02  0.8719844E-01
         -1   -1    0    0    0  501 -0.00000000000E+00  0.00000000000E+00  0.20324779732E+04  0.20324779732E+04  0.00000000000E+00 0.  1.
          2   -1    0    0  501    0  0.00000000000E+00 -0.00000000000E+00 -0.38742536602E+03  0.38742536602E+03  0.00000000000E+00 0. -1.
         24    2    1    2    0    0  0.20358535567E+03 -0.36931161356E+02  0.14559653459E+04  0.14726978672E+04  0.78695692068E+02 0.  0.
        254    2    1    2    0    0 -0.20358535567E+03  0.36931161356E+02  0.18908726131E+03  0.94720547202E+03  0.90478356866E+03 0.  0.
         23    2    4    4    0    0 -0.45409464568E+03  0.29923276396E+03  0.80073344432E+02  0.55765425751E+03  0.93937937851E+02 0.  0.
         23    2    4    4    0    0  0.25050929000E+03 -0.26230160260E+03  0.10901391687E+03  0.38955121452E+03  0.91154152709E+02 0.  0.
          2    1    3    3  502    0  0.36219456284E+02  0.23769118363E+02  0.29125536692E+03  0.29445968954E+03  0.00000000000E+00 0. -1.
         -1    1    3    3    0  502  0.16736589939E+03 -0.60700279718E+02  0.11647099790E+04  0.11782381777E+04  0.00000000000E+00 0.  1.
         13    1    5    5    0    0 -0.23488922453E+03  0.10545769790E+03  0.60105630248E+02  0.26439924477E+03  0.00000000000E+00 0. -1.
        -13    1    5    5    0    0 -0.21920542115E+03  0.19377506606E+03  0.19967714184E+02  0.29325501274E+03  0.00000000000E+00 0.  1.
          4    1    6    6  503    0  0.27441696461E+02 -0.76762654869E+02  0.63039141658E+01  0.81763630185E+02  0.00000000000E+00 0. -1.
         -4    1    6    6    0  503  0.22306759354E+03 -0.18553894773E+03  0.10271000271E+03  0.30778758433E+03  0.00000000000E+00 0.  1.
<mgrwt>
<rscale>  0 0.17747490E+04</rscale>
<asrwt>0</asrwt>
<pdfrwt beam="1">  1        2 0.59603903E-01 0.17747490E+04</pdfrwt>
<pdfrwt beam="2">  1       -1 0.31268891E+00 0.17747490E+04</pdfrwt>
<totfact> 0.24396684E+00</totfact>
</mgrwt>
</event>
<event>
12    7  0.1740517E-007  0.2792475E+04  0.7818608E-02  0.8305608E-01
         -1   -1    0    0    0  501 -0.00000000000E+00  0.00000000000E+00  0.67591764815E+03  0.67591764815E+03  0.00000000000E+00 0.  1.
          2   -1    0    0  501    0  0.00000000000E+00 -0.00000000000E+00 -0.28841960155E+04  0.28841960155E+04  0.00000000000E+00 0. -1.
         24    2    1    2    0    0 -0.80809388720E+03  0.61617303911E+03 -0.15966579484E+03  0.10316930444E+04  0.78818951596E+02 0.  0.
        254    2    1    2    0    0  0.80809388720E+03 -0.61617303911E+03 -0.20486125725E+04  0.25284206193E+04  0.10786159701E+04 0.  0.
         23    2    4    4    0    0  0.74974156793E+03 -0.64050155724E+03 -0.79555905752E+03  0.12704693506E+04  0.93933451839E+02 0.  0.
         23    2    4    4    0    0  0.58352319269E+02  0.24328518125E+02 -0.12530535150E+04  0.12579512686E+04  0.91112089613E+02 0.  0.
          2    1    3    3  502    0 -0.17180784442E+03  0.92766971941E+02 -0.24667664936E+02  0.19680482764E+03  0.00000000000E+00 0. -1.
         -1    1    3    3    0  502 -0.63628604278E+03  0.52340606717E+03 -0.13499812991E+03  0.83488821675E+03  0.00000000000E+00 0.  1.
         13    1    5    5    0    0  0.73419730169E+03 -0.60353993687E+03 -0.76163113437E+03  0.12179442180E+04  0.00000000000E+00 0. -1.
        -13    1    5    5    0    0  0.15544266240E+02 -0.36961620362E+02 -0.33927923153E+02  0.52525132672E+02  0.00000000000E+00 0.  1.
          3    1    6    6  503    0 -0.33288303126E+01  0.20051893634E+02 -0.84460335995E+03  0.84484791246E+03  0.00000000000E+00 0. -1.
         -3    1    6    6    0  503  0.61681149582E+02  0.42766244903E+01 -0.40845015504E+03  0.41310335618E+03  0.00000000000E+00 0.  1.
<mgrwt>
<rscale>  0 0.27924749E+04</rscale>
<asrwt>0</asrwt>
<pdfrwt beam="1">  1        2 0.44372248E+00 0.27924749E+04</pdfrwt>
<pdfrwt beam="2">  1       -1 0.10398733E+00 0.27924749E+04</pdfrwt>
<totfact> 0.17698531E+00</totfact>
</mgrwt>
</event>
<event>
12    7  0.1740517E-007  0.2189460E+04  0.7818608E-02  0.8522828E-01
         -1   -1    0    0    0  501 -0.00000000000E+00  0.00000000000E+00  0.51388367216E+03  0.51388367216E+03  0.00000000000E+00 0.  1.
          2   -1    0    0  501    0  0.00000000000E+00 -0.00000000000E+00 -0.23321119200E+04  0.23321119200E+04  0.00000000000E+00 0. -1.
         24    2    1    2    0    0  0.68036579224E+03  0.59800126550E+03 -0.86658892227E+03  0.12562027296E+04  0.81029704269E+02 0.  0.
        254    2    1    2    0    0 -0.68036579224E+03 -0.59800126550E+03 -0.95163932554E+03  0.15897928625E+04  0.89516524446E+03 0.  0.
         23    2    4    4    0    0 -0.73733970436E+03 -0.11786064022E+03 -0.73380156806E+03  0.10516172787E+04  0.99363924183E+02 0.  0.
         23    2    4    4    0    0  0.56973912119E+02 -0.48014062529E+03 -0.21783775748E+03  0.53817558378E+03  0.91644005184E+02 0.  0.
          2    1    3    3  502    0  0.37121079617E+03  0.37923795322E+03 -0.51058863893E+03  0.73642354564E+03  0.00000000000E+00 0. -1.
         -1    1    3    3    0  502  0.30915499607E+03  0.21876331228E+03 -0.35600028334E+03  0.51977918401E+03  0.00000000000E+00 0.  1.
         13    1    5    5    0    0 -0.66185951844E+03 -0.13493007323E+03 -0.64733872604E+03  0.93558087467E+03  0.00000000000E+00 0.  1.
        -13    1    5    5    0    0 -0.75480185921E+02  0.17069433016E+02 -0.86462842018E+02  0.11603640403E+03  0.00000000000E+00 0. -1.
          1    1    6    6  503    0  0.23739384891E+02 -0.19076310120E+03 -0.38310233704E+02  0.19601477796E+03  0.00000000000E+00 0. -1.
         -1    1    6    6    0  503  0.33234527228E+02 -0.28937752409E+03 -0.17952752377E+03  0.34216080582E+03  0.00000000000E+00 0.  1.
<mgrwt>
<rscale>  0 0.21894604E+04</rscale>
<asrwt>0</asrwt>
<pdfrwt beam="1">  1        2 0.35878644E+00 0.21894604E+04</pdfrwt>
<pdfrwt beam="2">  1       -1 0.79059028E-01 0.21894604E+04</pdfrwt>
<totfact> 0.72394694E+00</totfact>
</mgrwt>
</event>
<event>
12    7  0.1740517E-007  0.3111746E+04  0.7818608E-02  0.8212522E-01
         -1   -1    0    0    0  501 -0.00000000000E+00  0.00000000000E+00  0.56286996935E+03  0.56286996935E+03  0.00000000000E+00 0.  1.
          2   -1    0    0  501    0  0.00000000000E+00 -0.00000000000E+00 -0.43007118415E+04  0.43007118415E+04  0.00000000000E+00 0. -1.
         24    2    1    2    0    0 -0.52432471685E+03  0.58829140845E+03 -0.36132305158E+04  0.36990100948E+04  0.78979308505E+02 0.  0.
        254    2    1    2    0    0  0.52432471685E+03 -0.58829140845E+03 -0.12461135643E+03  0.11645717161E+04  0.84834904484E+03 0.  0.
         23    2    4    4    0    0  0.51722385881E+03 -0.16722094826E+03 -0.37438021906E+03  0.66630785094E+03  0.91226301771E+02 0.  0.
         23    2    4    4    0    0  0.71008580416E+01 -0.42107046019E+03  0.24976886264E+03  0.49826386518E+03  0.92366877050E+02 0.  0.
          2    1    3    3  502    0 -0.51777706209E+03  0.55897460666E+03 -0.34798363340E+04  0.35622754819E+04  0.00000000000E+00 0. -1.
         -1    1    3    3    0  502 -0.65476547604E+01  0.29316801791E+02 -0.13339418172E+03  0.13673461291E+03  0.00000000000E+00 0.  1.
         13    1    5    5    0    0  0.28012359769E+03 -0.11861499063E+03 -0.25239084234E+03  0.39527191057E+03  0.00000000000E+00 0. -1.
        -13    1    5    5    0    0  0.23710026111E+03 -0.48605957636E+02 -0.12198937672E+03  0.27103594037E+03  0.00000000000E+00 0.  1.
          3    1    6    6  503    0  0.36431061809E+02 -0.71497908616E+02  0.42449733119E+02  0.90780796663E+02  0.00000000000E+00 0. -1.
         -3    1    6    6    0  503 -0.29330203768E+02 -0.34957255157E+03  0.20731912952E+03  0.40748306852E+03  0.00000000000E+00 0.  1.
<mgrwt>
<rscale>  0 0.31117465E+04</rscale>
<asrwt>0</asrwt>
<pdfrwt beam="1">  1        2 0.66164799E+00 0.31117465E+04</pdfrwt>
<pdfrwt beam="2">  1       -1 0.86595378E-01 0.31117465E+04</pdfrwt>
<totfact> 0.23952201E-01</totfact>
</mgrwt>
</event>
<event>
12    7  0.1740517E-007  0.1314246E+04  0.7818608E-02  0.9018344E-01
          2   -1    0    0  501    0  0.00000000000E+00  0.00000000000E+00  0.20104377390E+04  0.20104377390E+04  0.00000000000E+00 0. -1.
         -1   -1    0    0    0  501 -0.00000000000E+00 -0.00000000000E+00 -0.21478431490E+03  0.21478431490E+03  0.00000000000E+00 0.  1.
         24    2    1    2    0    0  0.20878888696E+02 -0.24582428454E+03  0.92464492341E+03  0.96049858320E+03  0.81998701698E+02 0.  0.
        254    2    1    2    0    0 -0.20878888696E+02  0.24582428454E+03  0.87100850072E+03  0.12647234707E+04  0.88317843169E+03 0.  0.
         23    2    4    4    0    0 -0.35173347397E+03  0.30169220399E+03  0.20746467289E+03  0.51581510579E+03  0.91044001493E+02 0.  0.
         23    2    4    4    0    0  0.33085458527E+03 -0.55867919449E+02  0.66354382783E+03  0.74890836493E+03  0.89371956434E+02 0.  0.
          4    1    3    3  502    0 -0.52020814639E+01 -0.21227392373E+03  0.68638592532E+03  0.71847958831E+03  0.00000000000E+00 0. -1.
         -3    1    3    3    0  502  0.26080970160E+02 -0.33550360812E+02  0.23825899809E+03  0.24201899489E+03  0.00000000000E+00 0.  1.
         13    1    5    5    0    0 -0.16706627902E+02  0.26251918829E+02 -0.71142634753E+01  0.31920015709E+02  0.00000000000E+00 0. -1.
        -13    1    5    5    0    0 -0.33502684606E+03  0.27544028516E+03  0.21457893637E+03  0.48389509009E+03  0.00000000000E+00 0.  1.
          2    1    6    6  503    0  0.23235610502E+03  0.12307849377E+01  0.47169947521E+03  0.52582437114E+03  0.00000000000E+00 0. -1.
         -2    1    6    6    0  503  0.98498480252E+02 -0.57098704386E+02  0.19184435262E+03  0.22308399380E+03  0.00000000000E+00 0.  1.
<mgrwt>
<rscale>  0 0.13142458E+04</rscale>
<asrwt>0</asrwt>
<pdfrwt beam="1">  1        2 0.30929810E+00 0.13142458E+04</pdfrwt>
<pdfrwt beam="2">  1       -1 0.33043742E-01 0.13142458E+04</pdfrwt>
<totfact> 0.63299036E+01</totfact>
</mgrwt>
</event>
<event>
12    7  0.1740517E-007  0.2698926E+04  0.7818608E-02  0.8335354E-01
         -3   -1    0    0    0  501 -0.00000000000E+00  0.00000000000E+00  0.62331895486E+03  0.62331895486E+03  0.00000000000E+00 0.  1.
          2   -1    0    0  501    0  0.00000000000E+00 -0.00000000000E+00 -0.29215381098E+04  0.29215381098E+04  0.00000000000E+00 0. -1.
         24    2    1    2    0    0 -0.18014621720E+03  0.38493012073E+03 -0.25009458981E+04  0.25380567300E+04  0.79860640948E+02 0.  0.
        254    2    1    2    0    0  0.18014621720E+03 -0.38493012073E+03  0.20272674316E+03  0.10068003347E+04  0.88990163732E+03 0.  0.
         23    2    4    4    0    0  0.17875607357E+03  0.25461731691E+03  0.15400586325E+03  0.35889700545E+03  0.91134750209E+02 0.  0.
         23    2    4    4    0    0  0.13901436359E+01 -0.63954743764E+03  0.48720879910E+02  0.64790332924E+03  0.91554040906E+02 0.  0.
          2    1    3    3  502    0 -0.10586512673E+03  0.25882646424E+03 -0.18377490924E+04  0.18589029804E+04  0.00000000000E+00 0. -1.
         -1    1    3    3    0  502 -0.74281090475E+02  0.12610365648E+03 -0.66319680566E+03  0.67915374961E+03  0.00000000000E+00 0.  1.
         13    1    5    5    0    0 -0.60520448655E+01  0.32908614562E+02  0.29302252283E+02  0.44477254280E+02  0.00000000000E+00 0.  1.
        -13    1    5    5    0    0  0.18480811843E+03  0.22170870235E+03  0.12470361096E+03  0.31441975117E+03  0.00000000000E+00 0. -1.
          2    1    6    6  503    0  0.27814880586E+01 -0.58106420253E+03  0.70815587682E+02  0.58537013213E+03  0.00000000000E+00 0. -1.
         -2    1    6    6    0  503 -0.13913444227E+01 -0.58483235113E+02 -0.22094707772E+02  0.62533197105E+02  0.00000000000E+00 0.  1.
<mgrwt>
<rscale>  0 0.26989258E+04</rscale>
<asrwt>0</asrwt>
<pdfrwt beam="1">  1        2 0.44946740E+00 0.26989258E+04</pdfrwt>
<pdfrwt beam="2">  1       -3 0.95895225E-01 0.26989258E+04</pdfrwt>
<totfact> 0.10541842E+00</totfact>
</mgrwt>
</event>
<event>
12    7  0.1740517E-007  0.1340225E+04  0.7818608E-02  0.8998261E-01
         -1   -1    0    0    0  501 -0.00000000000E+00  0.00000000000E+00  0.15293767063E+03  0.15293767063E+03  0.00000000000E+00 0.  1.
          2   -1    0    0  501    0  0.00000000000E+00 -0.00000000000E+00 -0.29361685944E+04  0.29361685944E+04  0.00000000000E+00 0. -1.
         24    2    1    2    0    0  0.31189088037E+03 -0.17114831830E+03 -0.57150312984E+03  0.67823643780E+03  0.82590374922E+02 0.  0.
        254    2    1    2    0    0 -0.31189088037E+03  0.17114831830E+03 -0.22117277939E+04  0.24108698272E+04  0.89105882032E+03 0.  0.
         23    2    4    4    0    0 -0.28246621201E+03 -0.28529760619E+03 -0.15311359305E+04  0.15857075538E+04  0.94389211774E+02 0.  0.
         23    2    4    4    0    0 -0.29424668357E+02  0.45644592449E+03 -0.68059186342E+03  0.82516227347E+03  0.92080399186E+02 0.  0.
          2    1    3    3  502    0  0.17598809418E+03 -0.73691866897E+02 -0.37066820111E+03  0.41688993254E+03  0.00000000000E+00 0. -1.
         -1    1    3    3    0  502  0.13590278619E+03 -0.97456451400E+02 -0.20083492873E+03  0.26134650526E+03  0.00000000000E+00 0.  1.
         13    1    5    5    0    0 -0.14855447765E+03 -0.21321180639E+03 -0.10022759958E+04  0.10354153171E+04  0.00000000000E+00 0.  1.
        -13    1    5    5    0    0 -0.13391173436E+03 -0.72085799808E+02 -0.52885993474E+03  0.55029223664E+03  0.00000000000E+00 0. -1.
          1    1    6    6  503    0  0.18954175781E+02  0.11727201697E+03 -0.12512652743E+03  0.17253589369E+03  0.00000000000E+00 0. -1.
         -1    1    6    6    0  503 -0.48378844137E+02  0.33917390752E+03 -0.55546533599E+03  0.65262637978E+03  0.00000000000E+00 0.  1.
<mgrwt>
<rscale>  0 0.13402250E+04</rscale>
<asrwt>0</asrwt>
<pdfrwt beam="1">  1        2 0.45171830E+00 0.13402250E+04</pdfrwt>
<pdfrwt beam="2">  1       -1 0.23528869E-01 0.13402250E+04</pdfrwt>
<totfact> 0.33326598E+01</totfact>
</mgrwt>
</event>
<event>
12    7  0.1740517E-007  0.2282753E+04  0.7818608E-02  0.8484752E-01
         -1   -1    0    0    0  501 -0.00000000000E+00  0.00000000000E+00  0.93709562401E+03  0.93709562401E+03  0.00000000000E+00 0.  1.
          2   -1    0    0  501    0  0.00000000000E+00 -0.00000000000E+00 -0.13901895937E+04  0.13901895937E+04  0.00000000000E+00 0. -1.
         24    2    1    2    0    0 -0.84883951321E+03 -0.35648442501E+03 -0.48094584023E+03  0.10416796130E+04  0.78599302890E+02 0.  0.
        254    2    1    2    0    0  0.84883951321E+03  0.35648442501E+03  0.27851870522E+02  0.12856056048E+04  0.89688147479E+03 0.  0.
         23    2    4    4    0    0  0.72016458937E+03  0.44952458976E+02  0.35347358668E+03  0.80813087991E+03  0.86453358754E+02 0.  0.
         23    2    4    4    0    0  0.12867492384E+03  0.31153196603E+03 -0.32562171615E+03  0.47747472484E+03  0.91341167864E+02 0.  0.
          4    1    3    3  502    0 -0.43984558251E+03 -0.19052672238E+03 -0.29416957679E+03  0.56240582172E+03  0.00000000000E+00 0. -1.
         -3    1    3    3    0  502 -0.40899393070E+03 -0.16595770263E+03 -0.18677626344E+03  0.47927379126E+03  0.00000000000E+00 0.  1.
         13    1    5    5    0    0  0.50152922263E+03  0.97599730170E+01  0.28186700934E+03  0.57539189183E+03  0.00000000000E+00 0.  1.
        -13    1    5    5    0    0  0.21863536673E+03  0.35192485959E+02  0.71606577334E+02  0.23273898808E+03  0.00000000000E+00 0. -1.
          3    1    6    6  503    0  0.74820612402E+02  0.11841330745E+03 -0.83304531214E+02  0.16297079598E+03  0.00000000000E+00 0.  1.
         -3    1    6    6    0  503  0.53854311438E+02  0.19311865859E+03 -0.24231718494E+03  0.31450392887E+03  0.00000000000E+00 0. -1.
<mgrwt>
<rscale>  0 0.22827532E+04</rscale>
<asrwt>0</asrwt>
<pdfrwt beam="1">  1        2 0.21387532E+00 0.22827532E+04</pdfrwt>
<pdfrwt beam="2">  1       -1 0.14416856E+00 0.22827532E+04</pdfrwt>
<totfact> 0.58836775E+00</totfact>
</mgrwt>
</event>
<event>
12    7  0.1740517E-007  0.1305793E+04  0.7818608E-02  0.9024984E-01
          2   -1    0    0  501    0  0.00000000000E+00  0.00000000000E+00  0.12427652570E+04  0.12427652570E+04  0.00000000000E+00 0. -1.
         -1   -1    0    0    0  501 -0.00000000000E+00 -0.00000000000E+00 -0.34300414860E+03  0.34300414860E+03  0.00000000000E+00 0.  1.
         24    2    1    2    0    0 -0.17684619494E+03  0.10345246221E+03 -0.60189703004E+02  0.22839732358E+03  0.81028072094E+02 0.  0.
        254    2    1    2    0    0  0.17684619494E+03 -0.10345246221E+03  0.95995081143E+03  0.13573720820E+04  0.93753742332E+03 0.  0.
         23    2    4    4    0    0 -0.26420787168E+03  0.25035207372E+03  0.27981587141E+03  0.46819645329E+03  0.91809785462E+02 0.  0.
         23    2    4    4    0    0  0.44105406662E+03 -0.35380453594E+03  0.68013494002E+03  0.88917562874E+03  0.91342338387E+02 0.  0.
          2    1    3    3  502    0 -0.12389856441E+01  0.19344714413E+01  0.12664494357E+02  0.12871156999E+02  0.00000000000E+00 0. -1.
         -1    1    3    3    0  502 -0.17560720930E+03  0.10151799077E+03 -0.72854197361E+02  0.21552616658E+03  0.00000000000E+00 0.  1.
         13    1    5    5    0    0 -0.28923450769E+02  0.71349445291E+02  0.82030639060E+02  0.11250037819E+03  0.00000000000E+00 0. -1.
        -13    1    5    5    0    0 -0.23528442091E+03  0.17900262843E+03  0.19778523235E+03  0.35569607511E+03  0.00000000000E+00 0.  1.
          2    1    6    6  503    0  0.29437021533E+02 -0.58188944196E+02  0.63535984146E+02  0.91045662965E+02  0.00000000000E+00 0. -1.
         -2    1    6    6    0  503  0.41161704509E+03 -0.29561559174E+03  0.61659895587E+03  0.79812996578E+03  0.00000000000E+00 0.  1.
<mgrwt>
<rscale>  0 0.13057927E+04</rscale>
<asrwt>0</asrwt>
<pdfrwt beam="1">  1        2 0.19119465E+00 0.13057927E+04</pdfrwt>
<pdfrwt beam="2">  1       -1 0.52769870E-01 0.13057927E+04</pdfrwt>
<totfact> 0.72208029E+01</totfact>
</mgrwt>
</event>
<event>
12    7  0.1740517E-007  0.2004137E+04  0.7818608E-02  0.8604689E-01
          2   -1    0    0  501    0  0.00000000000E+00  0.00000000000E+00  0.22433562975E+04  0.22433562975E+04  0.00000000000E+00 0. -1.
         -1   -1    0    0    0  501 -0.00000000000E+00 -0.00000000000E+00 -0.44760661382E+03  0.44760661382E+03  0.00000000000E+00 0.  1.
         24    2    1    2    0    0 -0.31852230198E+03 -0.47296777103E+03 -0.32055110140E+02  0.57693581554E+03  0.81684979453E+02 0.  0.
        254    2    1    2    0    0  0.31852230198E+03  0.47296777103E+03  0.18278047938E+04  0.21140270958E+04  0.89615022629E+03 0.  0.
         23    2    4    4    0    0  0.82392625942E+02  0.97689955320E+02  0.15995372617E+04  0.16072048460E+04  0.90863047256E+02 0.  0.
         23    2    4    4    0    0  0.23612967604E+03  0.37527781571E+03  0.22826753212E+03  0.50682224975E+03  0.90399467620E+02 0.  0.
          4    1    3    3  502    0 -0.12027756559E+02 -0.57478208405E+00  0.39555259168E+01  0.12674521197E+02  0.00000000000E+00 0. -1.
         -3    1    3    3    0  502 -0.30649454542E+03 -0.47239298895E+03 -0.36010636056E+02  0.56426129434E+03  0.00000000000E+00 0.  1.
         13    1    5    5    0    0 -0.11347257064E+02  0.25501350018E+02  0.13270076534E+03  0.13560446976E+03  0.00000000000E+00 0. -1.
        -13    1    5    5    0    0  0.93739883006E+02  0.72188605302E+02  0.14668364964E+04  0.14716003763E+04  0.00000000000E+00 0.  1.
          1    1    6    6  503    0  0.78239150479E+02  0.55664802190E+02  0.47963660541E+02  0.10733334805E+03  0.00000000000E+00 0. -1.
         -1    1    6    6    0  503  0.15789052556E+03  0.31961301352E+03  0.18030387158E+03  0.39948890170E+03  0.00000000000E+00 0.  1.
<mgrwt>
<rscale>  0 0.20041368E+04</rscale>
<asrwt>0</asrwt>
<pdfrwt beam="1">  1        2 0.34513173E+00 0.20041368E+04</pdfrwt>
<pdfrwt beam="2">  1       -1 0.68862557E-01 0.20041368E+04</pdfrwt>
<totfact> 0.11013205E+01</totfact>
</mgrwt>
</event>
<event>
12    7  0.1740517E-007  0.2397191E+04  0.7818608E-02  0.8440556E-01
          2   -1    0    0  501    0  0.00000000000E+00  0.00000000000E+00  0.10632730265E+04  0.10632730265E+04  0.00000000000E+00 0. -1.
         -1   -1    0    0    0  501 -0.00000000000E+00 -0.00000000000E+00 -0.13511401147E+04  0.13511401147E+04  0.00000000000E+00 0.  1.
         24    2    1    2    0    0  0.84815391268E+02  0.93892088419E+03 -0.47247872663E+03  0.10575131884E+04  0.79573356613E+02 0.  0.
        254    2    1    2    0    0 -0.84815391268E+02 -0.93892088419E+03  0.18461163848E+03  0.13568999528E+04  0.95829533420E+03 0.  0.
         23    2    4    4    0    0 -0.12485702233E+03  0.15246612539E+03  0.14455759466E+03  0.26051518874E+03  0.90200166171E+02 0.  0.
         23    2    4    4    0    0  0.40041631060E+02 -0.10913870096E+04  0.40054043822E+02  0.10963847641E+04  0.87899303704E+02 0.  0.
          2    1    3    3  502    0 -0.11586235190E+02  0.12883027415E+03 -0.81214390858E+02  0.15273263458E+03  0.00000000000E+00 0. -1.
         -3    1    3    3    0  502  0.96401626458E+02  0.81009061004E+03 -0.39126433578E+03  0.90478055379E+03  0.00000000000E+00 0.  1.
         13    1    5    5    0    0 -0.25507091025E+02  0.17638156043E+01  0.51358175886E+02  0.57370593237E+02  0.00000000000E+00 0. -1.
        -13    1    5    5    0    0 -0.99349931304E+02  0.15070230978E+03  0.93199418771E+02  0.20314459551E+03  0.00000000000E+00 0.  1.
          4    1    6    6  503    0  0.17104373180E+02 -0.42799130614E+03  0.58665576610E+02  0.43233177953E+03  0.00000000000E+00 0. -1.
         -4    1    6    6    0  503  0.22937257880E+02 -0.66339570344E+03 -0.18611532788E+02  0.66405298455E+03  0.00000000000E+00 0.  1.
<mgrwt>
<rscale>  0 0.23971907E+04</rscale>
<asrwt>0</asrwt>
<pdfrwt beam="1">  1        2 0.16358047E+00 0.23971907E+04</pdfrwt>
<pdfrwt beam="2">  1       -1 0.20786771E+00 0.23971907E+04</pdfrwt>
<totfact> 0.31299330E+00</totfact>
</mgrwt>
</event>
<event>
12    7  0.1740517E-007  0.2568626E+04  0.7818608E-02  0.8378937E-01
         -1   -1    0    0    0  501 -0.00000000000E+00  0.00000000000E+00  0.81369184098E+03  0.81369184098E+03  0.00000000000E+00 0.  1.
          2   -1    0    0  501    0  0.00000000000E+00 -0.00000000000E+00 -0.20271306024E+04  0.20271306024E+04  0.00000000000E+00 0. -1.
         24    2    1    2    0    0  0.99175793607E+03  0.52482402098E+03 -0.63440971488E+03  0.12911517802E+04  0.74653710038E+02 0.  0.
        254    2    1    2    0    0 -0.99175793607E+03 -0.52482402098E+03 -0.57902904654E+03  0.15496706632E+04  0.89843222939E+03 0.  0.
         23    2    4    4    0    0 -0.71350347934E+03 -0.74915219276E+03 -0.56049061688E+03  0.11801598470E+04  0.91166386080E+02 0.  0.
         23    2    4    4    0    0 -0.27825445673E+03  0.22432817177E+03 -0.18538429660E+02  0.36951081616E+03  0.91901569871E+02 0.  0.
          4    1    3    3  502    0  0.35975663602E+03  0.16229160299E+03 -0.25247891620E+03  0.46851788086E+03  0.00000000000E+00 0. -1.
         -3    1    3    3    0  502  0.63200130005E+03  0.36253241800E+03 -0.38193079868E+03  0.82263389934E+03  0.00000000000E+00 0.  1.
         13    1    5    5    0    0 -0.35619768493E+03 -0.43008742336E+03 -0.27454293918E+03  0.62227470456E+03  0.00000000000E+00 0. -1.
        -13    1    5    5    0    0 -0.35730579441E+03 -0.31906476940E+03 -0.28594767770E+03  0.55788514245E+03  0.00000000000E+00 0.  1.
          3    1    6    6  503    0 -0.47844826023E+02  0.47698162270E+01 -0.17715722560E+02  0.51241832030E+02  0.00000000000E+00 0. -1.
         -3    1    6    6    0  503 -0.23040963071E+03  0.21955835555E+03 -0.82270709970E+00  0.31826898413E+03  0.00000000000E+00 0.  1.
<mgrwt>
<rscale>  0 0.25686258E+04</rscale>
<asrwt>0</asrwt>
<pdfrwt beam="1">  1        2 0.31186624E+00 0.25686258E+04</pdfrwt>
<pdfrwt beam="2">  1       -1 0.12518336E+00 0.25686258E+04</pdfrwt>
<totfact> 0.36302732E+00</totfact>
</mgrwt>
</event>
<event>
12    7  0.1740517E-007  0.1719633E+04  0.7818608E-02  0.8750245E-01
          2   -1    0    0  501    0  0.00000000000E+00  0.00000000000E+00  0.42838524252E+03  0.42838524252E+03  0.00000000000E+00 0. -1.
         -1   -1    0    0    0  501 -0.00000000000E+00 -0.00000000000E+00 -0.17257472980E+04  0.17257472980E+04  0.00000000000E+00 0.  1.
         24    2    1    2    0    0  0.67108022079E+02 -0.60881431785E+03 -0.31212785757E+03  0.69206505007E+03  0.79824017790E+02 0.  0.
        254    2    1    2    0    0 -0.67108022079E+02  0.60881431785E+03 -0.98523419793E+03  0.14620674905E+04  0.88982951268E+03 0.  0.
         23    2    4    4    0    0  0.23560635611E+03  0.35200539012E+03 -0.42016713411E+02  0.43492558494E+03  0.89312432016E+02 0.  0.
         23    2    4    4    0    0 -0.30271437819E+03  0.25680892773E+03 -0.94321748452E+03  0.10271419055E+04  0.88172846471E+02 0.  0.
          2    1    3    3  502    0  0.35167432526E+02 -0.26666909213E+03 -0.18127874036E+03  0.32436265925E+03  0.00000000000E+00 0. -1.
         -1    1    3    3    0  502  0.31940589553E+02 -0.34214522572E+03 -0.13084911721E+03  0.36770239082E+03  0.00000000000E+00 0.  1.
         13    1    5    5    0    0  0.66587259170E+02  0.14051658578E+03  0.21140989961E+02  0.15692582777E+03  0.00000000000E+00 0. -1.
        -13    1    5    5    0    0  0.16901909694E+03  0.21148880434E+03 -0.63157703372E+02  0.27799975717E+03  0.00000000000E+00 0.  1.
          2    1    6    6  503    0 -0.16399165698E+03  0.18324571925E+03 -0.64133942546E+03  0.68686863069E+03  0.00000000000E+00 0. -1.
         -2    1    6    6    0  503 -0.13872272121E+03  0.73563208474E+02 -0.30187805907E+03  0.34027327483E+03  0.00000000000E+00 0.  1.
<mgrwt>
<rscale>  0 0.17196333E+04</rscale>
<asrwt>0</asrwt>
<pdfrwt beam="1">  1        2 0.65905421E-01 0.17196333E+04</pdfrwt>
<pdfrwt beam="2">  1       -1 0.26549959E+00 0.17196333E+04</pdfrwt>
<totfact> 0.44189242E+00</totfact>
</mgrwt>
</event>
<event>
12    7  0.1740517E-007  0.1739278E+04  0.7818608E-02  0.8739275E-01
          4   -1    0    0  501    0  0.00000000000E+00  0.00000000000E+00  0.12906524536E+04  0.12906524536E+04  0.00000000000E+00 0. -1.
         -3   -1    0    0    0  501 -0.00000000000E+00 -0.00000000000E+00 -0.58596084233E+03  0.58596084233E+03  0.00000000000E+00 0.  1.
         24    2    1    2    0    0 -0.22966340480E+02 -0.30400474266E+02  0.94509706891E+03  0.94924687106E+03  0.80059421194E+02 0.  0.
        254    2    1    2    0    0  0.22966340480E+02  0.30400474266E+02 -0.24040545765E+03  0.92736642485E+03  0.89485309422E+03 0.  0.
         23    2    4    4    0    0 -0.31574796578E+03  0.12950678762E+03  0.15900151620E+03  0.38669680778E+03  0.88227847410E+02 0.  0.
         23    2    4    4    0    0  0.33871430626E+03 -0.99106313354E+02 -0.39940697386E+03  0.54066961707E+03  0.90819939674E+02 0.  0.
          4    1    3    3  502    0 -0.52335644779E+02 -0.18532845401E+02  0.51472490177E+03  0.51771054710E+03  0.00000000000E+00 0. -1.
         -3    1    3    3    0  502  0.29369304299E+02 -0.11867628865E+02  0.43037216714E+03  0.43153632396E+03  0.00000000000E+00 0.  1.
         13    1    5    5    0    0 -0.32058706540E+03  0.12749861074E+03  0.14984123901E+03  0.37614406701E+03  0.00000000000E+00 0. -1.
        -13    1    5    5    0    0  0.48390996153E+01  0.20081768832E+01  0.91602771959E+01  0.10552740771E+02  0.00000000000E+00 0.  1.
          3    1    6    6  503    0  0.33294738515E+03 -0.11101239290E+03 -0.38818961095E+03  0.52332483861E+03  0.00000000000E+00 0. -1.
         -3    1    6    6    0  503  0.57669211153E+01  0.11906079546E+02 -0.11217362905E+02  0.17344778461E+02  0.00000000000E+00 0.  1.
<mgrwt>
<rscale>  0 0.17392778E+04</rscale>
<asrwt>0</asrwt>
<pdfrwt beam="1">  1        4 0.19856192E+00 0.17392778E+04</pdfrwt>
<pdfrwt beam="2">  1       -3 0.90147822E-01 0.17392778E+04</pdfrwt>
<totfact> 0.32372850E-01</totfact>
</mgrwt>
</event>
<event>
12    7  0.1740517E-007  0.1527240E+04  0.7818608E-02  0.8866538E-01
         -1   -1    0    0    0  501 -0.00000000000E+00  0.00000000000E+00  0.93074596792E+03  0.93074596792E+03  0.00000000000E+00 0.  1.
          2   -1    0    0  501    0  0.00000000000E+00 -0.00000000000E+00 -0.62650355437E+03  0.62650355437E+03  0.00000000000E+00 0. -1.
         24    2    1    2    0    0 -0.18533034863E+03 -0.31250815229E+03  0.43488120130E+03  0.57262251319E+03  0.82256914539E+02 0.  0.
        254    2    1    2    0    0  0.18533034863E+03  0.31250815229E+03 -0.13063878775E+03  0.98462700910E+03  0.90576772454E+03 0.  0.
         23    2    4    4    0    0 -0.66939001845E+02 -0.24025052267E+03 -0.24313483719E+03  0.35992562592E+03  0.90723555531E+02 0.  0.
         23    2    4    4    0    0  0.25226935048E+03  0.55275867496E+03  0.11249604944E+03  0.62470138318E+03  0.91730469740E+02 0.  0.
          2    1    3    3  502    0  0.84389943775E+01 -0.19342524658E+02  0.25424627417E+02  0.33041815409E+02  0.00000000000E+00 0. -1.
         -1    1    3    3    0  502 -0.19376934301E+03 -0.29316562763E+03  0.40945657389E+03  0.53958069778E+03  0.00000000000E+00 0.  1.
         13    1    5    5    0    0 -0.86492239572E+02 -0.20327474038E+03 -0.22150931833E+03  0.31283846580E+03  0.00000000000E+00 0.  1.
        -13    1    5    5    0    0  0.19553237727E+02 -0.36975782291E+02 -0.21625518865E+02  0.47087160116E+02  0.00000000000E+00 0. -1.
          1    1    6    6  503    0  0.49082952675E+02  0.75394413721E+02 -0.13087564494E+02  0.90910605586E+02  0.00000000000E+00 0. -1.
         -1    1    6    6    0  503  0.20318639780E+03  0.47736426124E+03  0.12558361393E+03  0.53379077760E+03  0.00000000000E+00 0.  1.
<mgrwt>
<rscale>  0 0.15272402E+04</rscale>
<asrwt>0</asrwt>
<pdfrwt beam="1">  1        2 0.96385163E-01 0.15272402E+04</pdfrwt>
<pdfrwt beam="2">  1       -1 0.14319169E+00 0.15272402E+04</pdfrwt>
<totfact> 0.20476805E+01</totfact>
</mgrwt>
</event>
<event>
12    7  0.1740517E-007  0.1836701E+04  0.7818608E-02  0.8687022E-01
          2   -1    0    0  501    0  0.00000000000E+00  0.00000000000E+00  0.30707919558E+04  0.30707919558E+04  0.00000000000E+00 0. -1.
         -1   -1    0    0    0  501 -0.00000000000E+00 -0.00000000000E+00 -0.27464165919E+03  0.27464165919E+03  0.00000000000E+00 0.  1.
         24    2    1    2    0    0 -0.10169681003E+03  0.25897218464E+03  0.22238244895E+04  0.22425736507E+04  0.79576283638E+02 0.  0.
        254    2    1    2    0    0  0.10169681003E+03 -0.25897218464E+03  0.57232580705E+03  0.11028599643E+04  0.90074104925E+03 0.  0.
         23    2    4    4    0    0  0.22908061057E+03 -0.53526314104E+03  0.22095553652E+03  0.62939235068E+03  0.91262400155E+02 0.  0.
         23    2    4    4    0    0 -0.12738380054E+03  0.27629095639E+03  0.35137027053E+03  0.47346761360E+03  0.90261779801E+02 0.  0.
          4    1    3    3  502    0 -0.70354679756E+02  0.14590163912E+03  0.98779853647E+03  0.10009910179E+04  0.00000000000E+00 0. -1.
         -3    1    3    3    0  502 -0.31342130275E+02  0.11307054552E+03  0.12360259530E+04  0.12415826328E+04  0.00000000000E+00 0.  1.
         13    1    5    5    0    0  0.41801479296E+02 -0.20714347220E+03  0.71227116635E+02  0.22300018809E+03  0.00000000000E+00 0. -1.
        -13    1    5    5    0    0  0.18727913127E+03 -0.32811966884E+03  0.14972841988E+03  0.40639216259E+03  0.00000000000E+00 0.  1.
          2    1    6    6  503    0 -0.73487558624E+02  0.24238277034E+03  0.27104367524E+03  0.37096428739E+03  0.00000000000E+00 0. -1.
         -2    1    6    6    0  503 -0.53896241914E+02  0.33908186055E+02  0.80326595291E+02  0.10250332621E+03  0.00000000000E+00 0.  1.
<mgrwt>
<rscale>  0 0.18367007E+04</rscale>
<asrwt>0</asrwt>
<pdfrwt beam="1">  1        2 0.47242951E+00 0.18367007E+04</pdfrwt>
<pdfrwt beam="2">  1       -1 0.42252565E-01 0.18367007E+04</pdfrwt>
<totfact> 0.93060122E+00</totfact>
</mgrwt>
</event>
<event>
12    7  0.1740517E-007  0.2585451E+04  0.7818608E-02  0.8373160E-01
          2   -1    0    0  501    0  0.00000000000E+00  0.00000000000E+00  0.14674341183E+04  0.14674341183E+04  0.00000000000E+00 0. -1.
         -1   -1    0    0    0  501 -0.00000000000E+00 -0.00000000000E+00 -0.11388175782E+04  0.11388175782E+04  0.00000000000E+00 0.  1.
         24    2    1    2    0    0 -0.75761552790E+03  0.13742685265E+03 -0.68718614981E+03  0.10351820245E+04  0.80682038834E+02 0.  0.
        254    2    1    2    0    0  0.75761552790E+03 -0.13742685265E+03  0.10158026899E+04  0.15710696720E+04  0.91844291138E+03 0.  0.
         23    2    4    4    0    0  0.56465809800E+03 -0.48887234805E+03  0.82738414786E+03  0.11186270698E+04  0.94483082318E+02 0.  0.
         23    2    4    4    0    0  0.19295742991E+03  0.35144549539E+03  0.18841854205E+03  0.45244260219E+03  0.91957899582E+02 0.  0.
          4    1    3    3  502    0 -0.70174484292E+02  0.11486730296E+02 -0.34971723002E+02  0.79242820673E+02  0.00000000000E+00 0. -1.
         -3    1    3    3    0  502 -0.68744104361E+03  0.12594012235E+03 -0.65221442681E+03  0.95593920382E+03  0.00000000000E+00 0.  1.
         13    1    5    5    0    0  0.21376014718E+03 -0.15530506953E+03  0.35175871583E+03  0.43994006331E+03  0.00000000000E+00 0. -1.
        -13    1    5    5    0    0  0.35089795082E+03 -0.33356727851E+03  0.47562543202E+03  0.67868700648E+03  0.00000000000E+00 0.  1.
          1    1    6    6  503    0  0.52315846590E+02  0.51342311260E+02  0.67510617831E+02  0.99652718227E+02  0.00000000000E+00 0. -1.
         -1    1    6    6    0  503  0.14064158332E+03  0.30010318414E+03  0.12090792422E+03  0.35278988396E+03  0.00000000000E+00 0.  1.
<mgrwt>
<rscale>  0 0.25854514E+04</rscale>
<asrwt>0</asrwt>
<pdfrwt beam="1">  1        2 0.22575909E+00 0.25854514E+04</pdfrwt>
<pdfrwt beam="2">  1       -1 0.17520270E+00 0.25854514E+04</pdfrwt>
<totfact> 0.30117906E+00</totfact>
</mgrwt>
</event>
<event>
12    7  0.1740517E-007  0.2233213E+04  0.7818608E-02  0.8504730E-01
          2   -1    0    0  501    0  0.00000000000E+00  0.00000000000E+00  0.13258583972E+04  0.13258583972E+04  0.00000000000E+00 0. -1.
         -1   -1    0    0    0  501 -0.00000000000E+00 -0.00000000000E+00 -0.94037936075E+03  0.94037936075E+03  0.00000000000E+00 0.  1.
         24    2    1    2    0    0  0.77933300470E+03 -0.34010684712E+03 -0.22576650527E+03  0.88352894647E+03  0.81365131812E+02 0.  0.
        254    2    1    2    0    0 -0.77933300470E+03  0.34010684712E+03  0.61124554175E+03  0.13827088115E+04  0.90290085029E+03 0.  0.
         23    2    4    4    0    0  0.62690319831E+02 -0.24986588638E+02  0.42722313640E+03  0.44218872174E+03  0.91961141476E+02 0.  0.
         23    2    4    4    0    0 -0.84202332453E+03  0.36509343576E+03  0.18402240535E+03  0.94052008978E+03  0.91745832126E+02 0.  0.
          4    1    3    3  502    0  0.30838084269E+02 -0.24884308746E+02 -0.25221173786E+02  0.46971521907E+02  0.00000000000E+00 0. -1.
         -3    1    3    3    0  502  0.74849492043E+03 -0.31522253837E+03 -0.20054533149E+03  0.83655742456E+03  0.00000000000E+00 0.  1.
         13    1    5    5    0    0  0.77935002291E+02  0.45346574049E+01  0.25097398465E+03  0.26283525006E+03  0.00000000000E+00 0. -1.
        -13    1    5    5    0    0 -0.15244682460E+02 -0.29521246043E+02  0.17624915175E+03  0.17935347168E+03  0.00000000000E+00 0.  1.
          1    1    6    6  503    0 -0.73744078299E+03  0.34708682098E+03  0.14741983774E+03  0.82826371300E+03  0.00000000000E+00 0. -1.
         -1    1    6    6    0  503 -0.10458254154E+03  0.18006614779E+02  0.36602567609E+02  0.11225637678E+03  0.00000000000E+00 0.  1.
<mgrwt>
<rscale>  0 0.22332128E+04</rscale>
<asrwt>0</asrwt>
<pdfrwt beam="1">  1        2 0.20397822E+00 0.22332128E+04</pdfrwt>
<pdfrwt beam="2">  1       -1 0.14467375E+00 0.22332128E+04</pdfrwt>
<totfact> 0.63765257E+00</totfact>
</mgrwt>
</event>
<event>
12    7  0.1740517E-007  0.1483521E+04  0.7818608E-02  0.8895485E-01
          2   -1    0    0  501    0  0.00000000000E+00  0.00000000000E+00  0.12262916582E+04  0.12262916582E+04  0.00000000000E+00 0. -1.
         -1   -1    0    0    0  501 -0.00000000000E+00 -0.00000000000E+00 -0.44867711307E+03  0.44867711307E+03  0.00000000000E+00 0.  1.
         24    2    1    2    0    0  0.31561947850E+03 -0.17582306333E+03 -0.80906149440E+02  0.37878025699E+03  0.79995457748E+02 0.  0.
        254    2    1    2    0    0 -0.31561947850E+03  0.17582306333E+03  0.85852069459E+03  0.12961885143E+04  0.90139751319E+03 0.  0.
         23    2    4    4    0    0 -0.84846588965E+02  0.52110075621E+03  0.57251340745E+03  0.78410500904E+03  0.91126953819E+02 0.  0.
         23    2    4    4    0    0 -0.23077288953E+03 -0.34527769289E+03  0.28600728715E+03  0.51208350527E+03  0.89199418832E+02 0.  0.
          4    1    3    3  502    0  0.28068757431E+02 -0.43671710216E+02 -0.24193870402E+02  0.57274922802E+02  0.00000000000E+00 0. -1.
         -3    1    3    3    0  502  0.28755072107E+03 -0.13215135311E+03 -0.56712279038E+02  0.32150533418E+03  0.00000000000E+00 0.  1.
         13    1    5    5    0    0 -0.16793772118E+01  0.29387507857E+02  0.70938150911E+02  0.76802781073E+02  0.00000000000E+00 0.  1.
        -13    1    5    5    0    0 -0.83167211754E+02  0.49171324836E+03  0.50157525654E+03  0.70730222797E+03  0.00000000000E+00 0. -1.
          4    1    6    6  503    0 -0.17872614900E+03 -0.29263636636E+03  0.26976994705E+03  0.43629680675E+03  0.00000000000E+00 0. -1.
         -4    1    6    6    0  503 -0.52046740533E+02 -0.52641326529E+02  0.16237340099E+02  0.75786698519E+02  0.00000000000E+00 0.  1.
<mgrwt>
<rscale>  0 0.14835215E+04</rscale>
<asrwt>0</asrwt>
<pdfrwt beam="1">  1        2 0.18866025E+00 0.14835215E+04</pdfrwt>
<pdfrwt beam="2">  1       -1 0.69027249E-01 0.14835215E+04</pdfrwt>
<totfact> 0.42789606E+01</totfact>
</mgrwt>
</event>
<event>
12    7  0.1740517E-007  0.1684837E+04  0.7818608E-02  0.8770060E-01
         -3   -1    0    0    0  501 -0.00000000000E+00  0.00000000000E+00  0.52770653044E+03  0.52770653044E+03  0.00000000000E+00 0.  1.
          4   -1    0    0  501    0  0.00000000000E+00 -0.00000000000E+00 -0.13448166452E+04  0.13448166452E+04  0.00000000000E+00 0. -1.
         24    2    1    2    0    0 -0.14172020079E+03 -0.37694667388E+03  0.20237503493E+03  0.45759012493E+03  0.79117996743E+02 0.  0.
        254    2    1    2    0    0  0.14172020079E+03  0.37694667388E+03 -0.10194851497E+04  0.14149330507E+04  0.89471344983E+03 0.  0.
         23    2    4    4    0    0  0.38012481752E+02 -0.11470645673E+03  0.10266656879E+03  0.18206600138E+03  0.89471137967E+02 0.  0.
         23    2    4    4    0    0  0.10370771904E+03  0.49165313061E+03 -0.11221517185E+04  0.12328670494E+04  0.90876785807E+02 0.  0.
          4    1    3    3  502    0 -0.18018383387E+02 -0.92395466429E+02  0.15557395768E+02  0.95412876069E+02  0.00000000000E+00 0. -1.
         -3    1    3    3    0  502 -0.12370181740E+03 -0.28455120745E+03  0.18681763916E+03  0.36217724886E+03  0.00000000000E+00 0.  1.
         13    1    5    5    0    0 -0.16697801513E+02 -0.44674492636E+02  0.19297156988E+01  0.47732071717E+02  0.00000000000E+00 0. -1.
        -13    1    5    5    0    0  0.54710283265E+02 -0.70031964092E+02  0.10073685309E+03  0.13433392967E+03  0.00000000000E+00 0.  1.
          2    1    6    6  503    0  0.11716551293E+02  0.84197446233E+02 -0.11920040223E+03  0.14640773005E+03  0.00000000000E+00 0. -1.
         -2    1    6    6    0  503  0.91991167742E+02  0.40745568438E+03 -0.10029513163E+04  0.10864593193E+04  0.00000000000E+00 0.  1.
<mgrwt>
<rscale>  0 0.16848365E+04</rscale>
<asrwt>0</asrwt>
<pdfrwt beam="1">  1        4 0.20689487E+00 0.16848365E+04</pdfrwt>
<pdfrwt beam="2">  1       -3 0.81185621E-01 0.16848365E+04</pdfrwt>
<totfact> 0.36313943E-01</totfact>
</mgrwt>
</event>
<event>
12    7  0.1740517E-007  0.2249532E+04  0.7818608E-02  0.8498090E-01
          2   -1    0    0  501    0  0.00000000000E+00  0.00000000000E+00  0.15576156310E+04  0.15576156310E+04  0.00000000000E+00 0. -1.
         -1   -1    0    0    0  501 -0.00000000000E+00 -0.00000000000E+00 -0.81220180163E+03  0.81220180163E+03  0.00000000000E+00 0.  1.
         24    2    1    2    0    0  0.16793663634E+03 -0.57075909594E+03 -0.45388028840E+03  0.75268056958E+03  0.80944821979E+02 0.  0.
        254    2    1    2    0    0 -0.16793663634E+03  0.57075909594E+03  0.11992941178E+04  0.16171368631E+04  0.90711443242E+03 0.  0.
         23    2    4    4    0    0 -0.10074029014E+03  0.76844154747E+03  0.62649465365E+03  0.10007375661E+04  0.91263942329E+02 0.  0.
         23    2    4    4    0    0 -0.67196346193E+02 -0.19768245154E+03  0.57279946416E+03  0.61639929700E+03  0.90857947424E+02 0.  0.
          4    1    3    3  502    0  0.15125896731E+03 -0.48474223737E+03 -0.34972527870E+03  0.61657285250E+03  0.00000000000E+00 0. -1.
         -3    1    3    3    0  502  0.16677669030E+02 -0.86016858566E+02 -0.10415500970E+03  0.13610771708E+03  0.00000000000E+00 0.  1.
         13    1    5    5    0    0 -0.22099854032E+02  0.63126789679E+02  0.28503503065E+02  0.72703815652E+02  0.00000000000E+00 0. -1.
        -13    1    5    5    0    0 -0.78640436112E+02  0.70531475779E+03  0.59799115058E+03  0.92803375043E+03  0.00000000000E+00 0.  1.
          2    1    6    6  503    0 -0.34237404979E+01 -0.13599966659E+03  0.39342227386E+03  0.41627961382E+03  0.00000000000E+00 0.  1.
         -2    1    6    6    0  503 -0.63772605695E+02 -0.61682784950E+02  0.17937719030E+03  0.20011968318E+03  0.00000000000E+00 0. -1.
<mgrwt>
<rscale>  0 0.22495317E+04</rscale>
<asrwt>0</asrwt>
<pdfrwt beam="1">  1        2 0.23963317E+00 0.22495317E+04</pdfrwt>
<pdfrwt beam="2">  1       -1 0.12495412E+00 0.22495317E+04</pdfrwt>
<totfact> 0.68419500E+00</totfact>
</mgrwt>
</event>
<event>
12    7  0.1740517E-007  0.1372757E+04  0.7818608E-02  0.8973778E-01
         -1   -1    0    0    0  501 -0.00000000000E+00  0.00000000000E+00  0.41935148517E+03  0.41935148517E+03  0.00000000000E+00 0.  1.
          2   -1    0    0  501    0  0.00000000000E+00 -0.00000000000E+00 -0.11234376805E+04  0.11234376805E+04  0.00000000000E+00 0. -1.
         24    2    1    2    0    0 -0.31246427868E+03  0.30668569065E+02  0.65555880143E+02  0.33047070382E+03  0.79616744973E+02 0.  0.
        254    2    1    2    0    0  0.31246427868E+03 -0.30668569065E+02 -0.76964207546E+03  0.12123184618E+04  0.88249229006E+03 0.  0.
         23    2    4    4    0    0 -0.34259459875E+02  0.32809284899E+03 -0.57578617157E+03  0.66994954329E+03  0.92108886835E+02 0.  0.
         23    2    4    4    0    0  0.34672373856E+03 -0.35876141806E+03 -0.19385590389E+03  0.54236891854E+03  0.87503293446E+02 0.  0.
          2    1    3    3  502    0 -0.25019127499E+03  0.18748175770E+02  0.18616204280E+02  0.25158245415E+03  0.00000000000E+00 0. -1.
         -1    1    3    3    0  502 -0.62273003693E+02  0.11920393295E+02  0.46939675863E+02  0.78888249666E+02  0.00000000000E+00 0.  1.
         13    1    5    5    0    0 -0.36387310632E+02  0.22675145444E+03 -0.47185013636E+03  0.52476929183E+03  0.00000000000E+00 0. -1.
        -13    1    5    5    0    0  0.21278507572E+01  0.10134139456E+03 -0.10393603521E+03  0.14518025146E+03  0.00000000000E+00 0.  1.
          1    1    6    6  503    0  0.26560985891E+03 -0.27378794146E+03 -0.10670850089E+03  0.39609990936E+03  0.00000000000E+00 0. -1.
         -1    1    6    6    0  503  0.81113879651E+02 -0.84973476601E+02 -0.87147402994E+02  0.14626900918E+03  0.00000000000E+00 0.  1.
<mgrwt>
<rscale>  0 0.13727567E+04</rscale>
<asrwt>0</asrwt>
<pdfrwt beam="1">  1        2 0.17283657E+00 0.13727567E+04</pdfrwt>
<pdfrwt beam="2">  1       -1 0.64515613E-01 0.13727567E+04</pdfrwt>
<totfact> 0.57102450E+01</totfact>
</mgrwt>
</event>
<event>
12    7  0.1740517E-007  0.1570911E+04  0.7818608E-02  0.8838620E-01
         -1   -1    0    0    0  501 -0.00000000000E+00  0.00000000000E+00  0.31821210206E+03  0.31821210206E+03  0.00000000000E+00 0.  1.
          2   -1    0    0  501    0  0.00000000000E+00 -0.00000000000E+00 -0.19387708269E+04  0.19387708269E+04  0.00000000000E+00 0. -1.
         24    2    1    2    0    0 -0.11795488144E+03 -0.82897225417E+02  0.17446114816E+03  0.24006113232E+03  0.80045930538E+02 0.  0.
        254    2    1    2    0    0  0.11795488144E+03  0.82897225417E+02 -0.17950198730E+04  0.20169217966E+04  0.90834568597E+03 0.  0.
         23    2    4    4    0    0 -0.17466048094E+03  0.41664357324E+03 -0.10180874993E+04  0.11177346138E+04  0.93436394993E+02 0.  0.
         23    2    4    4    0    0  0.29261536239E+03 -0.33374634782E+03 -0.77693237368E+03  0.89918718283E+03  0.88900514579E+02 0.  0.
          2    1    3    3  502    0 -0.56944534901E+02 -0.12776190958E+02  0.23780763766E+02  0.63019329065E+02  0.00000000000E+00 0. -1.
         -1    1    3    3    0  502 -0.61010346542E+02 -0.70121034459E+02  0.15068038440E+03  0.17704180326E+03  0.00000000000E+00 0.  1.
         13    1    5    5    0    0 -0.18395341494E+03  0.37627299177E+03 -0.90257978048E+03  0.99502285568E+03  0.00000000000E+00 0.  1.
        -13    1    5    5    0    0  0.92929339973E+01  0.40370581470E+02 -0.11550771881E+03  0.12271175809E+03  0.00000000000E+00 0. -1.
          3    1    6    6  503    0  0.15304596746E+02 -0.30083837529E+02 -0.11557073984E+03  0.12039877022E+03  0.00000000000E+00 0. -1.
         -3    1    6    6    0  503  0.27731076564E+03 -0.30366251029E+03 -0.66136163384E+03  0.77878841261E+03  0.00000000000E+00 0.  1.
<mgrwt>
<rscale>  0 0.15709110E+04</rscale>
<asrwt>0</asrwt>
<pdfrwt beam="1">  1        2 0.29827243E+00 0.15709110E+04</pdfrwt>
<pdfrwt beam="2">  1       -1 0.48955708E-01 0.15709110E+04</pdfrwt>
<totfact> 0.33058499E+01</totfact>
</mgrwt>
</event>
<event>
12    7  0.1740517E-007  0.2032083E+04  0.7818608E-02  0.8591766E-01
          2   -1    0    0  501    0  0.00000000000E+00  0.00000000000E+00  0.16781504632E+04  0.16781504632E+04  0.00000000000E+00 0. -1.
         -1   -1    0    0    0  501 -0.00000000000E+00 -0.00000000000E+00 -0.61516534716E+03  0.61516534716E+03  0.00000000000E+00 0.  1.
         24    2    1    2    0    0  0.37204981089E+03 -0.32190495175E+02  0.12491092688E+04  0.13060504359E+04  0.77694825572E+02 0.  0.
        254    2    1    2    0    0 -0.37204981089E+03  0.32190495175E+02 -0.18612415284E+03  0.98726537438E+03  0.89475886664E+03 0.  0.
         23    2    4    4    0    0  0.23105829551E+03 -0.27748353923E+02 -0.27099017714E+03  0.36862568744E+03  0.91056654151E+02 0.  0.
         23    2    4    4    0    0 -0.60310810640E+03  0.59938849098E+02  0.84866024300E+02  0.61863968695E+03  0.90447590095E+02 0.  0.
          2    1    3    3  502    0  0.15034309918E+03 -0.27080939898E+02  0.63529656213E+03  0.65340504026E+03  0.00000000000E+00 0. -1.
         -1    1    3    3    0  502  0.22170671171E+03 -0.51095552770E+01  0.61381270671E+03  0.65264539567E+03  0.00000000000E+00 0.  1.
         13    1    5    5    0    0  0.22533448911E+03 -0.18590424009E+02 -0.27594410541E+03  0.35674414523E+03  0.00000000000E+00 0. -1.
        -13    1    5    5    0    0  0.57238063934E+01 -0.91579299140E+01  0.49539282662E+01  0.11881542206E+02  0.00000000000E+00 0.  1.
          3    1    6    6  503    0 -0.50435326511E+03  0.61870192857E+02  0.10232617417E+03  0.51833462427E+03  0.00000000000E+00 0. -1.
         -3    1    6    6    0  503 -0.98754841285E+02 -0.19313437589E+01 -0.17460149872E+02  0.10030506268E+03  0.00000000000E+00 0.  1.
<mgrwt>
<rscale>  0 0.20320827E+04</rscale>
<asrwt>0</asrwt>
<pdfrwt beam="1">  1        2 0.25817699E+00 0.20320827E+04</pdfrwt>
<pdfrwt beam="2">  1       -1 0.94640823E-01 0.20320827E+04</pdfrwt>
<totfact> 0.11494956E+01</totfact>
</mgrwt>
</event>
<event>
12    7  0.1740517E-007  0.1249207E+04  0.7818608E-02  0.9070844E-01
         -1   -1    0    0    0  501 -0.00000000000E+00  0.00000000000E+00  0.15363341348E+03  0.15363341348E+03  0.00000000000E+00 0.  1.
          2   -1    0    0  501    0  0.00000000000E+00 -0.00000000000E+00 -0.25393530999E+04  0.25393530999E+04  0.00000000000E+00 0. -1.
         24    2    1    2    0    0 -0.14381745478E+03 -0.25400353073E+03 -0.44592037742E+03  0.53896353794E+03  0.80221308293E+02 0.  0.
        254    2    1    2    0    0  0.14381745478E+03  0.25400353073E+03 -0.19397993090E+04  0.21540229754E+04  0.88982715492E+03 0.  0.
         23    2    4    4    0    0  0.86524566595E+02 -0.29115665243E+03 -0.11171890150E+04  0.11613871454E+04  0.91924476577E+02 0.  0.
         23    2    4    4    0    0  0.57292888183E+02  0.54516018316E+03 -0.82261029393E+03  0.99263582998E+03  0.90311100883E+02 0.  0.
          2    1    3    3  502    0 -0.15851404340E+02 -0.86936229585E+02 -0.17367204255E+03  0.19486188287E+03  0.00000000000E+00 0. -1.
         -1    1    3    3    0  502 -0.12796605044E+03 -0.16706730115E+03 -0.27224833487E+03  0.34410165506E+03  0.00000000000E+00 0.  1.
         13    1    5    5    0    0  0.99546570422E+02 -0.22705671283E+03 -0.95113248923E+03  0.98291265257E+03  0.00000000000E+00 0. -1.
        -13    1    5    5    0    0 -0.13022003827E+02 -0.64099939592E+02 -0.16605652581E+03  0.17847449287E+03  0.00000000000E+00 0.  1.
          4    1    6    6  503    0  0.45498283635E+02  0.46381705972E+03 -0.63371442006E+03  0.78663226789E+03  0.00000000000E+00 0. -1.
         -4    1    6    6    0  503  0.11794604548E+02  0.81343123443E+02 -0.18889587387E+03  0.20600356209E+03  0.00000000000E+00 0.  1.
<mgrwt>
<rscale>  0 0.12492069E+04</rscale>
<asrwt>0</asrwt>
<pdfrwt beam="1">  1        2 0.39066966E+00 0.12492069E+04</pdfrwt>
<pdfrwt beam="2">  1       -1 0.23635913E-01 0.12492069E+04</pdfrwt>
<totfact> 0.57389122E+01</totfact>
</mgrwt>
</event>
<event>
12    7  0.1740517E-007  0.1328851E+04  0.7818608E-02  0.9006994E-01
         -3   -1    0    0    0  501 -0.00000000000E+00  0.00000000000E+00  0.28671826406E+03  0.28671826406E+03  0.00000000000E+00 0.  1.
          2   -1    0    0  501    0  0.00000000000E+00 -0.00000000000E+00 -0.15397039718E+04  0.15397039718E+04  0.00000000000E+00 0. -1.
         24    2    1    2    0    0 -0.31453906616E+03  0.62469848607E+02 -0.13592464821E+03  0.35760319532E+03  0.81038442651E+02 0.  0.
        254    2    1    2    0    0  0.31453906616E+03 -0.62469848607E+02 -0.11170610596E+04  0.14688190406E+04  0.89820190215E+03 0.  0.
         23    2    4    4    0    0  0.37667168108E+03  0.31463949960E+03 -0.35901879389E+03  0.61501749754E+03  0.92045955266E+02 0.  0.
         23    2    4    4    0    0 -0.62132614925E+02 -0.37710934821E+03 -0.75804226570E+03  0.85380154304E+03  0.90978436885E+02 0.  0.
          4    1    3    3  502    0 -0.11940114827E+03 -0.10199604072E+02 -0.71909047508E+02  0.13975541938E+03  0.00000000000E+00 0. -1.
         -3    1    3    3    0  502 -0.19513791789E+03  0.72669452679E+02 -0.64015600698E+02  0.21784777594E+03  0.00000000000E+00 0.  1.
         13    1    5    5    0    0  0.23146139977E+02  0.21256211900E+02 -0.57422160867E+02  0.65458955833E+02  0.00000000000E+00 0. -1.
        -13    1    5    5    0    0  0.35352554111E+03  0.29338328770E+03 -0.30159663302E+03  0.54955854171E+03  0.00000000000E+00 0.  1.
          4    1    6    6  503    0 -0.60313554762E+00 -0.60855329679E+02 -0.20407956259E+03  0.21296056627E+03  0.00000000000E+00 0. -1.
         -4    1    6    6    0  503 -0.61529479378E+02 -0.31625401853E+03 -0.55396270311E+03  0.64084097677E+03  0.00000000000E+00 0.  1.
<mgrwt>
<rscale>  0 0.13288510E+04</rscale>
<asrwt>0</asrwt>
<pdfrwt beam="1">  1        2 0.23687754E+00 0.13288510E+04</pdfrwt>
<pdfrwt beam="2">  1       -3 0.44110502E-01 0.13288510E+04</pdfrwt>
<totfact> 0.38690873E+01</totfact>
</mgrwt>
</event>
<event>
12    7  0.1740517E-007  0.1357575E+04  0.7818608E-02  0.8985114E-01
         -1   -1    0    0    0  501 -0.00000000000E+00  0.00000000000E+00  0.28313425991E+03  0.28313425991E+03  0.00000000000E+00 0.  1.
          2   -1    0    0  501    0  0.00000000000E+00 -0.00000000000E+00 -0.16273276166E+04  0.16273276166E+04  0.00000000000E+00 0. -1.
         24    2    1    2    0    0 -0.26811729230E+03  0.92829801289E+02 -0.38174981060E+02  0.29685497842E+03  0.78493914399E+02 0.  0.
        254    2    1    2    0    0  0.26811729230E+03 -0.92829801289E+02 -0.13060183756E+04  0.16136068981E+04  0.90417861599E+03 0.  0.
         23    2    4    4    0    0  0.16980129877E+03  0.36945403090E+03 -0.86772407520E+03  0.96254136204E+03  0.90620312020E+02 0.  0.
         23    2    4    4    0    0  0.98315993533E+02 -0.46228383219E+03 -0.43829430043E+03  0.65106553604E+03  0.91717295773E+02 0.  0.
          2    1    3    3  502    0 -0.87235471205E+02  0.46336804551E+02 -0.48024768399E+02  0.10983398960E+03  0.00000000000E+00 0. -1.
         -1    1    3    3    0  502 -0.18088182110E+03  0.46492996739E+02  0.98497873393E+01  0.18702098882E+03  0.00000000000E+00 0.  1.
         13    1    5    5    0    0  0.88311581342E+02  0.27873492204E+03 -0.56486831526E+03  0.63605684160E+03  0.00000000000E+00 0. -1.
        -13    1    5    5    0    0  0.81489717428E+02  0.90719108856E+02 -0.30285575994E+03  0.32648452044E+03  0.00000000000E+00 0.  1.
          3    1    6    6  503    0  0.80304631252E+02 -0.38500588252E+03 -0.31246988235E+03  0.50231045255E+03  0.00000000000E+00 0. -1.
         -3    1    6    6    0  503  0.18011362281E+02 -0.77277949673E+02 -0.12582441809E+03  0.14875508349E+03  0.00000000000E+00 0.  1.
<mgrwt>
<rscale>  0 0.13575746E+04</rscale>
<asrwt>0</asrwt>
<pdfrwt beam="1">  1        2 0.25035809E+00 0.13575746E+04</pdfrwt>
<pdfrwt beam="2">  1       -1 0.43559118E-01 0.13575746E+04</pdfrwt>
<totfact> 0.62307817E+01</totfact>
</mgrwt>
</event>
<event>
12    7  0.1740517E-007  0.2233924E+04  0.7818608E-02  0.8504440E-01
          2   -1    0    0  501    0  0.00000000000E+00  0.00000000000E+00  0.23604040192E+04  0.23604040192E+04  0.00000000000E+00 0. -1.
         -1   -1    0    0    0  501 -0.00000000000E+00 -0.00000000000E+00 -0.52855521256E+03  0.52855521256E+03  0.00000000000E+00 0.  1.
         24    2    1    2    0    0  0.41061153681E+03  0.23328527208E+03 -0.27229370162E+03  0.55121289717E+03  0.81657490328E+02 0.  0.
        254    2    1    2    0    0 -0.41061153681E+03 -0.23328527208E+03  0.21041425083E+04  0.23377463346E+04  0.90256211838E+03 0.  0.
         23    2    4    4    0    0  0.25880149359E+03 -0.17304663870E+03  0.50191580597E+03  0.59792158094E+03  0.93098809998E+02 0.  0.
         23    2    4    4    0    0 -0.66941303040E+03 -0.60238633389E+02  0.16022267023E+04  0.17398247537E+04  0.90095891702E+02 0.  0.
          2    1    3    3  502    0  0.73548033042E+02  0.27695611082E+02 -0.15134652085E+02  0.80033853658E+02  0.00000000000E+00 0. -1.
         -1    1    3    3    0  502  0.33706350377E+03  0.20558966100E+03 -0.25715904953E+03  0.47117904351E+03  0.00000000000E+00 0.  1.
         13    1    5    5    0    0  0.11587875684E+03 -0.13323582368E+03  0.27453454543E+03  0.32641827099E+03  0.00000000000E+00 0. -1.
        -13    1    5    5    0    0  0.14292273674E+03 -0.39810815017E+02  0.22738126054E+03  0.27150330996E+03  0.00000000000E+00 0.  1.
          4    1    6    6  503    0 -0.61844858215E+02  0.33742067644E+01  0.22142663159E+03  0.22992591184E+03  0.00000000000E+00 0. -1.
         -4    1    6    6    0  503 -0.60756817219E+03 -0.63612840153E+02  0.13808000707E+04  0.15098988418E+04  0.00000000000E+00 0.  1.
<mgrwt>
<rscale>  0 0.22339238E+04</rscale>
<asrwt>0</asrwt>
<pdfrwt beam="1">  1        2 0.36313907E+00 0.22339238E+04</pdfrwt>
<pdfrwt beam="2">  1       -1 0.81316188E-01 0.22339238E+04</pdfrwt>
<totfact> 0.65440731E+00</totfact>
</mgrwt>
</event>
<event>
12    7  0.1740517E-007  0.1824154E+04  0.7818608E-02  0.8693559E-01
          2   -1    0    0  501    0  0.00000000000E+00  0.00000000000E+00  0.37770742375E+04  0.37770742375E+04  0.00000000000E+00 0. -1.
         -1   -1    0    0    0  501 -0.00000000000E+00 -0.00000000000E+00 -0.22024577181E+03  0.22024577181E+03  0.00000000000E+00 0.  1.
         24    2    1    2    0    0 -0.19000762581E+03  0.46144208484E+03  0.23581532958E+04  0.24117194706E+04  0.80449629097E+02 0.  0.
        254    2    1    2    0    0  0.19000762581E+03 -0.46144208484E+03  0.11986751699E+04  0.15856005387E+04  0.91009626408E+03 0.  0.
         23    2    4    4    0    0 -0.14207781488E+02 -0.28464295998E+03 -0.50980079738E+02  0.30367593060E+03  0.91633108521E+02 0.  0.
         23    2    4    4    0    0  0.20421540730E+03 -0.17679912487E+03  0.12496552496E+04  0.12819246081E+04  0.93437652101E+02 0.  0.
          4    1    3    3  502    0 -0.19812485427E+03  0.44027359288E+03  0.22543611251E+04  0.23054800752E+04  0.00000000000E+00 0. -1.
         -3    1    3    3    0  502  0.81172284546E+01  0.21168491964E+02  0.10379217068E+03  0.10623939544E+03  0.00000000000E+00 0.  1.
         13    1    5    5    0    0 -0.12239285975E+02 -0.16873700070E+03  0.15761740989E+02  0.16991294243E+03  0.00000000000E+00 0. -1.
        -13    1    5    5    0    0 -0.19684955134E+01 -0.11590595928E+03 -0.66741820727E+02  0.13376298817E+03  0.00000000000E+00 0.  1.
          1    1    6    6  503    0  0.83394692801E+02 -0.20363893443E+02  0.45726858412E+03  0.46525683334E+03  0.00000000000E+00 0. -1.
         -1    1    6    6    0  503  0.12082071450E+03 -0.15643523142E+03  0.79238666547E+03  0.81666777474E+03  0.00000000000E+00 0.  1.
<mgrwt>
<rscale>  0 0.18241542E+04</rscale>
<asrwt>0</asrwt>
<pdfrwt beam="1">  1        2 0.58108830E+00 0.18241542E+04</pdfrwt>
<pdfrwt beam="2">  1       -1 0.33883968E-01 0.18241542E+04</pdfrwt>
<totfact> 0.45592599E+00</totfact>
</mgrwt>
</event>
<event>
12    7  0.1740517E-007  0.1708079E+04  0.7818608E-02  0.8756770E-01
         -1   -1    0    0    0  501 -0.00000000000E+00  0.00000000000E+00  0.10661557139E+04  0.10661557139E+04  0.00000000000E+00 0.  1.
          2   -1    0    0  501    0  0.00000000000E+00 -0.00000000000E+00 -0.68412500218E+03  0.68412500218E+03  0.00000000000E+00 0. -1.
         24    2    1    2    0    0  0.86256962051E+02 -0.59355537909E+03  0.26381855778E+03  0.65942624667E+03  0.74124839421E+02 0.  0.
        254    2    1    2    0    0 -0.86256962051E+02  0.59355537909E+03  0.11821215395E+03  0.10908544694E+04  0.90346062920E+03 0.  0.
         23    2    4    4    0    0 -0.30413858085E+03  0.16316119802E+03  0.39056070615E+03  0.52918499703E+03  0.91527280066E+02 0.  0.
         23    2    4    4    0    0  0.21788161879E+03  0.43039418107E+03 -0.27234855221E+03  0.56166947237E+03  0.92667747330E+02 0.  0.
          2    1    3    3  502    0  0.81556768244E+02 -0.50271024035E+03  0.19490940296E+03  0.54530612280E+03  0.00000000000E+00 0. -1.
         -1    1    3    3    0  502  0.47001938067E+01 -0.90845138742E+02  0.68909154819E+02  0.11412012387E+03  0.00000000000E+00 0.  1.
         13    1    5    5    0    0 -0.24906925143E+03  0.90268553390E+02  0.27460580703E+03  0.38156552909E+03  0.00000000000E+00 0.  1.
        -13    1    5    5    0    0 -0.55069329415E+02  0.72892644634E+02  0.11595489912E+03  0.14761946794E+03  0.00000000000E+00 0. -1.
          2    1    6    6  503    0  0.14066157374E+03  0.31403779570E+03 -0.23635924702E+03  0.41745791298E+03  0.00000000000E+00 0. -1.
         -2    1    6    6    0  503  0.77220045053E+02  0.11635638537E+03 -0.35989305186E+02  0.14421155939E+03  0.00000000000E+00 0.  1.
<mgrwt>
<rscale>  0 0.17080794E+04</rscale>
<asrwt>0</asrwt>
<pdfrwt beam="1">  1        2 0.10525000E+00 0.17080794E+04</pdfrwt>
<pdfrwt beam="2">  1       -1 0.16402396E+00 0.17080794E+04</pdfrwt>
<totfact> 0.12483250E+01</totfact>
</mgrwt>
</event>
<event>
12    7  0.1740517E-007  0.2382538E+04  0.7818608E-02  0.8446070E-01
         -1   -1    0    0    0  501 -0.00000000000E+00  0.00000000000E+00  0.77287434133E+03  0.77287434133E+03  0.00000000000E+00 0.  1.
          2   -1    0    0  501    0  0.00000000000E+00 -0.00000000000E+00 -0.18361617814E+04  0.18361617814E+04  0.00000000000E+00 0. -1.
         24    2    1    2    0    0 -0.31734324302E+03  0.56304431325E+03  0.40713520068E+03  0.76763597427E+03  0.76028184135E+02 0.  0.
        254    2    1    2    0    0  0.31734324302E+03 -0.56304431325E+03 -0.14704226407E+04  0.18414001484E+04  0.90049216082E+03 0.  0.
         23    2    4    4    0    0 -0.17700972324E+03 -0.48426734650E+03 -0.41071885506E+03  0.66560761419E+03  0.92174905267E+02 0.  0.
         23    2    4    4    0    0  0.49435296625E+03 -0.78776966750E+02 -0.10597037857E+04  0.11757925342E+04  0.94473829616E+02 0.  0.
          4    1    3    3  502    0 -0.26002946149E+02  0.98893127160E+02  0.53190501746E+02  0.11526158633E+03  0.00000000000E+00 0. -1.
         -3    1    3    3    0  502 -0.29134029687E+03  0.46415118609E+03  0.35394469894E+03  0.65237438794E+03  0.00000000000E+00 0.  1.
         13    1    5    5    0    0 -0.24608483157E+02 -0.17522574071E+03 -0.11068327030E+03  0.20871134127E+03  0.00000000000E+00 0.  1.
        -13    1    5    5    0    0 -0.15240124008E+03 -0.30904160579E+03 -0.30003558476E+03  0.45689627292E+03  0.00000000000E+00 0. -1.
          4    1    6    6  503    0  0.48127588039E+03 -0.76685315345E+02 -0.10543012213E+04  0.11614896365E+04  0.00000000000E+00 0. -1.
         -4    1    6    6    0  503  0.13077085861E+02 -0.20916514058E+01 -0.54025643911E+01  0.14302897686E+02  0.00000000000E+00 0.  1.
<mgrwt>
<rscale>  0 0.23825384E+04</rscale>
<asrwt>0</asrwt>
<pdfrwt beam="1">  1        2 0.28248643E+00 0.23825384E+04</pdfrwt>
<pdfrwt beam="2">  1       -1 0.11890375E+00 0.23825384E+04</pdfrwt>
<totfact> 0.53472877E+00</totfact>
</mgrwt>
</event>
<event>
12    7  0.1740517E-007  0.2193093E+04  0.7818608E-02  0.8521308E-01
         -1   -1    0    0    0  501 -0.00000000000E+00  0.00000000000E+00  0.72169665719E+03  0.72169665719E+03  0.00000000000E+00 0.  1.
          2   -1    0    0  501    0  0.00000000000E+00 -0.00000000000E+00 -0.16660942845E+04  0.16660942845E+04  0.00000000000E+00 0. -1.
         24    2    1    2    0    0 -0.87335415324E+02 -0.70413123900E+03  0.21929713723E+03  0.74686538920E+03  0.79299424279E+02 0.  0.
        254    2    1    2    0    0  0.87335415324E+02  0.70413123900E+03 -0.11636947645E+04  0.16409255525E+04  0.91379586738E+03 0.  0.
         23    2    4    4    0    0  0.28124396345E+03  0.84731093303E+03 -0.95563539863E+03  0.13107180428E+04  0.87799705772E+02 0.  0.
         23    2    4    4    0    0 -0.19390854813E+03 -0.14317969403E+03 -0.20805936588E+03  0.33020750968E+03  0.87449127494E+02 0.  0.
          2    1    3    3  502    0 -0.15459219888E+02 -0.68134120150E+02 -0.12791844038E+01  0.69877622462E+02  0.00000000000E+00 0. -1.
         -1    1    3    3    0  502 -0.71876195436E+02 -0.63599711885E+03  0.22057632163E+03  0.67698776674E+03  0.00000000000E+00 0.  1.
         13    1    5    5    0    0  0.70659603845E+02  0.25827337281E+03 -0.34302299107E+03  0.43515823228E+03  0.00000000000E+00 0.  1.
        -13    1    5    5    0    0  0.21058435961E+03  0.58903756021E+03 -0.61261240757E+03  0.87555981050E+03  0.00000000000E+00 0. -1.
          3    1    6    6  503    0 -0.35622645432E+02 -0.16238916431E+02 -0.83244630954E+02  0.91990998783E+02  0.00000000000E+00 0. -1.
         -3    1    6    6    0  503 -0.15828590270E+03 -0.12694077760E+03 -0.12481473493E+03  0.23821651090E+03  0.00000000000E+00 0.  1.
<mgrwt>
<rscale>  0 0.21930934E+04</rscale>
<asrwt>0</asrwt>
<pdfrwt beam="1">  1        2 0.25632220E+00 0.21930934E+04</pdfrwt>
<pdfrwt beam="2">  1       -1 0.11103026E+00 0.21930934E+04</pdfrwt>
<totfact> 0.79637479E+00</totfact>
</mgrwt>
</event>
<event>
12    7  0.1740517E-007  0.3570209E+04  0.7818608E-02  0.8097350E-01
          2   -1    0    0  501    0  0.00000000000E+00  0.00000000000E+00  0.24573880015E+04  0.24573880015E+04  0.00000000000E+00 0. -1.
         -1   -1    0    0    0  501 -0.00000000000E+00 -0.00000000000E+00 -0.12967421359E+04  0.12967421359E+04  0.00000000000E+00 0.  1.
         24    2    1    2    0    0  0.15960075562E+04 -0.27636327512E+03  0.10142611821E+04  0.19126296360E+04  0.76220729953E+02 0.  0.
        254    2    1    2    0    0 -0.15960075562E+04  0.27636327512E+03  0.14638468347E+03  0.18415005013E+04  0.86375855513E+03 0.  0.
         23    2    4    4    0    0 -0.18300702053E+03 -0.24907784738E+03 -0.13945131345E+02  0.32269325500E+03  0.91679477070E+02 0.  0.
         23    2    4    4    0    0 -0.14130005357E+04  0.52544112250E+03  0.16032981482E+03  0.15188072463E+04  0.91711040633E+02 0.  0.
          4    1    3    3  502    0  0.61489618221E+02 -0.82978480752E+01  0.22716672621E+02  0.66074765581E+02  0.00000000000E+00 0. -1.
         -3    1    3    3    0  502  0.15345179380E+04 -0.26806542705E+03  0.99154450951E+03  0.18465548704E+04  0.00000000000E+00 0.  1.
         13    1    5    5    0    0 -0.25150626697E+02 -0.18988817540E+02  0.25948897817E+02  0.40822475584E+02  0.00000000000E+00 0.  1.
        -13    1    5    5    0    0 -0.15785639383E+03 -0.23008902984E+03 -0.39894029162E+02  0.28187077941E+03  0.00000000000E+00 0. -1.
          1    1    6    6  503    0 -0.13814942105E+04  0.50594892489E+03  0.16857036717E+03  0.14808533138E+04  0.00000000000E+00 0. -1.
         -1    1    6    6    0  503 -0.31506325193E+02  0.19492197607E+02 -0.82405523531E+01  0.37953932573E+02  0.00000000000E+00 0.  1.
<mgrwt>
<rscale>  0 0.35702093E+04</rscale>
<asrwt>0</asrwt>
<pdfrwt beam="1">  1        2 0.37805969E+00 0.35702093E+04</pdfrwt>
<pdfrwt beam="2">  1       -1 0.19949879E+00 0.35702093E+04</pdfrwt>
<totfact> 0.51898440E-01</totfact>
</mgrwt>
</event>
<event>
12    7  0.1740517E-007  0.2425029E+04  0.7818608E-02  0.8430192E-01
         -1   -1    0    0    0  501 -0.00000000000E+00  0.00000000000E+00  0.62279855209E+03  0.62279855209E+03  0.00000000000E+00 0.  1.
          2   -1    0    0  501    0  0.00000000000E+00 -0.00000000000E+00 -0.23606219866E+04  0.23606219866E+04  0.00000000000E+00 0. -1.
         24    2    1    2    0    0  0.14446780867E+03 -0.11244033403E+03  0.51637503489E+03  0.55291290877E+03  0.74536779955E+02 0.  0.
        254    2    1    2    0    0 -0.14446780867E+03  0.11244033403E+03 -0.22541984694E+04  0.24305076300E+04  0.89019257644E+03 0.  0.
         23    2    4    4    0    0  0.79601841370E+02 -0.27723225151E+03 -0.16202890171E+04  0.16482672797E+04  0.90853463828E+02 0.  0.
         23    2    4    4    0    0 -0.22406965004E+03  0.38967258554E+03 -0.63390945231E+03  0.78224035025E+03  0.89480946748E+02 0.  0.
          2    1    3    3  502    0  0.28921651670E+02 -0.12280101832E+02  0.31478705518E+02  0.44476642605E+02  0.00000000000E+00 0. -1.
         -1    1    3    3    0  502  0.11554615700E+03 -0.10016023220E+03  0.48489632938E+03  0.50843626617E+03  0.00000000000E+00 0.  1.
         13    1    5    5    0    0 -0.19219934456E+01 -0.29032000562E+02 -0.65342772926E+02  0.71527820385E+02  0.00000000000E+00 0. -1.
        -13    1    5    5    0    0  0.81523834815E+02 -0.24820025095E+03 -0.15549462442E+04  0.15767394593E+04  0.00000000000E+00 0.  1.
          2    1    6    6  503    0 -0.41524141244E+01 -0.81806764002E+00 -0.29521647604E+02  0.29823471545E+02  0.00000000000E+00 0. -1.
         -2    1    6    6    0  503 -0.21991723592E+03  0.39049065318E+03 -0.60438780471E+03  0.75241687870E+03  0.00000000000E+00 0.  1.
<mgrwt>
<rscale>  0 0.24250294E+04</rscale>
<asrwt>0</asrwt>
<pdfrwt beam="1">  1        2 0.36317262E+00 0.24250294E+04</pdfrwt>
<pdfrwt beam="2">  1       -1 0.95815161E-01 0.24250294E+04</pdfrwt>
<totfact> 0.44891092E+00</totfact>
</mgrwt>
</event>
<event>
12    7  0.1740517E-007  0.2389721E+04  0.7818608E-02  0.8443362E-01
          2   -1    0    0  501    0  0.00000000000E+00  0.00000000000E+00  0.28059201479E+04  0.28059201479E+04  0.00000000000E+00 0. -1.
         -1   -1    0    0    0  501 -0.00000000000E+00 -0.00000000000E+00 -0.50881396195E+03  0.50881396195E+03  0.00000000000E+00 0.  1.
         24    2    1    2    0    0 -0.26419070324E+03  0.17565318204E+03 -0.35985066268E+03  0.48710575033E+03  0.84431892883E+02 0.  0.
        254    2    1    2    0    0  0.26419070324E+03 -0.17565318204E+03  0.26569568486E+04  0.28276283595E+04  0.91400857545E+03 0.  0.
         23    2    4    4    0    0 -0.38779154567E+02 -0.45853266582E+03  0.19254836684E+04  0.19818239749E+04  0.91558080175E+02 0.  0.
         23    2    4    4    0    0  0.30296985781E+03  0.28287948378E+03  0.73147318023E+03  0.84580438454E+03  0.92306589290E+02 0.  0.
          4    1    3    3  502    0 -0.22135005648E+03  0.10512654088E+03 -0.25466273627E+03  0.35341271390E+03  0.00000000000E+00 0. -1.
         -3    1    3    3    0  502 -0.42840646758E+02  0.70526641157E+02 -0.10518792640E+03  0.13369303643E+03  0.00000000000E+00 0.  1.
         13    1    5    5    0    0 -0.12049708341E+02 -0.14076754248E+03  0.78429304144E+03  0.79691672798E+03  0.00000000000E+00 0. -1.
        -13    1    5    5    0    0 -0.26729446226E+02 -0.31776512334E+03  0.11411906269E+04  0.11849072470E+04  0.00000000000E+00 0.  1.
          1    1    6    6  503    0  0.25273012567E+03  0.18557187744E+03  0.57296559562E+03  0.65314547528E+03  0.00000000000E+00 0. -1.
         -1    1    6    6    0  503  0.50239732141E+02  0.97307606345E+02  0.15850758461E+03  0.19265890926E+03  0.00000000000E+00 0.  1.
<mgrwt>
<rscale>  0 0.23897208E+04</rscale>
<asrwt>0</asrwt>
<pdfrwt beam="1">  1        2 0.43168001E+00 0.23897208E+04</pdfrwt>
<pdfrwt beam="2">  1       -1 0.78279073E-01 0.23897208E+04</pdfrwt>
<totfact> 0.38363731E+00</totfact>
</mgrwt>
</event>
<event>
12    7  0.1740517E-007  0.3672119E+04  0.7818608E-02  0.8074169E-01
          4   -1    0    0  501    0  0.00000000000E+00  0.00000000000E+00  0.25832076318E+04  0.25832076318E+04  0.00000000000E+00 0. -1.
         -3   -1    0    0    0  501 -0.00000000000E+00 -0.00000000000E+00 -0.13050108611E+04  0.13050108611E+04  0.00000000000E+00 0.  1.
         24    2    1    2    0    0  0.12364735492E+04  0.10904564080E+04  0.10942319296E+04  0.19804308968E+04  0.82468211176E+02 0.  0.
        254    2    1    2    0    0 -0.12364735492E+04 -0.10904564080E+04  0.18396484111E+03  0.19077875960E+04  0.94225709513E+03 0.  0.
         23    2    4    4    0    0 -0.30985280807E+03 -0.60054914555E+03 -0.30549992864E+03  0.74738300272E+03  0.92645061746E+02 0.  0.
         23    2    4    4    0    0 -0.92662074109E+03 -0.48990726242E+03  0.48946476975E+03  0.11604045933E+04  0.91257524325E+02 0.  0.
          4    1    3    3  502    0  0.19192766243E+03  0.17440426024E+03  0.13727831228E+03  0.29342530330E+03  0.00000000000E+00 0. -1.
         -3    1    3    3    0  502  0.10445458867E+04  0.91605214774E+03  0.95695361735E+03  0.16870055935E+04  0.00000000000E+00 0.  1.
         13    1    5    5    0    0 -0.14085464053E+03 -0.36350957189E+03 -0.19612361423E+03  0.43639856859E+03  0.00000000000E+00 0. -1.
        -13    1    5    5    0    0 -0.16899816754E+03 -0.23703957367E+03 -0.10937631441E+03  0.31098443413E+03  0.00000000000E+00 0.  1.
          4    1    6    6  503    0 -0.19757325448E+03 -0.79086058207E+02  0.13197317785E+03  0.25041308903E+03  0.00000000000E+00 0.  1.
         -4    1    6    6    0  503 -0.72904748661E+03 -0.41082120422E+03  0.35749159190E+03  0.90999150427E+03  0.00000000000E+00 0. -1.
<mgrwt>
<rscale>  0 0.36721187E+04</rscale>
<asrwt>0</asrwt>
<pdfrwt beam="1">  1        4 0.39741656E+00 0.36721187E+04</pdfrwt>
<pdfrwt beam="2">  1       -3 0.20077090E+00 0.36721187E+04</pdfrwt>
<totfact> 0.18683213E-03</totfact>
</mgrwt>
</event>
<event>
12    7  0.1740517E-007  0.1532266E+04  0.7818608E-02  0.8863276E-01
          2   -1    0    0  501    0  0.00000000000E+00  0.00000000000E+00  0.44952658958E+04  0.44952658958E+04  0.00000000000E+00 0. -1.
         -1   -1    0    0    0  501 -0.00000000000E+00 -0.00000000000E+00 -0.13057282384E+03  0.13057282384E+03  0.00000000000E+00 0.  1.
         24    2    1    2    0    0 -0.13564368258E+03  0.38659667205E+03  0.21884398731E+04  0.22282744279E+04  0.89898011994E+02 0.  0.
        254    2    1    2    0    0  0.13564368258E+03 -0.38659667205E+03  0.21762531989E+04  0.23975642917E+04  0.91890170955E+03 0.  0.
         23    2    4    4    0    0 -0.30158740962E+03 -0.37278297324E+03  0.15713897531E+04  0.16453873462E+04  0.90064711236E+02 0.  0.
         23    2    4    4    0    0  0.43723109219E+03 -0.13813698811E+02  0.60486344581E+03  0.75217694552E+03  0.92458223178E+02 0.  0.
          4    1    3    3  502    0 -0.14728573462E+03  0.37534632038E+03  0.21103625629E+04  0.21485362679E+04  0.00000000000E+00 0. -1.
         -3    1    3    3    0  502  0.11642052046E+02  0.11250351664E+02  0.78077310215E+02  0.79738159992E+02  0.00000000000E+00 0.  1.
         13    1    5    5    0    0 -0.92545616897E+02 -0.15702898524E+03  0.71372183343E+03  0.73662856918E+03  0.00000000000E+00 0.  1.
        -13    1    5    5    0    0 -0.20904179272E+03 -0.21575398800E+03  0.85766791967E+03  0.90875877705E+03  0.00000000000E+00 0. -1.
          4    1    6    6  503    0  0.26439260639E+03 -0.34398514280E+02  0.42632804857E+03  0.50283427996E+03  0.00000000000E+00 0. -1.
         -4    1    6    6    0  503  0.17283848580E+03  0.20584815469E+02  0.17853539724E+03  0.24934266556E+03  0.00000000000E+00 0.  1.
<mgrwt>
<rscale>  0 0.15322657E+04</rscale>
<asrwt>0</asrwt>
<pdfrwt beam="1">  1        2 0.69157925E+00 0.15322657E+04</pdfrwt>
<pdfrwt beam="2">  1       -1 0.20088130E-01 0.15322657E+04</pdfrwt>
<totfact> 0.28674225E+00</totfact>
</mgrwt>
</event>
<event>
12    7  0.1740517E-007  0.1717677E+04  0.7818608E-02  0.8751346E-01
          2   -1    0    0  501    0  0.00000000000E+00  0.00000000000E+00  0.10333652616E+04  0.10333652616E+04  0.00000000000E+00 0. -1.
         -1   -1    0    0    0  501 -0.00000000000E+00 -0.00000000000E+00 -0.71378770609E+03  0.71378770609E+03  0.00000000000E+00 0.  1.
         24    2    1    2    0    0 -0.47023859163E+03  0.40780722786E+03  0.12954964653E+03  0.64081361324E+03  0.80174234296E+02 0.  0.
        254    2    1    2    0    0  0.47023859163E+03 -0.40780722786E+03  0.19002790902E+03  0.11063393545E+04  0.89467597091E+03 0.  0.
         23    2    4    4    0    0  0.28209969914E+03  0.16661420700E+02  0.47060309804E+03  0.55647552574E+03  0.91323007347E+02 0.  0.
         23    2    4    4    0    0  0.18813889249E+03 -0.42446864856E+03 -0.28057518902E+03  0.54986382875E+03  0.89765901034E+02 0.  0.
          4    1    3    3  502    0 -0.16408858554E+03  0.16753795653E+03  0.83469739522E+02  0.24892012413E+03  0.00000000000E+00 0. -1.
         -1    1    3    3    0  502 -0.30615000609E+03  0.24026927134E+03  0.46079907005E+02  0.39189348911E+03  0.00000000000E+00 0.  1.
         13    1    5    5    0    0  0.52784646085E+02 -0.32896787738E+02  0.10656228577E+03  0.12338532431E+03  0.00000000000E+00 0. -1.
        -13    1    5    5    0    0  0.22931505305E+03  0.49558208439E+02  0.36404081227E+03  0.43309020144E+03  0.00000000000E+00 0.  1.
          2    1    6    6  503    0  0.40240339120E+02 -0.12384140247E+03 -0.36144318346E+02  0.13513840908E+03  0.00000000000E+00 0. -1.
         -2    1    6    6    0  503  0.14789855337E+03 -0.30062724609E+03 -0.24443087068E+03  0.41472541967E+03  0.00000000000E+00 0.  1.
<mgrwt>
<rscale>  0 0.17176768E+04</rscale>
<asrwt>0</asrwt>
<pdfrwt beam="1">  1        2 0.15897927E+00 0.17176768E+04</pdfrwt>
<pdfrwt beam="2">  1       -1 0.10981349E+00 0.17176768E+04</pdfrwt>
<totfact> 0.19923636E+01</totfact>
</mgrwt>
</event>
<event>
12    7  0.1740517E-007  0.1792100E+04  0.7818608E-02  0.8710512E-01
          2   -1    0    0  501    0  0.00000000000E+00  0.00000000000E+00  0.25469047174E+04  0.25469047174E+04  0.00000000000E+00 0. -1.
         -1   -1    0    0    0  501 -0.00000000000E+00 -0.00000000000E+00 -0.31524747526E+03  0.31524747526E+03  0.00000000000E+00 0.  1.
         24    2    1    2    0    0 -0.18417946690E+03 -0.61507446403E+03  0.55479955890E+03  0.85480092529E+03  0.10316685023E+03 0.  0.
        254    2    1    2    0    0  0.18417946690E+03  0.61507446403E+03  0.16768576833E+04  0.20073512674E+04  0.89742339421E+03 0.  0.
         23    2    4    4    0    0  0.26461932656E+03  0.44798608011E+03  0.28489353154E+03  0.60004228990E+03  0.90396401436E+02 0.  0.
         23    2    4    4    0    0 -0.80439859663E+02  0.16708838392E+03  0.13919641517E+04  0.14073089775E+04  0.92548686620E+02 0.  0.
          4    1    3    3  502    0  0.48269161605E+01 -0.10271898254E+03  0.10888637789E+03  0.14976892797E+03  0.00000000000E+00 0. -1.
         -3    1    3    3    0  502 -0.18900638306E+03 -0.51235548149E+03  0.44591318101E+03  0.70503199732E+03  0.00000000000E+00 0.  1.
         13    1    5    5    0    0  0.14656284423E+03  0.21980008223E+03  0.95708090702E+02  0.28098537699E+03  0.00000000000E+00 0.  1.
        -13    1    5    5    0    0  0.11805648232E+03  0.22818599788E+03  0.18918544084E+03  0.31905691291E+03  0.00000000000E+00 0. -1.
          1    1    6    6  503    0 -0.78074298392E+02  0.12590090569E+03  0.12687927498E+04  0.12774121011E+04  0.00000000000E+00 0. -1.
         -1    1    6    6    0  503 -0.23655612710E+01  0.41187478227E+02  0.12317140195E+03  0.12989687641E+03  0.00000000000E+00 0.  1.
<mgrwt>
<rscale>  0 0.17920996E+04</rscale>
<asrwt>0</asrwt>
<pdfrwt beam="1">  1        2 0.39183148E+00 0.17920996E+04</pdfrwt>
<pdfrwt beam="2">  1       -1 0.48499613E-01 0.17920996E+04</pdfrwt>
<totfact> 0.14976365E+01</totfact>
</mgrwt>
</event>
<event>
12    7  0.1740517E-007  0.1375280E+04  0.7818608E-02  0.8971909E-01
          2   -1    0    0  501    0  0.00000000000E+00  0.00000000000E+00  0.12070872501E+04  0.12070872501E+04  0.00000000000E+00 0. -1.
         -1   -1    0    0    0  501 -0.00000000000E+00 -0.00000000000E+00 -0.39172710171E+03  0.39172710171E+03  0.00000000000E+00 0.  1.
         24    2    1    2    0    0  0.15348577115E+01  0.16768229600E+03 -0.17034056487E+03  0.25203925748E+03  0.79926035126E+02 0.  0.
        254    2    1    2    0    0 -0.15348577115E+01 -0.16768229600E+03  0.98570071322E+03  0.13467750943E+04  0.90226246202E+03 0.  0.
         23    2    4    4    0    0  0.15920639462E+03 -0.67498213872E+02 -0.11479311818E+03  0.22638963631E+03  0.90399792482E+02 0.  0.
         23    2    4    4    0    0 -0.16074125233E+03 -0.10018408213E+03  0.11004938314E+04  0.11203854580E+04  0.91116963257E+02 0.  0.
          4    1    3    3  502    0 -0.65507262965E+01  0.62570407396E+02 -0.15630094738E+02  0.64824900757E+02  0.00000000000E+00 0. -1.
         -1    1    3    3    0  502  0.80855840080E+01  0.10511188861E+03 -0.15471047013E+03  0.18721435673E+03  0.00000000000E+00 0.  1.
         13    1    5    5    0    0  0.39664009326E+02  0.16469025174E+02 -0.51835738105E+02  0.67315720088E+02  0.00000000000E+00 0.  1.
        -13    1    5    5    0    0  0.11954238529E+03 -0.83967239046E+02 -0.62957380076E+02  0.15907391622E+03  0.00000000000E+00 0. -1.
          3    1    6    6  503    0 -0.16833822499E+03 -0.76500150527E+02  0.94586178963E+03  0.96376582016E+03  0.00000000000E+00 0. -1.
         -3    1    6    6    0  503  0.75969726597E+01 -0.23683931603E+02  0.15463204177E+03  0.15661963782E+03  0.00000000000E+00 0.  1.
<mgrwt>
<rscale>  0 0.13752800E+04</rscale>
<asrwt>0</asrwt>
<pdfrwt beam="1">  1        2 0.18570573E+00 0.13752800E+04</pdfrwt>
<pdfrwt beam="2">  1       -1 0.60265709E-01 0.13752800E+04</pdfrwt>
<totfact> 0.58216152E+01</totfact>
</mgrwt>
</event>
<event>
12    7  0.1740517E-007  0.1400694E+04  0.7818608E-02  0.8953317E-01
          2   -1    0    0  501    0  0.00000000000E+00  0.00000000000E+00  0.10070663863E+04  0.10070663863E+04  0.00000000000E+00 0. -1.
         -1   -1    0    0    0  501 -0.00000000000E+00 -0.00000000000E+00 -0.48704403223E+03  0.48704403223E+03  0.00000000000E+00 0.  1.
         24    2    1    2    0    0 -0.18134488830E+03 -0.95753247739E+02 -0.22671933626E+03  0.31609896873E+03  0.80388106308E+02 0.  0.
        254    2    1    2    0    0  0.18134488830E+03  0.95753247739E+02  0.74674169037E+03  0.11780114499E+04  0.88771232439E+03 0.  0.
         23    2    4    4    0    0 -0.32557186857E+03  0.17536595788E+03  0.23501359957E+03  0.44773116978E+03  0.92095318132E+02 0.  0.
         23    2    4    4    0    0  0.50691675687E+03 -0.79612710140E+02  0.51172809081E+03  0.73028028007E+03  0.90226750642E+02 0.  0.
          4    1    3    3  502    0  0.68146330225E+00  0.49964853511E+01  0.32396916925E+01  0.59937350925E+01  0.00000000000E+00 0. -1.
         -3    1    3    3    0  502 -0.18202635160E+03 -0.10074973309E+03 -0.22995902795E+03  0.31010523364E+03  0.00000000000E+00 0.  1.
         13    1    5    5    0    0 -0.17570258905E+03  0.14474035456E+03  0.15156196438E+03  0.27348162477E+03  0.00000000000E+00 0. -1.
        -13    1    5    5    0    0 -0.14986927952E+03  0.30625603324E+02  0.83451635184E+02  0.17424954501E+03  0.00000000000E+00 0.  1.
          3    1    6    6  503    0  0.45688667947E+03 -0.93852087751E+02  0.43647341085E+03  0.63879784802E+03  0.00000000000E+00 0. -1.
         -3    1    6    6    0  503  0.50030077398E+02  0.14239377611E+02  0.75254679956E+02  0.91482432054E+02  0.00000000000E+00 0.  1.
<mgrwt>
<rscale>  0 0.14006936E+04</rscale>
<asrwt>0</asrwt>
<pdfrwt beam="1">  1        2 0.15493329E+00 0.14006936E+04</pdfrwt>
<pdfrwt beam="2">  1       -1 0.74929851E-01 0.14006936E+04</pdfrwt>
<totfact> 0.49591781E+01</totfact>
</mgrwt>
</event>
<event>
12    7  0.1740517E-007  0.2056871E+04  0.7818608E-02  0.8580484E-01
         -1   -1    0    0    0  501 -0.00000000000E+00  0.00000000000E+00  0.10565002899E+04  0.10565002899E+04  0.00000000000E+00 0.  1.
          2   -1    0    0  501    0  0.00000000000E+00 -0.00000000000E+00 -0.10011162355E+04  0.10011162355E+04  0.00000000000E+00 0. -1.
         24    2    1    2    0    0  0.68717529486E+03 -0.10520232271E+03  0.45547545633E+03  0.83491486315E+03  0.79671342513E+02 0.  0.
        254    2    1    2    0    0 -0.68717529486E+03  0.10520232271E+03 -0.40009140184E+03  0.12227016623E+04  0.92284820556E+03 0.  0.
         23    2    4    4    0    0  0.62075805615E+02  0.34403670109E+03 -0.16166441169E+03  0.39583001627E+03  0.91276297232E+02 0.  0.
         23    2    4    4    0    0 -0.74925110048E+03 -0.23883437838E+03 -0.23842699015E+03  0.82687164599E+03  0.91925064356E+02 0.  0.
          4    1    3    3  502    0  0.14853074391E+03 -0.25392240969E+02  0.13954762866E+03  0.20537694236E+03  0.00000000000E+00 0. -1.
         -3    1    3    3    0  502  0.53864455095E+03 -0.79810081742E+02  0.31592782766E+03  0.62953792079E+03  0.00000000000E+00 0.  1.
         13    1    5    5    0    0  0.58454506181E+02  0.14962514333E+03 -0.10982780788E+03  0.19459383390E+03  0.00000000000E+00 0. -1.
        -13    1    5    5    0    0  0.36212994343E+01  0.19441155776E+03 -0.51836603809E+02  0.20123618237E+03  0.00000000000E+00 0.  1.
          3    1    6    6  503    0 -0.61751657690E+03 -0.20532458795E+03 -0.23170273985E+03  0.69077570080E+03  0.00000000000E+00 0. -1.
         -3    1    6    6    0  503 -0.13173452357E+03 -0.33509790427E+02 -0.67242503055E+01  0.13609594519E+03  0.00000000000E+00 0.  1.
<mgrwt>
<rscale>  0 0.20568710E+04</rscale>
<asrwt>0</asrwt>
<pdfrwt beam="1">  1        2 0.15401788E+00 0.20568710E+04</pdfrwt>
<pdfrwt beam="2">  1       -1 0.16253851E+00 0.20568710E+04</pdfrwt>
<totfact> 0.74173661E+00</totfact>
</mgrwt>
</event>
<event>
12    7  0.1740517E-007  0.1688838E+04  0.7818608E-02  0.8767756E-01
         -1   -1    0    0    0  501 -0.00000000000E+00  0.00000000000E+00  0.10294542134E+04  0.10294542134E+04  0.00000000000E+00 0.  1.
          2   -1    0    0  501    0  0.00000000000E+00 -0.00000000000E+00 -0.69264209822E+03  0.69264209822E+03  0.00000000000E+00 0. -1.
         24    2    1    2    0    0 -0.33238118293E+03 -0.13035099255E+02  0.62752445768E+03  0.71482236801E+03  0.80851148641E+02 0.  0.
        254    2    1    2    0    0  0.33238118293E+03  0.13035099255E+02 -0.29071234254E+03  0.10072739436E+04  0.90522923433E+03 0.  0.
         23    2    4    4    0    0  0.40075330345E+03 -0.15211555770E+03 -0.53431751737E+03  0.69171342859E+03  0.96072393567E+02 0.  0.
         23    2    4    4    0    0 -0.68372120518E+02  0.16515065696E+03  0.24360517482E+03  0.31556051497E+03  0.91024562885E+02 0.  0.
          2    1    3    3  502    0 -0.19116965218E+03 -0.29419765023E+02  0.42961307747E+03  0.47114621384E+03  0.00000000000E+00 0. -1.
         -3    1    3    3    0  502 -0.14121153076E+03  0.16384665768E+02  0.19791138022E+03  0.24367615417E+03  0.00000000000E+00 0.  1.
         13    1    5    5    0    0  0.15935631948E+03 -0.82881351367E+02 -0.15757187840E+03  0.23894068684E+03  0.00000000000E+00 0. -1.
        -13    1    5    5    0    0  0.24139698397E+03 -0.69234206337E+02 -0.37674563896E+03  0.45277274176E+03  0.00000000000E+00 0.  1.
          1    1    6    6  503    0  0.17367383669E+02  0.55809637188E+02  0.48033079623E+02  0.75653938144E+02  0.00000000000E+00 0. -1.
         -1    1    6    6    0  503 -0.85739504187E+02  0.10934101977E+03  0.19557209520E+03  0.23990657682E+03  0.00000000000E+00 0.  1.
<mgrwt>
<rscale>  0 0.16888379E+04</rscale>
<asrwt>0</asrwt>
<pdfrwt beam="1">  1        2 0.10656032E+00 0.16888379E+04</pdfrwt>
<pdfrwt beam="2">  1       -1 0.15837757E+00 0.16888379E+04</pdfrwt>
<totfact> 0.13579233E+01</totfact>
</mgrwt>
</event>
<event>
12    7  0.1740517E-007  0.2694617E+04  0.7818608E-02  0.8336754E-01
          2   -1    0    0  501    0  0.00000000000E+00  0.00000000000E+00  0.21647767533E+04  0.21647767533E+04  0.00000000000E+00 0. -1.
         -1   -1    0    0    0  501 -0.00000000000E+00 -0.00000000000E+00 -0.83853433332E+03  0.83853433332E+03  0.00000000000E+00 0.  1.
         24    2    1    2    0    0  0.11545147308E+04  0.27704800616E+03  0.38816149969E+03  0.12516853869E+04  0.79919313773E+02 0.  0.
        254    2    1    2    0    0 -0.11545147308E+04 -0.27704800616E+03  0.93808092032E+03  0.17516256997E+04  0.88234739048E+03 0.  0.
         23    2    4    4    0    0 -0.12433721802E+04 -0.38396377232E+03  0.88697316143E+03  0.15775125960E+04  0.91771698734E+02 0.  0.
         23    2    4    4    0    0  0.88857449380E+02  0.10691576616E+03  0.51107758888E+02  0.17411310367E+03  0.91524545827E+02 0.  0.
          4    1    3    3  502    0  0.62504409126E+03  0.14139554462E+03  0.25038884266E+03  0.68801699731E+03  0.00000000000E+00 0. -1.
         -3    1    3    3    0  502  0.52947063953E+03  0.13565246154E+03  0.13777265703E+03  0.56366838963E+03  0.00000000000E+00 0.  1.
         13    1    5    5    0    0 -0.64899004326E+03 -0.24676072740E+03  0.45805977739E+03  0.83180387863E+03  0.00000000000E+00 0.  1.
        -13    1    5    5    0    0 -0.59438213691E+03 -0.13720304491E+03  0.42891338405E+03  0.74570871741E+03  0.00000000000E+00 0. -1.
          4    1    6    6  503    0  0.42560358707E+02  0.11040163855E+03  0.25305776150E+02  0.12099705879E+03  0.00000000000E+00 0. -1.
         -4    1    6    6    0  503  0.46297090673E+02 -0.34858723969E+01  0.25801982738E+02  0.53116044886E+02  0.00000000000E+00 0.  1.
<mgrwt>
<rscale>  0 0.26946166E+04</rscale>
<asrwt>0</asrwt>
<pdfrwt beam="1">  1        2 0.33304258E+00 0.26946166E+04</pdfrwt>
<pdfrwt beam="2">  1       -1 0.12900528E+00 0.26946166E+04</pdfrwt>
<totfact> 0.27895914E+00</totfact>
</mgrwt>
</event>
<event>
12    7  0.1740517E-007  0.1987961E+04  0.7818608E-02  0.8612270E-01
         -1   -1    0    0    0  501 -0.00000000000E+00  0.00000000000E+00  0.64284283779E+03  0.64284283779E+03  0.00000000000E+00 0.  1.
          2   -1    0    0  501    0  0.00000000000E+00 -0.00000000000E+00 -0.15369181498E+04  0.15369181498E+04  0.00000000000E+00 0. -1.
         24    2    1    2    0    0  0.43349560019E+03 -0.17809745682E+03 -0.10477999934E+04  0.11511226949E+04  0.86956846335E+02 0.  0.
        254    2    1    2    0    0 -0.43349560019E+03  0.17809745682E+03  0.15372468141E+03  0.10286382926E+04  0.90267841444E+03 0.  0.
         23    2    4    4    0    0 -0.49775955738E+03 -0.32316847000E+02 -0.24587912457E+03  0.56330315012E+03  0.89693586575E+02 0.  0.
         23    2    4    4    0    0  0.64263957185E+02  0.21041430382E+03  0.39960380598E+03  0.46533514252E+03  0.91921475551E+02 0.  0.
          4    1    3    3  502    0  0.30975750907E+03 -0.87842348134E+02 -0.66584081289E+03  0.73960123084E+03  0.00000000000E+00 0. -1.
         -3    1    3    3    0  502  0.12373809112E+03 -0.90255108684E+02 -0.38195918049E+03  0.41152146408E+03  0.00000000000E+00 0.  1.
         13    1    5    5    0    0 -0.20135143520E+03  0.29132813787E+02 -0.84922066460E+02  0.22046060571E+03  0.00000000000E+00 0. -1.
        -13    1    5    5    0    0 -0.29640812217E+03 -0.61449660786E+02 -0.16095705811E+03  0.34284254441E+03  0.00000000000E+00 0.  1.
          3    1    6    6  503    0  0.71179405570E+02  0.88908399038E+02  0.22915711018E+03  0.25589879317E+03  0.00000000000E+00 0. -1.
         -3    1    6    6    0  503 -0.69154483848E+01  0.12150590478E+03  0.17044669579E+03  0.20943634935E+03  0.00000000000E+00 0.  1.
<mgrwt>
<rscale>  0 0.19879606E+04</rscale>
<asrwt>0</asrwt>
<pdfrwt beam="1">  1        2 0.23644895E+00 0.19879606E+04</pdfrwt>
<pdfrwt beam="2">  1       -1 0.98898898E-01 0.19879606E+04</pdfrwt>
<totfact> 0.12531630E+01</totfact>
</mgrwt>
</event>
<event>
12    7  0.1740517E-007  0.2770148E+04  0.7818608E-02  0.8312597E-01
          2   -1    0    0  501    0  0.00000000000E+00  0.00000000000E+00  0.24459922733E+04  0.24459922733E+04  0.00000000000E+00 0. -1.
         -1   -1    0    0    0  501 -0.00000000000E+00 -0.00000000000E+00 -0.78431540104E+03  0.78431540104E+03  0.00000000000E+00 0.  1.
         24    2    1    2    0    0 -0.28150551306E+03  0.11972655261E+04  0.90047101404E+03  0.15264189762E+04  0.80104618600E+02 0.  0.
        254    2    1    2    0    0  0.28150551306E+03 -0.11972655261E+04  0.76120585826E+03  0.17038886982E+04  0.90061770105E+03 0.  0.
         23    2    4    4    0    0  0.57946190480E+03 -0.73409984407E+03  0.31958185293E+03  0.99246159457E+03  0.90381280095E+02 0.  0.
         23    2    4    4    0    0 -0.29795639174E+03 -0.46316568199E+03  0.44162400534E+03  0.71142710364E+03  0.88296666713E+02 0.  0.
          4    1    3    3  502    0 -0.12416382397E+03  0.59058207880E+03  0.39543243548E+03  0.72150582674E+03  0.00000000000E+00 0. -1.
         -3    1    3    3    0  502 -0.15734168910E+03  0.60668344726E+03  0.50503857856E+03  0.80491314944E+03  0.00000000000E+00 0.  1.
         13    1    5    5    0    0  0.22041973812E+03 -0.34183597012E+03  0.16221110670E+03  0.43789169273E+03  0.00000000000E+00 0. -1.
        -13    1    5    5    0    0  0.35904216668E+03 -0.39226387395E+03  0.15737074623E+03  0.55456990184E+03  0.00000000000E+00 0.  1.
          4    1    6    6  503    0 -0.29220474752E+03 -0.43230733347E+03  0.39171490865E+03  0.65246748172E+03  0.00000000000E+00 0.  1.
         -4    1    6    6    0  503 -0.57516442145E+01 -0.30858348524E+02  0.49909096686E+02  0.58959621919E+02  0.00000000000E+00 0. -1.
<mgrwt>
<rscale>  0 0.27701476E+04</rscale>
<asrwt>0</asrwt>
<pdfrwt beam="1">  1        2 0.37630650E+00 0.27701476E+04</pdfrwt>
<pdfrwt beam="2">  1       -1 0.12066391E+00 0.27701476E+04</pdfrwt>
<totfact> 0.22652483E+00</totfact>
</mgrwt>
</event>
<event>
12    7  0.1740517E-007  0.1155139E+04  0.7818608E-02  0.9153056E-01
          2   -1    0    0  501    0  0.00000000000E+00  0.00000000000E+00  0.92886805789E+03  0.92886805789E+03  0.00000000000E+00 0. -1.
         -1   -1    0    0    0  501 -0.00000000000E+00 -0.00000000000E+00 -0.35913203591E+03  0.35913203591E+03  0.00000000000E+00 0.  1.
         24    2    1    2    0    0  0.30326931082E+01 -0.17784769161E+03  0.13183171029E+03  0.23608623797E+03  0.81964097521E+02 0.  0.
        254    2    1    2    0    0 -0.30326931082E+01  0.17784769161E+03  0.43790431169E+03  0.10519138558E+04  0.93974654842E+03 0.  0.
         23    2    4    4    0    0 -0.42069619385E+03  0.25343162516E+03  0.12008705259E+03  0.51386610751E+03  0.91785620328E+02 0.  0.
         23    2    4    4    0    0  0.41766350074E+03 -0.75583933551E+02  0.31781725910E+03  0.53804774833E+03  0.91278904700E+02 0.  0.
          4    1    3    3  502    0  0.26446375564E+02 -0.99894834949E+02  0.11184496573E+03  0.15227503141E+03  0.00000000000E+00 0. -1.
         -1    1    3    3    0  502 -0.23413682455E+02 -0.77952856659E+02  0.19986744557E+02  0.83811206562E+02  0.00000000000E+00 0.  1.
         13    1    5    5    0    0 -0.28336122545E+03  0.12147497697E+03  0.88993423586E+02  0.32088874016E+03  0.00000000000E+00 0.  1.
        -13    1    5    5    0    0 -0.13733496840E+03  0.13195664819E+03  0.31093629005E+02  0.19297736735E+03  0.00000000000E+00 0. -1.
          2    1    6    6  503    0  0.54966056043E+02  0.10613380373E+02  0.73223847142E+02  0.92171812124E+02  0.00000000000E+00 0. -1.
         -2    1    6    6    0  503  0.36269744469E+03 -0.86197313925E+02  0.24459341196E+03  0.44587593621E+03  0.00000000000E+00 0.  1.
<mgrwt>
<rscale>  0 0.11551386E+04</rscale>
<asrwt>0</asrwt>
<pdfrwt beam="1">  1        2 0.14290278E+00 0.11551386E+04</pdfrwt>
<pdfrwt beam="2">  1       -1 0.55251083E-01 0.11551386E+04</pdfrwt>
<totfact> 0.10482592E+02</totfact>
</mgrwt>
</event>
<event>
12    7  0.1740517E-007  0.3142152E+04  0.7818608E-02  0.8204264E-01
          2   -1    0    0  501    0  0.00000000000E+00  0.00000000000E+00  0.89757190802E+03  0.89757190802E+03  0.00000000000E+00 0. -1.
         -1   -1    0    0    0  501 -0.00000000000E+00 -0.00000000000E+00 -0.27499523285E+04  0.27499523285E+04  0.00000000000E+00 0.  1.
         24    2    1    2    0    0  0.59187440538E+03  0.11627794302E+03  0.67050309056E+03  0.90530776873E+03  0.78561376605E+02 0.  0.
        254    2    1    2    0    0 -0.59187440538E+03 -0.11627794302E+03 -0.25228835111E+04  0.27422164678E+04  0.88936723247E+03 0.  0.
         23    2    4    4    0    0 -0.42379749022E+03 -0.48967413500E+03 -0.14745766637E+04  0.16130558335E+04  0.90485985989E+02 0.  0.
         23    2    4    4    0    0 -0.16807691516E+03  0.37339619198E+03 -0.10483068473E+04  0.11291606343E+04  0.91552860497E+02 0.  0.
          2    1    3    3  502    0  0.26132544492E+03  0.86400107070E+02  0.27640639997E+03  0.39007238381E+03  0.00000000000E+00 0. -1.
         -1    1    3    3    0  502  0.33054896046E+03  0.29877835951E+02  0.39409669059E+03  0.51523538492E+03  0.00000000000E+00 0.  1.
         13    1    5    5    0    0 -0.35783337558E+03 -0.40185232031E+03 -0.12979429754E+04  0.14050572869E+04  0.00000000000E+00 0.  1.
        -13    1    5    5    0    0 -0.65964114638E+02 -0.87821814687E+02 -0.17663368831E+03  0.20799854663E+03  0.00000000000E+00 0. -1.
          3    1    6    6  503    0 -0.48937862996E+02  0.67981108794E+02 -0.13584177276E+03  0.15959114265E+03  0.00000000000E+00 0. -1.
         -3    1    6    6    0  503 -0.11913905216E+03  0.30541508318E+03 -0.91246507457E+03  0.96956949163E+03  0.00000000000E+00 0.  1.
<mgrwt>
<rscale>  0 0.31421521E+04</rscale>
<asrwt>0</asrwt>
<pdfrwt beam="1">  1        2 0.13808799E+00 0.31421521E+04</pdfrwt>
<pdfrwt beam="2">  1       -1 0.42306958E+00 0.31421521E+04</pdfrwt>
<totfact> 0.14080192E-01</totfact>
</mgrwt>
</event>
<event>
12    7  0.1740517E-007  0.1650697E+04  0.7818608E-02  0.8789994E-01
          2   -1    0    0  501    0  0.00000000000E+00  0.00000000000E+00  0.22313686722E+04  0.22313686722E+04  0.00000000000E+00 0. -1.
         -1   -1    0    0    0  501 -0.00000000000E+00 -0.00000000000E+00 -0.30528352539E+03  0.30528352539E+03  0.00000000000E+00 0.  1.
         24    2    1    2    0    0  0.32946679156E+03  0.12114061048E+03 -0.25087986769E+02  0.36124000469E+03  0.81495519246E+02 0.  0.
        254    2    1    2    0    0 -0.32946679156E+03 -0.12114061048E+03  0.19511731336E+04  0.21754121929E+04  0.89561051666E+03 0.  0.
         23    2    4    4    0    0  0.20678012408E+03 -0.19511950487E+02  0.10983098672E+03  0.25285865998E+03  0.93466145514E+02 0.  0.
         23    2    4    4    0    0 -0.53624691564E+03 -0.10162865999E+03  0.18413421469E+04  0.19225535329E+04  0.88215905906E+02 0.  0.
          4    1    3    3  502    0  0.76414045549E+02  0.91497645786E+01  0.23093717262E+02  0.80350135818E+02  0.00000000000E+00 0. -1.
         -3    1    3    3    0  502  0.25305274602E+03  0.11199084590E+03 -0.48181704031E+02  0.28088986887E+03  0.00000000000E+00 0.  1.
         13    1    5    5    0    0  0.21286296842E+03 -0.14035720206E+02  0.90239927795E+02  0.23162661620E+03  0.00000000000E+00 0. -1.
        -13    1    5    5    0    0 -0.60828443353E+01 -0.54762302815E+01  0.19591058924E+02  0.21232043780E+02  0.00000000000E+00 0.  1.
          1    1    6    6  503    0 -0.32289566418E+03 -0.18687549367E+02  0.11195257637E+04  0.11653105895E+04  0.00000000000E+00 0. -1.
         -1    1    6    6    0  503 -0.21335125147E+03 -0.82941110623E+02  0.72181638321E+03  0.75724294345E+03  0.00000000000E+00 0.  1.
<mgrwt>
<rscale>  0 0.16506969E+04</rscale>
<asrwt>0</asrwt>
<pdfrwt beam="1">  1        2 0.34328748E+00 0.16506969E+04</pdfrwt>
<pdfrwt beam="2">  1       -1 0.46966698E-01 0.16506969E+04</pdfrwt>
<totfact> 0.24393084E+01</totfact>
</mgrwt>
</event>
<event>
12    7  0.1740517E-007  0.1823386E+04  0.7818608E-02  0.8693961E-01
         -1   -1    0    0    0  501 -0.00000000000E+00  0.00000000000E+00  0.20163771819E+03  0.20163771819E+03  0.00000000000E+00 0.  1.
          2   -1    0    0  501    0  0.00000000000E+00 -0.00000000000E+00 -0.41221678952E+04  0.41221678952E+04  0.00000000000E+00 0. -1.
         24    2    1    2    0    0 -0.55980518030E+03 -0.23695053295E+03 -0.22145685379E+04  0.22978598303E+04  0.79489594422E+02 0.  0.
        254    2    1    2    0    0  0.55980518030E+03  0.23695053295E+03 -0.17059616391E+04  0.20259457831E+04  0.90808799517E+03 0.  0.
         23    2    4    4    0    0  0.11363530665E+03 -0.16482470600E+03 -0.50569917267E+01  0.21985898353E+03  0.90731652974E+02 0.  0.
         23    2    4    4    0    0  0.44616987365E+03  0.40177523895E+03 -0.17009046474E+04  0.18060867995E+04  0.91553313877E+02 0.  0.
          4    1    3    3  502    0 -0.50416003560E+03 -0.23717566507E+03 -0.20317818888E+04  0.21067907540E+04  0.00000000000E+00 0. -1.
         -3    1    3    3    0  502 -0.55645144693E+02  0.22513211107E+00 -0.18278664911E+03  0.19106907627E+03  0.00000000000E+00 0.  1.
         13    1    5    5    0    0  0.29381769385E+02 -0.69550792258E+02  0.39355266812E+02  0.85143632186E+02  0.00000000000E+00 0.  1.
        -13    1    5    5    0    0  0.84253537260E+02 -0.95273913738E+02 -0.44412258539E+02  0.13471535135E+03  0.00000000000E+00 0. -1.
          2    1    6    6  503    0  0.40858525241E+01  0.18589842607E+02 -0.28193999891E+02  0.34017320130E+02  0.00000000000E+00 0. -1.
         -2    1    6    6    0  503  0.44208402113E+03  0.38318539634E+03 -0.16727106475E+04  0.17720694794E+04  0.00000000000E+00 0.  1.
<mgrwt>
<rscale>  0 0.18233864E+04</rscale>
<asrwt>0</asrwt>
<pdfrwt beam="1">  1        2 0.63417964E+00 0.18233864E+04</pdfrwt>
<pdfrwt beam="2">  1       -1 0.31021189E-01 0.18233864E+04</pdfrwt>
<totfact> 0.28421598E+00</totfact>
</mgrwt>
</event>
<event>
12    7  0.1740517E-007  0.2584524E+04  0.7818608E-02  0.8373477E-01
          2   -1    0    0  501    0  0.00000000000E+00  0.00000000000E+00  0.14563261522E+04  0.14563261522E+04  0.00000000000E+00 0. -1.
         -1   -1    0    0    0  501 -0.00000000000E+00 -0.00000000000E+00 -0.11466807820E+04  0.11466807820E+04  0.00000000000E+00 0.  1.
         24    2    1    2    0    0 -0.71274472882E+03 -0.32971998850E+03 -0.68098594307E+03  0.10425458084E+04  0.80247047358E+02 0.  0.
        254    2    1    2    0    0  0.71274472882E+03  0.32971998850E+03  0.99063131328E+03  0.15604611258E+04  0.91485966512E+03 0.  0.
         23    2    4    4    0    0  0.36964269729E+03 -0.71089738044E+02  0.94689360320E+03  0.10231079323E+04  0.91939495781E+02 0.  0.
         23    2    4    4    0    0  0.34310203153E+03  0.40080972655E+03  0.43737710082E+02  0.53735319343E+03  0.92021879315E+02 0.  0.
          4    1    3    3  502    0 -0.52981159419E+03 -0.27552641470E+03 -0.48847187671E+03  0.77150496102E+03  0.00000000000E+00 0. -1.
         -3    1    3    3    0  502 -0.18293313463E+03 -0.54193573800E+02 -0.19251406636E+03  0.27104084735E+03  0.00000000000E+00 0.  1.
         13    1    5    5    0    0  0.35545013731E+03 -0.76663666023E+02  0.84270178569E+03  0.91780630713E+03  0.00000000000E+00 0.  1.
        -13    1    5    5    0    0  0.14192559976E+02  0.55739279784E+01  0.10419181752E+03  0.10530162520E+03  0.00000000000E+00 0. -1.
          3    1    6    6  503    0  0.66837123871E+02  0.14231582939E+03  0.12419883668E+02  0.15771889529E+03  0.00000000000E+00 0. -1.
         -3    1    6    6    0  503  0.27626490766E+03  0.25849389716E+03  0.31317826413E+02  0.37963429814E+03  0.00000000000E+00 0.  1.
<mgrwt>
<rscale>  0 0.25845241E+04</rscale>
<asrwt>0</asrwt>
<pdfrwt beam="1">  1        2 0.22405018E+00 0.25845241E+04</pdfrwt>
<pdfrwt beam="2">  1       -1 0.17641243E+00 0.25845241E+04</pdfrwt>
<totfact> 0.29949324E+00</totfact>
</mgrwt>
</event>
<event>
12    7  0.1740517E-007  0.2121450E+04  0.7818608E-02  0.8551853E-01
          2   -1    0    0  501    0  0.00000000000E+00  0.00000000000E+00  0.14335716549E+04  0.14335716549E+04  0.00000000000E+00 0. -1.
         -1   -1    0    0    0  501 -0.00000000000E+00 -0.00000000000E+00 -0.78484950829E+03  0.78484950829E+03  0.00000000000E+00 0.  1.
         24    2    1    2    0    0 -0.54576429503E+03  0.52616298623E+03 -0.18297093026E+03  0.78413015197E+03  0.81704223295E+02 0.  0.
        254    2    1    2    0    0  0.54576429503E+03 -0.52616298623E+03  0.83169307688E+03  0.14342910112E+04  0.88925315683E+03 0.  0.
         23    2    4    4    0    0  0.47397642935E+03 -0.29323123925E+03  0.98298102876E+03  0.11334972301E+04  0.89028380427E+02 0.  0.
         23    2    4    4    0    0  0.71787865680E+02 -0.23293174698E+03 -0.15128795188E+03  0.30079378111E+03  0.90433168481E+02 0.  0.
          4    1    3    3  502    0 -0.51434896965E+02  0.72322850892E+02 -0.70597961701E+00  0.88750446726E+02  0.00000000000E+00 0. -1.
         -3    1    3    3    0  502 -0.49432939807E+03  0.45384013533E+03 -0.18226495064E+03  0.69537970524E+03  0.00000000000E+00 0.  1.
         13    1    5    5    0    0  0.31907088104E+03 -0.21696009246E+03  0.59948684442E+03  0.71292523134E+03  0.00000000000E+00 0. -1.
        -13    1    5    5    0    0  0.15490554831E+03 -0.76271146784E+02  0.38349418434E+03  0.42057199877E+03  0.00000000000E+00 0.  1.
          1    1    6    6  503    0  0.70057369409E+02 -0.23849928468E+03 -0.13367129509E+03  0.28223741590E+03  0.00000000000E+00 0. -1.
         -1    1    6    6    0  503  0.17304962710E+01  0.55675377036E+01 -0.17616656789E+02  0.18556365211E+02  0.00000000000E+00 0.  1.
<mgrwt>
<rscale>  0 0.21214505E+04</rscale>
<asrwt>0</asrwt>
<pdfrwt beam="1">  1        2 0.22054949E+00 0.21214505E+04</pdfrwt>
<pdfrwt beam="2">  1       -1 0.12074608E+00 0.21214505E+04</pdfrwt>
<totfact> 0.88492743E+00</totfact>
</mgrwt>
</event>
<event>
12    7  0.1740517E-007  0.1274223E+04  0.7818608E-02  0.9050260E-01
         -1   -1    0    0    0  501 -0.00000000000E+00  0.00000000000E+00  0.88461281474E+03  0.88461281474E+03  0.00000000000E+00 0.  1.
          2   -1    0    0  501    0  0.00000000000E+00 -0.00000000000E+00 -0.45885730466E+03  0.45885730466E+03  0.00000000000E+00 0. -1.
         24    2    1    2    0    0  0.15318131600E+02 -0.86123462688E+02 -0.21192784307E+03  0.24228212106E+03  0.78328280568E+02 0.  0.
        254    2    1    2    0    0 -0.15318131600E+02  0.86123462688E+02  0.63768335315E+03  0.11011879983E+04  0.89348925725E+03 0.  0.
         23    2    4    4    0    0 -0.23909549144E+03  0.39962258003E+03  0.20705885446E+03  0.51777062220E+03  0.91368416329E+02 0.  0.
         23    2    4    4    0    0  0.22377735984E+03 -0.31349911735E+03  0.43062449869E+03  0.58341737613E+03  0.81119495519E+02 0.  0.
          2    1    3    3  502    0  0.41560373925E+02 -0.26938141760E+02 -0.12023655701E+03  0.13003752460E+03  0.00000000000E+00 0. -1.
         -1    1    3    3    0  502 -0.26242242325E+02 -0.59185320929E+02 -0.91691286055E+02  0.11224459646E+03  0.00000000000E+00 0.  1.
         13    1    5    5    0    0 -0.37366308564E+01 -0.35773595902E+01  0.95169034338E+01  0.10831960246E+02  0.00000000000E+00 0. -1.
        -13    1    5    5    0    0 -0.23535886058E+03  0.40319993962E+03  0.19754195103E+03  0.50693866196E+03  0.00000000000E+00 0.  1.
          4    1    6    6  503    0 -0.35962521089E+01 -0.12451377511E+02  0.32740686650E+01  0.13367473837E+02  0.00000000000E+00 0. -1.
         -4    1    6    6    0  503  0.22737361195E+03 -0.30104773984E+03  0.42735043002E+03  0.57004990230E+03  0.00000000000E+00 0.  1.
<mgrwt>
<rscale>  0 0.12742230E+04</rscale>
<asrwt>0</asrwt>
<pdfrwt beam="1">  1        2 0.70593432E-01 0.12742230E+04</pdfrwt>
<pdfrwt beam="2">  1       -1 0.13609428E+00 0.12742230E+04</pdfrwt>
<totfact> 0.34471733E+01</totfact>
</mgrwt>
</event>
<event>
12    7  0.1740517E-007  0.1521602E+04  0.7818608E-02  0.8870213E-01
         -1   -1    0    0    0  501 -0.00000000000E+00  0.00000000000E+00  0.28479612487E+03  0.28479612487E+03  0.00000000000E+00 0.  1.
          2   -1    0    0  501    0  0.00000000000E+00 -0.00000000000E+00 -0.20323959777E+04  0.20323959777E+04  0.00000000000E+00 0. -1.
         24    2    1    2    0    0  0.27188833794E+03 -0.10456634413E+03 -0.11733413247E+04  0.12115821345E+04  0.79649328590E+02 0.  0.
        254    2    1    2    0    0 -0.27188833794E+03  0.10456634413E+03 -0.57425852808E+03  0.11056099681E+04  0.89874532313E+03 0.  0.
         23    2    4    4    0    0  0.10627057435E+03 -0.94964400728E+02 -0.64164184358E+03  0.66346065068E+03  0.90355449190E+02 0.  0.
         23    2    4    4    0    0 -0.37815891229E+03  0.19953074486E+03  0.67383315501E+02  0.44214931741E+03  0.90215445434E+02 0.  0.
          4    1    3    3  502    0  0.25749589189E+03 -0.86932504005E+02 -0.98275805143E+03  0.10196444391E+04  0.00000000000E+00 0. -1.
         -3    1    3    3    0  502  0.14392446056E+02 -0.17633840124E+02 -0.19058327331E+03  0.19193769532E+03  0.00000000000E+00 0.  1.
         13    1    5    5    0    0  0.51627950257E+02 -0.30506515520E+02 -0.11128218974E+03  0.12641130681E+03  0.00000000000E+00 0. -1.
        -13    1    5    5    0    0  0.54642624090E+02 -0.64457885208E+02 -0.53035965384E+03  0.53704934387E+03  0.00000000000E+00 0.  1.
          1    1    6    6  503    0 -0.40687213256E+02  0.51905076485E+02 -0.71437710818E+01  0.66337167205E+02  0.00000000000E+00 0. -1.
         -1    1    6    6    0  503 -0.33747169903E+03  0.14762566837E+03  0.74527086582E+02  0.37581215021E+03  0.00000000000E+00 0.  1.
<mgrwt>
<rscale>  0 0.15216024E+04</rscale>
<asrwt>0</asrwt>
<pdfrwt beam="1">  1        2 0.31267630E+00 0.15216024E+04</pdfrwt>
<pdfrwt beam="2">  1       -1 0.43814789E-01 0.15216024E+04</pdfrwt>
<totfact> 0.36265821E+01</totfact>
</mgrwt>
</event>
<event>
12    7  0.1740517E-007  0.1621754E+04  0.7818608E-02  0.8807294E-01
          2   -1    0    0  501    0  0.00000000000E+00  0.00000000000E+00  0.22127314921E+04  0.22127314921E+04  0.00000000000E+00 0. -1.
         -1   -1    0    0    0  501 -0.00000000000E+00 -0.00000000000E+00 -0.29715391247E+03  0.29715391247E+03  0.00000000000E+00 0.  1.
         24    2    1    2    0    0  0.42700156882E+03 -0.19020391953E+03  0.20415525532E+03  0.51635826315E+03  0.80240992448E+02 0.  0.
        254    2    1    2    0    0 -0.42700156882E+03  0.19020391953E+03  0.17114223243E+04  0.19935271414E+04  0.90921736710E+03 0.  0.
         23    2    4    4    0    0 -0.43845673835E+03  0.51552989431E+03  0.11028890960E+04  0.12971824602E+04  0.91118569122E+02 0.  0.
         23    2    4    4    0    0  0.11455169529E+02 -0.32532597478E+03  0.60853322829E+03  0.69634468120E+03  0.92817101490E+02 0.  0.
          2    1    3    3  502    0  0.18095044249E+03 -0.10141269144E+03  0.52414019338E+02  0.21395052242E+03  0.00000000000E+00 0. -1.
         -1    1    3    3    0  502  0.24605112633E+03 -0.88791228098E+02  0.15174123598E+03  0.30240774073E+03  0.00000000000E+00 0.  1.
         13    1    5    5    0    0 -0.32169760857E+03  0.35143009055E+03  0.69992357970E+03  0.84669089833E+03  0.00000000000E+00 0.  1.
        -13    1    5    5    0    0 -0.11675912977E+03  0.16409980376E+03  0.40296551633E+03  0.45049156189E+03  0.00000000000E+00 0. -1.
          4    1    6    6  503    0  0.21474714388E+02 -0.11967696354E+03  0.31629539317E+03  0.33886061249E+03  0.00000000000E+00 0.  1.
         -4    1    6    6    0  503 -0.10019544859E+02 -0.20564901124E+03  0.29223783512E+03  0.35748406871E+03  0.00000000000E+00 0. -1.
<mgrwt>
<rscale>  0 0.16217544E+04</rscale>
<asrwt>0</asrwt>
<pdfrwt beam="1">  1        2 0.34042022E+00 0.16217544E+04</pdfrwt>
<pdfrwt beam="2">  1       -1 0.45715988E-01 0.16217544E+04</pdfrwt>
<totfact> 0.26351379E+01</totfact>
</mgrwt>
</event>
<event>
12    7  0.1740517E-007  0.1308472E+04  0.7818608E-02  0.9022873E-01
         -1   -1    0    0    0  501 -0.00000000000E+00  0.00000000000E+00  0.97012030543E+03  0.97012030543E+03  0.00000000000E+00 0.  1.
          2   -1    0    0  501    0  0.00000000000E+00 -0.00000000000E+00 -0.44120807422E+03  0.44120807422E+03  0.00000000000E+00 0. -1.
         24    2    1    2    0    0  0.30807634308E+03 -0.77782003040E+01  0.82868573214E+00  0.31906761390E+03  0.82655441202E+02 0.  0.
        254    2    1    2    0    0 -0.30807634308E+03  0.77782003040E+01  0.52808354548E+03  0.10922607658E+04  0.90509105389E+03 0.  0.
         23    2    4    4    0    0  0.26314443168E+03 -0.19699647479E+03  0.20944100272E+03  0.40043755763E+03  0.91826471892E+02 0.  0.
         23    2    4    4    0    0 -0.57122077475E+03  0.20477467510E+03  0.31864254276E+03  0.69182320812E+03  0.94129911100E+02 0.  0.
          4    1    3    3  502    0  0.28893666145E+03 -0.29118847710E+02  0.82665861932E+00  0.29040142043E+03  0.00000000000E+00 0. -1.
         -3    1    3    3    0  502  0.19139681627E+02  0.21340647406E+02  0.20271128142E-02  0.28666193479E+02  0.00000000000E+00 0.  1.
         13    1    5    5    0    0  0.18582154793E+02 -0.50158500592E+02  0.16203575968E+02  0.55890316983E+02  0.00000000000E+00 0. -1.
        -13    1    5    5    0    0  0.24456227689E+03 -0.14683797420E+03  0.19323742675E+03  0.34454724065E+03  0.00000000000E+00 0.  1.
          4    1    6    6  503    0 -0.34470310250E+03  0.12960160963E+03  0.24398691466E+03  0.44175380091E+03  0.00000000000E+00 0. -1.
         -4    1    6    6    0  503 -0.22651767225E+03  0.75173065471E+02  0.74655628095E+02  0.25006940721E+03  0.00000000000E+00 0.  1.
<mgrwt>
<rscale>  0 0.13084723E+04</rscale>
<asrwt>0</asrwt>
<pdfrwt beam="1">  1        2 0.67878166E-01 0.13084723E+04</pdfrwt>
<pdfrwt beam="2">  1       -1 0.14924928E+00 0.13084723E+04</pdfrwt>
<totfact> 0.28195923E+01</totfact>
</mgrwt>
</event>
<event>
12    7  0.1740517E-007  0.1272629E+04  0.7818608E-02  0.9051557E-01
         -1   -1    0    0    0  501 -0.00000000000E+00  0.00000000000E+00  0.17700789268E+03  0.17700789268E+03  0.00000000000E+00 0.  1.
          2   -1    0    0  501    0  0.00000000000E+00 -0.00000000000E+00 -0.22874454112E+04  0.22874454112E+04  0.00000000000E+00 0. -1.
         24    2    1    2    0    0  0.20905693557E+03  0.77741217270E+02 -0.11176024633E+03  0.26179879605E+03  0.79371013477E+02 0.  0.
        254    2    1    2    0    0 -0.20905693557E+03 -0.77741217270E+02 -0.19986772722E+04  0.22026545079E+04  0.89845842604E+03 0.  0.
         23    2    4    4    0    0 -0.78928219952E+01  0.10645555140E+01 -0.19630540839E+04  0.19651548062E+04  0.90491136920E+02 0.  0.
         23    2    4    4    0    0 -0.20116411358E+03 -0.78805772783E+02 -0.35623188289E+02  0.23749970169E+03  0.91976879394E+02 0.  0.
          2    1    3    3  502    0  0.13178348699E+03  0.12219248781E+02 -0.42234382015E+02  0.13892422578E+03  0.00000000000E+00 0. -1.
         -1    1    3    3    0  502  0.77273448579E+02  0.65521968489E+02 -0.69525864317E+02  0.12287457027E+03  0.00000000000E+00 0.  1.
         13    1    5    5    0    0 -0.16105049929E+02 -0.28374336850E+02 -0.17027635823E+04  0.17030761266E+04  0.00000000000E+00 0. -1.
        -13    1    5    5    0    0  0.82122279336E+01  0.29438892364E+02 -0.26029050159E+03  0.26207867957E+03  0.00000000000E+00 0.  1.
          3    1    6    6  503    0 -0.20877101046E+03 -0.65735853846E+02 -0.28300568004E+02  0.22069766523E+03  0.00000000000E+00 0. -1.
         -3    1    6    6    0  503  0.76068968838E+01 -0.13069918937E+02 -0.73226202855E+01  0.16802036456E+02  0.00000000000E+00 0.  1.
<mgrwt>
<rscale>  0 0.12726286E+04</rscale>
<asrwt>0</asrwt>
<pdfrwt beam="1">  1        2 0.35191466E+00 0.12726286E+04</pdfrwt>
<pdfrwt beam="2">  1       -1 0.27231985E-01 0.12726286E+04</pdfrwt>
<totfact> 0.62480509E+01</totfact>
</mgrwt>
</event>
<event>
12    7  0.1740517E-007  0.1620434E+04  0.7818608E-02  0.8808092E-01
         -1   -1    0    0    0  501 -0.00000000000E+00  0.00000000000E+00  0.22193761069E+03  0.22193761069E+03  0.00000000000E+00 0.  1.
          2   -1    0    0  501    0  0.00000000000E+00 -0.00000000000E+00 -0.29578191472E+04  0.29578191472E+04  0.00000000000E+00 0. -1.
         24    2    1    2    0    0  0.37933217626E+03  0.40288008467E+03 -0.10902943015E+04  0.12252617165E+04  0.79494323895E+02 0.  0.
        254    2    1    2    0    0 -0.37933217626E+03 -0.40288008467E+03 -0.16455872350E+04  0.19544950413E+04  0.89771279155E+03 0.  0.
         23    2    4    4    0    0  0.24465001024E+03  0.26869631098E+02 -0.64453438112E+03  0.69584743517E+03  0.90573064433E+02 0.  0.
         23    2    4    4    0    0 -0.62398218649E+03 -0.42974971577E+03 -0.10010528538E+04  0.12586476061E+04  0.89712836481E+02 0.  0.
          2    1    3    3  502    0  0.32279628651E+03  0.33679636557E+03 -0.97487506058E+03  0.10807453993E+04  0.00000000000E+00 0. -1.
         -3    1    3    3    0  502  0.56535889751E+02  0.66083719099E+02 -0.11541924093E+03  0.14451631720E+03  0.00000000000E+00 0.  1.
         13    1    5    5    0    0  0.13657192704E+03  0.59921920831E+02 -0.35715623754E+03  0.38704406192E+03  0.00000000000E+00 0. -1.
        -13    1    5    5    0    0  0.10807808319E+03 -0.33052289733E+02 -0.28737814358E+03  0.30880337325E+03  0.00000000000E+00 0.  1.
          3    1    6    6  503    0 -0.39293097201E+03 -0.25516720641E+03 -0.68596439353E+03  0.83069380712E+03  0.00000000000E+00 0. -1.
         -3    1    6    6    0  503 -0.23105121448E+03 -0.17458250936E+03 -0.31508846030E+03  0.42795379903E+03  0.00000000000E+00 0.  1.
<mgrwt>
<rscale>  0 0.16204337E+04</rscale>
<asrwt>0</asrwt>
<pdfrwt beam="1">  1        2 0.45504907E+00 0.16204337E+04</pdfrwt>
<pdfrwt beam="2">  1       -1 0.34144250E-01 0.16204337E+04</pdfrwt>
<totfact> 0.16448935E+01</totfact>
</mgrwt>
</event>
<event>
12    7  0.1740517E-007  0.2803356E+04  0.7818608E-02  0.8302227E-01
          2   -1    0    0  501    0  0.00000000000E+00  0.00000000000E+00  0.10016758940E+04  0.10016758940E+04  0.00000000000E+00 0. -1.
         -1   -1    0    0    0  501 -0.00000000000E+00 -0.00000000000E+00 -0.19614145582E+04  0.19614145582E+04  0.00000000000E+00 0.  1.
         24    2    1    2    0    0  0.10477864926E+04  0.48362042099E+03  0.91920229891E+02  0.11603516037E+04  0.78875027347E+02 0.  0.
        254    2    1    2    0    0 -0.10477864926E+04 -0.48362042099E+03 -0.10516588941E+04  0.18027388485E+04  0.90118570818E+03 0.  0.
         23    2    4    4    0    0 -0.10910660404E+04 -0.45955651301E+03 -0.11547727703E+04  0.16563791160E+04  0.92056133900E+02 0.  0.
         23    2    4    4    0    0  0.43279547777E+02 -0.24063907981E+02  0.10311387619E+03  0.14635973248E+03  0.91304484587E+02 0.  0.
          2    1    3    3  502    0  0.15628657078E+03  0.65390740479E+02  0.41015688491E+02  0.17430928790E+03  0.00000000000E+00 0. -1.
         -1    1    3    3    0  502  0.89149992182E+03  0.41822968051E+03  0.50904541400E+02  0.98604231582E+03  0.00000000000E+00 0.  1.
         13    1    5    5    0    0 -0.96261418989E+02 -0.23278479002E+02 -0.70428630402E+02  0.12152506059E+03  0.00000000000E+00 0. -1.
        -13    1    5    5    0    0 -0.99480462139E+03 -0.43627803400E+03 -0.10843441399E+04  0.15348540554E+04  0.00000000000E+00 0.  1.
          2    1    6    6  503    0  0.15804510099E+02 -0.56962405298E+02  0.45744370486E+02  0.74746542314E+02  0.00000000000E+00 0. -1.
         -2    1    6    6    0  503  0.27475037678E+02  0.32898497316E+02  0.57369505708E+02  0.71613190169E+02  0.00000000000E+00 0.  1.
<mgrwt>
<rscale>  0 0.28033563E+04</rscale>
<asrwt>0</asrwt>
<pdfrwt beam="1">  1        2 0.15410398E+00 0.28033563E+04</pdfrwt>
<pdfrwt beam="2">  1       -1 0.30175608E+00 0.28033563E+04</pdfrwt>
<totfact> 0.80141322E-01</totfact>
</mgrwt>
</event>
<event>
12    7  0.1740517E-007  0.2302216E+04  0.7818608E-02  0.8477048E-01
         -1   -1    0    0    0  501 -0.00000000000E+00  0.00000000000E+00  0.15263831358E+04  0.15263831358E+04  0.00000000000E+00 0.  1.
          2   -1    0    0  501    0  0.00000000000E+00 -0.00000000000E+00 -0.86809793059E+03  0.86809793059E+03  0.00000000000E+00 0. -1.
         24    2    1    2    0    0  0.22290260121E+03 -0.21182759819E+03  0.12396483208E+04  0.12797122928E+04  0.79869218275E+02 0.  0.
        254    2    1    2    0    0 -0.22290260121E+03  0.21182759819E+03 -0.58136311556E+03  0.11147687736E+04  0.90009435370E+03 0.  0.
         23    2    4    4    0    0  0.25561130848E+03  0.31526186788E+03 -0.11222707471E+03  0.43089388307E+03  0.91364302673E+02 0.  0.
         23    2    4    4    0    0 -0.47851390970E+03 -0.10343426969E+03 -0.46913604086E+03  0.68387489057E+03  0.89005793085E+02 0.  0.
          4    1    3    3  502    0  0.12792163914E+03 -0.88444118197E+02  0.49092635599E+03  0.51497086792E+03  0.00000000000E+00 0. -1.
         -3    1    3    3    0  502  0.94980962074E+02 -0.12338348000E+03  0.74872196481E+03  0.76474142485E+03  0.00000000000E+00 0.  1.
         13    1    5    5    0    0  0.10648951046E+03  0.82419819507E+02 -0.68081377076E+02  0.15089107459E+03  0.00000000000E+00 0. -1.
        -13    1    5    5    0    0  0.14912179802E+03  0.23284204838E+03 -0.44145697633E+02  0.28000280848E+03  0.00000000000E+00 0.  1.
          3    1    6    6  503    0 -0.13080262672E+03 -0.37419210692E+02 -0.79845776977E+02  0.15774939805E+03  0.00000000000E+00 0. -1.
         -3    1    6    6    0  503 -0.34771128298E+03 -0.66015059000E+02 -0.38929026388E+03  0.52612549252E+03  0.00000000000E+00 0.  1.
<mgrwt>
<rscale>  0 0.23022164E+04</rscale>
<asrwt>0</asrwt>
<pdfrwt beam="1">  1        2 0.13355353E+00 0.23022164E+04</pdfrwt>
<pdfrwt beam="2">  1       -1 0.23482818E+00 0.23022164E+04</pdfrwt>
<totfact> 0.27954185E+00</totfact>
</mgrwt>
</event>
<event>
12    7  0.1740517E-007  0.1584669E+04  0.7818608E-02  0.8830022E-01
          2   -1    0    0  501    0  0.00000000000E+00  0.00000000000E+00  0.79008547530E+03  0.79008547530E+03  0.00000000000E+00 0. -1.
         -1   -1    0    0    0  501 -0.00000000000E+00 -0.00000000000E+00 -0.79458968544E+03  0.79458968544E+03  0.00000000000E+00 0.  1.
         24    2    1    2    0    0 -0.38655356971E+03  0.34982175680E+03  0.10416822334E+03  0.53732212375E+03  0.77878894017E+02 0.  0.
        254    2    1    2    0    0  0.38655356971E+03 -0.34982175680E+03 -0.10867243348E+03  0.10473530370E+04  0.90185351499E+03 0.  0.
         23    2    4    4    0    0 -0.66484715357E+02  0.23700363648E+03  0.83824265364E+02  0.27529235515E+03  0.90379379605E+02 0.  0.
         23    2    4    4    0    0  0.45303828507E+03 -0.58682539328E+03 -0.19249669884E+03  0.77206068184E+03  0.97030858230E+02 0.  0.
          2    1    3    3  502    0 -0.17124402585E+03  0.16848336269E+03  0.98182420883E+01  0.24043202318E+03  0.00000000000E+00 0. -1.
         -1    1    3    3    0  502 -0.21530954387E+03  0.18133839411E+03  0.94349981249E+02  0.29689010058E+03  0.00000000000E+00 0.  1.
         13    1    5    5    0    0 -0.49409050573E+02  0.38027746763E+02  0.15823429142E+02  0.64325303826E+02  0.00000000000E+00 0.  1.
        -13    1    5    5    0    0 -0.17075664783E+02  0.19897588971E+03  0.68000836222E+02  0.21096705132E+03  0.00000000000E+00 0. -1.
          2    1    6    6  503    0  0.44662075251E+03 -0.58415338189E+03 -0.17887921257E+03  0.75677146011E+03  0.00000000000E+00 0. -1.
         -2    1    6    6    0  503  0.64175325590E+01 -0.26720113926E+01 -0.13617486269E+02  0.15289221737E+02  0.00000000000E+00 0.  1.
<mgrwt>
<rscale>  0 0.15846688E+04</rscale>
<asrwt>0</asrwt>
<pdfrwt beam="1">  1        2 0.12155161E+00 0.15846688E+04</pdfrwt>
<pdfrwt beam="2">  1       -1 0.12224457E+00 0.15846688E+04</pdfrwt>
<totfact> 0.22710631E+01</totfact>
</mgrwt>
</event>
<event>
12    7  0.1740517E-007  0.1767455E+04  0.7818608E-02  0.8723801E-01
         -1   -1    0    0    0  501 -0.00000000000E+00  0.00000000000E+00  0.69356759539E+03  0.69356759539E+03  0.00000000000E+00 0.  1.
          2   -1    0    0  501    0  0.00000000000E+00 -0.00000000000E+00 -0.11260246558E+04  0.11260246558E+04  0.00000000000E+00 0. -1.
         24    2    1    2    0    0 -0.97888282319E+02  0.63985445282E+03 -0.22553447792E+03  0.69189899301E+03  0.94141272553E+02 0.  0.
        254    2    1    2    0    0  0.97888282319E+02 -0.63985445282E+03 -0.20692258249E+03  0.11276932582E+04  0.89993293794E+03 0.  0.
         23    2    4    4    0    0  0.40089559551E+03 -0.32531035009E+02 -0.15558583505E+03  0.44055886008E+03  0.90053375201E+02 0.  0.
         23    2    4    4    0    0 -0.30300731319E+03 -0.60732341781E+03 -0.51336747431E+02  0.68713439810E+03  0.94143792951E+02 0.  0.
          4    1    3    3  502    0 -0.64522371580E+02  0.17513193385E+03 -0.86261063419E+02  0.20560958575E+03  0.00000000000E+00 0. -1.
         -3    1    3    3    0  502 -0.33365910739E+02  0.46472251897E+03 -0.13927341450E+03  0.48628940727E+03  0.00000000000E+00 0.  1.
         13    1    5    5    0    0  0.22229614345E+03 -0.25160348509E+02 -0.13331428429E+03  0.26042526169E+03  0.00000000000E+00 0. -1.
        -13    1    5    5    0    0  0.17859945206E+03 -0.73706865006E+01 -0.22271550768E+02  0.18013359839E+03  0.00000000000E+00 0.  1.
          3    1    6    6  503    0 -0.13381712905E+03 -0.30874395261E+03  0.18154402233E+02  0.33698580774E+03  0.00000000000E+00 0. -1.
         -3    1    6    6    0  503 -0.16919018414E+03 -0.29857946520E+03 -0.69491149664E+02  0.35014859036E+03  0.00000000000E+00 0.  1.
<mgrwt>
<rscale>  0 0.17674549E+04</rscale>
<asrwt>0</asrwt>
<pdfrwt beam="1">  1        2 0.17323456E+00 0.17674549E+04</pdfrwt>
<pdfrwt beam="2">  1       -1 0.10670271E+00 0.17674549E+04</pdfrwt>
<totfact> 0.18587452E+01</totfact>
</mgrwt>
</event>
<event>
12    7  0.1740517E-007  0.2376913E+04  0.7818608E-02  0.8448198E-01
         -1   -1    0    0    0  501 -0.00000000000E+00  0.00000000000E+00  0.77046703513E+03  0.77046703513E+03  0.00000000000E+00 0.  1.
          2   -1    0    0  501    0  0.00000000000E+00 -0.00000000000E+00 -0.18332112818E+04  0.18332112818E+04  0.00000000000E+00 0. -1.
         24    2    1    2    0    0  0.89389454305E+03  0.48901632765E+03 -0.45614463602E+03  0.11192528389E+04  0.80464686139E+02 0.  0.
        254    2    1    2    0    0 -0.89389454305E+03 -0.48901632765E+03 -0.60659961067E+03  0.14844254780E+04  0.89295659990E+03 0.  0.
         23    2    4    4    0    0 -0.10570100327E+04 -0.48806713730E+03 -0.51104505039E+03  0.12746076863E+04  0.89319485539E+02 0.  0.
         23    2    4    4    0    0  0.16311548970E+03 -0.94919034780E+00 -0.95554560277E+02  0.20981779175E+03  0.91023446456E+02 0.  0.
          2    1    3    3  502    0  0.62405447358E+03  0.29905623633E+03 -0.31528438910E+03  0.76044912025E+03  0.00000000000E+00 0. -1.
         -3    1    3    3    0  502  0.26984006947E+03  0.18996009132E+03 -0.14086024692E+03  0.35880371869E+03  0.00000000000E+00 0.  1.
         13    1    5    5    0    0 -0.81018877526E+03 -0.39276036246E+03 -0.43078500905E+03  0.99811937057E+03  0.00000000000E+00 0.  1.
        -13    1    5    5    0    0 -0.24682125749E+03 -0.95306774843E+02 -0.80260041342E+02  0.27648831569E+03  0.00000000000E+00 0. -1.
          1    1    6    6  503    0  0.24987422326E+01 -0.22816169155E+02 -0.29749561064E+01  0.23144581472E+02  0.00000000000E+00 0. -1.
         -1    1    6    6    0  503  0.16061674746E+03  0.21866978807E+02 -0.92579604170E+02  0.18667321028E+03  0.00000000000E+00 0.  1.
<mgrwt>
<rscale>  0 0.23769130E+04</rscale>
<asrwt>0</asrwt>
<pdfrwt beam="1">  1        2 0.28203250E+00 0.23769130E+04</pdfrwt>
<pdfrwt beam="2">  1       -1 0.11853339E+00 0.23769130E+04</pdfrwt>
<totfact> 0.54111201E+00</totfact>
</mgrwt>
</event>
<event>
12    7  0.1740517E-007  0.1746576E+04  0.7818608E-02  0.8735237E-01
          2   -1    0    0  501    0  0.00000000000E+00  0.00000000000E+00  0.15761013587E+04  0.15761013587E+04  0.00000000000E+00 0. -1.
         -1   -1    0    0    0  501 -0.00000000000E+00 -0.00000000000E+00 -0.48387225333E+03  0.48387225333E+03  0.00000000000E+00 0.  1.
         24    2    1    2    0    0 -0.48031341079E+03 -0.39502266537E+03  0.56079517824E+03  0.84119503101E+03  0.79837143696E+02 0.  0.
        254    2    1    2    0    0  0.48031341079E+03  0.39502266537E+03  0.53143392717E+03  0.12187785811E+04  0.90346850080E+03 0.  0.
         23    2    4    4    0    0  0.31192413021E+03  0.46260970588E+02  0.71064840549E+03  0.78247461777E+03  0.88366457530E+02 0.  0.
         23    2    4    4    0    0  0.16838928059E+03  0.34876169478E+03 -0.17921447832E+03  0.43630396329E+03  0.90849598653E+02 0.  0.
          2    1    3    3  502    0 -0.38813861363E+03 -0.30513659214E+03  0.48344922755E+03  0.69100150425E+03  0.00000000000E+00 0. -1.
         -1    1    3    3    0  502 -0.92174797163E+02 -0.89886073231E+02  0.77345950685E+02  0.15019352676E+03  0.00000000000E+00 0.  1.
         13    1    5    5    0    0  0.18049193976E+03  0.34122765398E+02  0.30661182025E+03  0.35742483371E+03  0.00000000000E+00 0. -1.
        -13    1    5    5    0    0  0.13143219044E+03  0.12138205191E+02  0.40403658524E+03  0.42504978406E+03  0.00000000000E+00 0.  1.
          3    1    6    6  503    0 -0.15067192892E+01  0.78540230078E+02 -0.38168469088E+02  0.87336532884E+02  0.00000000000E+00 0. -1.
         -3    1    6    6    0  503  0.16989599988E+03  0.27022146471E+03 -0.14104600923E+03  0.34896743040E+03  0.00000000000E+00 0.  1.
<mgrwt>
<rscale>  0 0.17465758E+04</rscale>
<asrwt>0</asrwt>
<pdfrwt beam="1">  1        2 0.24247713E+00 0.17465758E+04</pdfrwt>
<pdfrwt beam="2">  1       -1 0.74441886E-01 0.17465758E+04</pdfrwt>
<totfact> 0.22561171E+01</totfact>
</mgrwt>
</event>
<event>
12    7  0.1740517E-007  0.1491638E+04  0.7818608E-02  0.8890033E-01
         -1   -1    0    0    0  501 -0.00000000000E+00  0.00000000000E+00  0.25625467886E+03  0.25625467886E+03  0.00000000000E+00 0.  1.
          2   -1    0    0  501    0  0.00000000000E+00 -0.00000000000E+00 -0.21706765089E+04  0.21706765089E+04  0.00000000000E+00 0. -1.
         24    2    1    2    0    0 -0.26287156342E+03  0.13651335325E+03 -0.55304476906E+02  0.31217698215E+03  0.81599807256E+02 0.  0.
        254    2    1    2    0    0  0.26287156342E+03 -0.13651335325E+03 -0.18591173531E+04  0.21147542056E+04  0.96339538247E+03 0.  0.
         23    2    4    4    0    0  0.81215690109E+02 -0.52607218169E+03 -0.12671147196E+04  0.13774461904E+04  0.91817025446E+02 0.  0.
         23    2    4    4    0    0  0.18165587331E+03  0.38955882844E+03 -0.59200263354E+03  0.73730801522E+03  0.91657264110E+02 0.  0.
          2    1    3    3  502    0 -0.94978674912E+02  0.47357783204E+02 -0.60203739476E+02  0.12201720602E+03  0.00000000000E+00 0. -1.
         -1    1    3    3    0  502 -0.16789288851E+03  0.89155570046E+02  0.48992625700E+01  0.19015977613E+03  0.00000000000E+00 0.  1.
         13    1    5    5    0    0  0.39315403380E+01 -0.28218816067E+03 -0.60358859498E+03  0.66630684149E+03  0.00000000000E+00 0. -1.
        -13    1    5    5    0    0  0.77284149771E+02 -0.24388402102E+03 -0.66352612460E+03  0.71113934889E+03  0.00000000000E+00 0.  1.
          2    1    6    6  503    0  0.10147161299E+03  0.23197651382E+03 -0.42136219829E+03  0.49158487910E+03  0.00000000000E+00 0. -1.
         -2    1    6    6    0  503  0.80184260322E+02  0.15758231462E+03 -0.17064043525E+03  0.24572313612E+03  0.00000000000E+00 0.  1.
<mgrwt>
<rscale>  0 0.14916380E+04</rscale>
<asrwt>0</asrwt>
<pdfrwt beam="1">  1        2 0.33395023E+00 0.14916380E+04</pdfrwt>
<pdfrwt beam="2">  1       -1 0.39423797E-01 0.14916380E+04</pdfrwt>
<totfact> 0.36980542E+01</totfact>
</mgrwt>
</event>
<event>
12    7  0.1740517E-007  0.2240583E+04  0.7818608E-02  0.8501724E-01
         -1   -1    0    0    0  501 -0.00000000000E+00  0.00000000000E+00  0.32380431560E+03  0.32380431560E+03  0.00000000000E+00 0.  1.
          2   -1    0    0  501    0  0.00000000000E+00 -0.00000000000E+00 -0.38759614204E+04  0.38759614204E+04  0.00000000000E+00 0. -1.
         24    2    1    2    0    0  0.14631352990E+03 -0.83030135930E+03 -0.75583047919E+03  0.11353092872E+04  0.82701076683E+02 0.  0.
        254    2    1    2    0    0 -0.14631352990E+03  0.83030135930E+03 -0.27963266256E+04  0.30644564487E+04  0.92770832324E+03 0.  0.
         23    2    4    4    0    0  0.29020769320E+03  0.73114732037E+03 -0.19004345942E+04  0.20589986035E+04  0.95008911560E+02 0.  0.
         23    2    4    4    0    0 -0.43652122310E+03  0.99154038938E+02 -0.89589203141E+03  0.10054578452E+04  0.89110296455E+02 0.  0.
          4    1    3    3  502    0  0.48963519077E+02 -0.31565365135E+03 -0.34023563961E+03  0.46668505898E+03  0.00000000000E+00 0. -1.
         -3    1    3    3    0  502  0.97350010822E+02 -0.51464770796E+03 -0.41559483958E+03  0.66862422824E+03  0.00000000000E+00 0.  1.
         13    1    5    5    0    0  0.11485146845E+03  0.25716364651E+03 -0.79803234750E+03  0.84627396778E+03  0.00000000000E+00 0. -1.
        -13    1    5    5    0    0  0.17535622475E+03  0.47398367386E+03 -0.11024022467E+04  0.12127246357E+04  0.00000000000E+00 0.  1.
          1    1    6    6  503    0 -0.23788845346E+03  0.58868127612E+02 -0.39158105634E+03  0.46194382388E+03  0.00000000000E+00 0. -1.
         -1    1    6    6    0  503 -0.19863276964E+03  0.40285911326E+02 -0.50431097506E+03  0.54351402135E+03  0.00000000000E+00 0.  1.
<mgrwt>
<rscale>  0 0.22405830E+04</rscale>
<asrwt>0</asrwt>
<pdfrwt beam="1">  1        2 0.59630179E+00 0.22405830E+04</pdfrwt>
<pdfrwt beam="2">  1       -1 0.49816046E-01 0.22405830E+04</pdfrwt>
<totfact> 0.18086232E+00</totfact>
</mgrwt>
</event>
<event>
12    7  0.1740517E-007  0.1509724E+04  0.7818608E-02  0.8878012E-01
          2   -1    0    0  501    0  0.00000000000E+00  0.00000000000E+00  0.73228746584E+03  0.73228746584E+03  0.00000000000E+00 0. -1.
         -1   -1    0    0    0  501 -0.00000000000E+00 -0.00000000000E+00 -0.77813205164E+03  0.77813205164E+03  0.00000000000E+00 0.  1.
         24    2    1    2    0    0  0.16177711327E+01  0.32438895536E+03 -0.37136509699E+03  0.49921985575E+03  0.77959076233E+02 0.  0.
        254    2    1    2    0    0 -0.16177711327E+01 -0.32438895536E+03  0.32552051119E+03  0.10111996617E+04  0.90073877519E+03 0.  0.
         23    2    4    4    0    0 -0.27272796235E+03 -0.46438795706E+03  0.40827910446E+03  0.68199030304E+03  0.91554520310E+02 0.  0.
         23    2    4    4    0    0  0.27111019122E+03  0.13999900170E+03 -0.82758593264E+02  0.32920935870E+03  0.91811550664E+02 0.  0.
          4    1    3    3  502    0 -0.54860804135E+01  0.14964952994E+03 -0.22947924412E+03  0.27401788695E+03  0.00000000000E+00 0. -1.
         -3    1    3    3    0  502  0.71038515463E+01  0.17473942543E+03 -0.14188585287E+03  0.22520196880E+03  0.00000000000E+00 0.  1.
         13    1    5    5    0    0 -0.25894184097E+03 -0.37852583521E+03  0.35545191738E+03  0.58024025239E+03  0.00000000000E+00 0. -1.
        -13    1    5    5    0    0 -0.13786121379E+02 -0.85862121858E+02  0.52827187074E+02  0.10175005065E+03  0.00000000000E+00 0.  1.
          1    1    6    6  503    0  0.13000182219E+03  0.11223462411E+03 -0.22241519790E+02  0.17318132065E+03  0.00000000000E+00 0. -1.
         -1    1    6    6    0  503  0.14110836903E+03  0.27764377590E+02 -0.60517073473E+02  0.15602803804E+03  0.00000000000E+00 0.  1.
<mgrwt>
<rscale>  0 0.15097236E+04</rscale>
<asrwt>0</asrwt>
<pdfrwt beam="1">  1        2 0.11265961E+00 0.15097236E+04</pdfrwt>
<pdfrwt beam="2">  1       -1 0.11971262E+00 0.15097236E+04</pdfrwt>
<totfact> 0.26565028E+01</totfact>
</mgrwt>
</event>
<event>
12    7  0.1740517E-007  0.1919523E+04  0.7818608E-02  0.8645199E-01
          2   -1    0    0  501    0  0.00000000000E+00  0.00000000000E+00  0.17395520592E+04  0.17395520592E+04  0.00000000000E+00 0. -1.
         -1   -1    0    0    0  501 -0.00000000000E+00 -0.00000000000E+00 -0.52952819432E+03  0.52952819432E+03  0.00000000000E+00 0.  1.
         24    2    1    2    0    0  0.47923720826E+01 -0.55806733926E+03 -0.10631031823E+03  0.57392542202E+03  0.81402606258E+02 0.  0.
        254    2    1    2    0    0 -0.47923720826E+01  0.55806733926E+03  0.13163341831E+04  0.16951548315E+04  0.91068770672E+03 0.  0.
         23    2    4    4    0    0  0.18386384472E+03  0.46935633020E+03  0.19120127240E+03  0.54724363307E+03  0.93895629719E+02 0.  0.
         23    2    4    4    0    0 -0.18865621680E+03  0.88711009061E+02  0.11251329107E+04  0.11479111984E+04  0.91187945741E+02 0.  0.
          2    1    3    3  502    0  0.46065358834E+01 -0.10528345981E+01  0.38826802168E+01  0.61158678209E+01  0.00000000000E+00 0. -1.
         -1    1    3    3    0  502  0.18583619916E+00 -0.55701450466E+03 -0.11019299845E+03  0.56780955420E+03  0.00000000000E+00 0.  1.
         13    1    5    5    0    0  0.85562980909E+02  0.33727558779E+03  0.12360451155E+03  0.36926131817E+03  0.00000000000E+00 0. -1.
        -13    1    5    5    0    0  0.98300863810E+02  0.13208074240E+03  0.67596760845E+02  0.17798231490E+03  0.00000000000E+00 0.  1.
          2    1    6    6  503    0 -0.52190753302E+02  0.49064542642E+02  0.58607799577E+03  0.59043934591E+03  0.00000000000E+00 0. -1.
         -2    1    6    6    0  503 -0.13646546350E+03  0.39646466419E+02  0.53905491494E+03  0.55747185252E+03  0.00000000000E+00 0.  1.
<mgrwt>
<rscale>  0 0.19195227E+04</rscale>
<asrwt>0</asrwt>
<pdfrwt beam="1">  1        2 0.26762339E+00 0.19195227E+04</pdfrwt>
<pdfrwt beam="2">  1       -1 0.81465877E-01 0.19195227E+04</pdfrwt>
<totfact> 0.14897200E+01</totfact>
</mgrwt>
</event>
<event>
12    7  0.1740517E-007  0.2415894E+04  0.7818608E-02  0.8433577E-01
         -1   -1    0    0    0  501 -0.00000000000E+00  0.00000000000E+00  0.11191942195E+04  0.11191942195E+04  0.00000000000E+00 0.  1.
          2   -1    0    0  501    0  0.00000000000E+00 -0.00000000000E+00 -0.13037381199E+04  0.13037381199E+04  0.00000000000E+00 0. -1.
         24    2    1    2    0    0  0.41591621417E+03  0.46215003062E+03  0.75458469780E+03  0.98099162011E+03  0.79859530275E+02 0.  0.
        254    2    1    2    0    0 -0.41591621417E+03 -0.46215003062E+03 -0.93912859823E+03  0.14419407193E+04  0.90036746156E+03 0.  0.
         23    2    4    4    0    0 -0.35037654296E+03 -0.18221468471E+03  0.49643629570E+02  0.40825639207E+03  0.90790299735E+02 0.  0.
         23    2    4    4    0    0 -0.65539671205E+02 -0.27993534591E+03 -0.98877222780E+03  0.10336843272E+04  0.90407540727E+02 0.  0.
          4    1    3    3  502    0  0.45435456071E+02  0.92373542499E+02  0.13848086155E+03  0.17255202415E+03  0.00000000000E+00 0. -1.
         -3    1    3    3    0  502  0.37048075810E+03  0.36977648812E+03  0.61610383625E+03  0.80843959597E+03  0.00000000000E+00 0.  1.
         13    1    5    5    0    0 -0.28174358118E+03 -0.11045691299E+03  0.59693152650E+02  0.30845331516E+03  0.00000000000E+00 0. -1.
        -13    1    5    5    0    0 -0.68632961784E+02 -0.71757771719E+02 -0.10049523080E+02  0.99803076904E+02  0.00000000000E+00 0.  1.
          4    1    6    6  503    0 -0.79560383511E+02 -0.14498876902E+03 -0.51905882283E+03  0.54476936342E+03  0.00000000000E+00 0. -1.
         -4    1    6    6    0  503  0.14020712306E+02 -0.13494657689E+03 -0.46971340498E+03  0.48891496378E+03  0.00000000000E+00 0.  1.
<mgrwt>
<rscale>  0 0.24158942E+04</rscale>
<asrwt>0</asrwt>
<pdfrwt beam="1">  1        2 0.20057509E+00 0.24158942E+04</pdfrwt>
<pdfrwt beam="2">  1       -1 0.17218373E+00 0.24158942E+04</pdfrwt>
<totfact> 0.39921261E+00</totfact>
</mgrwt>
</event>
<event>
12    7  0.1740517E-007  0.2172466E+04  0.7818608E-02  0.8529977E-01
         -1   -1    0    0    0  501 -0.00000000000E+00  0.00000000000E+00  0.11731578789E+04  0.11731578789E+04  0.00000000000E+00 0.  1.
          2   -1    0    0  501    0  0.00000000000E+00 -0.00000000000E+00 -0.10057486466E+04  0.10057486466E+04  0.00000000000E+00 0. -1.
         24    2    1    2    0    0  0.39683107909E+03  0.80426755838E+03  0.22045268701E+03  0.92689401857E+03  0.78815757665E+02 0.  0.
        254    2    1    2    0    0 -0.39683107909E+03 -0.80426755838E+03 -0.53043454724E+02  0.12520125069E+04  0.87200946009E+03 0.  0.
         23    2    4    4    0    0  0.73655848396E+02 -0.54604504969E+03  0.26892307388E+03  0.61957497676E+03  0.89236494056E+02 0.  0.
         23    2    4    4    0    0 -0.47048692749E+03 -0.25822250869E+03 -0.32196652860E+03  0.63243753012E+03  0.90983355781E+02 0.  0.
          2    1    3    3  502    0  0.27708512565E+03  0.58119171962E+03  0.19332780621E+03  0.67226157295E+03  0.00000000000E+00 0. -1.
         -1    1    3    3    0  502  0.11974595344E+03  0.22307583876E+03  0.27124880799E+02  0.25463244562E+03  0.00000000000E+00 0.  1.
         13    1    5    5    0    0  0.14877900760E+02 -0.16439771795E+02 -0.11135536608E+01  0.22200406065E+02  0.00000000000E+00 0.  1.
        -13    1    5    5    0    0  0.58777947636E+02 -0.52960527789E+03  0.27003662754E+03  0.59737457070E+03  0.00000000000E+00 0. -1.
          2    1    6    6  503    0 -0.42327850780E+03 -0.24631870506E+03 -0.31727781430E+03  0.58352618714E+03  0.00000000000E+00 0. -1.
         -2    1    6    6    0  503 -0.47208419687E+02 -0.11903803629E+02 -0.46887143025E+01  0.48911342979E+02  0.00000000000E+00 0.  1.
<mgrwt>
<rscale>  0 0.21724658E+04</rscale>
<asrwt>0</asrwt>
<pdfrwt beam="1">  1        2 0.15473056E+00 0.21724658E+04</pdfrwt>
<pdfrwt beam="2">  1       -1 0.18048583E+00 0.21724658E+04</pdfrwt>
<totfact> 0.53869535E+00</totfact>
</mgrwt>
</event>
<event>
12    7  0.1740517E-007  0.1683609E+04  0.7818608E-02  0.8770768E-01
         -1   -1    0    0    0  501 -0.00000000000E+00  0.00000000000E+00  0.73926613925E+03  0.73926613925E+03  0.00000000000E+00 0.  1.
          2   -1    0    0  501    0  0.00000000000E+00 -0.00000000000E+00 -0.95856520802E+03  0.95856520802E+03  0.00000000000E+00 0. -1.
         24    2    1    2    0    0 -0.27432474894E+01 -0.52082140600E+03 -0.37181564638E+03  0.64477026240E+03  0.78862881174E+02 0.  0.
        254    2    1    2    0    0  0.27432474894E+01  0.52082140600E+03  0.15251657761E+03  0.10530610849E+04  0.90244882386E+03 0.  0.
         23    2    4    4    0    0  0.34249447285E+03  0.51499650260E+03  0.27220080819E+03  0.68215806609E+03  0.93394247910E+02 0.  0.
         23    2    4    4    0    0 -0.33975122536E+03  0.58249034028E+01 -0.11968423058E+03  0.37090301879E+03  0.88203796205E+02 0.  0.
          4    1    3    3  502    0  0.11876731788E+02 -0.50310390567E+03 -0.36128371294E+03  0.61950021622E+03  0.00000000000E+00 0. -1.
         -3    1    3    3    0  502 -0.14619979277E+02 -0.17717500332E+02 -0.10531933437E+02  0.25270046182E+02  0.00000000000E+00 0.  1.
         13    1    5    5    0    0  0.25752327376E+03  0.31158997734E+03  0.19272704933E+03  0.44782838907E+03  0.00000000000E+00 0.  1.
        -13    1    5    5    0    0  0.84971199083E+02  0.20340652525E+03  0.79473758860E+02  0.23432967703E+03  0.00000000000E+00 0. -1.
          1    1    6    6  503    0 -0.56875447966E+02 -0.13338640211E+02  0.97582417637E+01  0.59228027034E+02  0.00000000000E+00 0. -1.
         -1    1    6    6    0  503 -0.28287577739E+03  0.19163543614E+02 -0.12944247234E+03  0.31167499175E+03  0.00000000000E+00 0.  1.
<mgrwt>
<rscale>  0 0.16836090E+04</rscale>
<asrwt>0</asrwt>
<pdfrwt beam="1">  1        2 0.14747157E+00 0.16836090E+04</pdfrwt>
<pdfrwt beam="2">  1       -1 0.11373325E+00 0.16836090E+04</pdfrwt>
<totfact> 0.20541232E+01</totfact>
</mgrwt>
</event>
<event>
12    7  0.1740517E-007  0.1063370E+04  0.7818608E-02  0.9241648E-01
          2   -1    0    0  501    0  0.00000000000E+00  0.00000000000E+00  0.98451825973E+03  0.98451825973E+03  0.00000000000E+00 0. -1.
         -1   -1    0    0    0  501 -0.00000000000E+00 -0.00000000000E+00 -0.28713417437E+03  0.28713417437E+03  0.00000000000E+00 0.  1.
         24    2    1    2    0    0  0.13210301412E+02 -0.96507729105E+02  0.20597268897E+03  0.24146922679E+03  0.79964898824E+02 0.  0.
        254    2    1    2    0    0 -0.13210301412E+02  0.96507729105E+02  0.49141139639E+03  0.10301832073E+04  0.90016888763E+03 0.  0.
         23    2    4    4    0    0  0.32957694233E+03  0.16443282878E+03  0.54314678529E+03  0.66228237191E+03  0.89164980096E+02 0.  0.
         23    2    4    4    0    0 -0.34278724375E+03 -0.67925099676E+02 -0.51735388907E+02  0.36790083539E+03  0.10274999061E+03 0.  0.
          2    1    3    3  502    0  0.42511803189E+02 -0.73301915704E+02  0.16814482902E+03  0.18828995667E+03  0.00000000000E+00 0. -1.
         -1    1    3    3    0  502 -0.29301501778E+02 -0.23205813401E+02  0.37827859951E+02  0.53179270120E+02  0.00000000000E+00 0.  1.
         13    1    5    5    0    0  0.23041556200E+03  0.12504778994E+03  0.44927493481E+03  0.52016944165E+03  0.00000000000E+00 0. -1.
        -13    1    5    5    0    0  0.99161380337E+02  0.39385038841E+02  0.93871850482E+02  0.14211293026E+03  0.00000000000E+00 0.  1.
          3    1    6    6  503    0 -0.17314566425E+03 -0.21127812116E+02 -0.75981620886E+02  0.19026038002E+03  0.00000000000E+00 0. -1.
         -3    1    6    6    0  503 -0.16964157950E+03 -0.46797287560E+02  0.24246231979E+02  0.17764045536E+03  0.00000000000E+00 0.  1.
<mgrwt>
<rscale>  0 0.10633698E+04</rscale>
<asrwt>0</asrwt>
<pdfrwt beam="1">  1        2 0.15146435E+00 0.10633698E+04</pdfrwt>
<pdfrwt beam="2">  1       -1 0.44174489E-01 0.10633698E+04</pdfrwt>
<totfact> 0.14818059E+02</totfact>
</mgrwt>
</event>
<event>
12    7  0.1740517E-007  0.1322466E+04  0.7818608E-02  0.9011937E-01
          2   -1    0    0  501    0  0.00000000000E+00  0.00000000000E+00  0.32477410172E+03  0.32477410172E+03  0.00000000000E+00 0. -1.
         -1   -1    0    0    0  501 -0.00000000000E+00 -0.00000000000E+00 -0.13462560481E+04  0.13462560481E+04  0.00000000000E+00 0.  1.
         24    2    1    2    0    0 -0.31253749854E+03 -0.57195389285E+02 -0.10079559553E+03  0.34232487746E+03  0.77945937028E+02 0.  0.
        254    2    1    2    0    0  0.31253749854E+03  0.57195389285E+02 -0.92068635083E+03  0.13287052723E+04  0.90379386123E+03 0.  0.
         23    2    4    4    0    0  0.95981699321E+02 -0.31796531914E+03 -0.44115886345E+02  0.34687584562E+03  0.89789810508E+02 0.  0.
         23    2    4    4    0    0  0.21655579922E+03  0.37516070842E+03 -0.87657046449E+03  0.98182942672E+03  0.89281983863E+02 0.  0.
          2    1    3    3  502    0 -0.24311525145E+03 -0.10596294431E+02 -0.69882606437E+02  0.25318152702E+03  0.00000000000E+00 0. -1.
         -1    1    3    3    0  502 -0.69422247098E+02 -0.46599094855E+02 -0.30912989096E+02  0.89143350443E+02  0.00000000000E+00 0.  1.
         13    1    5    5    0    0  0.99549325937E+02 -0.27711211284E+03 -0.63961460319E+02  0.30131753979E+03  0.00000000000E+00 0. -1.
        -13    1    5    5    0    0 -0.35676266158E+01 -0.40853206299E+02  0.19845573974E+02  0.45558305839E+02  0.00000000000E+00 0.  1.
          2    1    6    6  503    0  0.12238665753E+03  0.28943151809E+03 -0.64806353587E+03  0.72023290964E+03  0.00000000000E+00 0. -1.
         -2    1    6    6    0  503  0.94169141696E+02  0.85729190336E+02 -0.22850692862E+03  0.26159651708E+03  0.00000000000E+00 0.  1.
<mgrwt>
<rscale>  0 0.13224660E+04</rscale>
<asrwt>0</asrwt>
<pdfrwt beam="1">  1        2 0.49965246E-01 0.13224660E+04</pdfrwt>
<pdfrwt beam="2">  1       -1 0.20711632E+00 0.13224660E+04</pdfrwt>
<totfact> 0.15148553E+01</totfact>
</mgrwt>
</event>
<event>
12    7  0.1740517E-007  0.3707512E+04  0.7818608E-02  0.8066299E-01
          2   -1    0    0  501    0  0.00000000000E+00  0.00000000000E+00  0.52050689616E+04  0.52050689616E+04  0.00000000000E+00 0. -1.
         -1   -1    0    0    0  501 -0.00000000000E+00 -0.00000000000E+00 -0.66020482883E+03  0.66020482883E+03  0.00000000000E+00 0.  1.
         24    2    1    2    0    0 -0.10393326188E+04  0.35906917677E+03  0.42793164364E+04  0.44190667601E+04  0.80367289680E+02 0.  0.
        254    2    1    2    0    0  0.10393326188E+04 -0.35906917677E+03  0.26554769636E+03  0.14462070303E+04  0.90103064839E+03 0.  0.
         23    2    4    4    0    0  0.60982391128E+03  0.94711658502E+02  0.47294440148E+03  0.78273022794E+03  0.90192581773E+02 0.  0.
         23    2    4    4    0    0  0.42950870750E+03 -0.45378083527E+03 -0.20739670512E+03  0.66347680238E+03  0.82421464036E+02 0.  0.
          4    1    3    3  502    0 -0.52713086817E+03  0.15047136798E+03  0.22377974472E+04  0.23039631072E+04  0.00000000000E+00 0. -1.
         -3    1    3    3    0  502 -0.51220175061E+03  0.20859780879E+03  0.20415189892E+04  0.21151036529E+04  0.00000000000E+00 0.  1.
         13    1    5    5    0    0  0.11800666539E+03  0.14635167466E+02  0.13880933695E+03  0.18277798890E+03  0.00000000000E+00 0.  1.
        -13    1    5    5    0    0  0.49181724589E+03  0.80076491036E+02  0.33413506453E+03  0.59995223903E+03  0.00000000000E+00 0. -1.
          4    1    6    6  503    0  0.25331796173E+03 -0.29334034575E+03 -0.90274622019E+02  0.39795484111E+03  0.00000000000E+00 0. -1.
         -4    1    6    6    0  503  0.17619074577E+03 -0.16044048952E+03 -0.11712208310E+03  0.26552196128E+03  0.00000000000E+00 0.  1.
<mgrwt>
<rscale>  0 0.37075122E+04</rscale>
<asrwt>0</asrwt>
<pdfrwt beam="1">  1        2 0.80077981E+00 0.37075122E+04</pdfrwt>
<pdfrwt beam="2">  1       -1 0.10156998E+00 0.37075122E+04</pdfrwt>
<totfact> 0.15106568E-02</totfact>
</mgrwt>
</event>
<event>
12    7  0.1740517E-007  0.2764881E+04  0.7818608E-02  0.8314255E-01
          2   -1    0    0  501    0  0.00000000000E+00  0.00000000000E+00  0.20420693927E+04  0.20420693927E+04  0.00000000000E+00 0. -1.
         -1   -1    0    0    0  501 -0.00000000000E+00 -0.00000000000E+00 -0.93588452360E+03  0.93588452360E+03  0.00000000000E+00 0.  1.
         24    2    1    2    0    0 -0.39694435770E+02  0.85536149655E+03 -0.46100646855E+03  0.97616390726E+03  0.84558097016E+02 0.  0.
        254    2    1    2    0    0  0.39694435770E+02 -0.85536149655E+03  0.15671913376E+04  0.20017900090E+04  0.90435369930E+03 0.  0.
         23    2    4    4    0    0  0.17030550860E+03 -0.53149840736E+02  0.96688966363E+03  0.98723731903E+03  0.89067562111E+02 0.  0.
         23    2    4    4    0    0 -0.13061107283E+03 -0.80221165582E+03  0.60030167399E+03  0.10145526900E+04  0.91390742829E+02 0.  0.
          4    1    3    3  502    0 -0.18673169508E+01  0.63776368522E+03 -0.31420066745E+03  0.71096277292E+03  0.00000000000E+00 0. -1.
         -3    1    3    3    0  502 -0.37827118819E+02  0.21759781133E+03 -0.14680580110E+03  0.26520113433E+03  0.00000000000E+00 0.  1.
         13    1    5    5    0    0  0.70052714620E+02 -0.64674086250E+02  0.38281072601E+03  0.39450497108E+03  0.00000000000E+00 0. -1.
        -13    1    5    5    0    0  0.10025279398E+03  0.11524245514E+02  0.58407893761E+03  0.59273234794E+03  0.00000000000E+00 0.  1.
          2    1    6    6  503    0 -0.24151265300E+02 -0.86308825665E+02  0.35160629015E+02  0.96274435007E+02  0.00000000000E+00 0. -1.
         -2    1    6    6    0  503 -0.10645980753E+03 -0.71590283015E+03  0.56514104498E+03  0.91827825498E+03  0.00000000000E+00 0.  1.
<mgrwt>
<rscale>  0 0.27648806E+04</rscale>
<asrwt>0</asrwt>
<pdfrwt beam="1">  1        2 0.31416452E+00 0.27648806E+04</pdfrwt>
<pdfrwt beam="2">  1       -1 0.14398223E+00 0.27648806E+04</pdfrwt>
<totfact> 0.24462735E+00</totfact>
</mgrwt>
</event>
<event>
12    7  0.1740517E-007  0.2426900E+04  0.7818608E-02  0.8429501E-01
          2   -1    0    0  501    0  0.00000000000E+00  0.00000000000E+00  0.15627625310E+04  0.15627625310E+04  0.00000000000E+00 0. -1.
         -1   -1    0    0    0  501 -0.00000000000E+00 -0.00000000000E+00 -0.94221650928E+03  0.94221650928E+03  0.00000000000E+00 0.  1.
         24    2    1    2    0    0  0.62913020750E+02 -0.97575322571E+03  0.62644807860E+03  0.11640178674E+04  0.80299407703E+02 0.  0.
        254    2    1    2    0    0 -0.62913020750E+02  0.97575322571E+03 -0.59020568658E+01  0.13409611729E+04  0.91765441598E+03 0.  0.
         23    2    4    4    0    0  0.25556033299E+03  0.73039126322E+03 -0.29900387479E+03  0.83461593392E+03  0.91640377749E+02 0.  0.
         23    2    4    4    0    0 -0.31847335374E+03  0.24536196250E+03  0.29310181792E+03  0.50634523894E+03  0.94069419287E+02 0.  0.
          2    1    3    3  502    0  0.59560936540E+01 -0.30013901635E+03  0.23395085299E+03  0.38059414841E+03  0.00000000000E+00 0. -1.
         -1    1    3    3    0  502  0.56956927096E+02 -0.67561420936E+03  0.39249722561E+03  0.78342371904E+03  0.00000000000E+00 0.  1.
         13    1    5    5    0    0  0.12800930700E+03  0.44904331702E+03 -0.21767574592E+03  0.51517862301E+03  0.00000000000E+00 0.  1.
        -13    1    5    5    0    0  0.12755102598E+03  0.28134794619E+03 -0.81328128867E+02  0.31943731091E+03  0.00000000000E+00 0. -1.
          2    1    6    6  503    0 -0.16981686948E+03  0.11381006669E+03  0.93348421616E+02  0.22473190307E+03  0.00000000000E+00 0. -1.
         -2    1    6    6    0  503 -0.14865648426E+03  0.13155189581E+03  0.19975339630E+03  0.28161333586E+03  0.00000000000E+00 0.  1.
<mgrwt>
<rscale>  0 0.24268998E+04</rscale>
<asrwt>0</asrwt>
<pdfrwt beam="1">  1        2 0.24042500E+00 0.24268998E+04</pdfrwt>
<pdfrwt beam="2">  1       -1 0.14495639E+00 0.24268998E+04</pdfrwt>
<totfact> 0.45724447E+00</totfact>
</mgrwt>
</event>
<event>
12    7  0.1740517E-007  0.1894729E+04  0.7818608E-02  0.8657485E-01
          2   -1    0    0  501    0  0.00000000000E+00  0.00000000000E+00  0.73589205848E+03  0.73589205848E+03  0.00000000000E+00 0. -1.
         -1   -1    0    0    0  501 -0.00000000000E+00 -0.00000000000E+00 -0.12196071625E+04  0.12196071625E+04  0.00000000000E+00 0.  1.
         24    2    1    2    0    0  0.44927001894E+02  0.24769877427E+03  0.52293645706E+03  0.58579154058E+03  0.79473722826E+02 0.  0.
        254    2    1    2    0    0 -0.44927001894E+02 -0.24769877427E+03 -0.10066515611E+04  0.13697076804E+04  0.89407977611E+03 0.  0.
         23    2    4    4    0    0  0.26792341702E+02  0.22483528014E+03  0.75236432095E+01  0.24480993364E+03  0.92771577716E+02 0.  0.
         23    2    4    4    0    0 -0.71719343596E+02 -0.47253405441E+03 -0.10141752043E+04  0.11248977467E+04  0.91714223832E+02 0.  0.
          4    1    3    3  502    0  0.92533758848E+01  0.20391120078E+03  0.36705912728E+03  0.41999738772E+03  0.00000000000E+00 0. -1.
         -3    1    3    3    0  502  0.35673626009E+02  0.43787573489E+02  0.15587732978E+03  0.16579415286E+03  0.00000000000E+00 0.  1.
         13    1    5    5    0    0 -0.22640158874E+02  0.11172622880E+03  0.33190512290E+02  0.11873052304E+03  0.00000000000E+00 0.  1.
        -13    1    5    5    0    0  0.49432500576E+02  0.11310905134E+03 -0.25666869080E+02  0.12607941059E+03  0.00000000000E+00 0. -1.
          3    1    6    6  503    0 -0.30559944134E+02 -0.94023993039E+02 -0.29545172187E+03  0.31155439558E+03  0.00000000000E+00 0. -1.
         -3    1    6    6    0  503 -0.41159399462E+02 -0.37851006137E+03 -0.71872348240E+03  0.81334335116E+03  0.00000000000E+00 0.  1.
<mgrwt>
<rscale>  0 0.18947287E+04</rscale>
<asrwt>0</asrwt>
<pdfrwt beam="1">  1        2 0.11321416E+00 0.18947287E+04</pdfrwt>
<pdfrwt beam="2">  1       -1 0.18763187E+00 0.18947287E+04</pdfrwt>
<totfact> 0.75477211E+00</totfact>
</mgrwt>
</event>
<event>
12    7  0.1740517E-007  0.3476122E+04  0.7818608E-02  0.8119472E-01
         -1   -1    0    0    0  501 -0.00000000000E+00  0.00000000000E+00  0.14657640815E+04  0.14657640815E+04  0.00000000000E+00 0.  1.
          2   -1    0    0  501    0  0.00000000000E+00 -0.00000000000E+00 -0.20609424670E+04  0.20609424670E+04  0.00000000000E+00 0. -1.
         24    2    1    2    0    0 -0.13275466498E+04  0.92181536675E+03 -0.19565117667E+03  0.16299608986E+04  0.79808962685E+02 0.  0.
        254    2    1    2    0    0  0.13275466498E+04 -0.92181536675E+03 -0.39952720877E+03  0.18967456498E+04  0.90878952012E+03 0.  0.
         23    2    4    4    0    0  0.10832540518E+04 -0.86611828808E+03  0.31694354918E+02  0.13905895595E+04  0.95574899066E+02 0.  0.
         23    2    4    4    0    0  0.24429259801E+03 -0.55697078667E+02 -0.43122156369E+03  0.50615609030E+03  0.86376575162E+02 0.  0.
          2    1    3    3  502    0 -0.74303092389E+03  0.50520940248E+03 -0.14768275110E+03  0.91057217681E+03  0.00000000000E+00 0. -1.
         -1    1    3    3    0  502 -0.58451572587E+03  0.41660596427E+03 -0.47968425573E+02  0.71938872184E+03  0.00000000000E+00 0.  1.
         13    1    5    5    0    0  0.11516618717E+03 -0.86794586383E+02  0.32351409682E+02  0.14779433210E+03  0.00000000000E+00 0.  1.
        -13    1    5    5    0    0  0.96808786458E+03 -0.77932370170E+03 -0.65705476458E+00  0.12427952274E+04  0.00000000000E+00 0. -1.
          2    1    6    6  503    0  0.41812540291E+02 -0.29347431081E+02 -0.15119056233E+03  0.15958742549E+03  0.00000000000E+00 0. -1.
         -2    1    6    6    0  503  0.20248005772E+03 -0.26349647585E+02 -0.28003100136E+03  0.34656866480E+03  0.00000000000E+00 0.  1.
<mgrwt>
<rscale>  0 0.34761217E+04</rscale>
<asrwt>0</asrwt>
<pdfrwt beam="1">  1        2 0.31706807E+00 0.34761217E+04</pdfrwt>
<pdfrwt beam="2">  1       -1 0.22550217E+00 0.34761217E+04</pdfrwt>
<totfact> 0.58503686E-01</totfact>
</mgrwt>
</event>
<event>
12    7  0.1740517E-007  0.1787822E+04  0.7818608E-02  0.8712803E-01
         -1   -1    0    0    0  501 -0.00000000000E+00  0.00000000000E+00  0.24834578525E+03  0.24834578525E+03  0.00000000000E+00 0.  1.
          2   -1    0    0  501    0  0.00000000000E+00 -0.00000000000E+00 -0.32175977454E+04  0.32175977454E+04  0.00000000000E+00 0. -1.
         24    2    1    2    0    0  0.17562488920E+03  0.46879020571E+03 -0.26146847434E+03  0.57030087971E+03  0.79176837836E+02 0.  0.
        254    2    1    2    0    0 -0.17562488920E+03 -0.46879020571E+03 -0.27077834858E+04  0.28956426509E+04  0.89557054284E+03 0.  0.
         23    2    4    4    0    0 -0.42268952745E+03 -0.88459780188E+01 -0.73378723950E+03  0.85172931592E+03  0.90853876078E+02 0.  0.
         23    2    4    4    0    0  0.24706463825E+03 -0.45994422769E+03 -0.19739962463E+04  0.20439133350E+04  0.91273832793E+02 0.  0.
          4    1    3    3  502    0 -0.37648250334E+01  0.13784427596E+01  0.20795562461E+01  0.45164771841E+01  0.00000000000E+00 0. -1.
         -3    1    3    3    0  502  0.17938971424E+03  0.46741176295E+03 -0.26354803059E+03  0.56578440253E+03  0.00000000000E+00 0.  1.
         13    1    5    5    0    0 -0.13214718377E+03  0.64453812827E+01 -0.31637659612E+03  0.34292648147E+03  0.00000000000E+00 0.  1.
        -13    1    5    5    0    0 -0.29054234367E+03 -0.15291359302E+02 -0.41741064338E+03  0.50880283445E+03  0.00000000000E+00 0. -1.
          1    1    6    6  503    0  0.24977858007E+03 -0.43223188330E+03 -0.18105449929E+04  0.18781072683E+04  0.00000000000E+00 0. -1.
         -1    1    6    6    0  503 -0.27139418232E+01 -0.27712344392E+02 -0.16345125340E+03  0.16580606669E+03  0.00000000000E+00 0.  1.
<mgrwt>
<rscale>  0 0.17878220E+04</rscale>
<asrwt>0</asrwt>
<pdfrwt beam="1">  1        2 0.49501501E+00 0.17878220E+04</pdfrwt>
<pdfrwt beam="2">  1       -1 0.38207046E-01 0.17878220E+04</pdfrwt>
<totfact> 0.90493228E+00</totfact>
</mgrwt>
</event>
<event>
12    7  0.1740517E-007  0.1258671E+04  0.7818608E-02  0.9062997E-01
         -1   -1    0    0    0  501 -0.00000000000E+00  0.00000000000E+00  0.21798287378E+03  0.21798287378E+03  0.00000000000E+00 0.  1.
          2   -1    0    0  501    0  0.00000000000E+00 -0.00000000000E+00 -0.18169467217E+04  0.18169467217E+04  0.00000000000E+00 0. -1.
         24    2    1    2    0    0  0.42272237674E+02  0.19985348071E+03 -0.42036506120E+02  0.22334178036E+03  0.79913247835E+02 0.  0.
        254    2    1    2    0    0 -0.42272237674E+02 -0.19985348071E+03 -0.15569273418E+04  0.18115878151E+04  0.90338214970E+03 0.  0.
         23    2    4    4    0    0  0.25048053407E+03  0.82716841952E+02 -0.99749973633E+02  0.29592568496E+03  0.89662589135E+02 0.  0.
         23    2    4    4    0    0 -0.29275277174E+03 -0.28257032266E+03 -0.14571773682E+04  0.15156621302E+04  0.91190119426E+02 0.  0.
          2    1    3    3  502    0  0.53707828059E+02  0.17510257408E+03 -0.57536529850E+02  0.19197889079E+03  0.00000000000E+00 0. -1.
         -1    1    3    3    0  502 -0.11435590385E+02  0.24750906633E+02  0.15500023729E+02  0.31362889571E+02  0.00000000000E+00 0.  1.
         13    1    5    5    0    0  0.25563035617E+03  0.76887955887E+02 -0.10466069623E+03  0.28672721895E+03  0.00000000000E+00 0. -1.
        -13    1    5    5    0    0 -0.51498221008E+01  0.58288860651E+01  0.49107225953E+01  0.91984660047E+01  0.00000000000E+00 0.  1.
          3    1    6    6  503    0 -0.25860532467E+03 -0.25672806714E+03 -0.13810614297E+04  0.14283265337E+04  0.00000000000E+00 0. -1.
         -3    1    6    6    0  503 -0.34147447066E+02 -0.25842255521E+02 -0.76115938498E+02  0.87335596437E+02  0.00000000000E+00 0.  1.
<mgrwt>
<rscale>  0 0.12586712E+04</rscale>
<asrwt>0</asrwt>
<pdfrwt beam="1">  1        2 0.27953028E+00 0.12586712E+04</pdfrwt>
<pdfrwt beam="2">  1       -1 0.33535825E-01 0.12586712E+04</pdfrwt>
<totfact> 0.79218934E+01</totfact>
</mgrwt>
</event>
<event>
12    7  0.1740517E-007  0.1005858E+04  0.7818608E-02  0.9302143E-01
         -1   -1    0    0    0  501 -0.00000000000E+00  0.00000000000E+00  0.49275960090E+03  0.49275960090E+03  0.00000000000E+00 0.  1.
          2   -1    0    0  501    0  0.00000000000E+00 -0.00000000000E+00 -0.51330868113E+03  0.51330868113E+03  0.00000000000E+00 0. -1.
         24    2    1    2    0    0 -0.11190858428E+02 -0.38744649218E+02  0.49435129816E+02  0.10463335367E+03  0.82933247166E+02 0.  0.
        254    2    1    2    0    0  0.11190858428E+02  0.38744649218E+02 -0.69984210042E+02  0.90143492836E+03  0.89780886454E+03 0.  0.
         23    2    4    4    0    0  0.95119571113E+01  0.30836885372E+03  0.29607269125E+03  0.43727358971E+03  0.91473091571E+02 0.  0.
         23    2    4    4    0    0  0.16789013168E+01 -0.26962420451E+03 -0.36605690129E+03  0.46416133864E+03  0.93531080090E+02 0.  0.
          4    1    3    3  502    0  0.71918800306E+01  0.22148288483E+02 -0.12224416383E+01  0.23318751781E+02  0.00000000000E+00 0. -1.
         -3    1    3    3    0  502 -0.18382738459E+02 -0.60892937701E+02  0.50657571454E+02  0.81314601891E+02  0.00000000000E+00 0.  1.
         13    1    5    5    0    0 -0.17417555702E+02  0.23140771277E+02  0.60165174357E+01  0.29581498001E+02  0.00000000000E+00 0. -1.
        -13    1    5    5    0    0  0.26929512814E+02  0.28522808245E+03  0.29005617382E+03  0.40769209171E+03  0.00000000000E+00 0.  1.
          3    1    6    6  503    0  0.90797694113E+01 -0.24314582795E+03 -0.36228737420E+03  0.43641090427E+03  0.00000000000E+00 0.  1.
         -3    1    6    6    0  503 -0.74008680945E+01 -0.26478376553E+02 -0.37695270962E+01  0.27750434374E+02  0.00000000000E+00 0. -1.
<mgrwt>
<rscale>  0 0.10058584E+04</rscale>
<asrwt>0</asrwt>
<pdfrwt beam="1">  1        2 0.78970566E-01 0.10058584E+04</pdfrwt>
<pdfrwt beam="2">  1       -1 0.75809170E-01 0.10058584E+04</pdfrwt>
<totfact> 0.11920403E+02</totfact>
</mgrwt>
</event>
<event>
12    7  0.1740517E-007  0.1475198E+04  0.7818608E-02  0.8901116E-01
         -1   -1    0    0    0  501 -0.00000000000E+00  0.00000000000E+00  0.47976825307E+03  0.47976825307E+03  0.00000000000E+00 0.  1.
          2   -1    0    0  501    0  0.00000000000E+00 -0.00000000000E+00 -0.11339895476E+04  0.11339895476E+04  0.00000000000E+00 0. -1.
         24    2    1    2    0    0 -0.42467077203E+03  0.15232299811E+03 -0.32764812494E+03  0.56332615247E+03  0.80221567569E+02 0.  0.
        254    2    1    2    0    0  0.42467077203E+03 -0.15232299811E+03 -0.32657316963E+03  0.10504316482E+04  0.89062284505E+03 0.  0.
         23    2    4    4    0    0 -0.88985608451E+02  0.23347391190E+03  0.88243157580E+02  0.28052379946E+03  0.92077365051E+02 0.  0.
         23    2    4    4    0    0  0.51365638048E+03 -0.38579691000E+03 -0.41481632721E+03  0.76990784878E+03  0.89461596905E+02 0.  0.
          2    1    3    3  502    0 -0.41278795035E+03  0.15229958077E+03 -0.29805799554E+03  0.53143919968E+03  0.00000000000E+00 0. -1.
         -1    1    3    3    0  502 -0.11882821683E+02  0.23417334717E-01 -0.29590129405E+02  0.31886952782E+02  0.00000000000E+00 0.  1.
         13    1    5    5    0    0  0.17402056020E+02  0.61190680762E+02  0.16704323815E+02  0.65773591965E+02  0.00000000000E+00 0. -1.
        -13    1    5    5    0    0 -0.10638766447E+03  0.17228323113E+03  0.71538833766E+02  0.21475020749E+03  0.00000000000E+00 0.  1.
          3    1    6    6  503    0  0.48300427898E+03 -0.33149646209E+03 -0.36641412226E+03  0.69097203046E+03  0.00000000000E+00 0. -1.
         -3    1    6    6    0  503  0.30652101506E+02 -0.54300447916E+02 -0.48402204943E+02  0.78935818321E+02  0.00000000000E+00 0.  1.
<mgrwt>
<rscale>  0 0.14751979E+04</rscale>
<asrwt>0</asrwt>
<pdfrwt beam="1">  1        2 0.17445993E+00 0.14751979E+04</pdfrwt>
<pdfrwt beam="2">  1       -1 0.73810501E-01 0.14751979E+04</pdfrwt>
<totfact> 0.42379581E+01</totfact>
</mgrwt>
</event>
<event>
12    7  0.1740517E-007  0.2971467E+04  0.7818608E-02  0.8251926E-01
          2   -1    0    0  501    0  0.00000000000E+00  0.00000000000E+00  0.14203650917E+04  0.14203650917E+04  0.00000000000E+00 0. -1.
         -1   -1    0    0    0  501 -0.00000000000E+00 -0.00000000000E+00 -0.15541102732E+04  0.15541102732E+04  0.00000000000E+00 0.  1.
         24    2    1    2    0    0  0.11069695334E+04 -0.29989664619E+03  0.63393922569E+03  0.13129329802E+04  0.81206664970E+02 0.  0.
        254    2    1    2    0    0 -0.11069695334E+04  0.29989664619E+03 -0.76768440720E+03  0.16615423847E+04  0.92523737547E+03 0.  0.
         23    2    4    4    0    0  0.13820844141E+03  0.10538930490E+02  0.79746520175E+01  0.16350666163E+03  0.86360818603E+02 0.  0.
         23    2    4    4    0    0 -0.12451779748E+04  0.28935771570E+03 -0.77565905922E+03  0.14980357231E+04  0.90928406071E+02 0.  0.
          2    1    3    3  502    0  0.10723593478E+04 -0.30054932111E+03  0.60270756772E+03  0.12663099452E+04  0.00000000000E+00 0. -1.
         -1    1    3    3    0  502  0.34610185573E+02  0.65267491553E+00  0.31231657966E+02  0.46623034964E+02  0.00000000000E+00 0.  1.
         13    1    5    5    0    0  0.11969877409E+03 -0.14345733417E+02  0.31473273445E+02  0.12459600125E+03  0.00000000000E+00 0. -1.
        -13    1    5    5    0    0  0.18509667313E+02  0.24884663907E+02 -0.23498621427E+02  0.38910660375E+02  0.00000000000E+00 0.  1.
          1    1    6    6  503    0 -0.87895798832E+03  0.24631641110E+03 -0.54809430004E+03  0.10647282664E+04  0.00000000000E+00 0. -1.
         -1    1    6    6    0  503 -0.36621998643E+03  0.43041304603E+02 -0.22756475918E+03  0.43330745665E+03  0.00000000000E+00 0.  1.
<mgrwt>
<rscale>  0 0.29714670E+04</rscale>
<asrwt>0</asrwt>
<pdfrwt beam="1">  1        2 0.21851771E+00 0.29714670E+04</pdfrwt>
<pdfrwt beam="2">  1       -1 0.23909389E+00 0.29714670E+04</pdfrwt>
<totfact> 0.11314445E+00</totfact>
</mgrwt>
</event>
<event>
12    7  0.1740517E-007  0.1091812E+04  0.7818608E-02  0.9213209E-01
          2   -1    0    0  501    0  0.00000000000E+00  0.00000000000E+00  0.84123412448E+03  0.84123412448E+03  0.00000000000E+00 0. -1.
         -1   -1    0    0    0  501 -0.00000000000E+00 -0.00000000000E+00 -0.35425746116E+03  0.35425746116E+03  0.00000000000E+00 0.  1.
         24    2    1    2    0    0  0.35870531087E+02  0.80814008548E+02 -0.63110101205E+02  0.13414843065E+03  0.78710339807E+02 0.  0.
        254    2    1    2    0    0 -0.35870531087E+02 -0.80814008548E+02  0.55008676452E+03  0.10613431550E+04  0.90334724507E+03 0.  0.
         23    2    4    4    0    0 -0.21919926491E+03  0.67045745702E+02 -0.16915695752E+03  0.29870006597E+03  0.89800909670E+02 0.  0.
         23    2    4    4    0    0  0.18332873382E+03 -0.14785975425E+03  0.71924372204E+03  0.76264308903E+03  0.94026687592E+02 0.  0.
          4    1    3    3  502    0 -0.40372376974E+01  0.34138958158E+02  0.12645304058E+02  0.36628833820E+02  0.00000000000E+00 0. -1.
         -3    1    3    3    0  502  0.39907768785E+02  0.46675050391E+02 -0.75755405264E+02  0.97519596826E+02  0.00000000000E+00 0.  1.
         13    1    5    5    0    0 -0.15878315218E+03  0.54083125696E+02 -0.16725718386E+03  0.23687979959E+03  0.00000000000E+00 0.  1.
        -13    1    5    5    0    0 -0.60416112731E+02  0.12962620005E+02 -0.18997736594E+01  0.61820266377E+02  0.00000000000E+00 0. -1.
          3    1    6    6  503    0  0.25129149895E+02  0.10227208254E+02  0.11989608833E+03  0.12292738490E+03  0.00000000000E+00 0. -1.
         -3    1    6    6    0  503  0.15819958393E+03 -0.15808696250E+03  0.59934763371E+03  0.63971570413E+03  0.00000000000E+00 0.  1.
<mgrwt>
<rscale>  0 0.10918122E+04</rscale>
<asrwt>0</asrwt>
<pdfrwt beam="1">  1        2 0.12942063E+00 0.10918122E+04</pdfrwt>
<pdfrwt beam="2">  1       -1 0.54501148E-01 0.10918122E+04</pdfrwt>
<totfact> 0.12408628E+02</totfact>
</mgrwt>
</event>
<event>
12    7  0.1740517E-007  0.1536624E+04  0.7818608E-02  0.8860457E-01
          2   -1    0    0  501    0  0.00000000000E+00  0.00000000000E+00  0.13980932480E+04  0.13980932480E+04  0.00000000000E+00 0. -1.
         -1   -1    0    0    0  501 -0.00000000000E+00 -0.00000000000E+00 -0.42222013962E+03  0.42222013962E+03  0.00000000000E+00 0.  1.
         24    2    1    2    0    0  0.45606450192E+03  0.13866389828E+03  0.15832433419E+03  0.50863480522E+03  0.80126547984E+02 0.  0.
        254    2    1    2    0    0 -0.45606450192E+03 -0.13866389828E+03  0.81754877415E+03  0.13116785824E+04  0.90823576163E+03 0.  0.
         23    2    4    4    0    0 -0.34350075372E+03  0.13957466373E+03 -0.54439064037E+02  0.38484932824E+03  0.87587323218E+02 0.  0.
         23    2    4    4    0    0 -0.11256374820E+03 -0.27823856201E+03  0.87198783819E+03  0.92682925412E+03  0.92533137559E+02 0.  0.
          2    1    3    3  502    0  0.28643446670E+03  0.99721911026E+02  0.13864208412E+03  0.33348281926E+03  0.00000000000E+00 0. -1.
         -1    1    3    3    0  502  0.16963003522E+03  0.38941987253E+02  0.19682250071E+02  0.17515198596E+03  0.00000000000E+00 0.  1.
         13    1    5    5    0    0  0.32003039413E+01  0.38129013205E+01 -0.82847229345E+01  0.96652364636E+01  0.00000000000E+00 0. -1.
        -13    1    5    5    0    0 -0.34670105766E+03  0.13576176241E+03 -0.46154341103E+02  0.37518409177E+03  0.00000000000E+00 0.  1.
          1    1    6    6  503    0  0.15267204480E+02 -0.15624283876E+02  0.68774615890E+02  0.72160609546E+02  0.00000000000E+00 0. -1.
         -1    1    6    6    0  503 -0.12783095268E+03 -0.26261427814E+03  0.80321322230E+03  0.85466864458E+03  0.00000000000E+00 0.  1.
<mgrwt>
<rscale>  0 0.15366237E+04</rscale>
<asrwt>0</asrwt>
<pdfrwt beam="1">  1        2 0.21509127E+00 0.15366237E+04</pdfrwt>
<pdfrwt beam="2">  1       -1 0.64956945E-01 0.15366237E+04</pdfrwt>
<totfact> 0.38280575E+01</totfact>
</mgrwt>
</event>
<event>
12    7  0.1740517E-007  0.1226200E+04  0.7818608E-02  0.9090228E-01
         -1   -1    0    0    0  501 -0.00000000000E+00  0.00000000000E+00  0.43838420156E+03  0.43838420156E+03  0.00000000000E+00 0.  1.
          2   -1    0    0  501    0  0.00000000000E+00 -0.00000000000E+00 -0.85744815407E+03  0.85744815407E+03  0.00000000000E+00 0. -1.
         24    2    1    2    0    0  0.84658603905E+02 -0.79645127460E+02  0.17151548886E+03  0.22065715128E+03  0.75905137828E+02 0.  0.
        254    2    1    2    0    0 -0.84658603905E+02  0.79645127460E+02 -0.59057944138E+03  0.10751752043E+04  0.89090247385E+03 0.  0.
         23    2    4    4    0    0 -0.22321321096E+03 -0.11734436870E+03  0.13855135009E+03  0.30143424210E+03  0.89845908586E+02 0.  0.
         23    2    4    4    0    0  0.13855460706E+03  0.19698949616E+03 -0.72913079146E+03  0.77374096224E+03  0.95084829767E+02 0.  0.
          2    1    3    3  502    0  0.87138429438E+02 -0.76545017959E+02  0.11274226846E+03  0.16175000697E+03  0.00000000000E+00 0. -1.
         -1    1    3    3    0  502 -0.24798255326E+01 -0.31001095011E+01  0.58773220408E+02  0.58907144310E+02  0.00000000000E+00 0.  1.
         13    1    5    5    0    0 -0.18472957632E+03 -0.12043236146E+03  0.87074723667E+02  0.23708854371E+03  0.00000000000E+00 0. -1.
        -13    1    5    5    0    0 -0.38483634637E+02  0.30879927686E+01  0.51476626420E+02  0.64345698394E+02  0.00000000000E+00 0.  1.
          3    1    6    6  503    0  0.66503256856E+02  0.16901089778E+03 -0.50832168081E+03  0.53979468126E+03  0.00000000000E+00 0. -1.
         -3    1    6    6    0  503  0.72051350199E+02  0.27978598371E+02 -0.22080911066E+03  0.23394628098E+03  0.00000000000E+00 0.  1.
<mgrwt>
<rscale>  0 0.12262002E+04</rscale>
<asrwt>0</asrwt>
<pdfrwt beam="1">  1        2 0.13191510E+00 0.12262002E+04</pdfrwt>
<pdfrwt beam="2">  1       -1 0.67443724E-01 0.12262002E+04</pdfrwt>
<totfact> 0.78526059E+01</totfact>
</mgrwt>
</event>
<event>
12    7  0.1740517E-007  0.2118462E+04  0.7818608E-02  0.8553154E-01
         -1   -1    0    0    0  501 -0.00000000000E+00  0.00000000000E+00  0.65754826682E+03  0.65754826682E+03  0.00000000000E+00 0.  1.
          2   -1    0    0  501    0  0.00000000000E+00 -0.00000000000E+00 -0.17062942252E+04  0.17062942252E+04  0.00000000000E+00 0. -1.
         24    2    1    2    0    0  0.47113683784E+03 -0.20877577261E+03  0.36566409813E+03  0.63708109896E+03  0.81270233167E+02 0.  0.
        254    2    1    2    0    0 -0.47113683784E+03  0.20877577261E+03 -0.14144100565E+04  0.17267613931E+04  0.84592662646E+03 0.  0.
         23    2    4    4    0    0  0.16580598160E+02  0.10096432112E+03  0.73034857875E+02  0.15539719108E+03  0.91353632417E+02 0.  0.
         23    2    4    4    0    0 -0.48771743600E+03  0.10781145149E+03 -0.14874449144E+04  0.15713642020E+04  0.84861507386E+02 0.  0.
          2    1    3    3  502    0  0.93330693990E+02 -0.50949148533E+02  0.11672936588E+03  0.15789926864E+03  0.00000000000E+00 0. -1.
         -1    1    3    3    0  502  0.37780614385E+03 -0.15782662408E+03  0.24893473225E+03  0.47918183033E+03  0.00000000000E+00 0.  1.
         13    1    5    5    0    0  0.45874155289E+02  0.69071663107E+02  0.75337836796E+02  0.11203179201E+03  0.00000000000E+00 0. -1.
        -13    1    5    5    0    0 -0.29293557129E+02  0.31892658015E+02 -0.23029789213E+01  0.43365399070E+02  0.00000000000E+00 0.  1.
          4    1    6    6  503    0 -0.30079247352E+03  0.83979479798E+02 -0.10394872740E+04  0.10853858567E+04  0.00000000000E+00 0. -1.
         -4    1    6    6    0  503 -0.18692496247E+03  0.23831971689E+02 -0.44795764045E+03  0.48597834531E+03  0.00000000000E+00 0.  1.
<mgrwt>
<rscale>  0 0.21184625E+04</rscale>
<asrwt>0</asrwt>
<pdfrwt beam="1">  1        2 0.26250680E+00 0.21184625E+04</pdfrwt>
<pdfrwt beam="2">  1       -1 0.10116127E+00 0.21184625E+04</pdfrwt>
<totfact> 0.94614893E+00</totfact>
</mgrwt>
</event>
<event>
12    7  0.1740517E-007  0.2206157E+04  0.7818608E-02  0.8515870E-01
         -1   -1    0    0    0  501 -0.00000000000E+00  0.00000000000E+00  0.78564500275E+03  0.78564500275E+03  0.00000000000E+00 0.  1.
          2   -1    0    0  501    0  0.00000000000E+00 -0.00000000000E+00 -0.15487689440E+04  0.15487689440E+04  0.00000000000E+00 0. -1.
         24    2    1    2    0    0 -0.51651803320E+03 -0.66278937521E+03 -0.69980341293E+03  0.10963827107E+04  0.79054392615E+02 0.  0.
        254    2    1    2    0    0  0.51651803320E+03  0.66278937521E+03 -0.63320528303E+02  0.12380312361E+04  0.90699019710E+03 0.  0.
         23    2    4    4    0    0  0.11341391796E+03 -0.21557558541E+03  0.29564584612E+02  0.26284704383E+03  0.94228201585E+02 0.  0.
         23    2    4    4    0    0  0.40310411523E+03  0.87836496063E+03 -0.92885112915E+02  0.97518419222E+03  0.91316114595E+02 0.  0.
          4    1    3    3  502    0 -0.41843530863E+03 -0.50741503147E+03 -0.51047529436E+03  0.83255218924E+03  0.00000000000E+00 0. -1.
         -3    1    3    3    0  502 -0.98082724572E+02 -0.15537434375E+03 -0.18932811857E+03  0.26383052142E+03  0.00000000000E+00 0.  1.
         13    1    5    5    0    0  0.69681427955E+02 -0.58392267188E+02 -0.18468199792E+02  0.92769783188E+02  0.00000000000E+00 0.  1.
        -13    1    5    5    0    0  0.43732490009E+02 -0.15718331823E+03  0.48032784404E+02  0.17007726065E+03  0.00000000000E+00 0. -1.
          1    1    6    6  503    0  0.34717115581E+03  0.70895795871E+03 -0.10510449378E+03  0.79636433450E+03  0.00000000000E+00 0. -1.
         -1    1    6    6    0  503  0.55932959422E+02  0.16940700191E+03  0.12219380869E+02  0.17881985772E+03  0.00000000000E+00 0.  1.
<mgrwt>
<rscale>  0 0.22061574E+04</rscale>
<asrwt>0</asrwt>
<pdfrwt beam="1">  1        2 0.23827215E+00 0.22061574E+04</pdfrwt>
<pdfrwt beam="2">  1       -1 0.12086846E+00 0.22061574E+04</pdfrwt>
<totfact> 0.75416574E+00</totfact>
</mgrwt>
</event>
<event>
12    7  0.1740517E-007  0.1957411E+04  0.7818608E-02  0.8626795E-01
         -1   -1    0    0    0  501 -0.00000000000E+00  0.00000000000E+00  0.63662294952E+03  0.63662294952E+03  0.00000000000E+00 0.  1.
          2   -1    0    0  501    0  0.00000000000E+00 -0.00000000000E+00 -0.15046030042E+04  0.15046030042E+04  0.00000000000E+00 0. -1.
         24    2    1    2    0    0  0.84451663071E+02  0.32860099075E+03  0.41311619508E+03  0.54053290382E+03  0.80000843523E+02 0.  0.
        254    2    1    2    0    0 -0.84451663071E+02 -0.32860099075E+03 -0.12810962498E+04  0.16006930499E+04  0.89771930152E+03 0.  0.
         23    2    4    4    0    0 -0.96210471894E+02  0.52654908832E+02 -0.11890124230E+04  0.11974958456E+04  0.90646367798E+02 0.  0.
         23    2    4    4    0    0  0.11758808823E+02 -0.38125589958E+03 -0.92083826789E+02  0.40319720426E+03  0.92705036663E+02 0.  0.
          2    1    3    3  502    0  0.27012337705E+02  0.24086352530E+02  0.25502603475E+02  0.44274163465E+02  0.00000000000E+00 0. -1.
         -1    1    3    3    0  502  0.57439325366E+02  0.30451463822E+03  0.38761359160E+03  0.49625874036E+03  0.00000000000E+00 0.  1.
         13    1    5    5    0    0 -0.89601186910E+02  0.72261612135E+02 -0.11047328188E+04  0.11107136058E+04  0.00000000000E+00 0.  1.
        -13    1    5    5    0    0 -0.66092849846E+01 -0.19606703303E+02 -0.84279604233E+02  0.86782239843E+02  0.00000000000E+00 0. -1.
          1    1    6    6  503    0  0.35087932983E+02 -0.99078658777E+02  0.11110352613E+01  0.10511411925E+03  0.00000000000E+00 0. -1.
         -1    1    6    6    0  503 -0.23329124160E+02 -0.28217724080E+03 -0.93194862050E+02  0.29808308502E+03  0.00000000000E+00 0.  1.
<mgrwt>
<rscale>  0 0.19574114E+04</rscale>
<asrwt>0</asrwt>
<pdfrwt beam="1">  1        2 0.23147739E+00 0.19574114E+04</pdfrwt>
<pdfrwt beam="2">  1       -1 0.97941992E-01 0.19574114E+04</pdfrwt>
<totfact> 0.13395272E+01</totfact>
</mgrwt>
</event>
<event>
12    7  0.1740517E-007  0.1909845E+04  0.7818608E-02  0.8649971E-01
         -1   -1    0    0    0  501 -0.00000000000E+00  0.00000000000E+00  0.34251917961E+03  0.34251917961E+03  0.00000000000E+00 0.  1.
          2   -1    0    0  501    0  0.00000000000E+00 -0.00000000000E+00 -0.26622649715E+04  0.26622649715E+04  0.00000000000E+00 0. -1.
         24    2    1    2    0    0  0.26796154932E+03 -0.47530611194E+03 -0.16851055645E+04  0.17730994265E+04  0.81126572283E+02 0.  0.
        254    2    1    2    0    0 -0.26796154932E+03  0.47530611194E+03 -0.63464022743E+03  0.12316847247E+04  0.90363695738E+03 0.  0.
         23    2    4    4    0    0  0.77211792050E+02 -0.20336643582E+03 -0.33155443184E+03  0.40687052723E+03  0.91080824578E+02 0.  0.
         23    2    4    4    0    0 -0.34517334137E+03  0.67867254776E+03 -0.30308579559E+03  0.82481419744E+03  0.93361652346E+02 0.  0.
          2    1    3    3  502    0  0.17354940524E+03 -0.33746159724E+03 -0.10531363303E+04  0.11194176414E+04  0.00000000000E+00 0. -1.
         -1    1    3    3    0  502  0.94412144075E+02 -0.13784451470E+03 -0.63196923415E+03  0.65368178504E+03  0.00000000000E+00 0.  1.
         13    1    5    5    0    0  0.35201182569E+02 -0.11988511371E+02 -0.32734270065E+02  0.49541700575E+02  0.00000000000E+00 0.  1.
        -13    1    5    5    0    0  0.42010609481E+02 -0.19137792445E+03 -0.29882016178E+03  0.35732882666E+03  0.00000000000E+00 0. -1.
          1    1    6    6  503    0 -0.11206575311E+03  0.31934162023E+03 -0.14626443601E+03  0.36868833541E+03  0.00000000000E+00 0. -1.
         -1    1    6    6    0  503 -0.23310758825E+03  0.35933092754E+03 -0.15682135958E+03  0.45612586203E+03  0.00000000000E+00 0.  1.
<mgrwt>
<rscale>  0 0.19098448E+04</rscale>
<asrwt>0</asrwt>
<pdfrwt beam="1">  1        2 0.40957923E+00 0.19098448E+04</pdfrwt>
<pdfrwt beam="2">  1       -1 0.52695259E-01 0.19098448E+04</pdfrwt>
<totfact> 0.10827537E+01</totfact>
</mgrwt>
</event>
<event>
12    7  0.1740517E-007  0.1422260E+04  0.7818608E-02  0.8937862E-01
         -1   -1    0    0    0  501 -0.00000000000E+00  0.00000000000E+00  0.44176369102E+03  0.44176369102E+03  0.00000000000E+00 0.  1.
          2   -1    0    0  501    0  0.00000000000E+00 -0.00000000000E+00 -0.11447421622E+04  0.11447421622E+04  0.00000000000E+00 0. -1.
         24    2    1    2    0    0 -0.98090282730E+02  0.95229708440E+02 -0.65621514513E+03  0.67499726069E+03  0.79451773459E+02 0.  0.
        254    2    1    2    0    0  0.98090282730E+02 -0.95229708440E+02 -0.46763326004E+02  0.91150859249E+03  0.89998372462E+03 0.  0.
         23    2    4    4    0    0 -0.23006105432E+03 -0.50903035022E+02 -0.36349783195E+03  0.44253029945E+03  0.90460955161E+02 0.  0.
         23    2    4    4    0    0  0.32815133705E+03 -0.44326673418E+02  0.31673450594E+03  0.46897829304E+03  0.99858590500E+02 0.  0.
          2    1    3    3  502    0 -0.92838596806E+02  0.10902494379E+03 -0.58534332130E+03  0.60260455293E+03  0.00000000000E+00 0. -1.
         -1    1    3    3    0  502 -0.52516859247E+01 -0.13795235350E+02 -0.70871823826E+02  0.72392707753E+02  0.00000000000E+00 0.  1.
         13    1    5    5    0    0 -0.19982336798E+03 -0.43515883890E+02 -0.35592663880E+03  0.41049577678E+03  0.00000000000E+00 0. -1.
        -13    1    5    5    0    0 -0.30237686344E+02 -0.73871511316E+01 -0.75711931457E+01  0.32034522673E+02  0.00000000000E+00 0.  1.
          3    1    6    6  503    0  0.27234371594E+03 -0.10237147551E+02  0.29102017781E+03  0.39870871911E+03  0.00000000000E+00 0. -1.
         -3    1    6    6    0  503  0.55807621116E+02 -0.34089525867E+02  0.25714328133E+02  0.70269573926E+02  0.00000000000E+00 0.  1.
<mgrwt>
<rscale>  0 0.14222595E+04</rscale>
<asrwt>0</asrwt>
<pdfrwt beam="1">  1        2 0.17611418E+00 0.14222595E+04</pdfrwt>
<pdfrwt beam="2">  1       -1 0.67963646E-01 0.14222595E+04</pdfrwt>
<totfact> 0.49683797E+01</totfact>
</mgrwt>
</event>
<event>
12    7  0.1740517E-007  0.1269750E+04  0.7818608E-02  0.9053904E-01
         -1   -1    0    0    0  501 -0.00000000000E+00  0.00000000000E+00  0.21746202079E+03  0.21746202079E+03  0.00000000000E+00 0.  1.
          2   -1    0    0  501    0  0.00000000000E+00 -0.00000000000E+00 -0.18535011689E+04  0.18535011689E+04  0.00000000000E+00 0. -1.
         24    2    1    2    0    0  0.10733208403E+03  0.13697798839E+03 -0.28729386408E+02  0.19380019421E+03  0.80311842632E+02 0.  0.
        254    2    1    2    0    0 -0.10733208403E+03 -0.13697798839E+03 -0.16073097617E+04  0.18771629955E+04  0.95394606555E+03 0.  0.
         23    2    4    4    0    0 -0.47574779750E+03 -0.12614689668E+03 -0.12850175093E+04  0.13791004971E+04  0.91647016234E+02 0.  0.
         23    2    4    4    0    0  0.36841571347E+03 -0.10831091704E+02 -0.32229225238E+03  0.49806249834E+03  0.91359213142E+02 0.  0.
          4    1    3    3  502    0 -0.33525393066E+01  0.20752586445E+02 -0.25794918518E+02  0.33275925011E+02  0.00000000000E+00 0. -1.
         -3    1    3    3    0  502  0.11068462333E+03  0.11622540194E+03 -0.29344678905E+01  0.16052426920E+03  0.00000000000E+00 0.  1.
         13    1    5    5    0    0 -0.21028978468E+03 -0.37043400809E+02 -0.44364639903E+03  0.49235773017E+03  0.00000000000E+00 0. -1.
        -13    1    5    5    0    0 -0.26545801282E+03 -0.89103495874E+02 -0.84137111027E+03  0.88674276696E+03  0.00000000000E+00 0.  1.
          1    1    6    6  503    0 -0.47414575420E+01 -0.21314304390E+00 -0.11051972895E+02  0.12028007086E+02  0.00000000000E+00 0. -1.
         -1    1    6    6    0  503  0.37315717102E+03 -0.10617948660E+02 -0.31124027949E+03  0.48603449125E+03  0.00000000000E+00 0.  1.
<mgrwt>
<rscale>  0 0.12697498E+04</rscale>
<asrwt>0</asrwt>
<pdfrwt beam="1">  1        2 0.28515402E+00 0.12697498E+04</pdfrwt>
<pdfrwt beam="2">  1       -1 0.33455696E-01 0.12697498E+04</pdfrwt>
<totfact> 0.75877128E+01</totfact>
</mgrwt>
</event>
<event>
12    7  0.1740517E-007  0.1573677E+04  0.7818608E-02  0.8836884E-01
         -1   -1    0    0    0  501 -0.00000000000E+00  0.00000000000E+00  0.37641708234E+03  0.37641708234E+03  0.00000000000E+00 0.  1.
          2   -1    0    0  501    0  0.00000000000E+00 -0.00000000000E+00 -0.16447575684E+04  0.16447575684E+04  0.00000000000E+00 0. -1.
         24    2    1    2    0    0  0.49912019212E+03  0.14857645672E+03 -0.34363615767E+03  0.62899911131E+03  0.79737967774E+02 0.  0.
        254    2    1    2    0    0 -0.49912019212E+03 -0.14857645672E+03 -0.92470432837E+03  0.13921755394E+04  0.90104312212E+03 0.  0.
         23    2    4    4    0    0 -0.47282877782E+03 -0.45524782670E+03 -0.38926500419E+03  0.76838023930E+03  0.89795945404E+02 0.  0.
         23    2    4    4    0    0 -0.26291414296E+02  0.30667136997E+03 -0.53543932418E+03  0.62379530010E+03  0.87674049269E+02 0.  0.
          2    1    3    3  502    0  0.35358332360E+03  0.82886822724E+02 -0.27331835200E+03  0.45452647189E+03  0.00000000000E+00 0. -1.
         -1    1    3    3    0  502  0.14553686852E+03  0.65689634000E+02 -0.70317805663E+02  0.17447263942E+03  0.00000000000E+00 0.  1.
         13    1    5    5    0    0 -0.11061982421E+03 -0.14853121182E+03 -0.79024446708E+02  0.20135324574E+03  0.00000000000E+00 0.  1.
        -13    1    5    5    0    0 -0.36220895361E+03 -0.30671661488E+03 -0.31024055748E+03  0.56702699356E+03  0.00000000000E+00 0. -1.
          3    1    6    6  503    0 -0.10605786384E+01  0.27618389208E+03 -0.42877221326E+03  0.51002380134E+03  0.00000000000E+00 0. -1.
         -3    1    6    6    0  503 -0.25230835657E+02  0.30487477892E+02 -0.10666711092E+03  0.11377149876E+03  0.00000000000E+00 0.  1.
<mgrwt>
<rscale>  0 0.15736770E+04</rscale>
<asrwt>0</asrwt>
<pdfrwt beam="1">  1        2 0.25303963E+00 0.15736770E+04</pdfrwt>
<pdfrwt beam="2">  1       -1 0.57910320E-01 0.15736770E+04</pdfrwt>
<totfact> 0.34810572E+01</totfact>
</mgrwt>
</event>
<event>
12    7  0.1740517E-007  0.2910581E+04  0.7818608E-02  0.8269736E-01
         -1   -1    0    0    0  501 -0.00000000000E+00  0.00000000000E+00  0.90238278409E+03  0.90238278409E+03  0.00000000000E+00 0.  1.
          2   -1    0    0  501    0  0.00000000000E+00 -0.00000000000E+00 -0.23469752176E+04  0.23469752176E+04  0.00000000000E+00 0. -1.
         24    2    1    2    0    0  0.11597705170E+04 -0.56086015951E+03 -0.35265783888E+03  0.13380287274E+04  0.79508197855E+02 0.  0.
        254    2    1    2    0    0 -0.11597705170E+04  0.56086015951E+03 -0.10919345947E+04  0.19113292743E+04  0.89511265503E+03 0.  0.
         23    2    4    4    0    0 -0.12158721376E+04  0.67433250686E+03 -0.10585225537E+04  0.17497024063E+04  0.88989488783E+02 0.  0.
         23    2    4    4    0    0  0.56101620577E+02 -0.11347234735E+03 -0.33412040958E+02  0.16162686803E+03  0.94781403991E+02 0.  0.
          2    1    3    3  502    0  0.10389484614E+04 -0.52002914574E+03 -0.29914255213E+03  0.11997210027E+04  0.00000000000E+00 0. -1.
         -1    1    3    3    0  502  0.12082205559E+03 -0.40831013770E+02 -0.53515286742E+02  0.13830772472E+03  0.00000000000E+00 0.  1.
         13    1    5    5    0    0 -0.55789923689E+03  0.26807288152E+03 -0.43869715453E+03  0.75866318068E+03  0.00000000000E+00 0.  1.
        -13    1    5    5    0    0 -0.65797290066E+03  0.40625962534E+03 -0.61982539919E+03  0.99103922560E+03  0.00000000000E+00 0. -1.
          1    1    6    6  503    0 -0.22502630701E+02 -0.25842198972E+02 -0.27190973405E+02  0.43743990112E+02  0.00000000000E+00 0. -1.
         -1    1    6    6    0  503  0.78604251278E+02 -0.87630148381E+02 -0.62210675529E+01  0.11788287792E+03  0.00000000000E+00 0.  1.
<mgrwt>
<rscale>  0 0.29105807E+04</rscale>
<asrwt>0</asrwt>
<pdfrwt beam="1">  1        2 0.36107311E+00 0.29105807E+04</pdfrwt>
<pdfrwt beam="2">  1       -1 0.13882812E+00 0.29105807E+04</pdfrwt>
<totfact> 0.17904892E+00</totfact>
</mgrwt>
</event>
<event>
12    7  0.1740517E-007  0.1891726E+04  0.7818608E-02  0.8658986E-01
         -1   -1    0    0    0  501 -0.00000000000E+00  0.00000000000E+00  0.62177989125E+03  0.62177989125E+03  0.00000000000E+00 0.  1.
          2   -1    0    0  501    0  0.00000000000E+00 -0.00000000000E+00 -0.14388648572E+04  0.14388648572E+04  0.00000000000E+00 0. -1.
         24    2    1    2    0    0  0.22943775128E+02  0.91054876715E+02 -0.10983619267E+04  0.11050682839E+04  0.77198333010E+02 0.  0.
        254    2    1    2    0    0 -0.22943775128E+02 -0.91054876715E+02  0.28127696076E+03  0.95557646457E+03  0.90840092668E+03 0.  0.
         23    2    4    4    0    0  0.10361289239E+03 -0.36594986165E+03  0.45094177747E+03  0.59671721611E+03  0.89822138789E+02 0.  0.
         23    2    4    4    0    0 -0.12655666751E+03  0.27489498494E+03 -0.16966481672E+03  0.35885924846E+03  0.91705874064E+02 0.  0.
          2    1    3    3  502    0  0.46225221793E+02  0.82601752385E+02 -0.77499656153E+03  0.78075571789E+03  0.00000000000E+00 0. -1.
         -1    1    3    3    0  502 -0.23281446666E+02  0.84531243298E+01 -0.32336536517E+03  0.32431256600E+03  0.00000000000E+00 0.  1.
         13    1    5    5    0    0  0.25836061496E+02 -0.17310620044E+02  0.57047144637E+02  0.64973351085E+02  0.00000000000E+00 0.  1.
        -13    1    5    5    0    0  0.77776830891E+02 -0.34863924161E+03  0.39389463284E+03  0.53174386502E+03  0.00000000000E+00 0. -1.
          3    1    6    6  503    0 -0.16391356840E+02  0.12042750950E+03 -0.35938477027E+02  0.12674003217E+03  0.00000000000E+00 0. -1.
         -3    1    6    6    0  503 -0.11016531067E+03  0.15446747544E+03 -0.13372633969E+03  0.23211921629E+03  0.00000000000E+00 0.  1.
<mgrwt>
<rscale>  0 0.18917264E+04</rscale>
<asrwt>0</asrwt>
<pdfrwt beam="1">  1        2 0.22136382E+00 0.18917264E+04</pdfrwt>
<pdfrwt beam="2">  1       -1 0.95658446E-01 0.18917264E+04</pdfrwt>
<totfact> 0.15480982E+01</totfact>
</mgrwt>
</event>
<event>
12    7  0.1740517E-007  0.1690780E+04  0.7818608E-02  0.8766640E-01
          4   -1    0    0  501    0  0.00000000000E+00  0.00000000000E+00  0.53068160847E+03  0.53068160847E+03  0.00000000000E+00 0. -1.
         -3   -1    0    0    0  501 -0.00000000000E+00 -0.00000000000E+00 -0.13467287913E+04  0.13467287913E+04  0.00000000000E+00 0.  1.
         24    2    1    2    0    0 -0.23814680643E+03  0.42756428427E+03 -0.64131477810E+03  0.81280349444E+03  0.99195551201E+02 0.  0.
        254    2    1    2    0    0  0.23814680643E+03 -0.42756428427E+03 -0.17473240477E+03  0.10646069054E+04  0.92915624684E+03 0.  0.
         23    2    4    4    0    0  0.44519865666E+03  0.55135307323E+02  0.94482405722E+02  0.46757301489E+03  0.91955713570E+02 0.  0.
         23    2    4    4    0    0 -0.20705185022E+03 -0.48269959159E+03 -0.26921481049E+03  0.59703389046E+03  0.90019374433E+02 0.  0.
          4    1    3    3  502    0 -0.10634729146E+03  0.99597223815E+02 -0.19781948045E+03  0.24568658945E+03  0.00000000000E+00 0. -1.
         -3    1    3    3    0  502 -0.13179951498E+03  0.32796706045E+03 -0.44349529765E+03  0.56711690499E+03  0.00000000000E+00 0.  1.
         13    1    5    5    0    0  0.22016194854E+03  0.58521806088E+02  0.12869644041E+02  0.22817035985E+03  0.00000000000E+00 0.  1.
        -13    1    5    5    0    0  0.22503670811E+03 -0.33864987651E+01  0.81612761681E+02  0.23940265504E+03  0.00000000000E+00 0. -1.
          4    1    6    6  503    0 -0.95266966144E+02 -0.17505553582E+03 -0.14696320157E+03  0.24762556023E+03  0.00000000000E+00 0. -1.
         -4    1    6    6    0  503 -0.11178488408E+03 -0.30764405577E+03 -0.12225160892E+03  0.34940833024E+03  0.00000000000E+00 0.  1.
<mgrwt>
<rscale>  0 0.16907799E+04</rscale>
<asrwt>0</asrwt>
<pdfrwt beam="1">  1        4 0.81643327E-01 0.16907799E+04</pdfrwt>
<pdfrwt beam="2">  1       -3 0.20718904E+00 0.16907799E+04</pdfrwt>
<totfact> 0.38126795E-01</totfact>
</mgrwt>
</event>
<event>
12    7  0.1740517E-007  0.1816438E+04  0.7818608E-02  0.8697607E-01
         -1   -1    0    0    0  501 -0.00000000000E+00  0.00000000000E+00  0.11099497470E+04  0.11099497470E+04  0.00000000000E+00 0.  1.
          2   -1    0    0  501    0  0.00000000000E+00 -0.00000000000E+00 -0.74315199337E+03  0.74315199337E+03  0.00000000000E+00 0. -1.
         24    2    1    2    0    0 -0.15031951668E+03  0.52447713059E+03 -0.29461206763E+03  0.62687406390E+03  0.92209565611E+02 0.  0.
        254    2    1    2    0    0  0.15031951668E+03 -0.52447713059E+03  0.66140982127E+03  0.12262276765E+04  0.87664083027E+03 0.  0.
         23    2    4    4    0    0 -0.25304545050E+03  0.62318784240E+02  0.41005717466E+02  0.27741560114E+03  0.85803939314E+02 0.  0.
         23    2    4    4    0    0  0.40336496719E+03 -0.58679591483E+03  0.62040410380E+03  0.94881207534E+03  0.91161175331E+02 0.  0.
          2    1    3    3  502    0 -0.11223596182E+03  0.42643086211E+03 -0.19548891065E+03  0.48234438472E+03  0.00000000000E+00 0. -1.
         -1    1    3    3    0  502 -0.38083554860E+02  0.98046268484E+02 -0.99123156982E+02  0.14452967918E+03  0.00000000000E+00 0.  1.
         13    1    5    5    0    0 -0.56304677705E+02  0.36240908074E+02 -0.19838207851E+02  0.69836771404E+02  0.00000000000E+00 0. -1.
        -13    1    5    5    0    0 -0.19674077280E+03  0.26077876166E+02  0.60843925317E+02  0.20757882974E+03  0.00000000000E+00 0.  1.
          4    1    6    6  503    0  0.38373455227E+03 -0.55213012500E+03  0.60947550505E+03  0.90750221641E+03  0.00000000000E+00 0.  1.
         -4    1    6    6    0  503  0.19630414916E+02 -0.34665789828E+02  0.10928598756E+02  0.41309858932E+02  0.00000000000E+00 0. -1.
<mgrwt>
<rscale>  0 0.18164376E+04</rscale>
<asrwt>0</asrwt>
<pdfrwt beam="1">  1        2 0.11433108E+00 0.18164376E+04</pdfrwt>
<pdfrwt beam="2">  1       -1 0.17076150E+00 0.18164376E+04</pdfrwt>
<totfact> 0.99220935E+00</totfact>
</mgrwt>
</event>
<event>
12    7  0.1740517E-007  0.1504195E+04  0.7818608E-02  0.8881668E-01
          2   -1    0    0  501    0  0.00000000000E+00  0.00000000000E+00  0.27659540294E+04  0.27659540294E+04  0.00000000000E+00 0. -1.
         -1   -1    0    0    0  501 -0.00000000000E+00 -0.00000000000E+00 -0.20450460402E+03  0.20450460402E+03  0.00000000000E+00 0.  1.
         24    2    1    2    0    0 -0.34597678384E+03 -0.33025453449E+03  0.83965626603E+03  0.96956462300E+03  0.79151251253E+02 0.  0.
        254    2    1    2    0    0  0.34597678384E+03  0.33025453449E+03  0.17217931593E+04  0.20008940104E+04  0.90013174860E+03 0.  0.
         23    2    4    4    0    0 -0.27974025195E+03  0.22196642864E+03  0.50238189995E+03  0.62309212541E+03  0.91282634432E+02 0.  0.
         23    2    4    4    0    0  0.62571703579E+03  0.10828810585E+03  0.12194112594E+04  0.13778018850E+04  0.90144839185E+02 0.  0.
          4    1    3    3  502    0 -0.30368966294E+03 -0.31774884586E+03  0.74198298123E+03  0.86239810115E+03  0.00000000000E+00 0. -1.
         -3    1    3    3    0  502 -0.42287120900E+02 -0.12505688627E+02  0.97673284798E+02  0.10716652185E+03  0.00000000000E+00 0.  1.
         13    1    5    5    0    0 -0.15039845174E+03  0.17421874388E+03  0.33056153876E+03  0.40279373867E+03  0.00000000000E+00 0. -1.
        -13    1    5    5    0    0 -0.12934180021E+03  0.47747684760E+02  0.17182036119E+03  0.22029838674E+03  0.00000000000E+00 0.  1.
          3    1    6    6  503    0  0.18518768960E+03 -0.87290352980E+01  0.36773803798E+03  0.41182756223E+03  0.00000000000E+00 0. -1.
         -3    1    6    6    0  503  0.44052934619E+03  0.11701714114E+03  0.85167322137E+03  0.96597432273E+03  0.00000000000E+00 0.  1.
<mgrwt>
<rscale>  0 0.15041946E+04</rscale>
<asrwt>0</asrwt>
<pdfrwt beam="1">  1        2 0.42553136E+00 0.15041946E+04</pdfrwt>
<pdfrwt beam="2">  1       -1 0.31462249E-01 0.15041946E+04</pdfrwt>
<totfact> 0.25144345E+01</totfact>
</mgrwt>
</event>
<event>
12    7  0.1740517E-007  0.2084757E+04  0.7818608E-02  0.8567988E-01
         -1   -1    0    0    0  501 -0.00000000000E+00  0.00000000000E+00  0.46246438753E+03  0.46246438753E+03  0.00000000000E+00 0.  1.
          2   -1    0    0  501    0  0.00000000000E+00 -0.00000000000E+00 -0.23494848161E+04  0.23494848161E+04  0.00000000000E+00 0. -1.
         24    2    1    2    0    0  0.74809254899E+03 -0.69131886342E+02 -0.12059277744E+04  0.14230217681E+04  0.79419618972E+02 0.  0.
        254    2    1    2    0    0 -0.74809254899E+03  0.69131886342E+02 -0.68109265415E+03  0.13889274355E+04  0.94911039294E+03 0.  0.
         23    2    4    4    0    0 -0.53220914870E+03  0.64242580607E+02 -0.91123893047E+03  0.10608947540E+04  0.88134009386E+02 0.  0.
         23    2    4    4    0    0 -0.21588340029E+03  0.48893057347E+01  0.23014627632E+03  0.32803268147E+03  0.89490690983E+02 0.  0.
          2    1    3    3  502    0  0.63341564420E+03 -0.55961073142E+02 -0.10700713611E+04  0.12447488654E+04  0.00000000000E+00 0. -1.
         -1    1    3    3    0  502  0.11467690479E+03 -0.13170813200E+02 -0.13585641333E+03  0.17827290275E+03  0.00000000000E+00 0.  1.
         13    1    5    5    0    0 -0.26269084490E+03  0.75763851389E+02 -0.44817316139E+03  0.52498173660E+03  0.00000000000E+00 0.  1.
        -13    1    5    5    0    0 -0.26951830380E+03 -0.11521270782E+02 -0.46306576908E+03  0.53591301744E+03  0.00000000000E+00 0. -1.
          3    1    6    6  503    0 -0.22358178629E+03 -0.10782741057E+01  0.21617378177E+03  0.31100013145E+03  0.00000000000E+00 0. -1.
         -3    1    6    6    0  503  0.76983859981E+01  0.59675798404E+01  0.13972494551E+02  0.17032550018E+02  0.00000000000E+00 0.  1.
<mgrwt>
<rscale>  0 0.20847571E+04</rscale>
<asrwt>0</asrwt>
<pdfrwt beam="1">  1        2 0.36145919E+00 0.20847571E+04</pdfrwt>
<pdfrwt beam="2">  1       -1 0.71148369E-01 0.20847571E+04</pdfrwt>
<totfact> 0.89042426E+00</totfact>
</mgrwt>
</event>
<event>
12    7  0.1740517E-007  0.1214903E+04  0.7818608E-02  0.9099911E-01
          2   -1    0    0  501    0  0.00000000000E+00  0.00000000000E+00  0.95560838546E+03  0.95560838546E+03  0.00000000000E+00 0. -1.
         -1   -1    0    0    0  501 -0.00000000000E+00 -0.00000000000E+00 -0.38613879420E+03  0.38613879420E+03  0.00000000000E+00 0.  1.
         24    2    1    2    0    0 -0.42947078994E+02  0.10626250965E+03 -0.12732965286E+03  0.18479586660E+03  0.69285635335E+02 0.  0.
        254    2    1    2    0    0  0.42947078994E+02 -0.10626250965E+03  0.69679924411E+03  0.11569513131E+04  0.91644475101E+03 0.  0.
         23    2    4    4    0    0 -0.42107754114E+03 -0.36208993337E+01  0.24870033341E+03  0.49762108975E+03  0.91953719699E+02 0.  0.
         23    2    4    4    0    0  0.46402462013E+03 -0.10264161032E+03  0.44809891070E+03  0.65933022331E+03  0.89830737128E+02 0.  0.
          4    1    3    3  502    0 -0.15908633270E+01  0.74494629410E+02 -0.44117186716E+02  0.86592764252E+02  0.00000000000E+00 0. -1.
         -1    1    3    3    0  502 -0.41356215667E+02  0.31767880244E+02 -0.83212466142E+02  0.98203102349E+02  0.00000000000E+00 0.  1.
         13    1    5    5    0    0 -0.86560198798E+02  0.94011555898E+01  0.96200621340E+02  0.12975210707E+03  0.00000000000E+00 0.  1.
        -13    1    5    5    0    0 -0.33451734234E+03 -0.13022054924E+02  0.15249971207E+03  0.36786898269E+03  0.00000000000E+00 0. -1.
          4    1    6    6  503    0  0.14490666578E+03 -0.33861578386E+02  0.20008976104E+03  0.24936010256E+03  0.00000000000E+00 0. -1.
         -4    1    6    6    0  503  0.31911795436E+03 -0.68780031934E+02  0.24800914966E+03  0.40997012074E+03  0.00000000000E+00 0.  1.
<mgrwt>
<rscale>  0 0.12149032E+04</rscale>
<asrwt>0</asrwt>
<pdfrwt beam="1">  1        2 0.14701667E+00 0.12149032E+04</pdfrwt>
<pdfrwt beam="2">  1       -1 0.59405968E-01 0.12149032E+04</pdfrwt>
<totfact> 0.86972273E+01</totfact>
</mgrwt>
</event>
<event>
12    7  0.1740517E-007  0.2065376E+04  0.7818608E-02  0.8576651E-01
         -1   -1    0    0    0  501 -0.00000000000E+00  0.00000000000E+00  0.48126766954E+03  0.48126766954E+03  0.00000000000E+00 0.  1.
          2   -1    0    0  501    0  0.00000000000E+00 -0.00000000000E+00 -0.22159069002E+04  0.22159069002E+04  0.00000000000E+00 0. -1.
         24    2    1    2    0    0 -0.53179237758E+03  0.17776003692E+03  0.96528988715E+02  0.57465242488E+03  0.80658540682E+02 0.  0.
        254    2    1    2    0    0  0.53179237758E+03 -0.17776003692E+03 -0.18311682193E+04  0.21225221448E+04  0.91516197703E+03 0.  0.
         23    2    4    4    0    0  0.27649331807E+03 -0.47217875926E+03 -0.15123254218E+04  0.16112481951E+04  0.97934820484E+02 0.  0.
         23    2    4    4    0    0  0.25529905951E+03  0.29441872234E+03 -0.31884279748E+03  0.51127394970E+03  0.88771213165E+02 0.  0.
          2    1    3    3  502    0 -0.15529483563E+03  0.85561927247E+02  0.10614299736E+02  0.17762317621E+03  0.00000000000E+00 0. -1.
         -1    1    3    3    0  502 -0.37649754195E+03  0.92198109674E+02  0.85914688978E+02  0.39702924867E+03  0.00000000000E+00 0.  1.
         13    1    5    5    0    0  0.17137659546E+03 -0.21459734427E+03 -0.66724499377E+03  0.72155238157E+03  0.00000000000E+00 0. -1.
        -13    1    5    5    0    0  0.10511672261E+03 -0.25758141500E+03 -0.84508042808E+03  0.88969581355E+03  0.00000000000E+00 0.  1.
          4    1    6    6  503    0  0.11056381896E+03  0.19310768439E+03 -0.19020675841E+03  0.29273460127E+03  0.00000000000E+00 0. -1.
         -4    1    6    6    0  503  0.14473524054E+03  0.10131103795E+03 -0.12863603907E+03  0.21853934843E+03  0.00000000000E+00 0.  1.
<mgrwt>
<rscale>  0 0.20653758E+04</rscale>
<asrwt>0</asrwt>
<pdfrwt beam="1">  1        2 0.34090875E+00 0.20653758E+04</pdfrwt>
<pdfrwt beam="2">  1       -1 0.74041181E-01 0.20653758E+04</pdfrwt>
<totfact> 0.97734993E+00</totfact>
</mgrwt>
</event>
<event>
12    7  0.1740517E-007  0.1895943E+04  0.7818608E-02  0.8656878E-01
         -1   -1    0    0    0  501 -0.00000000000E+00  0.00000000000E+00  0.10377131237E+04  0.10377131237E+04  0.00000000000E+00 0.  1.
          2   -1    0    0  501    0  0.00000000000E+00 -0.00000000000E+00 -0.86599069013E+03  0.86599069013E+03  0.00000000000E+00 0. -1.
         24    2    1    2    0    0 -0.21636605734E+03  0.65746249009E+03 -0.13061001114E+03  0.70891843910E+03  0.80219583914E+02 0.  0.
        254    2    1    2    0    0  0.21636605734E+03 -0.65746249009E+03  0.30233244467E+03  0.11947853747E+04  0.92576238195E+03 0.  0.
         23    2    4    4    0    0 -0.14574975205E+03 -0.75056427140E+03  0.18184338148E+03  0.79140503196E+03  0.93087021066E+02 0.  0.
         23    2    4    4    0    0  0.36211580939E+03  0.93101781319E+02  0.12048906320E+03  0.40338034274E+03  0.91663981268E+02 0.  0.
          4    1    3    3  502    0 -0.15790730816E+03  0.52942927179E+03 -0.74831943676E+02  0.55752120282E+03  0.00000000000E+00 0. -1.
         -3    1    3    3    0  502 -0.58458749176E+02  0.12803321830E+03 -0.55778067464E+02  0.15139723628E+03  0.00000000000E+00 0.  1.
         13    1    5    5    0    0 -0.10205756589E+03 -0.58247073384E+03  0.10129701176E+03  0.59995748777E+03  0.00000000000E+00 0. -1.
        -13    1    5    5    0    0 -0.43692186155E+02 -0.16809353756E+03  0.80546369720E+02  0.19144754419E+03  0.00000000000E+00 0.  1.
          4    1    6    6  503    0  0.35447008550E+03  0.79874457713E+02  0.98263817133E+02  0.37641034559E+03  0.00000000000E+00 0. -1.
         -4    1    6    6    0  503  0.76457238903E+01  0.13227323605E+02  0.22225246064E+02  0.26969997148E+02  0.00000000000E+00 0.  1.
<mgrwt>
<rscale>  0 0.18959429E+04</rscale>
<asrwt>0</asrwt>
<pdfrwt beam="1">  1        2 0.13322934E+00 0.18959429E+04</pdfrwt>
<pdfrwt beam="2">  1       -1 0.15964817E+00 0.18959429E+04</pdfrwt>
<totfact> 0.97257780E+00</totfact>
</mgrwt>
</event>
<event>
12    7  0.1740517E-007  0.1887205E+04  0.7818608E-02  0.8661251E-01
         -1   -1    0    0    0  501 -0.00000000000E+00  0.00000000000E+00  0.21518212379E+04  0.21518212379E+04  0.00000000000E+00 0.  1.
          2   -1    0    0  501    0  0.00000000000E+00 -0.00000000000E+00 -0.41378249105E+03  0.41378249105E+03  0.00000000000E+00 0. -1.
         24    2    1    2    0    0  0.35725569527E+03 -0.61644950188E+03  0.49298520748E+03  0.87050131484E+03  0.84240751298E+02 0.  0.
        254    2    1    2    0    0 -0.35725569527E+03  0.61644950188E+03  0.12450535394E+04  0.16951024141E+04  0.90309039317E+03 0.  0.
         23    2    4    4    0    0 -0.80329183550E+01  0.38603818724E+03  0.12002545520E+04  0.12645972783E+04  0.97495009652E+02 0.  0.
         23    2    4    4    0    0 -0.34922277691E+03  0.23041131465E+03  0.44798987370E+02  0.43050513581E+03  0.91004400206E+02 0.  0.
          4    1    3    3  502    0  0.34145513943E+03 -0.58857908648E+03  0.44585570390E+03  0.81351352907E+03  0.00000000000E+00 0. -1.
         -3    1    3    3    0  502  0.15800555839E+02 -0.27870415401E+02  0.47129503576E+02  0.56987785768E+02  0.00000000000E+00 0.  1.
         13    1    5    5    0    0 -0.15047282181E+02  0.48547352256E+02  0.81725625679E+02  0.96241072338E+02  0.00000000000E+00 0.  1.
        -13    1    5    5    0    0  0.70143638256E+01  0.33749083498E+03  0.11185289263E+04  0.11683562060E+04  0.00000000000E+00 0. -1.
          1    1    6    6  503    0 -0.25035877748E+03  0.12267561456E+03  0.45173528717E+01  0.27883548975E+03  0.00000000000E+00 0. -1.
         -1    1    6    6    0  503 -0.98863999431E+02  0.10773570008E+03  0.40281634498E+02  0.15166964605E+03  0.00000000000E+00 0.  1.
<mgrwt>
<rscale>  0 0.18872053E+04</rscale>
<asrwt>0</asrwt>
<pdfrwt beam="1">  1        2 0.63658846E-01 0.18872053E+04</pdfrwt>
<pdfrwt beam="2">  1       -1 0.33104942E+00 0.18872053E+04</pdfrwt>
<totfact> 0.17020850E+00</totfact>
</mgrwt>
</event>
<event>
12    7  0.1740517E-007  0.1849811E+04  0.7818608E-02  0.8680250E-01
          2   -1    0    0  501    0  0.00000000000E+00  0.00000000000E+00  0.42665419022E+03  0.42665419022E+03  0.00000000000E+00 0. -1.
         -1   -1    0    0    0  501 -0.00000000000E+00 -0.00000000000E+00 -0.20050207407E+04  0.20050207407E+04  0.00000000000E+00 0.  1.
         24    2    1    2    0    0  0.62225085177E+03  0.21681833077E+03 -0.29907607524E+03  0.72789175350E+03  0.78572227567E+02 0.  0.
        254    2    1    2    0    0 -0.62225085177E+03 -0.21681833077E+03 -0.12792904753E+04  0.17037831775E+04  0.91218785596E+03 0.  0.
         23    2    4    4    0    0 -0.49772466040E+03 -0.44472689967E+03 -0.12605119254E+04  0.14290527320E+04  0.88258392765E+02 0.  0.
         23    2    4    4    0    0 -0.12452619136E+03  0.22790856890E+03 -0.18778549927E+02  0.27473044550E+03  0.87607623137E+02 0.  0.
          2    1    3    3  502    0  0.47447608625E+03  0.18171406268E+03 -0.19723532560E+03  0.54502232125E+03  0.00000000000E+00 0. -1.
         -1    1    3    3    0  502  0.14777476552E+03  0.35104268089E+02 -0.10184074965E+03  0.18286943225E+03  0.00000000000E+00 0.  1.
         13    1    5    5    0    0 -0.24537193409E+03 -0.27282329343E+03 -0.72665280387E+03  0.81404191099E+03  0.00000000000E+00 0. -1.
        -13    1    5    5    0    0 -0.25235272631E+03 -0.17190360624E+03 -0.53385912148E+03  0.61501082097E+03  0.00000000000E+00 0.  1.
          3    1    6    6  503    0 -0.79575734246E+02  0.62002543377E+02  0.60422781072E+01  0.10105999204E+03  0.00000000000E+00 0. -1.
         -3    1    6    6    0  503 -0.44950457118E+02  0.16590602553E+03 -0.24820828034E+02  0.17367045346E+03  0.00000000000E+00 0.  1.
<mgrwt>
<rscale>  0 0.18498113E+04</rscale>
<asrwt>0</asrwt>
<pdfrwt beam="1">  1        2 0.65639105E-01 0.18498113E+04</pdfrwt>
<pdfrwt beam="2">  1       -1 0.30846474E+00 0.18498113E+04</pdfrwt>
<totfact> 0.23144438E+00</totfact>
</mgrwt>
</event>
<event>
12    7  0.1740517E-007  0.1507002E+04  0.7818608E-02  0.8879810E-01
          2   -1    0    0  501    0  0.00000000000E+00  0.00000000000E+00  0.16978734097E+04  0.16978734097E+04  0.00000000000E+00 0. -1.
         -1   -1    0    0    0  501 -0.00000000000E+00 -0.00000000000E+00 -0.33439681480E+03  0.33439681480E+03  0.00000000000E+00 0.  1.
         24    2    1    2    0    0  0.18019376048E+03 -0.43302413887E+03  0.57536023422E+03  0.74646941583E+03  0.78724160725E+02 0.  0.
        254    2    1    2    0    0 -0.18019376048E+03  0.43302413887E+03  0.78811636068E+03  0.12858008087E+04  0.90120842508E+03 0.  0.
         23    2    4    4    0    0  0.18666618955E+03  0.52913727299E+03  0.66693856027E+03  0.87716318232E+03  0.98882178686E+02 0.  0.
         23    2    4    4    0    0 -0.36685995003E+03 -0.96113134118E+02  0.12117780041E+03  0.40863762635E+03  0.92068957115E+02 0.  0.
          2    1    3    3  502    0  0.13134549983E+03 -0.38326444561E+03  0.47586568023E+03  0.62497313640E+03  0.00000000000E+00 0. -1.
         -1    1    3    3    0  502  0.48848260657E+02 -0.49759693263E+02  0.99494553990E+02  0.12149627943E+03  0.00000000000E+00 0.  1.
         13    1    5    5    0    0  0.15708547438E+03  0.34137990334E+03  0.48975427539E+03  0.61731299592E+03  0.00000000000E+00 0.  1.
        -13    1    5    5    0    0  0.29580715175E+02  0.18775736964E+03  0.17718428487E+03  0.25985018640E+03  0.00000000000E+00 0. -1.
          3    1    6    6  503    0 -0.83352454779E+02 -0.92638946430E+01 -0.98948135740E+01  0.84447372945E+02  0.00000000000E+00 0. -1.
         -3    1    6    6    0  503 -0.28350749526E+03 -0.86849239475E+02  0.13107261399E+03  0.32419025340E+03  0.00000000000E+00 0.  1.
<mgrwt>
<rscale>  0 0.15070016E+04</rscale>
<asrwt>0</asrwt>
<pdfrwt beam="1">  1        2 0.26121129E+00 0.15070016E+04</pdfrwt>
<pdfrwt beam="2">  1       -1 0.51445665E-01 0.15070016E+04</pdfrwt>
<totfact> 0.41119242E+01</totfact>
</mgrwt>
</event>
<event>
12    7  0.1740517E-007  0.1467077E+04  0.7818608E-02  0.8906646E-01
         -1   -1    0    0    0  501 -0.00000000000E+00  0.00000000000E+00  0.37184778997E+03  0.37184778997E+03  0.00000000000E+00 0.  1.
          2   -1    0    0  501    0  0.00000000000E+00 -0.00000000000E+00 -0.14470404552E+04  0.14470404552E+04  0.00000000000E+00 0. -1.
         24    2    1    2    0    0 -0.35407642003E+03 -0.67593706812E+02 -0.67941327416E+03  0.77352835280E+03  0.82490575580E+02 0.  0.
        254    2    1    2    0    0  0.35407642003E+03  0.67593706812E+02 -0.39577939109E+03  0.10453598924E+04  0.89788471297E+03 0.  0.
         23    2    4    4    0    0 -0.23342924160E+03  0.16123707657E+03 -0.32160064083E+03  0.43875085865E+03  0.92675444887E+02 0.  0.
         23    2    4    4    0    0  0.58750566163E+03 -0.93643369760E+02 -0.74178750261E+02  0.60660903374E+03  0.92412389212E+02 0.  0.
          4    1    3    3  502    0 -0.19464611380E+03 -0.24647357007E+02 -0.44964762300E+03  0.49058902015E+03  0.00000000000E+00 0. -1.
         -3    1    3    3    0  502 -0.15943030623E+03 -0.42946349805E+02 -0.22976565116E+03  0.28293933265E+03  0.00000000000E+00 0.  1.
         13    1    5    5    0    0 -0.11635223503E+03  0.31093142424E+02 -0.16198485959E+03  0.20185073901E+03  0.00000000000E+00 0. -1.
        -13    1    5    5    0    0 -0.11707700657E+03  0.13014393415E+03 -0.15961578124E+03  0.23690011964E+03  0.00000000000E+00 0.  1.
          2    1    6    6  503    0  0.26842642812E+03  0.35279498049E+01 -0.28838267794E+02  0.26999414703E+03  0.00000000000E+00 0. -1.
         -2    1    6    6    0  503  0.31907923351E+03 -0.97171319565E+02 -0.45340482467E+02  0.33661488671E+03  0.00000000000E+00 0.  1.
<mgrwt>
<rscale>  0 0.14670771E+04</rscale>
<asrwt>0</asrwt>
<pdfrwt beam="1">  1        2 0.22262161E+00 0.14670771E+04</pdfrwt>
<pdfrwt beam="2">  1       -1 0.57207353E-01 0.14670771E+04</pdfrwt>
<totfact> 0.46452643E+01</totfact>
</mgrwt>
</event>
<event>
12    7  0.1740517E-007  0.1458521E+04  0.7818608E-02  0.8912515E-01
         -1   -1    0    0    0  501 -0.00000000000E+00  0.00000000000E+00  0.10188937352E+04  0.10188937352E+04  0.00000000000E+00 0.  1.
          2   -1    0    0  501    0  0.00000000000E+00 -0.00000000000E+00 -0.52195891720E+03  0.52195891720E+03  0.00000000000E+00 0. -1.
         24    2    1    2    0    0 -0.23155685766E+03  0.20718761704E+03 -0.15973177390E+03  0.35714275555E+03  0.74104124441E+02 0.  0.
        254    2    1    2    0    0  0.23155685766E+03 -0.20718761704E+03  0.65666659192E+03  0.11837098969E+04  0.93456557825E+03 0.  0.
         23    2    4    4    0    0  0.41191012647E+03  0.23074232761E+03  0.20376606995E+03  0.52217874475E+03  0.90763738144E+02 0.  0.
         23    2    4    4    0    0 -0.18035326881E+03 -0.43792994465E+03  0.45290052197E+03  0.66153115214E+03  0.90524275496E+02 0.  0.
          2    1    3    3  502    0 -0.21884537146E+03  0.19771986984E+03 -0.12767869678E+03  0.32138496099E+03  0.00000000000E+00 0. -1.
         -1    1    3    3    0  502 -0.12711486207E+02  0.94677471983E+01 -0.32053077122E+02  0.35757794557E+02  0.00000000000E+00 0.  1.
         13    1    5    5    0    0  0.25151302371E+03  0.18681725272E+03  0.15031707788E+03  0.34749778548E+03  0.00000000000E+00 0.  1.
        -13    1    5    5    0    0  0.16039710276E+03  0.43925074892E+02  0.53448992071E+02  0.17468095927E+03  0.00000000000E+00 0. -1.
          2    1    6    6  503    0 -0.72241134504E+02 -0.77921748653E+02  0.10332070285E+03  0.14820846152E+03  0.00000000000E+00 0. -1.
         -2    1    6    6    0  503 -0.10811213430E+03 -0.36000819600E+03  0.34957981912E+03  0.51332269062E+03  0.00000000000E+00 0.  1.
<mgrwt>
<rscale>  0 0.14585207E+04</rscale>
<asrwt>0</asrwt>
<pdfrwt beam="1">  1        2 0.80301372E-01 0.14585207E+04</pdfrwt>
<pdfrwt beam="2">  1       -1 0.15675288E+00 0.14585207E+04</pdfrwt>
<totfact> 0.20073616E+01</totfact>
</mgrwt>
</event>
<event>
12    7  0.1740517E-007  0.3162099E+04  0.7818608E-02  0.8198899E-01
         -1   -1    0    0    0  501 -0.00000000000E+00  0.00000000000E+00  0.11354127172E+04  0.11354127172E+04  0.00000000000E+00 0.  1.
          2   -1    0    0  501    0  0.00000000000E+00 -0.00000000000E+00 -0.22015938078E+04  0.22015938078E+04  0.00000000000E+00 0. -1.
         24    2    1    2    0    0 -0.36623951698E+03 -0.55903011965E+03  0.86555846087E+03  0.10959061928E+04  0.71922707025E+02 0.  0.
        254    2    1    2    0    0  0.36623951698E+03  0.55903011965E+03 -0.19317395514E+04  0.22411003322E+04  0.91884000027E+03 0.  0.
         23    2    4    4    0    0  0.24872323498E+03  0.53754435866E+03 -0.44287868210E+03  0.74480660584E+03  0.88193922111E+02 0.  0.
         23    2    4    4    0    0  0.11751628200E+03  0.21485760989E+02 -0.14888608693E+04  0.14962937264E+04  0.88974788346E+02 0.  0.
          4    1    3    3  502    0 -0.10961082367E+03 -0.13984865201E+03  0.27728420916E+03  0.32933070125E+03  0.00000000000E+00 0. -1.
         -3    1    3    3    0  502 -0.25662869331E+03 -0.41918146764E+03  0.58827425171E+03  0.76657549157E+03  0.00000000000E+00 0.  1.
         13    1    5    5    0    0  0.46038121955E+02  0.43264018654E+02 -0.31794126070E+02  0.70725882361E+02  0.00000000000E+00 0. -1.
        -13    1    5    5    0    0  0.20268511302E+03  0.49428034001E+03 -0.41108455603E+03  0.67408072348E+03  0.00000000000E+00 0.  1.
          3    1    6    6  503    0 -0.44036911482E+01  0.47747563520E+01 -0.78937960937E+01  0.10222661626E+02  0.00000000000E+00 0. -1.
         -3    1    6    6    0  503  0.12191997315E+03  0.16711004637E+02 -0.14809670732E+04  0.14860710647E+04  0.00000000000E+00 0.  1.
<mgrwt>
<rscale>  0 0.31620991E+04</rscale>
<asrwt>0</asrwt>
<pdfrwt beam="1">  1        2 0.33870674E+00 0.31620991E+04</pdfrwt>
<pdfrwt beam="2">  1       -1 0.17467888E+00 0.31620991E+04</pdfrwt>
<totfact> 0.11254704E+00</totfact>
</mgrwt>
</event>
<event>
12    7  0.1740517E-007  0.1577886E+04  0.7818608E-02  0.8834250E-01
         -1   -1    0    0    0  501 -0.00000000000E+00  0.00000000000E+00  0.51586244114E+03  0.51586244114E+03  0.00000000000E+00 0.  1.
          2   -1    0    0  501    0  0.00000000000E+00 -0.00000000000E+00 -0.12065837007E+04  0.12065837007E+04  0.00000000000E+00 0. -1.
         24    2    1    2    0    0  0.27289089422E+03  0.45228907937E+03 -0.30551868861E+03  0.61537480348E+03  0.79433168106E+02 0.  0.
        254    2    1    2    0    0 -0.27289089422E+03 -0.45228907937E+03 -0.38520257100E+03  0.11070713384E+04  0.89341539955E+03 0.  0.
         23    2    4    4    0    0  0.17233443795E+03 -0.11493208634E+02 -0.43030636850E+03  0.47206052849E+03  0.88579452702E+02 0.  0.
         23    2    4    4    0    0 -0.44522533217E+03 -0.44079587074E+03  0.45103797494E+02  0.63501080992E+03  0.93154603186E+02 0.  0.
          2    1    3    3  502    0  0.25572046795E+03  0.44349785770E+03 -0.28039297990E+03  0.58369815032E+03  0.00000000000E+00 0. -1.
         -1    1    3    3    0  502  0.17170426270E+02  0.87912216743E+01 -0.25125708714E+02  0.31676653157E+02  0.00000000000E+00 0.  1.
         13    1    5    5    0    0  0.42592212740E+01  0.21980562927E+02 -0.41331609317E+02  0.47006255341E+02  0.00000000000E+00 0. -1.
        -13    1    5    5    0    0  0.16807521668E+03 -0.33473771560E+02 -0.38897475918E+03  0.42505427315E+03  0.00000000000E+00 0.  1.
          2    1    6    6  503    0 -0.10985973741E+03 -0.16819732836E+03  0.47866594341E+01  0.20095376403E+03  0.00000000000E+00 0. -1.
         -2    1    6    6    0  503 -0.33536559477E+03 -0.27259854238E+03  0.40317138059E+02  0.43405704588E+03  0.00000000000E+00 0.  1.
<mgrwt>
<rscale>  0 0.15778862E+04</rscale>
<asrwt>0</asrwt>
<pdfrwt beam="1">  1        2 0.18562826E+00 0.15778862E+04</pdfrwt>
<pdfrwt beam="2">  1       -1 0.79363452E-01 0.15778862E+04</pdfrwt>
<totfact> 0.32622449E+01</totfact>
</mgrwt>
</event>
<event>
12    7  0.1740517E-007  0.1092727E+04  0.7818608E-02  0.9212310E-01
          2   -1    0    0  501    0  0.00000000000E+00  0.00000000000E+00  0.15461335956E+04  0.15461335956E+04  0.00000000000E+00 0. -1.
         -1   -1    0    0    0  501 -0.00000000000E+00 -0.00000000000E+00 -0.19307051073E+03  0.19307051073E+03  0.00000000000E+00 0.  1.
         24    2    1    2    0    0 -0.14207743424E+02  0.10457394753E+03  0.28226121492E+03  0.31145879347E+03  0.78724939570E+02 0.  0.
        254    2    1    2    0    0  0.14207743424E+02 -0.10457394753E+03  0.10708018699E+04  0.14277453129E+04  0.93845749143E+03 0.  0.
         23    2    4    4    0    0  0.24378023170E+03  0.28729425546E+03  0.80657193134E+03  0.89481191961E+03  0.90350984827E+02 0.  0.
         23    2    4    4    0    0 -0.22957248828E+03 -0.39186820298E+03  0.26422993860E+03  0.53293339325E+03  0.89086055583E+02 0.  0.
          4    1    3    3  502    0 -0.24662366326E+02  0.91450090418E+02  0.27863319118E+03  0.29429204301E+03  0.00000000000E+00 0. -1.
         -1    1    3    3    0  502  0.10454622902E+02  0.13123857107E+02  0.36280237417E+01  0.17166750469E+02  0.00000000000E+00 0.  1.
         13    1    5    5    0    0  0.72761209504E+01  0.47188321539E+02  0.69237919084E+02  0.84104512750E+02  0.00000000000E+00 0. -1.
        -13    1    5    5    0    0  0.23650411075E+03  0.24010593392E+03  0.73733401225E+03  0.81070740686E+03  0.00000000000E+00 0.  1.
          2    1    6    6  503    0 -0.99572635475E+02 -0.12135108909E+03  0.52066004546E+02  0.16538338909E+03  0.00000000000E+00 0. -1.
         -2    1    6    6    0  503 -0.12999985280E+03 -0.27051711389E+03  0.21216393406E+03  0.36755000415E+03  0.00000000000E+00 0.  1.
<mgrwt>
<rscale>  0 0.10927265E+04</rscale>
<asrwt>0</asrwt>
<pdfrwt beam="1">  1        2 0.23786670E+00 0.10927265E+04</pdfrwt>
<pdfrwt beam="2">  1       -1 0.29703157E-01 0.10927265E+04</pdfrwt>
<totfact> 0.14041070E+02</totfact>
</mgrwt>
</event>
<event>
12    7  0.1740517E-007  0.1866817E+04  0.7818608E-02  0.8671552E-01
         -1   -1    0    0    0  501 -0.00000000000E+00  0.00000000000E+00  0.39548122357E+03  0.39548122357E+03  0.00000000000E+00 0.  1.
          2   -1    0    0  501    0  0.00000000000E+00 -0.00000000000E+00 -0.22030152025E+04  0.22030152025E+04  0.00000000000E+00 0. -1.
         24    2    1    2    0    0  0.40262935555E+02  0.68812079653E+03 -0.44768145265E+03  0.82573479609E+03  0.79296505765E+02 0.  0.
        254    2    1    2    0    0 -0.40262935555E+02 -0.68812079653E+03 -0.13598525263E+04  0.17727616300E+04  0.90462896753E+03 0.  0.
         23    2    4    4    0    0 -0.36371170727E+03 -0.32692722592E+03 -0.11192538837E+04  0.12241365201E+04  0.81322485565E+02 0.  0.
         23    2    4    4    0    0  0.32344877172E+03 -0.36119357062E+03 -0.24059864257E+03  0.54862510985E+03  0.89565065545E+02 0.  0.
          4    1    3    3  502    0  0.19938880779E+02  0.43769883844E+02 -0.19947422518E+02  0.52069773992E+02  0.00000000000E+00 0. -1.
         -3    1    3    3    0  502  0.20324054777E+02  0.64435091269E+03 -0.42773403014E+03  0.77366502210E+03  0.00000000000E+00 0.  1.
         13    1    5    5    0    0 -0.10195471000E+03 -0.14298809216E+03 -0.41449812413E+03  0.45016558320E+03  0.00000000000E+00 0.  1.
        -13    1    5    5    0    0 -0.26175699727E+03 -0.18393913376E+03 -0.70475575961E+03  0.77397093695E+03  0.00000000000E+00 0. -1.
          1    1    6    6  503    0  0.31382528343E+03 -0.34830427476E+03 -0.20928638608E+03  0.51342279627E+03  0.00000000000E+00 0. -1.
         -1    1    6    6    0  503  0.96234882920E+01 -0.12889295859E+02 -0.31312256487E+02  0.35202313574E+02  0.00000000000E+00 0.  1.
<mgrwt>
<rscale>  0 0.18668167E+04</rscale>
<asrwt>0</asrwt>
<pdfrwt beam="1">  1        2 0.33892542E+00 0.18668167E+04</pdfrwt>
<pdfrwt beam="2">  1       -1 0.60843265E-01 0.18668167E+04</pdfrwt>
<totfact> 0.15069756E+01</totfact>
</mgrwt>
</event>
<event>
12    7  0.1740517E-007  0.1549876E+04  0.7818608E-02  0.8851947E-01
          2   -1    0    0  501    0  0.00000000000E+00  0.00000000000E+00  0.11279718405E+04  0.11279718405E+04  0.00000000000E+00 0. -1.
         -1   -1    0    0    0  501 -0.00000000000E+00 -0.00000000000E+00 -0.53239722740E+03  0.53239722740E+03  0.00000000000E+00 0.  1.
         24    2    1    2    0    0 -0.10534238403E+03 -0.38483822426E+03  0.53341137259E+03  0.67152219773E+03  0.84952297822E+02 0.  0.
        254    2    1    2    0    0  0.10534238403E+03  0.38483822426E+03  0.62163240471E+02  0.98884687013E+03  0.90263856962E+03 0.  0.
         23    2    4    4    0    0  0.17411547343E+03 -0.24829151691E+03  0.12609157383E+03  0.34246416613E+03  0.97045064968E+02 0.  0.
         23    2    4    4    0    0 -0.68773089406E+02  0.63312974117E+03 -0.63928333360E+02  0.64638270400E+03  0.90226167137E+02 0.  0.
          4    1    3    3  502    0 -0.11948439459E+03 -0.34261171467E+03  0.46354774583E+03  0.58867293147E+03  0.00000000000E+00 0. -1.
         -3    1    3    3    0  502  0.14142010569E+02 -0.42226509596E+02  0.69863626757E+02  0.82849266256E+02  0.00000000000E+00 0.  1.
         13    1    5    5    0    0  0.18018540951E+03 -0.25206299063E+03  0.12772096172E+03  0.33513456567E+03  0.00000000000E+00 0.  1.
        -13    1    5    5    0    0 -0.60699360762E+01  0.37714737208E+01 -0.16293878896E+01  0.73296004591E+01  0.00000000000E+00 0. -1.
          4    1    6    6  503    0 -0.47576451141E+02  0.19656712858E+03  0.12692498212E+02  0.20264070235E+03  0.00000000000E+00 0. -1.
         -4    1    6    6    0  503 -0.21196638265E+02  0.43656261260E+03 -0.76620831572E+02  0.44374200164E+03  0.00000000000E+00 0.  1.
<mgrwt>
<rscale>  0 0.15498762E+04</rscale>
<asrwt>0</asrwt>
<pdfrwt beam="1">  1        2 0.17353413E+00 0.15498762E+04</pdfrwt>
<pdfrwt beam="2">  1       -1 0.81907266E-01 0.15498762E+04</pdfrwt>
<totfact> 0.34101398E+01</totfact>
</mgrwt>
</event>
<event>
12    7  0.1740517E-007  0.2325756E+04  0.7818608E-02  0.8467835E-01
          2   -1    0    0  501    0  0.00000000000E+00  0.00000000000E+00  0.80761831382E+03  0.80761831382E+03  0.00000000000E+00 0. -1.
         -1   -1    0    0    0  501 -0.00000000000E+00 -0.00000000000E+00 -0.16744106940E+04  0.16744106940E+04  0.00000000000E+00 0.  1.
         24    2    1    2    0    0  0.30591901723E+03  0.78006310232E+03 -0.92676563276E+03  0.12519240453E+04  0.79588871429E+02 0.  0.
        254    2    1    2    0    0 -0.30591901723E+03 -0.78006310232E+03  0.59973252552E+02  0.12301049625E+04  0.89859698370E+03 0.  0.
         23    2    4    4    0    0 -0.56367963950E+03 -0.75716903182E+03  0.95161290944E+02  0.95218886924E+03  0.81045003995E+02 0.  0.
         23    2    4    4    0    0  0.25776062227E+03 -0.22894070501E+02 -0.35188038393E+02  0.27791609329E+03  0.95049881681E+02 0.  0.
          4    1    3    3  502    0  0.32068050162E+02  0.55221947615E+02 -0.10145355378E+03  0.11987763309E+03  0.00000000000E+00 0. -1.
         -3    1    3    3    0  502  0.27385096707E+03  0.72484115471E+03 -0.82531207897E+03  0.11320464122E+04  0.00000000000E+00 0.  1.
         13    1    5    5    0    0 -0.53286263348E+03 -0.67899110556E+03  0.93185209140E+02  0.86813304901E+03  0.00000000000E+00 0. -1.
        -13    1    5    5    0    0 -0.30817006027E+02 -0.78177926262E+02  0.19760818042E+01  0.84055820229E+02  0.00000000000E+00 0.  1.
          4    1    6    6  503    0  0.20064170664E+03 -0.53391812219E+02 -0.82580276863E+01  0.20778829389E+03  0.00000000000E+00 0. -1.
         -4    1    6    6    0  503  0.57118915628E+02  0.30497741717E+02 -0.26930010706E+02  0.70127799402E+02  0.00000000000E+00 0.  1.
<mgrwt>
<rscale>  0 0.23257556E+04</rscale>
<asrwt>0</asrwt>
<pdfrwt beam="1">  1        2 0.12424897E+00 0.23257556E+04</pdfrwt>
<pdfrwt beam="2">  1       -1 0.25760164E+00 0.23257556E+04</pdfrwt>
<totfact> 0.21832643E+00</totfact>
</mgrwt>
</event>
<event>
12    7  0.1740517E-007  0.1207305E+04  0.7818608E-02  0.9106487E-01
          2   -1    0    0  501    0  0.00000000000E+00  0.00000000000E+00  0.56019152665E+03  0.56019152665E+03  0.00000000000E+00 0. -1.
         -1   -1    0    0    0  501 -0.00000000000E+00 -0.00000000000E+00 -0.65048486037E+03  0.65048486037E+03  0.00000000000E+00 0.  1.
         24    2    1    2    0    0  0.26995127911E+02  0.22786784056E+03 -0.13801301804E+03  0.28013049571E+03  0.82298309745E+02 0.  0.
        254    2    1    2    0    0 -0.26995127911E+02 -0.22786784056E+03  0.47719684322E+02  0.93054589131E+03  0.90054761000E+03 0.  0.
         23    2    4    4    0    0  0.26300686137E+03 -0.37696763558E+03  0.25517360887E+03  0.53361253700E+03  0.91386878554E+02 0.  0.
         23    2    4    4    0    0 -0.29000198928E+03  0.14909979502E+03 -0.20745392455E+03  0.39693335432E+03  0.90482342463E+02 0.  0.
          4    1    3    3  502    0 -0.23275249539E+02  0.91456277062E+02 -0.79583822178E+02  0.12344866386E+03  0.00000000000E+00 0. -1.
         -3    1    3    3    0  502  0.50270377449E+02  0.13641156350E+03 -0.58429195860E+02  0.15668183186E+03  0.00000000000E+00 0.  1.
         13    1    5    5    0    0  0.13330117236E+02 -0.51616511929E+02  0.57761986332E+01  0.53622017864E+02  0.00000000000E+00 0. -1.
        -13    1    5    5    0    0  0.24967674413E+03 -0.32535112366E+03  0.24939741024E+03  0.47999051913E+03  0.00000000000E+00 0.  1.
          2    1    6    6  503    0 -0.20783581671E+03  0.61019944812E+02 -0.15002147203E+03  0.26348738574E+03  0.00000000000E+00 0.  1.
         -2    1    6    6    0  503 -0.82166172570E+02  0.88079850213E+02 -0.57432452511E+02  0.13344596858E+03  0.00000000000E+00 0. -1.
<mgrwt>
<rscale>  0 0.12073046E+04</rscale>
<asrwt>0</asrwt>
<pdfrwt beam="1">  1        2 0.86183312E-01 0.12073046E+04</pdfrwt>
<pdfrwt beam="2">  1       -1 0.10007459E+00 0.12073046E+04</pdfrwt>
<totfact> 0.57812741E+01</totfact>
</mgrwt>
</event>
<event>
12    7  0.1740517E-007  0.1590751E+04  0.7818608E-02  0.8826250E-01
         -1   -1    0    0    0  501 -0.00000000000E+00  0.00000000000E+00  0.53205523805E+03  0.53205523805E+03  0.00000000000E+00 0.  1.
          2   -1    0    0  501    0  0.00000000000E+00 -0.00000000000E+00 -0.11890166093E+04  0.11890166093E+04  0.00000000000E+00 0. -1.
         24    2    1    2    0    0  0.40890895032E+03 -0.57925690587E+02 -0.62684157636E+03  0.75571656576E+03  0.87265403417E+02 0.  0.
        254    2    1    2    0    0 -0.40890895032E+03  0.57925690587E+02 -0.30119794927E+02  0.96535528162E+03  0.87203308562E+03 0.  0.
         23    2    4    4    0    0 -0.26647572060E+03 -0.29770632354E+03  0.24922146864E+03  0.48079520054E+03  0.97027417178E+02 0.  0.
         23    2    4    4    0    0 -0.14243322972E+03  0.35563201413E+03 -0.27934126357E+03  0.48456008108E+03  0.10002787731E+03 0.  0.
          4    1    3    3  502    0  0.29438706981E+03 -0.23548295914E+02 -0.37845522892E+03  0.48004856984E+03  0.00000000000E+00 0. -1.
         -3    1    3    3    0  502  0.11452188052E+03 -0.34377394673E+02 -0.24838634744E+03  0.27566799592E+03  0.00000000000E+00 0.  1.
         13    1    5    5    0    0 -0.14860750028E+03 -0.94548454133E+02  0.10037835097E+03  0.20272990076E+03  0.00000000000E+00 0. -1.
        -13    1    5    5    0    0 -0.11786822032E+03 -0.20315786941E+03  0.14884311767E+03  0.27806529978E+03  0.00000000000E+00 0.  1.
          3    1    6    6  503    0 -0.33498294979E+02  0.91374263293E+02 -0.12902824665E+03  0.16161584140E+03  0.00000000000E+00 0. -1.
         -3    1    6    6    0  503 -0.10893493474E+03  0.26425775083E+03 -0.15031301692E+03  0.32294423967E+03  0.00000000000E+00 0.  1.
<mgrwt>
<rscale>  0 0.15907514E+04</rscale>
<asrwt>0</asrwt>
<pdfrwt beam="1">  1        2 0.18292563E+00 0.15907514E+04</pdfrwt>
<pdfrwt beam="2">  1       -1 0.81854652E-01 0.15907514E+04</pdfrwt>
<totfact> 0.31257000E+01</totfact>
</mgrwt>
</event>
<event>
12    7  0.1740517E-007  0.1638718E+04  0.7818608E-02  0.8797109E-01
         -1   -1    0    0    0  501 -0.00000000000E+00  0.00000000000E+00  0.38497199308E+03  0.38497199308E+03  0.00000000000E+00 0.  1.
          2   -1    0    0  501    0  0.00000000000E+00 -0.00000000000E+00 -0.17438918996E+04  0.17438918996E+04  0.00000000000E+00 0. -1.
         24    2    1    2    0    0 -0.42263521193E+03 -0.28896193439E+03 -0.80001297408E+03  0.95313323219E+03  0.79515267203E+02 0.  0.
        254    2    1    2    0    0  0.42263521193E+03  0.28896193439E+03 -0.55890693247E+03  0.11757306605E+04  0.89880259512E+03 0.  0.
         23    2    4    4    0    0 -0.17410210933E+03 -0.17028825543E+03 -0.57037622154E+02  0.26660601800E+03  0.92281331180E+02 0.  0.
         23    2    4    4    0    0  0.59673732127E+03  0.45925018982E+03 -0.50186931032E+03  0.90912464251E+03  0.87342106284E+02 0.  0.
          4    1    3    3  502    0 -0.30816905003E+03 -0.23444583372E+03 -0.65130303545E+03  0.75771277958E+03  0.00000000000E+00 0. -1.
         -3    1    3    3    0  502 -0.11446616190E+03 -0.54516100671E+02 -0.14870993862E+03  0.19542045261E+03  0.00000000000E+00 0.  1.
         13    1    5    5    0    0 -0.33925529524E+02 -0.91187408012E+02 -0.48984579501E+01  0.97417040726E+02  0.00000000000E+00 0.  1.
        -13    1    5    5    0    0 -0.14017657981E+03 -0.79100847416E+02 -0.52139164204E+02  0.16918897728E+03  0.00000000000E+00 0. -1.
          3    1    6    6  503    0  0.53961422347E+03  0.41016845311E+03 -0.41767919373E+03  0.79616429145E+03  0.00000000000E+00 0. -1.
         -3    1    6    6    0  503  0.57123097794E+02  0.49081736707E+02 -0.84190116590E+02  0.11296035106E+03  0.00000000000E+00 0.  1.
<mgrwt>
<rscale>  0 0.16387185E+04</rscale>
<asrwt>0</asrwt>
<pdfrwt beam="1">  1        2 0.26829106E+00 0.16387185E+04</pdfrwt>
<pdfrwt beam="2">  1       -1 0.59226461E-01 0.16387185E+04</pdfrwt>
<totfact> 0.29178010E+01</totfact>
</mgrwt>
</event>
<event>
12    7  0.1740517E-007  0.1553405E+04  0.7818608E-02  0.8849696E-01
         -1   -1    0    0    0  501 -0.00000000000E+00  0.00000000000E+00  0.59013637243E+03  0.59013637243E+03  0.00000000000E+00 0.  1.
          2   -1    0    0  501    0  0.00000000000E+00 -0.00000000000E+00 -0.10222497066E+04  0.10222497066E+04  0.00000000000E+00 0. -1.
         24    2    1    2    0    0 -0.32042527190E+03 -0.26448325815E+03 -0.30743223867E+03  0.52300442708E+03  0.79970623727E+02 0.  0.
        254    2    1    2    0    0  0.32042527190E+03  0.26448325815E+03 -0.12468109555E+03  0.10893816520E+04  0.99929137863E+03 0.  0.
         23    2    4    4    0    0  0.38361454236E+03 -0.28852079024E+03 -0.17677917285E+03  0.52179476519E+03  0.10302687765E+03 0.  0.
         23    2    4    4    0    0 -0.63189270456E+02  0.55300404839E+03  0.52098077299E+02  0.56758688680E+03  0.98154485266E+02 0.  0.
          2    1    3    3  502    0 -0.24127834238E+03 -0.19998170507E+03 -0.27190718389E+03  0.41489931009E+03  0.00000000000E+00 0. -1.
         -1    1    3    3    0  502 -0.79146929523E+02 -0.64501553078E+02 -0.35525054782E+02  0.10810511699E+03  0.00000000000E+00 0.  1.
         13    1    5    5    0    0  0.38504486321E+03 -0.27178524314E+03 -0.15915990425E+03  0.49745214865E+03  0.00000000000E+00 0.  1.
        -13    1    5    5    0    0 -0.14303208476E+01 -0.16735547099E+02 -0.17619268595E+02  0.24342616545E+02  0.00000000000E+00 0. -1.
          4    1    6    6  503    0 -0.20161297930E+02  0.11770537477E+03 -0.28572644820E+02  0.12279018371E+03  0.00000000000E+00 0. -1.
         -4    1    6    6    0  503 -0.43027972526E+02  0.43529867362E+03  0.80670722119E+02  0.44479670309E+03  0.00000000000E+00 0.  1.
<mgrwt>
<rscale>  0 0.15534049E+04</rscale>
<asrwt>0</asrwt>
<pdfrwt beam="1">  1        2 0.15726918E+00 0.15534049E+04</pdfrwt>
<pdfrwt beam="2">  1       -1 0.90790213E-01 0.15534049E+04</pdfrwt>
<totfact> 0.31713433E+01</totfact>
</mgrwt>
</event>
<event>
12    7  0.1740517E-007  0.2260918E+04  0.7818608E-02  0.8493492E-01
         -1   -1    0    0    0  501 -0.00000000000E+00  0.00000000000E+00  0.62958365240E+03  0.62958365240E+03  0.00000000000E+00 0.  1.
          2   -1    0    0  501    0  0.00000000000E+00 -0.00000000000E+00 -0.20298136818E+04  0.20298136818E+04  0.00000000000E+00 0. -1.
         24    2    1    2    0    0  0.57063573744E+03  0.74266897959E+03 -0.40185595047E+03  0.10225027427E+04  0.82712126331E+02 0.  0.
        254    2    1    2    0    0 -0.57063573744E+03 -0.74266897959E+03 -0.99837407888E+03  0.16368945914E+04  0.89749136153E+03 0.  0.
         23    2    4    4    0    0 -0.16162474521E+03 -0.81914074795E+03 -0.82187255644E+03  0.11759557536E+04  0.10140666685E+03 0.  0.
         23    2    4    4    0    0 -0.40901099223E+03  0.76471768356E+02 -0.17650152244E+03  0.46093883789E+03  0.90409632957E+02 0.  0.
          2    1    3    3  502    0  0.56903685357E+03  0.72804314804E+03 -0.38767663146E+03  0.10020693273E+04  0.00000000000E+00 0. -1.
         -1    1    3    3    0  502  0.15988838745E+01  0.14625831549E+02 -0.14179319009E+02  0.20433415420E+02  0.00000000000E+00 0.  1.
         13    1    5    5    0    0 -0.16277885806E+03 -0.73554610278E+03 -0.77173715048E+03  0.10784726493E+04  0.00000000000E+00 0. -1.
        -13    1    5    5    0    0  0.11541128434E+01 -0.83594645165E+02 -0.50135405965E+02  0.97483104218E+02  0.00000000000E+00 0.  1.
          4    1    6    6  503    0 -0.37588749016E+03  0.50747378956E+02 -0.13687172118E+03  0.40323760959E+03  0.00000000000E+00 0. -1.
         -4    1    6    6    0  503 -0.33123502070E+02  0.25724389400E+02 -0.39629801259E+02  0.57701228299E+02  0.00000000000E+00 0.  1.
<mgrwt>
<rscale>  0 0.22609180E+04</rscale>
<asrwt>0</asrwt>
<pdfrwt beam="1">  1        2 0.31227902E+00 0.22609180E+04</pdfrwt>
<pdfrwt beam="2">  1       -1 0.96859024E-01 0.22609180E+04</pdfrwt>
<totfact> 0.68220129E+00</totfact>
</mgrwt>
</event>
<event>
12    7  0.1740517E-007  0.2148926E+04  0.7818608E-02  0.8539992E-01
         -1   -1    0    0    0  501 -0.00000000000E+00  0.00000000000E+00  0.23030916112E+04  0.23030916112E+04  0.00000000000E+00 0.  1.
          2   -1    0    0  501    0  0.00000000000E+00 -0.00000000000E+00 -0.50127018741E+03  0.50127018741E+03  0.00000000000E+00 0. -1.
         24    2    1    2    0    0 -0.13924137589E+03  0.99303993048E+01  0.19150787736E+04  0.19218061922E+04  0.79533375357E+02 0.  0.
        254    2    1    2    0    0  0.13924137589E+03 -0.99303993048E+01 -0.11325734979E+03  0.88255560640E+03  0.86405462646E+03 0.  0.
         23    2    4    4    0    0 -0.22285367916E+03  0.48751604025E+02  0.25599789220E+03  0.35420574697E+03  0.88804893822E+02 0.  0.
         23    2    4    4    0    0  0.36209505505E+03 -0.58682003330E+02 -0.36925524199E+03  0.52834985943E+03  0.90817034824E+02 0.  0.
          2    1    3    3  502    0 -0.21862748668E+02  0.15412277882E+02  0.12280276478E+03  0.12568228644E+03  0.00000000000E+00 0. -1.
         -1    1    3    3    0  502 -0.11737862722E+03 -0.54818785771E+01  0.17922760088E+04  0.17961239058E+04  0.00000000000E+00 0.  1.
         13    1    5    5    0    0 -0.95971547210E+02  0.41220248724E+01  0.50289289504E+02  0.10842758690E+03  0.00000000000E+00 0. -1.
        -13    1    5    5    0    0 -0.12688213195E+03  0.44629579153E+02  0.20570860269E+03  0.24577816007E+03  0.00000000000E+00 0.  1.
          2    1    6    6  503    0  0.14607748951E+02 -0.24005366157E+02 -0.20266173181E+02  0.34646236580E+02  0.00000000000E+00 0. -1.
         -2    1    6    6    0  503  0.34748730610E+03 -0.34676637173E+02 -0.34898906881E+03  0.49370362285E+03  0.00000000000E+00 0.  1.
<mgrwt>
<rscale>  0 0.21489264E+04</rscale>
<asrwt>0</asrwt>
<pdfrwt beam="1">  1        2 0.77118491E-01 0.21489264E+04</pdfrwt>
<pdfrwt beam="2">  1       -1 0.35432178E+00 0.21489264E+04</pdfrwt>
<totfact> 0.93710510E-01</totfact>
</mgrwt>
</event>
<event>
12    7  0.1740517E-007  0.2374727E+04  0.7818608E-02  0.8449026E-01
          2   -1    0    0  501    0  0.00000000000E+00  0.00000000000E+00  0.12250078372E+04  0.12250078372E+04  0.00000000000E+00 0. -1.
         -1   -1    0    0    0  501 -0.00000000000E+00 -0.00000000000E+00 -0.11508763200E+04  0.11508763200E+04  0.00000000000E+00 0.  1.
         24    2    1    2    0    0 -0.76019054397E+03  0.53119704440E+02 -0.64354662140E+03  0.10004869608E+04  0.78169934528E+02 0.  0.
        254    2    1    2    0    0  0.76019054397E+03 -0.53119704440E+02  0.71767813855E+03  0.13753971964E+04  0.89215703279E+03 0.  0.
         23    2    4    4    0    0 -0.13748666223E+03 -0.66313057650E+02  0.36582919962E+03  0.40675436532E+03  0.91203654040E+02 0.  0.
         23    2    4    4    0    0  0.89767720620E+03  0.13193353211E+02  0.35184893893E+03  0.96864283107E+03  0.92047961712E+02 0.  0.
          2    1    3    3  502    0 -0.55354458625E+03  0.44975804417E+02 -0.42273831752E+03  0.69795566983E+03  0.00000000000E+00 0. -1.
         -1    1    3    3    0  502 -0.20664595772E+03  0.81439000224E+01 -0.22080830388E+03  0.30253129096E+03  0.00000000000E+00 0.  1.
         13    1    5    5    0    0 -0.11687626974E+03 -0.25708822293E+02  0.18539759284E+03  0.22066552382E+03  0.00000000000E+00 0. -1.
        -13    1    5    5    0    0 -0.20610392490E+02 -0.40604235357E+02  0.18043160677E+03  0.18608884150E+03  0.00000000000E+00 0.  1.
          2    1    6    6  503    0  0.78649720377E+03 -0.13374188521E+02  0.32573871103E+03  0.85138852959E+03  0.00000000000E+00 0. -1.
         -2    1    6    6    0  503  0.11118000243E+03  0.26567541732E+02  0.26110227900E+02  0.11725430147E+03  0.00000000000E+00 0.  1.
<mgrwt>
<rscale>  0 0.23747274E+04</rscale>
<asrwt>0</asrwt>
<pdfrwt beam="1">  1        2 0.18846274E+00 0.23747274E+04</pdfrwt>
<pdfrwt beam="2">  1       -1 0.17705790E+00 0.23747274E+04</pdfrwt>
<totfact> 0.41077516E+00</totfact>
</mgrwt>
</event>
<event>
12    7  0.1740517E-007  0.1862686E+04  0.7818608E-02  0.8673656E-01
          2   -1    0    0  501    0  0.00000000000E+00  0.00000000000E+00  0.15758795893E+04  0.15758795893E+04  0.00000000000E+00 0. -1.
         -1   -1    0    0    0  501 -0.00000000000E+00 -0.00000000000E+00 -0.55042280031E+03  0.55042280031E+03  0.00000000000E+00 0.  1.
         24    2    1    2    0    0 -0.54231398254E+03  0.17347342021E+03  0.87477565493E+03  0.10468005853E+04  0.79759236352E+02 0.  0.
        254    2    1    2    0    0  0.54231398254E+03 -0.17347342021E+03  0.15068113411E+03  0.10795018043E+04  0.90466671112E+03 0.  0.
         23    2    4    4    0    0  0.28823612174E+03 -0.43368574469E+02  0.52072710715E+03  0.60332984743E+03  0.88821672703E+02 0.  0.
         23    2    4    4    0    0  0.25407786080E+03 -0.13010484575E+03 -0.37004597305E+03  0.47617195691E+03  0.91229820492E+02 0.  0.
          2    1    3    3  502    0 -0.33306445737E+02 -0.50804163157E+01  0.73758474181E+02  0.81089102049E+02  0.00000000000E+00 0. -1.
         -1    1    3    3    0  502 -0.50900753680E+03  0.17855383653E+03  0.80101718075E+03  0.96571148327E+03  0.00000000000E+00 0.  1.
         13    1    5    5    0    0  0.18593386047E+02  0.20429203020E+02  0.47889733889E+02  0.55285558265E+02  0.00000000000E+00 0.  1.
        -13    1    5    5    0    0  0.26964273569E+03 -0.63797777489E+02  0.47283737327E+03  0.54804428916E+03  0.00000000000E+00 0. -1.
          2    1    6    6  503    0  0.19595613118E+03 -0.77823176917E+02 -0.32044327635E+03  0.38358720725E+03  0.00000000000E+00 0. -1.
         -2    1    6    6    0  503  0.58121729619E+02 -0.52281668829E+02 -0.49602696698E+02  0.92584749657E+02  0.00000000000E+00 0.  1.
<mgrwt>
<rscale>  0 0.18626863E+04</rscale>
<asrwt>0</asrwt>
<pdfrwt beam="1">  1        2 0.24244301E+00 0.18626863E+04</pdfrwt>
<pdfrwt beam="2">  1       -1 0.84680432E-01 0.18626863E+04</pdfrwt>
<totfact> 0.16994327E+01</totfact>
</mgrwt>
</event>
<event>
12    7  0.1740517E-007  0.1484588E+04  0.7818608E-02  0.8894767E-01
         -1   -1    0    0    0  501 -0.00000000000E+00  0.00000000000E+00  0.19618182839E+03  0.19618182839E+03  0.00000000000E+00 0.  1.
          2   -1    0    0  501    0  0.00000000000E+00 -0.00000000000E+00 -0.28086203877E+04  0.28086203877E+04  0.00000000000E+00 0. -1.
         24    2    1    2    0    0  0.94140752578E+02 -0.95396532504E+02  0.72736338760E+02  0.17212044519E+03  0.79824137738E+02 0.  0.
        254    2    1    2    0    0 -0.94140752578E+02  0.95396532504E+02 -0.26851748981E+04  0.28326817709E+04  0.89216523260E+03 0.  0.
         23    2    4    4    0    0  0.18719262493E+03 -0.31798932500E+03 -0.14077497907E+04  0.14580972644E+04  0.90165790935E+02 0.  0.
         23    2    4    4    0    0 -0.28133337750E+03  0.41338585750E+03 -0.12774251074E+04  0.13745845065E+04  0.87357448773E+02 0.  0.
          2    1    3    3  502    0  0.54608926633E+02 -0.31745307282E+01  0.16689854597E+02  0.57190591532E+02  0.00000000000E+00 0. -1.
         -1    1    3    3    0  502  0.39531825945E+02 -0.92222001776E+02  0.56046484163E+02  0.11492985366E+03  0.00000000000E+00 0.  1.
         13    1    5    5    0    0  0.13136866132E+03 -0.28506529209E+03 -0.12070528567E+04  0.12471954718E+04  0.00000000000E+00 0.  1.
        -13    1    5    5    0    0  0.55823963605E+02 -0.32924032903E+02 -0.20069693398E+03  0.21090179270E+03  0.00000000000E+00 0. -1.
          2    1    6    6  503    0 -0.87895823361E+02  0.11637852208E+03 -0.27396934619E+03  0.31036887540E+03  0.00000000000E+00 0. -1.
         -2    1    6    6    0  503 -0.19343755414E+03  0.29700733542E+03 -0.10034557612E+04  0.10642156311E+04  0.00000000000E+00 0.  1.
<mgrwt>
<rscale>  0 0.14845879E+04</rscale>
<asrwt>0</asrwt>
<pdfrwt beam="1">  1        2 0.43209540E+00 0.14845879E+04</pdfrwt>
<pdfrwt beam="2">  1       -1 0.30181823E-01 0.14845879E+04</pdfrwt>
<totfact> 0.25550982E+01</totfact>
</mgrwt>
</event>
<event>
12    7  0.1740517E-007  0.1257870E+04  0.7818608E-02  0.9063658E-01
         -1   -1    0    0    0  501 -0.00000000000E+00  0.00000000000E+00  0.23152503164E+04  0.23152503164E+04  0.00000000000E+00 0.  1.
          2   -1    0    0  501    0  0.00000000000E+00 -0.00000000000E+00 -0.17084947462E+03  0.17084947462E+03  0.00000000000E+00 0. -1.
         24    2    1    2    0    0  0.84727309270E+02 -0.14390810324E+03  0.43133953335E+01  0.18534999397E+03  0.80297918840E+02 0.  0.
        254    2    1    2    0    0 -0.84727309270E+02  0.14390810324E+03  0.21400874465E+04  0.23007497971E+04  0.82800186660E+03 0.  0.
         23    2    4    4    0    0 -0.36608960114E+03 -0.16416333078E+03  0.91060259682E+03  0.99916975807E+03  0.90398677270E+02 0.  0.
         23    2    4    4    0    0  0.28136229187E+03  0.30807143402E+03  0.12294848496E+04  0.13015800390E+04  0.91677994555E+02 0.  0.
          2    1    3    3  502    0  0.75917258991E+02 -0.15374426324E+03  0.79595009210E+01  0.17165104819E+03  0.00000000000E+00 0. -1.
         -1    1    3    3    0  502  0.88100502787E+01  0.98361599958E+01 -0.36461055875E+01  0.13698945775E+02  0.00000000000E+00 0.  1.
         13    1    5    5    0    0 -0.23786464476E+03 -0.14483580330E+03  0.67593836284E+03  0.73106064694E+03  0.00000000000E+00 0.  1.
        -13    1    5    5    0    0 -0.12822495638E+03 -0.19327527485E+02  0.23466423398E+03  0.26810911112E+03  0.00000000000E+00 0. -1.
          1    1    6    6  503    0  0.12608752406E+02  0.40163358986E+02  0.20000997542E+03  0.20439194287E+03  0.00000000000E+00 0. -1.
         -1    1    6    6    0  503  0.26875353947E+03  0.26790807504E+03  0.10294748742E+04  0.10971880961E+04  0.00000000000E+00 0.  1.
<mgrwt>
<rscale>  0 0.12578701E+04</rscale>
<asrwt>0</asrwt>
<pdfrwt beam="1">  1        2 0.26284536E-01 0.12578701E+04</pdfrwt>
<pdfrwt beam="2">  1       -1 0.35619233E+00 0.12578701E+04</pdfrwt>
<totfact> 0.33358495E+00</totfact>
</mgrwt>
</event>
<event>
12    7  0.1740517E-007  0.1614340E+04  0.7818608E-02  0.8811786E-01
         -1   -1    0    0    0  501 -0.00000000000E+00  0.00000000000E+00  0.18559436063E+04  0.18559436063E+04  0.00000000000E+00 0.  1.
          2   -1    0    0  501    0  0.00000000000E+00 -0.00000000000E+00 -0.35104720180E+03  0.35104720180E+03  0.00000000000E+00 0. -1.
         24    2    1    2    0    0  0.19099655508E+03  0.42684569959E+03  0.17245767992E+03  0.50474752009E+03  0.79696125131E+02 0.  0.
        254    2    1    2    0    0 -0.19099655508E+03 -0.42684569959E+03  0.13324387246E+04  0.17022432880E+04  0.95055895217E+03 0.  0.
         23    2    4    4    0    0 -0.52728378915E+03 -0.25338907921E+03  0.47010224543E+03  0.75600540489E+03  0.91180213279E+02 0.  0.
         23    2    4    4    0    0  0.33628723407E+03 -0.17345662037E+03  0.86233647915E+03  0.94623788314E+03  0.92550663221E+02 0.  0.
          4    1    3    3  502    0  0.18028358051E+03  0.38717279141E+03  0.13185801140E+03  0.44698039664E+03  0.00000000000E+00 0. -1.
         -3    1    3    3    0  502  0.10712974575E+02  0.39672908178E+02  0.40599668522E+02  0.57767123450E+02  0.00000000000E+00 0.  1.
         13    1    5    5    0    0 -0.14925957966E+02 -0.26361097800E+02  0.13624527716E+02  0.33216252858E+02  0.00000000000E+00 0. -1.
        -13    1    5    5    0    0 -0.51235783119E+03 -0.22702798141E+03  0.45647771772E+03  0.72278915203E+03  0.00000000000E+00 0.  1.
          4    1    6    6  503    0  0.28244117595E+03 -0.11902151201E+03  0.61207293051E+03  0.68452349153E+03  0.00000000000E+00 0.  1.
         -4    1    6    6    0  503  0.53846058124E+02 -0.54435108361E+02  0.25026354863E+03  0.26171439160E+03  0.00000000000E+00 0. -1.
<mgrwt>
<rscale>  0 0.16143405E+04</rscale>
<asrwt>0</asrwt>
<pdfrwt beam="1">  1        2 0.54007263E-01 0.16143405E+04</pdfrwt>
<pdfrwt beam="2">  1       -1 0.28552978E+00 0.16143405E+04</pdfrwt>
<totfact> 0.41429566E+00</totfact>
</mgrwt>
</event>
<event>
12    7  0.1740517E-007  0.1560144E+04  0.7818608E-02  0.8845414E-01
          2   -1    0    0  501    0  0.00000000000E+00  0.00000000000E+00  0.75496882771E+03  0.75496882771E+03  0.00000000000E+00 0. -1.
         -1   -1    0    0    0  501 -0.00000000000E+00 -0.00000000000E+00 -0.80600987639E+03  0.80600987639E+03  0.00000000000E+00 0.  1.
         24    2    1    2    0    0  0.59747500622E+02 -0.79956544675E+02  0.49587906101E+03  0.51250184901E+03  0.82457802725E+02 0.  0.
        254    2    1    2    0    0 -0.59747500622E+02  0.79956544675E+02 -0.54692010969E+03  0.10484768551E+04  0.88894279704E+03 0.  0.
         23    2    4    4    0    0  0.33911869622E+03  0.26878115579E+03 -0.24082798585E+03  0.50369195121E+03  0.91992734006E+02 0.  0.
         23    2    4    4    0    0 -0.39886619684E+03 -0.18882461112E+03 -0.30609212384E+03  0.54478490388E+03  0.91374101780E+02 0.  0.
          4    1    3    3  502    0 -0.11210585387E+02 -0.47040871135E+02  0.24441175841E+03  0.24914981122E+03  0.00000000000E+00 0. -1.
         -3    1    3    3    0  502  0.70958086009E+02 -0.32915673540E+02  0.25146730259E+03  0.26335203779E+03  0.00000000000E+00 0.  1.
         13    1    5    5    0    0  0.21543843665E+03  0.22197198647E+03 -0.18253916701E+03  0.35917381621E+03  0.00000000000E+00 0.  1.
        -13    1    5    5    0    0  0.12368025957E+03  0.46809169320E+02 -0.58288818843E+02  0.14451813499E+03  0.00000000000E+00 0. -1.
          3    1    6    6  503    0 -0.15436615314E+03 -0.71797231742E+02 -0.17332966097E+03  0.24295457001E+03  0.00000000000E+00 0. -1.
         -3    1    6    6    0  503 -0.24450004370E+03 -0.11702737937E+03 -0.13276246287E+03  0.30183033386E+03  0.00000000000E+00 0.  1.
<mgrwt>
<rscale>  0 0.15601440E+04</rscale>
<asrwt>0</asrwt>
<pdfrwt beam="1">  1        2 0.11614905E+00 0.15601440E+04</pdfrwt>
<pdfrwt beam="2">  1       -1 0.12400152E+00 0.15601440E+04</pdfrwt>
<totfact> 0.23318341E+01</totfact>
</mgrwt>
</event>
<event>
12    7  0.1740517E-007  0.1485585E+04  0.7818608E-02  0.8894096E-01
         -1   -1    0    0    0  501 -0.00000000000E+00  0.00000000000E+00  0.58771365331E+03  0.58771365331E+03  0.00000000000E+00 0.  1.
          2   -1    0    0  501    0  0.00000000000E+00 -0.00000000000E+00 -0.93879144644E+03  0.93879144644E+03  0.00000000000E+00 0. -1.
         24    2    1    2    0    0  0.65178495937E+02 -0.35883049862E+03  0.27062874695E+03  0.46099077692E+03  0.79151845562E+02 0.  0.
        254    2    1    2    0    0 -0.65178495937E+02  0.35883049862E+03 -0.62170654008E+03  0.10655143228E+04  0.78472554891E+03 0.  0.
         23    2    4    4    0    0 -0.21638794475E+03 -0.31209175610E+02 -0.59028713141E+03  0.63574587255E+03  0.89085137302E+02 0.  0.
         23    2    4    4    0    0  0.15120944881E+03  0.39003967423E+03 -0.31419408674E+02  0.42976845029E+03  0.93372890791E+02 0.  0.
          4    1    3    3  502    0 -0.10150680855E+02 -0.14360076523E+02  0.27655670178E+02  0.32773224018E+02  0.00000000000E+00 0. -1.
         -3    1    3    3    0  502  0.75329176792E+02 -0.34447042210E+03  0.24297307677E+03  0.42821755290E+03  0.00000000000E+00 0.  1.
         13    1    5    5    0    0 -0.12490412548E+03  0.13241731867E+02 -0.23853395432E+03  0.26958269860E+03  0.00000000000E+00 0. -1.
        -13    1    5    5    0    0 -0.91483819273E+02 -0.44450907477E+02 -0.35175317709E+03  0.36616317395E+03  0.00000000000E+00 0.  1.
          4    1    6    6  503    0 -0.23204668351E+01 -0.45964522661E+01 -0.83587484788E+00  0.52163805966E+01  0.00000000000E+00 0. -1.
         -4    1    6    6    0  503  0.15352991565E+03  0.39463612650E+03 -0.30583533826E+02  0.42455206969E+03  0.00000000000E+00 0.  1.
<mgrwt>
<rscale>  0 0.14855848E+04</rscale>
<asrwt>0</asrwt>
<pdfrwt beam="1">  1        2 0.14442945E+00 0.14855848E+04</pdfrwt>
<pdfrwt beam="2">  1       -1 0.90417485E-01 0.14855848E+04</pdfrwt>
<totfact> 0.36457044E+01</totfact>
</mgrwt>
</event>
<event>
12    7  0.1740517E-007  0.1440436E+04  0.7818608E-02  0.8925058E-01
          2   -1    0    0  501    0  0.00000000000E+00  0.00000000000E+00  0.21568331830E+04  0.21568331830E+04  0.00000000000E+00 0. -1.
         -1   -1    0    0    0  501 -0.00000000000E+00 -0.00000000000E+00 -0.24049787209E+03  0.24049787209E+03  0.00000000000E+00 0.  1.
         24    2    1    2    0    0  0.16046737163E+03 -0.73585840520E+02  0.12203668688E+04  0.12356631367E+04  0.80021494686E+02 0.  0.
        254    2    1    2    0    0 -0.16046737163E+03  0.73585840520E+02  0.69596844204E+03  0.11616679183E+04  0.91320075935E+03 0.  0.
         23    2    4    4    0    0 -0.33846640800E+03  0.14197254732E+03  0.82939056633E+03  0.91127979607E+03  0.88467178458E+02 0.  0.
         23    2    4    4    0    0  0.17799903637E+03 -0.68386706805E+02 -0.13342212430E+03  0.25038812225E+03  0.92370719917E+02 0.  0.
          4    1    3    3  502    0  0.12768626188E+03 -0.87435725482E+02  0.10705653395E+04  0.10816926244E+04  0.00000000000E+00 0. -1.
         -3    1    3    3    0  502  0.32781109747E+02  0.13849884962E+02  0.14980152939E+03  0.15397051236E+03  0.00000000000E+00 0.  1.
         13    1    5    5    0    0 -0.33399986300E+03  0.14200275958E+03  0.76491461423E+03  0.84664931304E+03  0.00000000000E+00 0. -1.
        -13    1    5    5    0    0 -0.44665450052E+01 -0.30212252042E-01  0.64475952105E+02  0.64630483032E+02  0.00000000000E+00 0.  1.
          4    1    6    6  503    0  0.14929700821E+03 -0.59840888441E+02 -0.14663843638E+03  0.21765422030E+03  0.00000000000E+00 0. -1.
         -4    1    6    6    0  503  0.28702028158E+02 -0.85458183635E+01  0.13216312086E+02  0.32733901953E+02  0.00000000000E+00 0.  1.
<mgrwt>
<rscale>  0 0.14404358E+04</rscale>
<asrwt>0</asrwt>
<pdfrwt beam="1">  1        2 0.33182048E+00 0.14404358E+04</pdfrwt>
<pdfrwt beam="2">  1       -1 0.36999674E-01 0.14404358E+04</pdfrwt>
<totfact> 0.42421900E+01</totfact>
</mgrwt>
</event>
<event>
12    7  0.1740517E-007  0.1419686E+04  0.7818608E-02  0.8939691E-01
          2   -1    0    0  501    0  0.00000000000E+00  0.00000000000E+00  0.32036842119E+04  0.32036842119E+04  0.00000000000E+00 0. -1.
         -1   -1    0    0    0  501 -0.00000000000E+00 -0.00000000000E+00 -0.15728049050E+03  0.15728049050E+03  0.00000000000E+00 0.  1.
         24    2    1    2    0    0  0.34417602188E+03  0.45676005696E+02  0.36137819390E+03  0.50742163621E+03  0.79618379385E+02 0.  0.
        254    2    1    2    0    0 -0.34417602188E+03 -0.45676005696E+02  0.26850255275E+04  0.28535430662E+04  0.90155560880E+03 0.  0.
         23    2    4    4    0    0 -0.18408953244E+03 -0.34414411895E+03  0.22953518093E+04  0.23300700344E+04  0.90897230042E+02 0.  0.
         23    2    4    4    0    0 -0.16008648943E+03  0.29846811325E+03  0.38967371829E+03  0.52347303183E+03  0.86414753344E+02 0.  0.
          2    1    3    3  502    0  0.22876983390E+03  0.60412325007E+02  0.27332814856E+03  0.36151564656E+03  0.00000000000E+00 0. -1.
         -1    1    3    3    0  502  0.11540618798E+03 -0.14736319311E+02  0.88050045344E+02  0.14590598965E+03  0.00000000000E+00 0.  1.
         13    1    5    5    0    0 -0.12489209056E+03 -0.30301765775E+03  0.19384782414E+04  0.19659897324E+04  0.00000000000E+00 0.  1.
        -13    1    5    5    0    0 -0.59197441889E+02 -0.41126461201E+02  0.35687356780E+03  0.36408030204E+03  0.00000000000E+00 0. -1.
          1    1    6    6  503    0 -0.66078864399E+01  0.81708548753E+02  0.11667834779E+03  0.14259659164E+03  0.00000000000E+00 0. -1.
         -1    1    6    6    0  503 -0.15347860299E+03  0.21675956450E+03  0.27299537050E+03  0.38087644019E+03  0.00000000000E+00 0.  1.
<mgrwt>
<rscale>  0 0.14196859E+04</rscale>
<asrwt>0</asrwt>
<pdfrwt beam="1">  1        2 0.49287445E+00 0.14196859E+04</pdfrwt>
<pdfrwt beam="2">  1       -1 0.24197001E-01 0.14196859E+04</pdfrwt>
<totfact> 0.21392049E+01</totfact>
</mgrwt>
</event>
<event>
12    7  0.1740517E-007  0.2115294E+04  0.7818608E-02  0.8554536E-01
          2   -1    0    0  501    0  0.00000000000E+00  0.00000000000E+00  0.23995498150E+04  0.23995498150E+04  0.00000000000E+00 0. -1.
         -1   -1    0    0    0  501 -0.00000000000E+00 -0.00000000000E+00 -0.46617779854E+03  0.46617779854E+03  0.00000000000E+00 0.  1.
         24    2    1    2    0    0 -0.77807663439E+02  0.76284558867E+03  0.25402055702E+03  0.81171924205E+03  0.79838962212E+02 0.  0.
        254    2    1    2    0    0  0.77807663439E+02 -0.76284558867E+03  0.16793514595E+04  0.20540083715E+04  0.90041192862E+03 0.  0.
         23    2    4    4    0    0  0.37608051020E+03 -0.12908780476E+03  0.97339558679E+03  0.10551387486E+04  0.87855557126E+02 0.  0.
         23    2    4    4    0    0 -0.29827284676E+03 -0.63375778391E+03  0.70595587269E+03  0.99886962293E+03  0.93547900244E+02 0.  0.
          4    1    3    3  502    0 -0.75399735190E+02  0.51318228199E+03  0.20228301690E+03  0.55674014903E+03  0.00000000000E+00 0. -1.
         -3    1    3    3    0  502 -0.24079282493E+01  0.24966330668E+03  0.51737540111E+02  0.25497909302E+03  0.00000000000E+00 0.  1.
         13    1    5    5    0    0  0.91097839514E+02 -0.69898104659E+02  0.31500051361E+03  0.33527583416E+03  0.00000000000E+00 0.  1.
        -13    1    5    5    0    0  0.28498267069E+03 -0.59189700099E+02  0.65839507318E+03  0.71986291444E+03  0.00000000000E+00 0. -1.
          4    1    6    6  503    0 -0.20793036755E+03 -0.43859298798E+03  0.54787463918E+03  0.73196001742E+03  0.00000000000E+00 0. -1.
         -4    1    6    6    0  503 -0.90342479216E+02 -0.19516479594E+03  0.15808123352E+03  0.26690960551E+03  0.00000000000E+00 0.  1.
<mgrwt>
<rscale>  0 0.21152937E+04</rscale>
<asrwt>0</asrwt>
<pdfrwt beam="1">  1        2 0.36916150E+00 0.21152937E+04</pdfrwt>
<pdfrwt beam="2">  1       -1 0.71719662E-01 0.21152937E+04</pdfrwt>
<totfact> 0.81785836E+00</totfact>
</mgrwt>
</event>
<event>
12    7  0.1740517E-007  0.1521696E+04  0.7818608E-02  0.8870152E-01
          2   -1    0    0  501    0  0.00000000000E+00  0.00000000000E+00  0.99647971592E+03  0.99647971592E+03  0.00000000000E+00 0. -1.
         -1   -1    0    0    0  501 -0.00000000000E+00 -0.00000000000E+00 -0.58093475422E+03  0.58093475422E+03  0.00000000000E+00 0.  1.
         24    2    1    2    0    0  0.81607992212E+02  0.35958589541E+03 -0.20042077616E+03  0.42712043038E+03  0.79381949786E+02 0.  0.
        254    2    1    2    0    0 -0.81607992212E+02 -0.35958589541E+03  0.61596573787E+03  0.11502940398E+04  0.89877734012E+03 0.  0.
         23    2    4    4    0    0 -0.14084774872E+03  0.27197263645E+03  0.28846768868E+03  0.43046149527E+03  0.90974107316E+02 0.  0.
         23    2    4    4    0    0  0.59239756512E+02 -0.63155853186E+03  0.32749804919E+03  0.71983254449E+03  0.92349293244E+02 0.  0.
          4    1    3    3  502    0  0.57359759587E+02  0.27249473105E+03 -0.18771531909E+03  0.33582817257E+03  0.00000000000E+00 0. -1.
         -3    1    3    3    0  502  0.24248232624E+02  0.87091164360E+02 -0.12705457071E+02  0.91292257801E+02  0.00000000000E+00 0.  1.
         13    1    5    5    0    0 -0.38785537343E+01  0.58881260557E+02  0.94510360203E+02  0.11141927216E+03  0.00000000000E+00 0.  1.
        -13    1    5    5    0    0 -0.13696919499E+03  0.21309137589E+03  0.19395732847E+03  0.31904222311E+03  0.00000000000E+00 0. -1.
          2    1    6    6  503    0  0.34685878968E+02 -0.11836241256E+03  0.96033771281E+02  0.15631780491E+03  0.00000000000E+00 0. -1.
         -2    1    6    6    0  503  0.24553877544E+02 -0.51319611931E+03  0.23146427791E+03  0.56351473958E+03  0.00000000000E+00 0.  1.
<mgrwt>
<rscale>  0 0.15216960E+04</rscale>
<asrwt>0</asrwt>
<pdfrwt beam="1">  1        2 0.15330457E+00 0.15216960E+04</pdfrwt>
<pdfrwt beam="2">  1       -1 0.89374578E-01 0.15216960E+04</pdfrwt>
<totfact> 0.34192195E+01</totfact>
</mgrwt>
</event>
<event>
12    7  0.1740517E-007  0.1393897E+04  0.7818608E-02  0.8958248E-01
          2   -1    0    0  501    0  0.00000000000E+00  0.00000000000E+00  0.29543536580E+04  0.29543536580E+04  0.00000000000E+00 0. -1.
         -1   -1    0    0    0  501 -0.00000000000E+00 -0.00000000000E+00 -0.16441412494E+03  0.16441412494E+03  0.00000000000E+00 0.  1.
         24    2    1    2    0    0  0.32672190592E+03 -0.15721385122E+03  0.11560875147E+04  0.12140409361E+04  0.76770138647E+02 0.  0.
        254    2    1    2    0    0 -0.32672190592E+03  0.15721385122E+03  0.16338520184E+04  0.19047268468E+04  0.90942209349E+03 0.  0.
         23    2    4    4    0    0 -0.26558916391E+03 -0.33933522406E+03  0.99131419093E+03  0.10848591486E+04  0.92355557263E+02 0.  0.
         23    2    4    4    0    0 -0.61132742008E+02  0.49654907528E+03  0.64253782748E+03  0.81986769819E+03  0.95026241046E+02 0.  0.
          2    1    3    3  502    0  0.25277774426E+03 -0.12552418032E+03  0.78118300368E+03  0.83060206663E+03  0.00000000000E+00 0. -1.
         -1    1    3    3    0  502  0.73944161656E+02 -0.31689670903E+02  0.37490451097E+03  0.38343886948E+03  0.00000000000E+00 0.  1.
         13    1    5    5    0    0 -0.20819520578E+03 -0.31630753506E+03  0.86267433604E+03  0.94212669557E+03  0.00000000000E+00 0.  1.
        -13    1    5    5    0    0 -0.57393958135E+02 -0.23027689001E+02  0.12863985489E+03  0.14273245307E+03  0.00000000000E+00 0. -1.
          2    1    6    6  503    0 -0.85525123121E+02  0.36859759993E+03  0.46029366491E+03  0.59585987893E+03  0.00000000000E+00 0.  1.
         -2    1    6    6    0  503  0.24392381113E+02  0.12795147536E+03  0.18224416257E+03  0.22400781926E+03  0.00000000000E+00 0. -1.
<mgrwt>
<rscale>  0 0.13938974E+04</rscale>
<asrwt>0</asrwt>
<pdfrwt beam="1">  1        2 0.45451591E+00 0.13938974E+04</pdfrwt>
<pdfrwt beam="2">  1       -1 0.25294483E-01 0.13938974E+04</pdfrwt>
<totfact> 0.28551323E+01</totfact>
</mgrwt>
</event>
<event>
12    7  0.1740517E-007  0.3567624E+04  0.7818608E-02  0.8097948E-01
         -1   -1    0    0    0  501 -0.00000000000E+00  0.00000000000E+00  0.10750705240E+04  0.10750705240E+04  0.00000000000E+00 0.  1.
          2   -1    0    0  501    0  0.00000000000E+00 -0.00000000000E+00 -0.29597926220E+04  0.29597926220E+04  0.00000000000E+00 0. -1.
         24    2    1    2    0    0 -0.25245257868E+03 -0.45009676692E+03 -0.26751058825E+04  0.27255920759E+04  0.79632137986E+02 0.  0.
        254    2    1    2    0    0  0.25245257868E+03  0.45009676692E+03  0.79038378441E+03  0.13092710701E+04  0.90728430184E+03 0.  0.
         23    2    4    4    0    0  0.10480311090E+03  0.32179857216E+03 -0.12328766531E+03  0.37070981238E+03  0.87680690451E+02 0.  0.
         23    2    4    4    0    0  0.14764946778E+03  0.12829819476E+03  0.91367144972E+03  0.93856125776E+03  0.88548994475E+02 0.  0.
          2    1    3    3  502    0 -0.21887230701E+03 -0.42266299587E+03 -0.25191069326E+04  0.25636787694E+04  0.00000000000E+00 0. -1.
         -1    1    3    3    0  502 -0.33580271677E+02 -0.27433771048E+02 -0.15599894992E+03  0.16191330648E+03  0.00000000000E+00 0.  1.
         13    1    5    5    0    0  0.10268464320E+03  0.29888529656E+03 -0.13641533112E+03  0.34421751701E+03  0.00000000000E+00 0. -1.
        -13    1    5    5    0    0  0.21184676946E+01  0.22913275598E+02  0.13127665818E+02  0.26492295367E+02  0.00000000000E+00 0.  1.
          4    1    6    6  503    0  0.14375864330E+03  0.85678099571E+02  0.79459555496E+03  0.81202794301E+03  0.00000000000E+00 0. -1.
         -4    1    6    6    0  503  0.38908244854E+01  0.42620095184E+02  0.11907589476E+03  0.12653331475E+03  0.00000000000E+00 0.  1.
<mgrwt>
<rscale>  0 0.35676243E+04</rscale>
<asrwt>0</asrwt>
<pdfrwt beam="1">  1        2 0.45535270E+00 0.35676243E+04</pdfrwt>
<pdfrwt beam="2">  1       -1 0.16539547E+00 0.35676243E+04</pdfrwt>
<totfact> 0.45542790E-01</totfact>
</mgrwt>
</event>
<event>
12    7  0.1740517E-007  0.1741515E+04  0.7818608E-02  0.8738035E-01
         -1   -1    0    0    0  501 -0.00000000000E+00  0.00000000000E+00  0.29213548902E+03  0.29213548902E+03  0.00000000000E+00 0.  1.
          2   -1    0    0  501    0  0.00000000000E+00 -0.00000000000E+00 -0.25954349961E+04  0.25954349961E+04  0.00000000000E+00 0. -1.
         24    2    1    2    0    0  0.41020279245E+02  0.51281007269E+02  0.20021936096E+03  0.22648076101E+03  0.83026125918E+02 0.  0.
        254    2    1    2    0    0 -0.41020279245E+02 -0.51281007269E+02 -0.25035188681E+04  0.26610897242E+04  0.89971072694E+03 0.  0.
         23    2    4    4    0    0 -0.65409510059E+02 -0.39610988898E+03 -0.20091705985E+04  0.20509924100E+04  0.92854314569E+02 0.  0.
         23    2    4    4    0    0  0.24389230813E+02  0.34482888172E+03 -0.49434826957E+03  0.61009731417E+03  0.91305689264E+02 0.  0.
          4    1    3    3  502    0 -0.17224686939E+02  0.43323208712E+02  0.78301124615E+02  0.91129887354E+02  0.00000000000E+00 0. -1.
         -3    1    3    3    0  502  0.58244966184E+02  0.79577985568E+01  0.12191823635E+03  0.13535087365E+03  0.00000000000E+00 0.  1.
         13    1    5    5    0    0 -0.73379978884E+02 -0.17629133674E+03 -0.10106149245E+04  0.10284968558E+04  0.00000000000E+00 0.  1.
        -13    1    5    5    0    0  0.79704688252E+01 -0.21981855224E+03 -0.99855567398E+03  0.10224955542E+04  0.00000000000E+00 0. -1.
          1    1    6    6  503    0 -0.13271179681E+02  0.68827469039E+01 -0.88835246653E+01  0.17390038112E+02  0.00000000000E+00 0. -1.
         -1    1    6    6    0  503  0.37660410494E+02  0.33794613481E+03 -0.48546474490E+03  0.59270727606E+03  0.00000000000E+00 0.  1.
<mgrwt>
<rscale>  0 0.17415151E+04</rscale>
<asrwt>0</asrwt>
<pdfrwt beam="1">  1        2 0.39929770E+00 0.17415151E+04</pdfrwt>
<pdfrwt beam="2">  1       -1 0.44943920E-01 0.17415151E+04</pdfrwt>
<totfact> 0.16263611E+01</totfact>
</mgrwt>
</event>
