<event>
12    4  0.4424320E-008  0.1571197E+04  0.7818608E-02  0.8838441E-01
         -2   -1    0    0    0  501 -0.00000000000E+00  0.00000000000E+00  0.32281053471E+03  0.32281053471E+03  0.00000000000E+00 0.  1.
          1   -1    0    0  501    0  0.00000000000E+00 -0.00000000000E+00 -0.19118489059E+04  0.19118489059E+04  0.00000000000E+00 0. -1.
        -24    2    1    2    0    0 -0.29596791647E+03 -0.40688511624E+03 -0.31307313290E+03  0.59823920640E+03  0.81993024835E+02 0.  0.
        254    2    1    2    0    0  0.29596791647E+03  0.40688511624E+03 -0.12759652383E+04  0.16364202342E+04  0.89254209327E+03 0.  0.
         23    2    4    4    0    0  0.38075624512E+03  0.23223738650E+03 -0.13376575277E+04  0.14129732606E+04  0.90863920286E+02 0.  0.
         23    2    4    4    0    0 -0.84788328641E+02  0.17464772974E+03  0.61692289382E+02  0.22344697360E+03  0.91824404520E+02 0.  0.
          3    1    3    3  502    0 -0.24491815272E+03 -0.31426546295E+03 -0.28159598947E+03  0.48789751385E+03  0.00000000000E+00 0. -1.
         -4    1    3    3    0  502 -0.51049763750E+02 -0.92619653288E+02 -0.31477143433E+02  0.11034169254E+03  0.00000000000E+00 0.  1.
         11    1    5    5    0    0  0.32789397082E+03  0.20268932759E+03 -0.12352258572E+04  0.12939784921E+04  0.00000000000E+00 0. -1.
        -11    1    5    5    0    0  0.52862274297E+02  0.29548058909E+02 -0.10243167047E+03  0.11899476856E+03  0.00000000000E+00 0.  1.
          4    1    6    6  503    0 -0.40062864359E+02  0.15790597452E+03  0.28738203030E+02  0.16542434586E+03  0.00000000000E+00 0. -1.
         -4    1    6    6    0  503 -0.44725464282E+02  0.16741755225E+02  0.32954086352E+02  0.58022627746E+02  0.00000000000E+00 0.  1.
<mgrwt>
<rscale>  0 0.15711970E+04</rscale>
<asrwt>0</asrwt>
<pdfrwt beam="1">  1        1 0.29413060E+00 0.15711970E+04</pdfrwt>
<pdfrwt beam="2">  1       -2 0.49663159E-01 0.15711970E+04</pdfrwt>
<totfact> 0.11083260E+01</totfact>
</mgrwt>
</event>
<event>
12    4  0.4424320E-008  0.2458640E+04  0.7818608E-02  0.8417870E-01
         -2   -1    0    0    0  501 -0.00000000000E+00  0.00000000000E+00  0.81679928566E+03  0.81679928566E+03  0.00000000000E+00 0.  1.
          1   -1    0    0  501    0  0.00000000000E+00 -0.00000000000E+00 -0.18501823400E+04  0.18501823400E+04  0.00000000000E+00 0. -1.
        -24    2    1    2    0    0 -0.38892423345E+03 -0.74528518391E+02 -0.15175472335E+04  0.15702616175E+04  0.77171120886E+02 0.  0.
        254    2    1    2    0    0  0.38892423345E+03  0.74528518391E+02  0.48416417918E+03  0.10967200082E+04  0.90086806169E+03 0.  0.
         23    2    4    4    0    0  0.29345829277E+03 -0.11205799204E+03 -0.19379926553E+03  0.38139864847E+03  0.96083352136E+02 0.  0.
         23    2    4    4    0    0  0.95465940678E+02  0.18658651044E+03  0.67796344471E+03  0.71532135973E+03  0.90121826539E+02 0.  0.
          3    1    3    3  502    0 -0.34100801859E+03 -0.83935275494E+02 -0.12549065467E+04  0.13031201174E+04  0.00000000000E+00 0. -1.
         -4    1    3    3    0  502 -0.47916214856E+02  0.94067571027E+01 -0.26264068681E+03  0.26714150014E+03  0.00000000000E+00 0.  1.
         11    1    5    5    0    0  0.18120818513E+03 -0.19006961559E+02 -0.97313512083E+02  0.20656134822E+03  0.00000000000E+00 0. -1.
        -11    1    5    5    0    0  0.11225010764E+03 -0.93051030485E+02 -0.96485753444E+02  0.17483730025E+03  0.00000000000E+00 0.  1.
          1    1    6    6  503    0  0.96119790816E+02  0.15127325713E+03  0.63444138671E+03  0.65927117765E+03  0.00000000000E+00 0. -1.
         -1    1    6    6    0  503 -0.65385013769E+00  0.35313253304E+02  0.43522058006E+02  0.56050182087E+02  0.00000000000E+00 0.  1.
<mgrwt>
<rscale>  0 0.24586400E+04</rscale>
<asrwt>0</asrwt>
<pdfrwt beam="1">  1        1 0.28464344E+00 0.24586400E+04</pdfrwt>
<pdfrwt beam="2">  1       -2 0.12566143E+00 0.24586400E+04</pdfrwt>
<totfact> 0.13959301E+00</totfact>
</mgrwt>
</event>
<event>
12    4  0.4424320E-008  0.1152232E+04  0.7818608E-02  0.9155727E-01
          1   -1    0    0  501    0  0.00000000000E+00  0.00000000000E+00  0.20215487047E+04  0.20215487047E+04  0.00000000000E+00 0. -1.
         -2   -1    0    0    0  501 -0.00000000000E+00 -0.00000000000E+00 -0.16418586487E+03  0.16418586487E+03  0.00000000000E+00 0.  1.
        -24    2    1    2    0    0 -0.17041628476E+03 -0.45003744812E+02  0.13852414573E+03  0.24034977874E+03  0.86671967982E+02 0.  0.
        254    2    1    2    0    0  0.17041628476E+03  0.45003744812E+02  0.17188386941E+04  0.19453847908E+04  0.89389511740E+03 0.  0.
         23    2    4    4    0    0 -0.29785732574E+03  0.26303285424E+01  0.24674639338E+03  0.39729411814E+03  0.90735486672E+02 0.  0.
         23    2    4    4    0    0  0.46827361050E+03  0.42373416270E+02  0.14720923007E+04  0.15480906727E+04  0.91941874777E+02 0.  0.
          1    1    3    3  502    0 -0.13944972479E+02 -0.24909392307E+02  0.54712043361E+02  0.61711812251E+02  0.00000000000E+00 0. -1.
         -2    1    3    3    0  502 -0.15647131228E+03 -0.20094352505E+02  0.83812102367E+02  0.17863796649E+03  0.00000000000E+00 0.  1.
         11    1    5    5    0    0 -0.14362303657E+03  0.43204140301E+02  0.14164588014E+03  0.20629524894E+03  0.00000000000E+00 0.  1.
        -11    1    5    5    0    0 -0.15423428916E+03 -0.40573811758E+02  0.10510051324E+03  0.19099886920E+03  0.00000000000E+00 0. -1.
          4    1    6    6  503    0  0.22830624780E+03  0.66806063066E+02  0.72774180762E+03  0.76563367965E+03  0.00000000000E+00 0. -1.
         -4    1    6    6    0  503  0.23996736269E+03 -0.24432646797E+02  0.74435049309E+03  0.78245699304E+03  0.00000000000E+00 0.  1.
<mgrwt>
<rscale>  0 0.11522321E+04</rscale>
<asrwt>0</asrwt>
<pdfrwt beam="1">  1        1 0.31100748E+00 0.11522321E+04</pdfrwt>
<pdfrwt beam="2">  1       -2 0.25259365E-01 0.11522321E+04</pdfrwt>
<totfact> 0.35451574E+01</totfact>
</mgrwt>
</event>
<event>
12    4  0.4424320E-008  0.1524984E+04  0.7818608E-02  0.8868007E-01
          1   -1    0    0  501    0  0.00000000000E+00  0.00000000000E+00  0.15445426405E+04  0.15445426405E+04  0.00000000000E+00 0. -1.
         -2   -1    0    0    0  501 -0.00000000000E+00 -0.00000000000E+00 -0.37641807963E+03  0.37641807963E+03  0.00000000000E+00 0.  1.
        -24    2    1    2    0    0 -0.26157389040E+03  0.23414534242E+03  0.83130370050E+03  0.90605051535E+03  0.81343422466E+02 0.  0.
        254    2    1    2    0    0  0.26157389040E+03 -0.23414534242E+03  0.33682086040E+03  0.10149102048E+04  0.89070168425E+03 0.  0.
         23    2    4    4    0    0  0.98705177062E+02  0.11755227854E+02  0.59652643807E+03  0.61183080029E+03  0.92802152524E+02 0.  0.
         23    2    4    4    0    0  0.16286871334E+03 -0.24590057027E+03 -0.25970557766E+03  0.40307940452E+03  0.89625392823E+02 0.  0.
          3    1    3    3  502    0 -0.23664285111E+03  0.17022712181E+03  0.65940593490E+03  0.72096691947E+03  0.00000000000E+00 0. -1.
         -4    1    3    3    0  502 -0.24931039288E+02  0.63918220611E+02  0.17189776560E+03  0.18508359588E+03  0.00000000000E+00 0.  1.
         11    1    5    5    0    0  0.38887957110E+02 -0.39339378466E+02  0.29935708350E+03  0.30442490592E+03  0.00000000000E+00 0. -1.
        -11    1    5    5    0    0  0.59817219952E+02  0.51094606320E+02  0.29716935457E+03  0.30740589437E+03  0.00000000000E+00 0.  1.
          1    1    6    6  503    0  0.22841037032E+02 -0.46117931109E+02 -0.71974701477E+01  0.51965181795E+02  0.00000000000E+00 0. -1.
         -1    1    6    6    0  503  0.14002767631E+03 -0.19978263916E+03 -0.25250810751E+03  0.35111422273E+03  0.00000000000E+00 0.  1.
<mgrwt>
<rscale>  0 0.15249836E+04</rscale>
<asrwt>0</asrwt>
<pdfrwt beam="1">  1        1 0.23762194E+00 0.15249836E+04</pdfrwt>
<pdfrwt beam="2">  1       -2 0.57910475E-01 0.15249836E+04</pdfrwt>
<totfact> 0.14407006E+01</totfact>
</mgrwt>
</event>
<event>
12    4  0.4424320E-008  0.1561297E+04  0.7818608E-02  0.8844684E-01
         -4   -1    0    0    0  501 -0.00000000000E+00  0.00000000000E+00  0.33019456079E+03  0.33019456079E+03  0.00000000000E+00 0.  1.
          1   -1    0    0  501    0  0.00000000000E+00 -0.00000000000E+00 -0.18456152464E+04  0.18456152464E+04  0.00000000000E+00 0. -1.
        -24    2    1    2    0    0 -0.31856227978E+03  0.69062577734E+02 -0.10892318838E+04  0.11397456078E+04  0.79639110701E+02 0.  0.
        254    2    1    2    0    0  0.31856227978E+03 -0.69062577734E+02 -0.42618880176E+03  0.10360641994E+04  0.88630726319E+03 0.  0.
         23    2    4    4    0    0  0.31759337325E+03  0.11374883911E+03 -0.64597100338E+03  0.73542114726E+03  0.98799683691E+02 0.  0.
         23    2    4    4    0    0  0.96890652719E+00 -0.18281141685E+03  0.21978220162E+03  0.30064305214E+03  0.93064900684E+02 0.  0.
          3    1    3    3  502    0 -0.64268750563E+02  0.47735687607E+02 -0.28140970418E+03  0.29257578467E+03  0.00000000000E+00 0. -1.
         -4    1    3    3    0  502 -0.25429352921E+03  0.21326890127E+02 -0.80782217966E+03  0.84716982311E+03  0.00000000000E+00 0.  1.
         11    1    5    5    0    0  0.31917243947E+03  0.11270819126E+03 -0.59598493787E+03  0.68539932059E+03  0.00000000000E+00 0. -1.
        -11    1    5    5    0    0 -0.15790662244E+01  0.10406478490E+01 -0.49986065517E+02  0.50021826675E+02  0.00000000000E+00 0.  1.
          2    1    6    6  503    0  0.18486485337E+02 -0.72578620880E+02  0.30428996735E+02  0.80841389098E+02  0.00000000000E+00 0.  1.
         -2    1    6    6    0  503 -0.17517578810E+02 -0.11023279597E+03  0.18935320489E+03  0.21980166304E+03  0.00000000000E+00 0. -1.
<mgrwt>
<rscale>  0 0.15612970E+04</rscale>
<asrwt>0</asrwt>
<pdfrwt beam="1">  1        1 0.28394081E+00 0.15612970E+04</pdfrwt>
<pdfrwt beam="2">  1       -4 0.50799162E-01 0.15612970E+04</pdfrwt>
<totfact> 0.67269778E+00</totfact>
</mgrwt>
</event>
<event>
12    4  0.4424320E-008  0.1786430E+04  0.7818608E-02  0.8713549E-01
          1   -1    0    0  501    0  0.00000000000E+00  0.00000000000E+00  0.66855493136E+03  0.66855493136E+03  0.00000000000E+00 0. -1.
         -2   -1    0    0    0  501 -0.00000000000E+00 -0.00000000000E+00 -0.11933699439E+04  0.11933699439E+04  0.00000000000E+00 0.  1.
        -24    2    1    2    0    0  0.63414162974E+03  0.10020220949E+03 -0.32374779950E+02  0.65127393670E+03  0.10456349693E+03 0.  0.
        254    2    1    2    0    0 -0.63414162974E+03 -0.10020220949E+03 -0.49244023262E+03  0.12106509386E+04  0.90055661847E+03 0.  0.
         23    2    4    4    0    0  0.17503951995E+03  0.60178102793E+02 -0.29089183793E+03  0.35650686800E+03  0.90657862062E+02 0.  0.
         23    2    4    4    0    0 -0.80918114969E+03 -0.16038031228E+03 -0.20154839469E+03  0.85414407060E+03  0.91893200853E+02 0.  0.
          3    1    3    3  502    0  0.41850485353E+03  0.30381102688E+02 -0.56256401757E+02  0.42336049245E+03  0.00000000000E+00 0. -1.
         -4    1    3    3    0  502  0.21563677621E+03  0.69821106803E+02  0.23881621807E+02  0.22791344425E+03  0.00000000000E+00 0.  1.
         11    1    5    5    0    0  0.18779454453E+02  0.43958128746E+02 -0.52458605224E+02  0.70971052229E+02  0.00000000000E+00 0. -1.
        -11    1    5    5    0    0  0.15626006549E+03  0.16219974047E+02 -0.23843323271E+03  0.28553581577E+03  0.00000000000E+00 0.  1.
          3    1    6    6  503    0 -0.54602006729E+03 -0.14033367050E+03 -0.10722366321E+03  0.57387138534E+03  0.00000000000E+00 0. -1.
         -3    1    6    6    0  503 -0.26316108239E+03 -0.20046641786E+02 -0.94324731476E+02  0.28027268526E+03  0.00000000000E+00 0.  1.
<mgrwt>
<rscale>  0 0.17864304E+04</rscale>
<asrwt>0</asrwt>
<pdfrwt beam="1">  1        1 0.10285460E+00 0.17864304E+04</pdfrwt>
<pdfrwt beam="2">  1       -2 0.18359538E+00 0.17864304E+04</pdfrwt>
<totfact> 0.41349065E+00</totfact>
</mgrwt>
</event>
<event>
12    4  0.4424320E-008  0.1941188E+04  0.7818608E-02  0.8634622E-01
          1   -1    0    0  501    0  0.00000000000E+00  0.00000000000E+00  0.62357864700E+03  0.62357864700E+03  0.00000000000E+00 0. -1.
         -2   -1    0    0    0  501 -0.00000000000E+00 -0.00000000000E+00 -0.15107198789E+04  0.15107198789E+04  0.00000000000E+00 0.  1.
        -24    2    1    2    0    0  0.75681436976E+03 -0.64066135326E+02 -0.39585491242E+03  0.86144292885E+03  0.92251547517E+02 0.  0.
        254    2    1    2    0    0 -0.75681436976E+03  0.64066135326E+02 -0.49128631949E+03  0.12728555971E+04  0.89550358084E+03 0.  0.
         23    2    4    4    0    0 -0.20257732531E+03  0.25824851994E+03  0.17298099993E+03  0.38268363232E+03  0.93778810642E+02 0.  0.
         23    2    4    4    0    0 -0.55423704445E+03 -0.19418238461E+03 -0.66426731943E+03  0.89017196475E+03  0.79180523048E+02 0.  0.
          3    1    3    3  502    0  0.32115805529E+02 -0.58248607577E+01  0.19381709030E+01  0.32697254840E+02  0.00000000000E+00 0. -1.
         -4    1    3    3    0  502  0.72469856423E+03 -0.58241274568E+02 -0.39779308332E+03  0.82874567401E+03  0.00000000000E+00 0.  1.
         11    1    5    5    0    0 -0.17314937196E+02 -0.19929537176E+01  0.25367533277E+02  0.30778087321E+02  0.00000000000E+00 0. -1.
        -11    1    5    5    0    0 -0.18526238811E+03  0.26024147366E+03  0.14761346666E+03  0.35190554500E+03  0.00000000000E+00 0.  1.
          2    1    6    6  503    0 -0.54043573080E+03 -0.18851424830E+03 -0.62165268192E+03  0.84502098073E+03  0.00000000000E+00 0.  1.
         -2    1    6    6    0  503 -0.13801313646E+02 -0.56681363092E+01 -0.42614637505E+02  0.45150984012E+02  0.00000000000E+00 0. -1.
<mgrwt>
<rscale>  0 0.19411879E+04</rscale>
<asrwt>0</asrwt>
<pdfrwt beam="1">  1        1 0.95935176E-01 0.19411879E+04</pdfrwt>
<pdfrwt beam="2">  1       -2 0.23241844E+00 0.19411879E+04</pdfrwt>
<totfact> 0.21817889E+00</totfact>
</mgrwt>
</event>
<event>
12    4  0.4424320E-008  0.2480314E+04  0.7818608E-02  0.8410033E-01
         -2   -1    0    0    0  501 -0.00000000000E+00  0.00000000000E+00  0.58890416737E+03  0.58890416737E+03  0.00000000000E+00 0.  1.
          1   -1    0    0  501    0  0.00000000000E+00 -0.00000000000E+00 -0.26116122782E+04  0.26116122782E+04  0.00000000000E+00 0. -1.
        -24    2    1    2    0    0  0.87496158507E+03 -0.27571458537E+03 -0.15910153726E+04  0.18382313294E+04  0.78665091229E+02 0.  0.
        254    2    1    2    0    0 -0.87496158507E+03  0.27571458537E+03 -0.43169273825E+03  0.13622851162E+04  0.90988230538E+03 0.  0.
         23    2    4    4    0    0 -0.95768352666E+03  0.45634782400E+03 -0.41429327631E+03  0.11425591377E+04  0.91604533403E+02 0.  0.
         23    2    4    4    0    0  0.82721941595E+02 -0.18063323863E+03 -0.17399461944E+02  0.21972597855E+03  0.92225147613E+02 0.  0.
          3    1    3    3  502    0  0.48592143591E+03 -0.14897747263E+03 -0.95847429074E+03  0.10848902688E+04  0.00000000000E+00 0. -1.
         -4    1    3    3    0  502  0.38904014916E+03 -0.12673711274E+03 -0.63254108186E+03  0.75334106064E+03  0.00000000000E+00 0.  1.
         11    1    5    5    0    0 -0.22037196445E+03  0.76673967177E+02 -0.12148054369E+03  0.26305935158E+03  0.00000000000E+00 0. -1.
        -11    1    5    5    0    0 -0.73731156221E+03  0.37967385682E+03 -0.29281273262E+03  0.87949978607E+03  0.00000000000E+00 0.  1.
          3    1    6    6  503    0  0.33831889344E+02 -0.37151217059E+02  0.32848503932E+02  0.60031940466E+02  0.00000000000E+00 0. -1.
         -3    1    6    6    0  503  0.48890052251E+02 -0.14348202157E+03 -0.50247965876E+02  0.15969403808E+03  0.00000000000E+00 0.  1.
<mgrwt>
<rscale>  0 0.24803140E+04</rscale>
<asrwt>0</asrwt>
<pdfrwt beam="1">  1        1 0.40178651E+00 0.24803140E+04</pdfrwt>
<pdfrwt beam="2">  1       -2 0.90600640E-01 0.24803140E+04</pdfrwt>
<totfact> 0.92186812E-01</totfact>
</mgrwt>
</event>
<event>
12    4  0.4424320E-008  0.1617066E+04  0.7818608E-02  0.8810132E-01
         -2   -1    0    0    0  501 -0.00000000000E+00  0.00000000000E+00  0.48988359211E+03  0.48988359211E+03  0.00000000000E+00 0.  1.
          1   -1    0    0  501    0  0.00000000000E+00 -0.00000000000E+00 -0.13344509842E+04  0.13344509842E+04  0.00000000000E+00 0. -1.
        -24    2    1    2    0    0 -0.23319996510E+03 -0.73885483736E+02  0.26676414700E+03  0.37122743883E+03  0.82494925789E+02 0.  0.
        254    2    1    2    0    0  0.23319996510E+03  0.73885483736E+02 -0.11113315391E+04  0.14531071375E+04  0.90367099920E+03 0.  0.
         23    2    4    4    0    0  0.15076704299E+03  0.23230575117E+03 -0.11986306540E+04  0.12336163681E+04  0.91636432199E+02 0.  0.
         23    2    4    4    0    0  0.82432922113E+02 -0.15842026744E+03  0.87299114896E+02  0.21949076938E+03  0.93074672152E+02 0.  0.
          1    1    3    3  502    0 -0.91051569414E+02 -0.71755179444E+02  0.11558191867E+03  0.16370208915E+03  0.00000000000E+00 0. -1.
         -2    1    3    3    0  502 -0.14214839569E+03 -0.21303042918E+01  0.15118222833E+03  0.20752534968E+03  0.00000000000E+00 0.  1.
         11    1    5    5    0    0  0.16131178054E+03  0.19905231642E+03 -0.10791208966E+04  0.11091191211E+04  0.00000000000E+00 0. -1.
        -11    1    5    5    0    0 -0.10544737547E+02  0.33253434750E+02 -0.11950975733E+03  0.12449724700E+03  0.00000000000E+00 0.  1.
          1    1    6    6  503    0  0.37135286487E+02 -0.79642561189E+02  0.93617888348E+02  0.12839889436E+03  0.00000000000E+00 0. -1.
         -1    1    6    6    0  503  0.45297635626E+02 -0.78777706248E+02 -0.63187734525E+01  0.91091875011E+02  0.00000000000E+00 0.  1.
<mgrwt>
<rscale>  0 0.16170660E+04</rscale>
<asrwt>0</asrwt>
<pdfrwt beam="1">  1        1 0.20530015E+00 0.16170660E+04</pdfrwt>
<pdfrwt beam="2">  1       -2 0.75366706E-01 0.16170660E+04</pdfrwt>
<totfact> 0.11350118E+01</totfact>
</mgrwt>
</event>
<event>
12    4  0.4424320E-008  0.2046770E+04  0.7818608E-02  0.8585061E-01
          1   -1    0    0  501    0  0.00000000000E+00  0.00000000000E+00  0.12184041914E+04  0.12184041914E+04  0.00000000000E+00 0. -1.
         -2   -1    0    0    0  501 -0.00000000000E+00 -0.00000000000E+00 -0.85958055729E+03  0.85958055729E+03  0.00000000000E+00 0.  1.
        -24    2    1    2    0    0  0.69148261391E+03 -0.19488390630E+03 -0.26979545211E+03  0.77182579795E+03  0.82447159561E+02 0.  0.
        254    2    1    2    0    0 -0.69148261391E+03  0.19488390630E+03  0.62861908625E+03  0.13061589508E+04  0.89149386247E+03 0.  0.
         23    2    4    4    0    0 -0.65089150594E+03 -0.98568385252E+02  0.72366759062E+03  0.98210331488E+03  0.86351956059E+02 0.  0.
         23    2    4    4    0    0 -0.40591107973E+02  0.29345229155E+03 -0.95048504371E+02  0.32405563589E+03  0.90641886064E+02 0.  0.
          1    1    3    3  502    0  0.18441486670E+03 -0.66801032349E+02 -0.11042335571E+03  0.22508784612E+03  0.00000000000E+00 0. -1.
         -2    1    3    3    0  502  0.50706774721E+03 -0.12808287395E+03 -0.15937209640E+03  0.54673795183E+03  0.00000000000E+00 0.  1.
         11    1    5    5    0    0 -0.39726618632E+03 -0.77518113252E+02  0.38635513836E+03  0.55955319105E+03  0.00000000000E+00 0.  1.
        -11    1    5    5    0    0 -0.25362531962E+03 -0.21050272000E+02  0.33731245226E+03  0.42255012384E+03  0.00000000000E+00 0. -1.
          4    1    6    6  503    0 -0.23106567587E+02  0.52301369537E+02 -0.54316733622E+02  0.78864784743E+02  0.00000000000E+00 0. -1.
         -4    1    6    6    0  503 -0.17484540386E+02  0.24115092201E+03 -0.40731770748E+02  0.24519085115E+03  0.00000000000E+00 0.  1.
<mgrwt>
<rscale>  0 0.20467697E+04</rscale>
<asrwt>0</asrwt>
<pdfrwt beam="1">  1        1 0.18744680E+00 0.20467697E+04</pdfrwt>
<pdfrwt beam="2">  1       -2 0.13224316E+00 0.20467697E+04</pdfrwt>
<totfact> 0.34917531E+00</totfact>
</mgrwt>
</event>
<event>
12    4  0.4424320E-008  0.1730093E+04  0.7818608E-02  0.8744385E-01
          1   -1    0    0  501    0  0.00000000000E+00  0.00000000000E+00  0.14468141142E+04  0.14468141142E+04  0.00000000000E+00 0. -1.
         -2   -1    0    0    0  501 -0.00000000000E+00 -0.00000000000E+00 -0.51720897681E+03  0.51720897681E+03  0.00000000000E+00 0.  1.
        -24    2    1    2    0    0 -0.37228461390E+03 -0.48684908338E+03  0.19569412711E+03  0.64808144763E+03  0.78073732074E+02 0.  0.
        254    2    1    2    0    0  0.37228461390E+03  0.48684908338E+03  0.73391101030E+03  0.13159416434E+04  0.90413448893E+03 0.  0.
         23    2    4    4    0    0 -0.10564825907E+03  0.45475783779E+03  0.67392789031E+03  0.82492311450E+03  0.91395283365E+02 0.  0.
         23    2    4    4    0    0  0.47793287297E+03  0.32091245592E+02  0.59983119985E+02  0.49101852890E+03  0.89730384647E+02 0.  0.
          3    1    3    3  502    0 -0.15678788173E+03 -0.15057198620E+03  0.87096820692E+02  0.23417988611E+03  0.00000000000E+00 0. -1.
         -4    1    3    3    0  502 -0.21549673217E+03 -0.33627709718E+03  0.10859730641E+03  0.41390156151E+03  0.00000000000E+00 0.  1.
         11    1    5    5    0    0 -0.11638496290E+02  0.24328485638E+03  0.36853257125E+03  0.44174566440E+03  0.00000000000E+00 0.  1.
        -11    1    5    5    0    0 -0.94009762782E+02  0.21147298140E+03  0.30539531906E+03  0.38317745010E+03  0.00000000000E+00 0. -1.
          3    1    6    6  503    0  0.47170401320E+02 -0.20731974047E+02  0.19703262082E+02  0.55164119183E+02  0.00000000000E+00 0. -1.
         -3    1    6    6    0  503  0.43076247165E+03  0.52823219640E+02  0.40279857904E+02  0.43585440972E+03  0.00000000000E+00 0.  1.
<mgrwt>
<rscale>  0 0.17300928E+04</rscale>
<asrwt>0</asrwt>
<pdfrwt beam="1">  1        1 0.22258679E+00 0.17300928E+04</pdfrwt>
<pdfrwt beam="2">  1       -2 0.79570612E-01 0.17300928E+04</pdfrwt>
<totfact> 0.83017316E+00</totfact>
</mgrwt>
</event>
<event>
12    4  0.4424320E-008  0.1520989E+04  0.7818608E-02  0.8870614E-01
         -2   -1    0    0    0  501 -0.00000000000E+00  0.00000000000E+00  0.30680041180E+03  0.30680041180E+03  0.00000000000E+00 0.  1.
          1   -1    0    0  501    0  0.00000000000E+00 -0.00000000000E+00 -0.18851086967E+04  0.18851086967E+04  0.00000000000E+00 0. -1.
        -24    2    1    2    0    0  0.23369680630E+03  0.15754869734E+03 -0.84389955400E+03  0.89317118318E+03  0.78437974861E+02 0.  0.
        254    2    1    2    0    0 -0.23369680630E+03 -0.15754869734E+03 -0.73440873093E+03  0.12987379254E+04  0.10334061280E+04 0.  0.
         23    2    4    4    0    0 -0.59708134267E+03  0.82768063750E+01 -0.63454825326E+03  0.87590189138E+03  0.89319663703E+02 0.  0.
         23    2    4    4    0    0  0.36338453637E+03 -0.16582550372E+03 -0.99860477669E+02  0.42283603398E+03  0.96290070495E+02 0.  0.
          3    1    3    3  502    0  0.11924866920E+03  0.12537066747E+03 -0.52894539401E+03  0.55652608134E+03  0.00000000000E+00 0. -1.
         -4    1    3    3    0  502  0.11444813711E+03  0.32178029870E+02 -0.31495416000E+03  0.33664510184E+03  0.00000000000E+00 0.  1.
         11    1    5    5    0    0 -0.39068705050E+03 -0.19125833905E+02 -0.46312342134E+03  0.60620580032E+03  0.00000000000E+00 0. -1.
        -11    1    5    5    0    0 -0.20639429217E+03  0.27402640280E+02 -0.17142483193E+03  0.26969609106E+03  0.00000000000E+00 0.  1.
          2    1    6    6  503    0  0.96906488056E+02 -0.11630377396E+01 -0.13098594353E+02  0.97794648412E+02  0.00000000000E+00 0. -1.
         -2    1    6    6    0  503  0.26647804831E+03 -0.16466246598E+03 -0.86761883316E+02  0.32504138557E+03  0.00000000000E+00 0.  1.
<mgrwt>
<rscale>  0 0.15209893E+04</rscale>
<asrwt>0</asrwt>
<pdfrwt beam="1">  1        1 0.29001672E+00 0.15209893E+04</pdfrwt>
<pdfrwt beam="2">  1       -2 0.47200064E-01 0.15209893E+04</pdfrwt>
<totfact> 0.12865750E+01</totfact>
</mgrwt>
</event>
<event>
12    4  0.5549456E-008  0.2035906E+04  0.7818608E-02  0.8590015E-01
          3   -1    0    0  501    0  0.00000000000E+00  0.00000000000E+00  0.82390567832E+03  0.82390567832E+03  0.00000000000E+00 0. -1.
         -4   -1    0    0    0  501 -0.00000000000E+00 -0.00000000000E+00 -0.12577020287E+04  0.12577020287E+04  0.00000000000E+00 0.  1.
        -24    2    1    2    0    0  0.20636557799E+02 -0.78309680512E+03 -0.31737327855E+03  0.84897760650E+03  0.79816694297E+02 0.  0.
        254    2    1    2    0    0 -0.20636557799E+02  0.78309680512E+03 -0.11642307184E+03  0.12326301005E+04  0.94454018411E+03 0.  0.
         23    2    4    4    0    0  0.38770534600E+02  0.24123092877E+03  0.39890145012E+03  0.47697012285E+03  0.93180555030E+02 0.  0.
         23    2    4    4    0    0 -0.59407092399E+02  0.54186587635E+03 -0.51532452197E+03  0.75565997769E+03  0.91185570971E+02 0.  0.
          3    1    3    3  502    0 -0.94105036670E+01 -0.50817181808E+02 -0.39990524415E+02  0.65346657062E+02  0.00000000000E+00 0. -1.
         -4    1    3    3    0  502  0.30047061466E+02 -0.73227962331E+03 -0.27738275413E+03  0.78363094943E+03  0.00000000000E+00 0.  1.
         11    1    5    5    0    0  0.42095795654E+02  0.22427339953E+03  0.39905305174E+03  0.45968897295E+03  0.00000000000E+00 0. -1.
        -11    1    5    5    0    0 -0.33252610542E+01  0.16957529242E+02 -0.15160161334E+00  0.17281149907E+02  0.00000000000E+00 0.  1.
          2    1    6    6  503    0 -0.61449551900E+02  0.49354760603E+03 -0.49921770216E+03  0.70468688153E+03  0.00000000000E+00 0. -1.
         -2    1    6    6    0  503  0.20424595011E+01  0.48318270321E+02 -0.16106819808E+02  0.50973096158E+02  0.00000000000E+00 0.  1.
<mgrwt>
<rscale>  0 0.20359055E+04</rscale>
<asrwt>0</asrwt>
<pdfrwt beam="1">  1        3 0.12675472E+00 0.20359055E+04</pdfrwt>
<pdfrwt beam="2">  1       -4 0.19349262E+00 0.20359055E+04</pdfrwt>
<totfact> 0.15240309E-01</totfact>
</mgrwt>
</event>
<event>
12    4  0.4424320E-008  0.1775436E+04  0.7818608E-02  0.8719473E-01
          1   -1    0    0  501    0  0.00000000000E+00  0.00000000000E+00  0.23771954522E+04  0.23771954522E+04  0.00000000000E+00 0. -1.
         -2   -1    0    0    0  501 -0.00000000000E+00 -0.00000000000E+00 -0.33150118652E+03  0.33150118652E+03  0.00000000000E+00 0.  1.
        -24    2    1    2    0    0 -0.32184064522E+03 -0.34192298783E+03  0.14647291442E+04  0.15402018546E+04  0.79357145428E+02 0.  0.
        254    2    1    2    0    0  0.32184064522E+03  0.34192298783E+03  0.58096512152E+03  0.11684947841E+04  0.89853595233E+03 0.  0.
         23    2    4    4    0    0  0.12232647293E+03 -0.18360063218E+03  0.54835804728E+03  0.59810788268E+03  0.91452354745E+02 0.  0.
         23    2    4    4    0    0  0.19951417228E+03  0.52552362001E+03  0.32607074235E+02  0.57038690147E+03  0.91087957160E+02 0.  0.
          3    1    3    3  502    0 -0.30672090954E+03 -0.32276741296E+03  0.14302820201E+04  0.14979863739E+04  0.00000000000E+00 0. -1.
         -4    1    3    3    0  502 -0.15119735674E+02 -0.19155574877E+02  0.34447124034E+02  0.42215480690E+02  0.00000000000E+00 0.  1.
         11    1    5    5    0    0  0.13519205405E+03 -0.17184440598E+03  0.47817622752E+03  0.52579453773E+03  0.00000000000E+00 0. -1.
        -11    1    5    5    0    0 -0.12865581124E+02 -0.11756226202E+02  0.70181819767E+02  0.72313344951E+02  0.00000000000E+00 0.  1.
          2    1    6    6  503    0  0.34389481804E+02  0.21339230255E+03  0.19549117596E+02  0.21702783058E+03  0.00000000000E+00 0. -1.
         -2    1    6    6    0  503  0.16512469048E+03  0.31213131746E+03  0.13057956639E+02  0.35335907089E+03  0.00000000000E+00 0.  1.
<mgrwt>
<rscale>  0 0.17754358E+04</rscale>
<asrwt>0</asrwt>
<pdfrwt beam="1">  1        1 0.36572237E+00 0.17754358E+04</pdfrwt>
<pdfrwt beam="2">  1       -2 0.51000184E-01 0.17754358E+04</pdfrwt>
<totfact> 0.49750089E+00</totfact>
</mgrwt>
</event>
<event>
12    4  0.4424320E-008  0.1048907E+04  0.7818608E-02  0.9256474E-01
         -2   -1    0    0    0  501 -0.00000000000E+00  0.00000000000E+00  0.20540020086E+03  0.20540020086E+03  0.00000000000E+00 0.  1.
          1   -1    0    0  501    0  0.00000000000E+00 -0.00000000000E+00 -0.13390993947E+04  0.13390993947E+04  0.00000000000E+00 0. -1.
        -24    2    1    2    0    0 -0.69699874683E+02  0.82770712035E+02 -0.81522481013E+02  0.15440279686E+03  0.74062443013E+02 0.  0.
        254    2    1    2    0    0  0.69699874683E+02 -0.82770712035E+02 -0.10521767128E+04  0.13900967987E+04  0.90198903069E+03 0.  0.
         23    2    4    4    0    0  0.24094378169E+03 -0.40162637896E+03 -0.82880936886E+03  0.95618552442E+03  0.89488172298E+02 0.  0.
         23    2    4    4    0    0 -0.17124390701E+03  0.31885566692E+03 -0.22336734398E+03  0.43391127431E+03  0.85980297752E+02 0.  0.
          3    1    3    3  502    0 -0.64428847181E+02  0.54070993017E+02 -0.90811736020E+02  0.12378012778E+03  0.00000000000E+00 0. -1.
         -4    1    3    3    0  502 -0.52710275026E+01  0.28699719019E+02  0.92892550067E+01  0.30622669075E+02  0.00000000000E+00 0.  1.
         11    1    5    5    0    0  0.18064508219E+03 -0.36055062473E+03 -0.68388808364E+03  0.79393470113E+03  0.00000000000E+00 0. -1.
        -11    1    5    5    0    0  0.60298699503E+02 -0.41075754225E+02 -0.14492128523E+03  0.16225082329E+03  0.00000000000E+00 0.  1.
          1    1    6    6  503    0 -0.16898644334E+03  0.30102297032E+03 -0.18526902887E+03  0.39178547670E+03  0.00000000000E+00 0. -1.
         -1    1    6    6    0  503 -0.22574636735E+01  0.17832696597E+02 -0.38098315110E+02  0.42125797611E+02  0.00000000000E+00 0.  1.
<mgrwt>
<rscale>  0 0.10489066E+04</rscale>
<asrwt>0</asrwt>
<pdfrwt beam="1">  1        1 0.20601529E+00 0.10489066E+04</pdfrwt>
<pdfrwt beam="2">  1       -2 0.31600030E-01 0.10489066E+04</pdfrwt>
<totfact> 0.69174543E+01</totfact>
</mgrwt>
</event>
<event>
12    4  0.4424320E-008  0.2004415E+04  0.7818608E-02  0.8604559E-01
         -2   -1    0    0    0  501 -0.00000000000E+00  0.00000000000E+00  0.82797647275E+03  0.82797647275E+03  0.00000000000E+00 0.  1.
          1   -1    0    0  501    0  0.00000000000E+00 -0.00000000000E+00 -0.12131022000E+04  0.12131022000E+04  0.00000000000E+00 0. -1.
        -24    2    1    2    0    0  0.20272273531E+03  0.43557586466E+03 -0.80404654183E+03  0.94007184791E+03  0.80133616741E+02 0.  0.
        254    2    1    2    0    0 -0.20272273531E+03 -0.43557586466E+03  0.41892081454E+03  0.11010068249E+04  0.89771851840E+03 0.  0.
         23    2    4    4    0    0  0.12963896308E+03  0.22210562218E+03  0.78145727524E+02  0.28396034084E+03  0.91594499203E+02 0.  0.
         23    2    4    4    0    0 -0.33236169839E+03 -0.65768148684E+03  0.34077508701E+03  0.81704648403E+03  0.91804468560E+02 0.  0.
          1    1    3    3  502    0  0.13057602325E+03  0.28690474988E+03 -0.59751746606E+03  0.67556758034E+03  0.00000000000E+00 0. -1.
         -2    1    3    3    0  502  0.72146712063E+02  0.14867111478E+03 -0.20652907576E+03  0.26450426758E+03  0.00000000000E+00 0.  1.
         11    1    5    5    0    0  0.30687602289E+02  0.84321357554E+02  0.70568574347E+02  0.11415666410E+03  0.00000000000E+00 0. -1.
        -11    1    5    5    0    0  0.98951360792E+02  0.13778426463E+03  0.75771531774E+01  0.16980367673E+03  0.00000000000E+00 0.  1.
          3    1    6    6  503    0 -0.26231461388E+03 -0.55591870767E+03  0.24931206346E+03  0.66333330324E+03  0.00000000000E+00 0. -1.
         -3    1    6    6    0  503 -0.70047084511E+02 -0.10176277917E+03  0.91463023552E+02  0.15371318079E+03  0.00000000000E+00 0.  1.
<mgrwt>
<rscale>  0 0.20044152E+04</rscale>
<asrwt>0</asrwt>
<pdfrwt beam="1">  1        1 0.18663111E+00 0.20044152E+04</pdfrwt>
<pdfrwt beam="2">  1       -2 0.12738100E+00 0.20044152E+04</pdfrwt>
<totfact> 0.38877700E+00</totfact>
</mgrwt>
</event>
<event>
12    4  0.4424320E-008  0.1050493E+04  0.7818608E-02  0.9254835E-01
          1   -1    0    0  501    0  0.00000000000E+00  0.00000000000E+00  0.86184134014E+03  0.86184134014E+03  0.00000000000E+00 0. -1.
         -2   -1    0    0    0  501 -0.00000000000E+00 -0.00000000000E+00 -0.32010995260E+03  0.32010995260E+03  0.00000000000E+00 0.  1.
        -24    2    1    2    0    0 -0.58161298217E+02 -0.86661179299E+02  0.23718272024E+02  0.13462673351E+03  0.81663359842E+02 0.  0.
        254    2    1    2    0    0  0.58161298217E+02  0.86661179299E+02  0.51801311552E+03  0.10473245592E+04  0.90424457305E+03 0.  0.
         23    2    4    4    0    0 -0.37516192274E+03  0.19026057049E+03  0.13507581339E+03  0.45304892371E+03  0.10031101111E+03 0.  0.
         23    2    4    4    0    0  0.43332322096E+03 -0.10359939119E+03  0.38293730214E+03  0.59427563552E+03  0.89558393953E+02 0.  0.
          1    1    3    3  502    0 -0.16423889868E+02  0.12673928808E+02  0.16734027469E+02  0.26653335723E+02  0.00000000000E+00 0. -1.
         -2    1    3    3    0  502 -0.41737408349E+02 -0.99335108106E+02  0.69842445547E+01  0.10797339779E+03  0.00000000000E+00 0.  1.
         11    1    5    5    0    0 -0.69161051113E+02 -0.51761516328E+01  0.21072309249E+02  0.72485072628E+02  0.00000000000E+00 0. -1.
        -11    1    5    5    0    0 -0.30600087163E+03  0.19543672212E+03  0.11400350414E+03  0.38056385108E+03  0.00000000000E+00 0.  1.
          3    1    6    6  503    0  0.12047439373E+03 -0.60809229936E+02  0.81038133148E+02  0.15741353504E+03  0.00000000000E+00 0. -1.
         -3    1    6    6    0  503  0.31284882723E+03 -0.42790161254E+02  0.30189916899E+03  0.43686210048E+03  0.00000000000E+00 0.  1.
<mgrwt>
<rscale>  0 0.10504932E+04</rscale>
<asrwt>0</asrwt>
<pdfrwt beam="1">  1        1 0.13259097E+00 0.10504932E+04</pdfrwt>
<pdfrwt beam="2">  1       -2 0.49247686E-01 0.10504932E+04</pdfrwt>
<totfact> 0.66919677E+01</totfact>
</mgrwt>
</event>
<event>
12    4  0.4424320E-008  0.2140518E+04  0.7818608E-02  0.8543602E-01
         -2   -1    0    0    0  501 -0.00000000000E+00  0.00000000000E+00  0.12017261079E+04  0.12017261079E+04  0.00000000000E+00 0.  1.
          1   -1    0    0  501    0  0.00000000000E+00 -0.00000000000E+00 -0.95317430667E+03  0.95317430667E+03  0.00000000000E+00 0. -1.
        -24    2    1    2    0    0  0.33568189976E+03 -0.69909608082E+03  0.51565873301E+03  0.93487144852E+03  0.81627374602E+02 0.  0.
        254    2    1    2    0    0 -0.33568189976E+03  0.69909608082E+03 -0.26710693178E+03  0.12200289661E+04  0.90316493343E+03 0.  0.
         23    2    4    4    0    0 -0.26119907100E+03  0.81286011782E+03 -0.45371158283E+03  0.97122193022E+03  0.91931015039E+02 0.  0.
         23    2    4    4    0    0 -0.74482828760E+02 -0.11376403699E+03  0.18660465105E+03  0.24880703584E+03  0.92702197353E+02 0.  0.
          1    1    3    3  502    0  0.79673538731E+02 -0.10450914749E+03  0.10538883107E+03  0.16845426797E+03  0.00000000000E+00 0. -1.
         -2    1    3    3    0  502  0.25600836102E+03 -0.59458693333E+03  0.41026990193E+03  0.76641718055E+03  0.00000000000E+00 0.  1.
         11    1    5    5    0    0 -0.15723360270E+03  0.51422000395E+03 -0.23556258078E+03  0.58705565984E+03  0.00000000000E+00 0.  1.
        -11    1    5    5    0    0 -0.10396546829E+03  0.29864011386E+03 -0.21814900205E+03  0.38416627038E+03  0.00000000000E+00 0. -1.
          3    1    6    6  503    0 -0.12501438701E+02  0.16225752067E+02  0.25822432439E+02  0.32959960813E+02  0.00000000000E+00 0. -1.
         -3    1    6    6    0  503 -0.61981390059E+02 -0.12998978906E+03  0.16078221861E+03  0.21584707502E+03  0.00000000000E+00 0.  1.
<mgrwt>
<rscale>  0 0.21405181E+04</rscale>
<asrwt>0</asrwt>
<pdfrwt beam="1">  1        1 0.14664220E+00 0.21405181E+04</pdfrwt>
<pdfrwt beam="2">  1       -2 0.18488094E+00 0.21405181E+04</pdfrwt>
<totfact> 0.22218060E+00</totfact>
</mgrwt>
</event>
<event>
12    4  0.4424320E-008  0.2969094E+04  0.7818608E-02  0.8252612E-01
          3   -1    0    0  501    0  0.00000000000E+00  0.00000000000E+00  0.19978920291E+04  0.19978920291E+04  0.00000000000E+00 0. -1.
         -4   -1    0    0    0  501 -0.00000000000E+00 -0.00000000000E+00 -0.11031028000E+04  0.11031028000E+04  0.00000000000E+00 0.  1.
        -24    2    1    2    0    0  0.35739693941E+02  0.94981101730E+02  0.18037688265E+04  0.18083900520E+04  0.79961650258E+02 0.  0.
        254    2    1    2    0    0 -0.35739693941E+02 -0.94981101730E+02 -0.90897959736E+03  0.12926047772E+04  0.91339173751E+03 0.  0.
         23    2    4    4    0    0 -0.30224643477E+03  0.23337997504E+03 -0.72133765856E+03  0.82114247628E+03  0.90154470852E+02 0.  0.
         23    2    4    4    0    0  0.26650674083E+03 -0.32836107677E+03 -0.18764193880E+03  0.47146230089E+03  0.90666224793E+02 0.  0.
          1    1    3    3  502    0  0.60587752729E+02  0.65389326417E+02  0.13734107821E+04  0.13763007724E+04  0.00000000000E+00 0. -1.
         -2    1    3    3    0  502 -0.24848058788E+02  0.29591775313E+02  0.43035804440E+03  0.43208927963E+03  0.00000000000E+00 0.  1.
         11    1    5    5    0    0 -0.10590819338E+03  0.82051248849E+02 -0.16848213967E+03  0.21525608993E+03  0.00000000000E+00 0.  1.
        -11    1    5    5    0    0 -0.19633824139E+03  0.15132872620E+03 -0.55285551889E+03  0.60588638635E+03  0.00000000000E+00 0. -1.
          2    1    6    6  503    0  0.18524020402E+03 -0.21912546660E+03 -0.79927388147E+02  0.29785615769E+03  0.00000000000E+00 0. -1.
         -2    1    6    6    0  503  0.81266536810E+02 -0.10923561018E+03 -0.10771455065E+03  0.17360614320E+03  0.00000000000E+00 0.  1.
<mgrwt>
<rscale>  0 0.29690943E+04</rscale>
<asrwt>0</asrwt>
<pdfrwt beam="1">  1        3 0.30736800E+00 0.29690943E+04</pdfrwt>
<pdfrwt beam="2">  1       -4 0.16970812E+00 0.29690943E+04</pdfrwt>
<totfact> 0.14624167E-02</totfact>
</mgrwt>
</event>
<event>
12    4  0.4424320E-008  0.1084191E+04  0.7818608E-02  0.9220739E-01
          1   -1    0    0  501    0  0.00000000000E+00  0.00000000000E+00  0.83998756594E+03  0.83998756594E+03  0.00000000000E+00 0. -1.
         -2   -1    0    0    0  501 -0.00000000000E+00 -0.00000000000E+00 -0.34984750493E+03  0.34984750493E+03  0.00000000000E+00 0.  1.
        -24    2    1    2    0    0  0.88584020610E+02  0.93510869365E+02  0.13922193958E+03  0.21568195034E+03  0.10268662934E+03 0.  0.
        254    2    1    2    0    0 -0.88584020610E+02 -0.93510869365E+02  0.35091812143E+03  0.97415312054E+03  0.89957732459E+03 0.  0.
         23    2    4    4    0    0  0.14651242987E+03 -0.14062780221E+03  0.58439910257E+03  0.62678347079E+03  0.10046460723E+03 0.  0.
         23    2    4    4    0    0 -0.23509645048E+03  0.47116932849E+02 -0.23348098114E+03  0.34736964975E+03  0.93069643975E+02 0.  0.
          3    1    3    3  502    0  0.38318826221E+02 -0.16715713730E+02  0.50290749266E+02  0.65398065646E+02  0.00000000000E+00 0. -1.
         -4    1    3    3    0  502  0.50265194388E+02  0.11022658310E+03  0.88931190311E+02  0.15028388469E+03  0.00000000000E+00 0.  1.
         11    1    5    5    0    0  0.10045184738E+00 -0.57779823203E+02  0.13078746526E+03  0.14298209374E+03  0.00000000000E+00 0. -1.
        -11    1    5    5    0    0  0.14641197802E+03 -0.82847979011E+02  0.45361163731E+03  0.48380137705E+03  0.00000000000E+00 0.  1.
          1    1    6    6  503    0 -0.61142045287E+00 -0.67740604007E+01 -0.34460052239E+02  0.35124876222E+02  0.00000000000E+00 0. -1.
         -1    1    6    6    0  503 -0.23448503003E+03  0.53890993250E+02 -0.19902092890E+03  0.31224477353E+03  0.00000000000E+00 0.  1.
<mgrwt>
<rscale>  0 0.10841910E+04</rscale>
<asrwt>0</asrwt>
<pdfrwt beam="1">  1        1 0.12922886E+00 0.10841910E+04</pdfrwt>
<pdfrwt beam="2">  1       -2 0.53822693E-01 0.10841910E+04</pdfrwt>
<totfact> 0.58055655E+01</totfact>
</mgrwt>
</event>
<event>
12    4  0.4424320E-008  0.1397183E+04  0.7818608E-02  0.8955860E-01
         -2   -1    0    0    0  501 -0.00000000000E+00  0.00000000000E+00  0.37906753284E+03  0.37906753284E+03  0.00000000000E+00 0.  1.
          1   -1    0    0  501    0  0.00000000000E+00 -0.00000000000E+00 -0.12874493410E+04  0.12874493410E+04  0.00000000000E+00 0. -1.
        -24    2    1    2    0    0 -0.30214515043E+03 -0.26428738121E+03 -0.13343800788E+03  0.43034806923E+03  0.79083796970E+02 0.  0.
        254    2    1    2    0    0  0.30214515043E+03  0.26428738121E+03 -0.77494380033E+03  0.12361688047E+04  0.87546325345E+03 0.  0.
         23    2    4    4    0    0  0.11617420154E+03  0.32258424157E+03 -0.91324017751E+03  0.98006620429E+03  0.94684238240E+02 0.  0.
         23    2    4    4    0    0  0.18597094889E+03 -0.58296860360E+02  0.13829637718E+03  0.25610260036E+03  0.92081139281E+02 0.  0.
          1    1    3    3  502    0 -0.17377423742E+03 -0.15149346495E+03 -0.11740874229E+03  0.25871329359E+03  0.00000000000E+00 0. -1.
         -2    1    3    3    0  502 -0.12837091301E+03 -0.11279391626E+03 -0.16029265592E+02  0.17163477564E+03  0.00000000000E+00 0.  1.
         11    1    5    5    0    0 -0.65098963516E+01  0.15911629676E+02 -0.11359908753E+03  0.11489260810E+03  0.00000000000E+00 0. -1.
        -11    1    5    5    0    0  0.12268409789E+03  0.30667261189E+03 -0.79964108998E+03  0.86517359619E+03  0.00000000000E+00 0.  1.
          3    1    6    6  503    0 -0.37759861604E+01 -0.14316582010E+02  0.29482113683E+02  0.32991174868E+02  0.00000000000E+00 0. -1.
         -3    1    6    6    0  503  0.18974693505E+03 -0.43980278350E+02  0.10881426350E+03  0.22311142550E+03  0.00000000000E+00 0.  1.
<mgrwt>
<rscale>  0 0.13971832E+04</rscale>
<asrwt>0</asrwt>
<pdfrwt beam="1">  1        1 0.19806913E+00 0.13971832E+04</pdfrwt>
<pdfrwt beam="2">  1       -2 0.58318082E-01 0.13971832E+04</pdfrwt>
<totfact> 0.21726529E+01</totfact>
</mgrwt>
</event>
<event>
12    4  0.4424320E-008  0.2283693E+04  0.7818608E-02  0.8484379E-01
         -2   -1    0    0    0  501 -0.00000000000E+00  0.00000000000E+00  0.57165095450E+03  0.57165095450E+03  0.00000000000E+00 0.  1.
          1   -1    0    0  501    0  0.00000000000E+00 -0.00000000000E+00 -0.22807849308E+04  0.22807849308E+04  0.00000000000E+00 0. -1.
        -24    2    1    2    0    0  0.49793885911E+03 -0.49447966553E+03 -0.15480228385E+04  0.17014782353E+04  0.78741536539E+02 0.  0.
        254    2    1    2    0    0 -0.49793885911E+03  0.49447966553E+03 -0.16111113781E+03  0.11509576500E+04  0.89793845358E+03 0.  0.
         23    2    4    4    0    0  0.32272203233E+02  0.45707909970E+03  0.19337654628E+03  0.50557235426E+03  0.90808139785E+02 0.  0.
         23    2    4    4    0    0 -0.53021106234E+03  0.37400565834E+02 -0.35448768409E+03  0.64538529578E+03  0.91313136442E+02 0.  0.
          3    1    3    3  502    0  0.44512780801E+03 -0.46329029416E+03 -0.13695432017E+04  0.15127541914E+04  0.00000000000E+00 0. -1.
         -4    1    3    3    0  502  0.52811051096E+02 -0.31189371372E+02 -0.17847963678E+03  0.18872404391E+03  0.00000000000E+00 0.  1.
         11    1    5    5    0    0  0.49642404642E+02  0.38511535602E+03  0.18780132330E+03  0.43133228817E+03  0.00000000000E+00 0. -1.
        -11    1    5    5    0    0 -0.17370201409E+02  0.71963743682E+02  0.55752229778E+01  0.74240066090E+02  0.00000000000E+00 0.  1.
          1    1    6    6  503    0 -0.49230047640E+03  0.56006424196E+02 -0.33925492260E+03  0.60049178273E+03  0.00000000000E+00 0. -1.
         -1    1    6    6    0  503 -0.37910585940E+02 -0.18605858362E+02 -0.15232761491E+02  0.44893513054E+02  0.00000000000E+00 0.  1.
<mgrwt>
<rscale>  0 0.22836925E+04</rscale>
<asrwt>0</asrwt>
<pdfrwt beam="1">  1        1 0.35088998E+00 0.22836925E+04</pdfrwt>
<pdfrwt beam="2">  1       -2 0.87946303E-01 0.22836925E+04</pdfrwt>
<totfact> 0.17004794E+00</totfact>
</mgrwt>
</event>
<event>
12    4  0.4424320E-008  0.2998529E+04  0.7818608E-02  0.8244151E-01
         -2   -1    0    0    0  501 -0.00000000000E+00  0.00000000000E+00  0.21981971944E+04  0.21981971944E+04  0.00000000000E+00 0.  1.
          1   -1    0    0  501    0  0.00000000000E+00 -0.00000000000E+00 -0.10225623970E+04  0.10225623970E+04  0.00000000000E+00 0. -1.
        -24    2    1    2    0    0  0.11008416828E+04  0.23636072114E+03  0.13655159197E+04  0.17714372667E+04  0.75083033391E+02 0.  0.
        254    2    1    2    0    0 -0.11008416828E+04 -0.23636072114E+03 -0.18988112233E+03  0.14493223247E+04  0.89261501172E+03 0.  0.
         23    2    4    4    0    0 -0.11038739092E+04 -0.33965084026E+02  0.65813819965E+02  0.11103643595E+04  0.94267267023E+02 0.  0.
         23    2    4    4    0    0  0.30322263575E+01 -0.20239563712E+03 -0.25569494230E+03  0.33895796522E+03  0.92408930021E+02 0.  0.
          3    1    3    3  502    0  0.21737179094E+03  0.44308059200E+02  0.31766520300E+03  0.38745952150E+03  0.00000000000E+00 0. -1.
         -4    1    3    3    0  502  0.88346989188E+03  0.19205266195E+03  0.10478507167E+04  0.13839777452E+04  0.00000000000E+00 0.  1.
         11    1    5    5    0    0 -0.39119975047E+03  0.12509658621E+02  0.61240918296E+02  0.39616181845E+03  0.00000000000E+00 0.  1.
        -11    1    5    5    0    0 -0.71267415871E+03 -0.46474742648E+02  0.45729016691E+01  0.71420254104E+03  0.00000000000E+00 0. -1.
          4    1    6    6  503    0  0.34137956227E+02 -0.16461816420E+03 -0.16314270456E+03  0.23426498264E+03  0.00000000000E+00 0. -1.
         -4    1    6    6    0  503 -0.31105729869E+02 -0.37777472914E+02 -0.92552237739E+02  0.10469298258E+03  0.00000000000E+00 0.  1.
<mgrwt>
<rscale>  0 0.29985288E+04</rscale>
<asrwt>0</asrwt>
<pdfrwt beam="1">  1        1 0.15731729E+00 0.29985288E+04</pdfrwt>
<pdfrwt beam="2">  1       -2 0.33818418E+00 0.29985288E+04</pdfrwt>
<totfact> 0.20027623E-01</totfact>
</mgrwt>
</event>
<event>
12    4  0.4424320E-008  0.2111911E+04  0.7818608E-02  0.8556015E-01
         -2   -1    0    0    0  501 -0.00000000000E+00  0.00000000000E+00  0.64502193249E+03  0.64502193249E+03  0.00000000000E+00 0.  1.
          1   -1    0    0  501    0  0.00000000000E+00 -0.00000000000E+00 -0.17286886536E+04  0.17286886536E+04  0.00000000000E+00 0. -1.
        -24    2    1    2    0    0  0.84581457748E+03 -0.97398392671E+02 -0.28077270884E+03  0.90007370022E+03  0.80066256491E+02 0.  0.
        254    2    1    2    0    0 -0.84581457748E+03  0.97398392671E+02 -0.80289401230E+03  0.14736368859E+04  0.89558814759E+03 0.  0.
         23    2    4    4    0    0 -0.36186602935E+03  0.31718795286E+02 -0.89377202135E+03  0.96890197426E+03  0.89384027630E+02 0.  0.
         23    2    4    4    0    0 -0.48394854813E+03  0.65679597385E+02  0.90878009053E+02  0.50473491164E+03  0.89322515338E+02 0.  0.
          1    1    3    3  502    0  0.39296648250E+03 -0.18542127561E+02 -0.16091671829E+03  0.42504194745E+03  0.00000000000E+00 0. -1.
         -2    1    3    3    0  502  0.45284809498E+03 -0.78856265110E+02 -0.11985599054E+03  0.47503175277E+03  0.00000000000E+00 0.  1.
         11    1    5    5    0    0 -0.35309346399E+03  0.29044852953E+02 -0.89169437598E+03  0.95949854504E+03  0.00000000000E+00 0.  1.
        -11    1    5    5    0    0 -0.87725653645E+01  0.26739423332E+01 -0.20776453763E+01  0.94034292142E+01  0.00000000000E+00 0. -1.
          1    1    6    6  503    0 -0.35129306165E+01 -0.90219527559E+01  0.53487019146E+01  0.11060964028E+02  0.00000000000E+00 0. -1.
         -1    1    6    6    0  503 -0.48043561752E+03  0.74701550141E+02  0.85529307138E+02  0.49367394761E+03  0.00000000000E+00 0.  1.
<mgrwt>
<rscale>  0 0.21119111E+04</rscale>
<asrwt>0</asrwt>
<pdfrwt beam="1">  1        1 0.26595209E+00 0.21119111E+04</pdfrwt>
<pdfrwt beam="2">  1       -2 0.99234147E-01 0.21119111E+04</pdfrwt>
<totfact> 0.30916500E+00</totfact>
</mgrwt>
</event>
<event>
12    4  0.4424320E-008  0.1477712E+04  0.7818608E-02  0.8899411E-01
         -2   -1    0    0    0  501 -0.00000000000E+00  0.00000000000E+00  0.94242807653E+03  0.94242807653E+03  0.00000000000E+00 0.  1.
          1   -1    0    0  501    0  0.00000000000E+00 -0.00000000000E+00 -0.57925716230E+03  0.57925716230E+03  0.00000000000E+00 0. -1.
        -24    2    1    2    0    0  0.12133228546E+03 -0.41553616939E+03 -0.57733204128E+02  0.44428026245E+03  0.81608805720E+02 0.  0.
        254    2    1    2    0    0 -0.12133228546E+03  0.41553616939E+03  0.42090411837E+03  0.10774049764E+04  0.89232806451E+03 0.  0.
         23    2    4    4    0    0  0.24990677328E+03  0.21814804790E+03  0.53190528959E+03  0.63271739592E+03  0.85825985962E+02 0.  0.
         23    2    4    4    0    0 -0.37123905874E+03  0.19738812150E+03 -0.11100117123E+03  0.44468758047E+03  0.92979970780E+02 0.  0.
          1    1    3    3  502    0  0.86034504372E+02 -0.30643804205E+03 -0.56416305352E+01  0.31833635914E+03  0.00000000000E+00 0. -1.
         -2    1    3    3    0  502  0.35297781092E+02 -0.10909812734E+03 -0.52091573593E+02  0.12594390330E+03  0.00000000000E+00 0.  1.
         11    1    5    5    0    0  0.64481252391E+02  0.11019245750E+03  0.21362970130E+03  0.24887317829E+03  0.00000000000E+00 0. -1.
        -11    1    5    5    0    0  0.18542552089E+03  0.10795559040E+03  0.31827558830E+03  0.38384421762E+03  0.00000000000E+00 0.  1.
          1    1    6    6  503    0 -0.97754524492E+02  0.20132706262E+02 -0.55159325988E+02  0.11403431134E+03  0.00000000000E+00 0. -1.
         -1    1    6    6    0  503 -0.27348453425E+03  0.17725541523E+03 -0.55841845239E+02  0.33065326913E+03  0.00000000000E+00 0.  1.
<mgrwt>
<rscale>  0 0.14777120E+04</rscale>
<asrwt>0</asrwt>
<pdfrwt beam="1">  1        1 0.89116487E-01 0.14777120E+04</pdfrwt>
<pdfrwt beam="2">  1       -2 0.14498893E+00 0.14777120E+04</pdfrwt>
<totfact> 0.10006491E+01</totfact>
</mgrwt>
</event>
<event>
12    4  0.4424320E-008  0.1467161E+04  0.7818608E-02  0.8906589E-01
         -2   -1    0    0    0  501 -0.00000000000E+00  0.00000000000E+00  0.29009405827E+03  0.29009405827E+03  0.00000000000E+00 0.  1.
          1   -1    0    0  501    0  0.00000000000E+00 -0.00000000000E+00 -0.18550558601E+04  0.18550558601E+04  0.00000000000E+00 0. -1.
        -24    2    1    2    0    0  0.88220074856E+02 -0.59415694623E+02  0.15440862576E+03  0.20343220315E+03  0.78928012734E+02 0.  0.
        254    2    1    2    0    0 -0.88220074856E+02  0.59415694623E+02 -0.17193704276E+04  0.19417177152E+04  0.89594643365E+03 0.  0.
         23    2    4    4    0    0 -0.25211440652E+03 -0.19252625430E+03 -0.15505558441E+04  0.15852688365E+04  0.90696336740E+02 0.  0.
         23    2    4    4    0    0  0.16389433166E+03  0.25194194892E+03 -0.16881458343E+03  0.35644887874E+03  0.90671616274E+02 0.  0.
          1    1    3    3  502    0 -0.69364874876E+00 -0.36254893238E+02  0.22489961998E+02  0.42669624124E+02  0.00000000000E+00 0. -1.
         -2    1    3    3    0  502  0.88913723605E+02 -0.23160801386E+02  0.13191866376E+03  0.16076257903E+03  0.00000000000E+00 0.  1.
         11    1    5    5    0    0 -0.23802416313E+03 -0.14789363606E+03 -0.13930455256E+04  0.14209517466E+04  0.00000000000E+00 0. -1.
        -11    1    5    5    0    0 -0.14090243393E+02 -0.44632618237E+02 -0.15751031859E+03  0.16431708990E+03  0.00000000000E+00 0.  1.
          2    1    6    6  503    0  0.13464142218E+03  0.19364578184E+03 -0.17078515744E+03  0.29119507447E+03  0.00000000000E+00 0. -1.
         -2    1    6    6    0  503  0.29252909484E+02  0.58296167086E+02  0.19705740162E+01  0.65253804273E+02  0.00000000000E+00 0.  1.
<mgrwt>
<rscale>  0 0.14671615E+04</rscale>
<asrwt>0</asrwt>
<pdfrwt beam="1">  1        1 0.28539321E+00 0.14671615E+04</pdfrwt>
<pdfrwt beam="2">  1       -2 0.44629855E-01 0.14671615E+04</pdfrwt>
<totfact> 0.15156834E+01</totfact>
</mgrwt>
</event>
<event>
12    4  0.4424320E-008  0.2054340E+04  0.7818608E-02  0.8581628E-01
         -2   -1    0    0    0  501 -0.00000000000E+00  0.00000000000E+00  0.15676610083E+04  0.15676610083E+04  0.00000000000E+00 0.  1.
          1   -1    0    0  501    0  0.00000000000E+00 -0.00000000000E+00 -0.67302702312E+03  0.67302702312E+03  0.00000000000E+00 0. -1.
        -24    2    1    2    0    0 -0.76546168526E+03 -0.27271751238E+03  0.56492307066E+03  0.99444867359E+03  0.97384061759E+02 0.  0.
        254    2    1    2    0    0  0.76546168526E+03  0.27271751238E+03  0.32971091457E+03  0.12462393579E+04  0.88549241486E+03 0.  0.
         23    2    4    4    0    0  0.54627157901E+03  0.45125326509E+03 -0.10224421359E+03  0.72180789777E+03  0.92252993346E+02 0.  0.
         23    2    4    4    0    0  0.21919010625E+03 -0.17853575272E+03  0.43195512816E+03  0.52443146010E+03  0.92324460059E+02 0.  0.
          1    1    3    3  502    0 -0.46543548709E+02 -0.13620644453E+02  0.86942068507E+01  0.49268784382E+02  0.00000000000E+00 0. -1.
         -2    1    3    3    0  502 -0.71891813655E+03 -0.25909686792E+03  0.55622886381E+03  0.94517988921E+03  0.00000000000E+00 0.  1.
         11    1    5    5    0    0  0.30710149077E+03  0.31164122920E+03 -0.57894906201E+02  0.44134272571E+03  0.00000000000E+00 0.  1.
        -11    1    5    5    0    0  0.23917008824E+03  0.13961203589E+03 -0.44349307392E+02  0.28046517207E+03  0.00000000000E+00 0. -1.
          3    1    6    6  503    0  0.77375745258E+02 -0.10567761010E+03  0.25202213252E+03  0.28402450336E+03  0.00000000000E+00 0. -1.
         -3    1    6    6    0  503  0.14181436099E+03 -0.72858142620E+02  0.17993299564E+03  0.24040695674E+03  0.00000000000E+00 0.  1.
<mgrwt>
<rscale>  0 0.20543400E+04</rscale>
<asrwt>0</asrwt>
<pdfrwt beam="1">  1        1 0.10354262E+00 0.20543400E+04</pdfrwt>
<pdfrwt beam="2">  1       -2 0.24117862E+00 0.20543400E+04</pdfrwt>
<totfact> 0.17028226E+00</totfact>
</mgrwt>
</event>
<event>
12    4  0.4424320E-008  0.1314355E+04  0.7818608E-02  0.9018258E-01
         -2   -1    0    0    0  501 -0.00000000000E+00  0.00000000000E+00  0.75294929182E+03  0.75294929182E+03  0.00000000000E+00 0.  1.
          1   -1    0    0  501    0  0.00000000000E+00 -0.00000000000E+00 -0.57358755020E+03  0.57358755020E+03  0.00000000000E+00 0. -1.
        -24    2    1    2    0    0  0.18400647598E+03 -0.25132945261E+03  0.18960062284E+03  0.37310149199E+03  0.78939535038E+02 0.  0.
        254    2    1    2    0    0 -0.18400647598E+03  0.25132945261E+03 -0.10238881213E+02  0.95343535003E+03  0.90106007294E+03 0.  0.
         23    2    4    4    0    0 -0.14712632013E+03  0.33289410568E+03 -0.39616451901E+03  0.54628742767E+03  0.94968351730E+02 0.  0.
         23    2    4    4    0    0 -0.36880155847E+02 -0.81564653069E+02  0.38592563780E+03  0.40714792236E+03  0.93903643424E+02 0.  0.
          3    1    3    3  502    0  0.73848019445E+02 -0.10405975748E+03  0.12376135892E+03  0.17776061730E+03  0.00000000000E+00 0. -1.
         -4    1    3    3    0  502  0.11015845653E+03 -0.14726969513E+03  0.65839263920E+02  0.19534087468E+03  0.00000000000E+00 0.  1.
         11    1    5    5    0    0 -0.54271295363E+02  0.36234712649E+02 -0.71598998312E+02  0.96874890764E+02  0.00000000000E+00 0.  1.
        -11    1    5    5    0    0 -0.92855024766E+02  0.29665939303E+03 -0.32456552070E+03  0.44941253690E+03  0.00000000000E+00 0. -1.
          3    1    6    6  503    0 -0.24956417825E+02 -0.13591329733E+02  0.27529226795E+03  0.27675508998E+03  0.00000000000E+00 0. -1.
         -3    1    6    6    0  503 -0.11923738022E+02 -0.67973323336E+02  0.11063336985E+03  0.13039283239E+03  0.00000000000E+00 0.  1.
<mgrwt>
<rscale>  0 0.13143551E+04</rscale>
<asrwt>0</asrwt>
<pdfrwt beam="1">  1        1 0.88244238E-01 0.13143551E+04</pdfrwt>
<pdfrwt beam="2">  1       -2 0.11583835E+00 0.13143551E+04</pdfrwt>
<totfact> 0.18173532E+01</totfact>
</mgrwt>
</event>
<event>
12    4  0.4424320E-008  0.2313355E+04  0.7818608E-02  0.8472674E-01
          1   -1    0    0  501    0  0.00000000000E+00  0.00000000000E+00  0.19470595471E+04  0.19470595471E+04  0.00000000000E+00 0. -1.
         -2   -1    0    0    0  501 -0.00000000000E+00 -0.00000000000E+00 -0.68714031684E+03  0.68714031684E+03  0.00000000000E+00 0.  1.
        -24    2    1    2    0    0 -0.28536717622E+02  0.50594670317E+03  0.14635636863E+04  0.15508024047E+04  0.78568594023E+02 0.  0.
        254    2    1    2    0    0  0.28536717622E+02 -0.50594670317E+03 -0.20364445594E+03  0.10833974593E+04  0.93567226083E+03 0.  0.
         23    2    4    4    0    0  0.45509085567E+03 -0.15916625593E+03 -0.24986082832E+01  0.49108792105E+03  0.93378365893E+02 0.  0.
         23    2    4    4    0    0 -0.42655413804E+03 -0.34678044723E+03 -0.20114584766E+03  0.59230953825E+03  0.90364958952E+02 0.  0.
          1    1    3    3  502    0 -0.12903611916E+02  0.42750897853E+03  0.11426896306E+04  0.12201106596E+04  0.00000000000E+00 0. -1.
         -2    1    3    3    0  502 -0.15633105706E+02  0.78437724636E+02  0.32087405568E+03  0.33069174505E+03  0.00000000000E+00 0.  1.
         11    1    5    5    0    0  0.16560585483E+03 -0.10569943742E+03 -0.84827910430E+01  0.19664594572E+03  0.00000000000E+00 0.  1.
        -11    1    5    5    0    0  0.28948500084E+03 -0.53466818516E+02  0.59841827598E+01  0.29444197533E+03  0.00000000000E+00 0. -1.
          3    1    6    6  503    0 -0.16963873748E+03 -0.19552556571E+03 -0.87408837934E+02  0.27321759286E+03  0.00000000000E+00 0. -1.
         -3    1    6    6    0  503 -0.25691540057E+03 -0.15125488153E+03 -0.11373700973E+03  0.31909194540E+03  0.00000000000E+00 0.  1.
<mgrwt>
<rscale>  0 0.23133552E+04</rscale>
<asrwt>0</asrwt>
<pdfrwt beam="1">  1        1 0.29954762E+00 0.23133552E+04</pdfrwt>
<pdfrwt beam="2">  1       -2 0.10571390E+00 0.23133552E+04</pdfrwt>
<totfact> 0.18567450E+00</totfact>
</mgrwt>
</event>
<event>
12    4  0.4424320E-008  0.1948298E+04  0.7818608E-02  0.8631182E-01
          3   -1    0    0  501    0  0.00000000000E+00  0.00000000000E+00  0.20599622207E+04  0.20599622207E+04  0.00000000000E+00 0. -1.
         -4   -1    0    0    0  501 -0.00000000000E+00 -0.00000000000E+00 -0.46067188038E+03  0.46067188038E+03  0.00000000000E+00 0.  1.
        -24    2    1    2    0    0 -0.24469175995E+03 -0.14118208737E+03  0.15497240399E+04  0.15774431101E+04  0.82920002509E+02 0.  0.
        254    2    1    2    0    0  0.24469175995E+03  0.14118208737E+03  0.49566300491E+02  0.94319099098E+03  0.89852433920E+03 0.  0.
         23    2    4    4    0    0  0.19033278596E+03 -0.32287078494E+03  0.21373927524E+03  0.44100686540E+03  0.91271377661E+02 0.  0.
         23    2    4    4    0    0  0.54358973997E+02  0.46405287231E+03 -0.16417297475E+03  0.50218412557E+03  0.83283635796E+02 0.  0.
          3    1    3    3  502    0 -0.23641244456E+03 -0.14573627394E+03  0.15351832518E+04  0.15601017666E+04  0.00000000000E+00 0. -1.
         -4    1    3    3    0  502 -0.82793153951E+01  0.45541865737E+01  0.14540788033E+02  0.17341343529E+02  0.00000000000E+00 0.  1.
         11    1    5    5    0    0  0.11840668358E+03 -0.18525348259E+03  0.73638604121E+02  0.23186556352E+03  0.00000000000E+00 0. -1.
        -11    1    5    5    0    0  0.71926102379E+02 -0.13761730234E+03  0.14010067112E+03  0.20914130189E+03  0.00000000000E+00 0.  1.
          3    1    6    6  503    0 -0.66568485881E+01  0.27197975508E+03 -0.78168520371E+02  0.28306822214E+03  0.00000000000E+00 0. -1.
         -3    1    6    6    0  503  0.61015822585E+02  0.19207311723E+03 -0.86004454375E+02  0.21911590344E+03  0.00000000000E+00 0.  1.
<mgrwt>
<rscale>  0 0.19482984E+04</rscale>
<asrwt>0</asrwt>
<pdfrwt beam="1">  1        3 0.31691726E+00 0.19482984E+04</pdfrwt>
<pdfrwt beam="2">  1       -4 0.70872598E-01 0.19482984E+04</pdfrwt>
<totfact> 0.12187844E-01</totfact>
</mgrwt>
</event>
<event>
12    4  0.4424320E-008  0.3100226E+04  0.7818608E-02  0.8215676E-01
          1   -1    0    0  501    0  0.00000000000E+00  0.00000000000E+00  0.10505436035E+04  0.10505436035E+04  0.00000000000E+00 0. -1.
         -4   -1    0    0    0  501 -0.00000000000E+00 -0.00000000000E+00 -0.22872444040E+04  0.22872444040E+04  0.00000000000E+00 0.  1.
        -24    2    1    2    0    0 -0.26071888075E+03  0.11550333387E+04 -0.14125810148E+04  0.18449513828E+04  0.79900771185E+02 0.  0.
        254    2    1    2    0    0  0.26071888075E+03 -0.11550333387E+04  0.17588021443E+03  0.14928366247E+04  0.89193665129E+03 0.  0.
         23    2    4    4    0    0  0.41414132064E+03 -0.12155981737E+04  0.19425073774E+03  0.13020120861E+04  0.91160133517E+02 0.  0.
         23    2    4    4    0    0 -0.15342243989E+03  0.60564835034E+02 -0.18370523306E+02  0.19082453854E+03  0.94180592903E+02 0.  0.
          1    1    3    3  502    0 -0.15086327770E+03  0.79339314114E+03 -0.10006933060E+04  0.12859313736E+04  0.00000000000E+00 0. -1.
         -2    1    3    3    0  502 -0.10985560305E+03  0.36164019753E+03 -0.41188770881E+03  0.55902000917E+03  0.00000000000E+00 0.  1.
         11    1    5    5    0    0  0.67941355685E+02 -0.30566165164E+03  0.28277409119E+02  0.31439574578E+03  0.00000000000E+00 0.  1.
        -11    1    5    5    0    0  0.34619996496E+03 -0.90993652206E+03  0.16597332862E+03  0.98761634035E+03  0.00000000000E+00 0. -1.
          4    1    6    6  503    0 -0.73312915903E+02 -0.14901346398E+02 -0.29040814030E+02  0.80250873155E+02  0.00000000000E+00 0. -1.
         -4    1    6    6    0  503 -0.80109523987E+02  0.75466181432E+02  0.10670290724E+02  0.11057366539E+03  0.00000000000E+00 0.  1.
<mgrwt>
<rscale>  0 0.31002258E+04</rscale>
<asrwt>0</asrwt>
<pdfrwt beam="1">  1        1 0.16162209E+00 0.31002258E+04</pdfrwt>
<pdfrwt beam="2">  1       -4 0.35188375E+00 0.31002258E+04</pdfrwt>
<totfact> 0.80380369E-02</totfact>
</mgrwt>
</event>
<event>
12    4  0.4424320E-008  0.1587596E+04  0.7818608E-02  0.8828205E-01
         -2   -1    0    0    0  501 -0.00000000000E+00  0.00000000000E+00  0.11120791167E+04  0.11120791167E+04  0.00000000000E+00 0.  1.
          1   -1    0    0  501    0  0.00000000000E+00 -0.00000000000E+00 -0.56661015604E+03  0.56661015604E+03  0.00000000000E+00 0. -1.
        -24    2    1    2    0    0 -0.56612404168E+02  0.49975543899E+03  0.37458857319E+03  0.63213934117E+03  0.79517824334E+02 0.  0.
        254    2    1    2    0    0  0.56612404168E+02 -0.49975543899E+03  0.17088038751E+03  0.10465499316E+04  0.90172400954E+03 0.  0.
         23    2    4    4    0    0 -0.16451234704E+03  0.20889758631E+03  0.85595988320E+02  0.29380375573E+03  0.91057453144E+02 0.  0.
         23    2    4    4    0    0  0.22112475120E+03 -0.70865302530E+03  0.85284399186E+02  0.75274617587E+03  0.90929151979E+02 0.  0.
          1    1    3    3  502    0 -0.73668851506E+02  0.44519725952E+03  0.32091207857E+03  0.55372580013E+03  0.00000000000E+00 0. -1.
         -2    1    3    3    0  502  0.17056447337E+02  0.54558179471E+02  0.53676494617E+02  0.78413541033E+02  0.00000000000E+00 0.  1.
         11    1    5    5    0    0 -0.10554960232E+03  0.11743922313E+03  0.42780513073E+01  0.15795882819E+03  0.00000000000E+00 0. -1.
        -11    1    5    5    0    0 -0.58962744716E+02  0.91458363177E+02  0.81317937013E+02  0.13584492754E+03  0.00000000000E+00 0.  1.
          3    1    6    6  503    0  0.19631683806E+02 -0.72920472055E+02  0.37018363745E+02  0.84102066016E+02  0.00000000000E+00 0. -1.
         -3    1    6    6    0  503  0.20149306740E+03 -0.63573255324E+03  0.48266035441E+02  0.66864410985E+03  0.00000000000E+00 0.  1.
<mgrwt>
<rscale>  0 0.15875961E+04</rscale>
<asrwt>0</asrwt>
<pdfrwt beam="1">  1        1 0.87170793E-01 0.15875961E+04</pdfrwt>
<pdfrwt beam="2">  1       -2 0.17108909E+00 0.15875961E+04</pdfrwt>
<totfact> 0.65375645E+00</totfact>
</mgrwt>
</event>
<event>
12    4  0.4424320E-008  0.1278815E+04  0.7818608E-02  0.9046536E-01
          1   -1    0    0  501    0  0.00000000000E+00  0.00000000000E+00  0.31234571461E+04  0.31234571461E+04  0.00000000000E+00 0. -1.
         -2   -1    0    0    0  501 -0.00000000000E+00 -0.00000000000E+00 -0.13089411811E+03  0.13089411811E+03  0.00000000000E+00 0.  1.
        -24    2    1    2    0    0  0.25678381975E+03 -0.17947279894E+03  0.77764666293E+03  0.84231066891E+03  0.81268166903E+02 0.  0.
        254    2    1    2    0    0 -0.25678381975E+03  0.17947279894E+03  0.22149163650E+04  0.24120405953E+04  0.90218452297E+03 0.  0.
         23    2    4    4    0    0  0.43623073353E+01 -0.23442571684E+03  0.16022521723E+03  0.29815923416E+03  0.90842513393E+02 0.  0.
         23    2    4    4    0    0 -0.26114612709E+03  0.41389851578E+03  0.20546911478E+04  0.21138813611E+04  0.85025966098E+02 0.  0.
          3    1    3    3  502    0  0.77312743120E+01  0.12744974952E+01  0.23578617005E+01  0.81826925979E+01  0.00000000000E+00 0. -1.
         -4    1    3    3    0  502  0.24905254544E+03 -0.18074729643E+03  0.77528880123E+03  0.83412797631E+03  0.00000000000E+00 0.  1.
         11    1    5    5    0    0 -0.25043315723E+02 -0.98566191781E+02  0.26095017800E+02  0.10499243677E+03  0.00000000000E+00 0. -1.
        -11    1    5    5    0    0  0.29405623058E+02 -0.13585952506E+03  0.13413019943E+03  0.19316679740E+03  0.00000000000E+00 0.  1.
          2    1    6    6  503    0 -0.23304630833E+03  0.30784591657E+03  0.16510108816E+04  0.16955579086E+04  0.00000000000E+00 0. -1.
         -2    1    6    6    0  503 -0.28099818754E+02  0.10605259921E+03  0.40368026617E+03  0.41832345249E+03  0.00000000000E+00 0.  1.
<mgrwt>
<rscale>  0 0.12788153E+04</rscale>
<asrwt>0</asrwt>
<pdfrwt beam="1">  1        1 0.48053181E+00 0.12788153E+04</pdfrwt>
<pdfrwt beam="2">  1       -2 0.20137559E-01 0.12788153E+04</pdfrwt>
<totfact> 0.89578543E+00</totfact>
</mgrwt>
</event>
<event>
12    4  0.4424320E-008  0.1418623E+04  0.7818608E-02  0.8940448E-01
         -2   -1    0    0    0  501 -0.00000000000E+00  0.00000000000E+00  0.24615196031E+04  0.24615196031E+04  0.00000000000E+00 0.  1.
          3   -1    0    0  501    0  0.00000000000E+00 -0.00000000000E+00 -0.20439519215E+03  0.20439519215E+03  0.00000000000E+00 0. -1.
        -24    2    1    2    0    0 -0.26850713569E+03  0.26504372833E+03  0.10365161603E+04  0.11057079918E+04  0.76682153374E+02 0.  0.
        254    2    1    2    0    0  0.26850713569E+03 -0.26504372833E+03  0.12206082507E+04  0.15602068035E+04  0.89555374394E+03 0.  0.
         23    2    4    4    0    0  0.21862449721E+02  0.23344360380E+03  0.43139620659E+02  0.25439480033E+03  0.88779528600E+02 0.  0.
         23    2    4    4    0    0  0.24664468597E+03 -0.49848733213E+03  0.11774686300E+04  0.13058120032E+04  0.96898873034E+02 0.  0.
          1    1    3    3  502    0 -0.21613170892E+03  0.16978944473E+03  0.69786467791E+03  0.75003765227E+03  0.00000000000E+00 0. -1.
         -2    1    3    3    0  502 -0.52375426764E+02  0.95254283599E+02  0.33865148241E+03  0.35567033952E+03  0.00000000000E+00 0.  1.
         11    1    5    5    0    0  0.41412199960E+02  0.19329777750E+03  0.84746032011E+01  0.19786566147E+03  0.00000000000E+00 0. -1.
        -11    1    5    5    0    0 -0.19549750240E+02  0.40145826307E+02  0.34665017458E+02  0.56529138855E+02  0.00000000000E+00 0.  1.
          4    1    6    6  503    0  0.24591365014E+02 -0.10333142948E+03  0.16128181063E+03  0.19311639493E+03  0.00000000000E+00 0.  1.
         -4    1    6    6    0  503  0.22205332095E+03 -0.39515590265E+03  0.10161868194E+04  0.11126956083E+04  0.00000000000E+00 0. -1.
<mgrwt>
<rscale>  0 0.14186230E+04</rscale>
<asrwt>0</asrwt>
<pdfrwt beam="1">  1        3 0.31445416E-01 0.14186230E+04</pdfrwt>
<pdfrwt beam="2">  1       -2 0.37869530E+00 0.14186230E+04</pdfrwt>
<totfact> 0.42249323E-01</totfact>
</mgrwt>
</event>
<event>
12    4  0.4424320E-008  0.1590368E+04  0.7818608E-02  0.8826487E-01
         -4   -1    0    0    0  501 -0.00000000000E+00  0.00000000000E+00  0.28391408985E+03  0.28391408985E+03  0.00000000000E+00 0.  1.
          1   -1    0    0  501    0  0.00000000000E+00 -0.00000000000E+00 -0.22271453557E+04  0.22271453557E+04  0.00000000000E+00 0. -1.
        -24    2    1    2    0    0  0.21863020579E+03 -0.42740160736E+03 -0.10622502673E+04  0.11685413289E+04  0.81497889942E+02 0.  0.
        254    2    1    2    0    0 -0.21863020579E+03  0.42740160736E+03 -0.88098099862E+03  0.13425181167E+04  0.89205160890E+03 0.  0.
         23    2    4    4    0    0  0.22073814486E+03 -0.14314499632E+02  0.23445248266E+02  0.24038710547E+03  0.91137518705E+02 0.  0.
         23    2    4    4    0    0 -0.43936835065E+03  0.44171610700E+03 -0.90442624688E+03  0.11021310113E+04  0.92456817921E+02 0.  0.
          3    1    3    3  502    0  0.17527632319E+03 -0.38951693647E+03 -0.89598352709E+03  0.99258839106E+03  0.00000000000E+00 0. -1.
         -4    1    3    3    0  502  0.43353882598E+02 -0.37884670893E+02 -0.16626674019E+03  0.17595293779E+03  0.00000000000E+00 0.  1.
         11    1    5    5    0    0  0.11889688782E+03 -0.18325880477E+02 -0.31833014209E+02  0.12444134611E+03  0.00000000000E+00 0.  1.
        -11    1    5    5    0    0  0.10184125704E+03  0.40113808442E+01  0.55278262474E+02  0.11594575936E+03  0.00000000000E+00 0. -1.
          2    1    6    6  503    0 -0.35958892115E+03  0.36536855348E+03 -0.79994781821E+03  0.95011309008E+03  0.00000000000E+00 0. -1.
         -2    1    6    6    0  503 -0.79779429496E+02  0.76347553515E+02 -0.10447842867E+03  0.15201792117E+03  0.00000000000E+00 0.  1.
<mgrwt>
<rscale>  0 0.15903684E+04</rscale>
<asrwt>0</asrwt>
<pdfrwt beam="1">  1        1 0.34263775E+00 0.15903684E+04</pdfrwt>
<pdfrwt beam="2">  1       -4 0.43679090E-01 0.15903684E+04</pdfrwt>
<totfact> 0.50735813E+00</totfact>
</mgrwt>
</event>
<event>
12    4  0.4424320E-008  0.1749842E+04  0.7818608E-02  0.8733437E-01
          1   -1    0    0  501    0  0.00000000000E+00  0.00000000000E+00  0.64347769925E+03  0.64347769925E+03  0.00000000000E+00 0. -1.
         -2   -1    0    0    0  501 -0.00000000000E+00 -0.00000000000E+00 -0.11896091564E+04  0.11896091564E+04  0.00000000000E+00 0.  1.
        -24    2    1    2    0    0  0.46361649552E+03 -0.16932486452E+03  0.27281047516E+03  0.57023910948E+03  0.84474386444E+02 0.  0.
        254    2    1    2    0    0 -0.46361649552E+03  0.16932486452E+03 -0.81894193229E+03  0.12628477461E+04  0.82492871014E+03 0.  0.
         23    2    4    4    0    0 -0.13208306180E+03  0.47264350352E+03 -0.37666391602E+03  0.62495472514E+03  0.88627795920E+02 0.  0.
         23    2    4    4    0    0 -0.33153343373E+03 -0.30331863900E+03 -0.44227801627E+03  0.63789302101E+03  0.96855811036E+02 0.  0.
          3    1    3    3  502    0  0.38513734185E+03 -0.11793279730E+03  0.19105334964E+03  0.44580298247E+03  0.00000000000E+00 0. -1.
         -4    1    3    3    0  502  0.78479153669E+02 -0.51392067225E+02  0.81757125518E+02  0.12443612702E+03  0.00000000000E+00 0.  1.
         11    1    5    5    0    0 -0.10369361772E+03  0.30037642910E+03 -0.19418075139E+03  0.37240371873E+03  0.00000000000E+00 0. -1.
        -11    1    5    5    0    0 -0.28389444077E+02  0.17226707442E+03 -0.18248316463E+03  0.25255100640E+03  0.00000000000E+00 0.  1.
          4    1    6    6  503    0 -0.24127027891E+03 -0.17388941147E+03 -0.32993518470E+03  0.44419151389E+03  0.00000000000E+00 0. -1.
         -4    1    6    6    0  503 -0.90263154817E+02 -0.12942922752E+03 -0.11234283157E+03  0.19370150712E+03  0.00000000000E+00 0.  1.
<mgrwt>
<rscale>  0 0.17498422E+04</rscale>
<asrwt>0</asrwt>
<pdfrwt beam="1">  1        1 0.98996571E-01 0.17498422E+04</pdfrwt>
<pdfrwt beam="2">  1       -2 0.18301679E+00 0.17498422E+04</pdfrwt>
<totfact> 0.44302113E+00</totfact>
</mgrwt>
</event>
<event>
12    4  0.4424320E-008  0.1616093E+04  0.7818608E-02  0.8810722E-01
         -2   -1    0    0    0  501 -0.00000000000E+00  0.00000000000E+00  0.19873107955E+03  0.19873107955E+03  0.00000000000E+00 0.  1.
          1   -1    0    0  501    0  0.00000000000E+00 -0.00000000000E+00 -0.32855417649E+04  0.32855417649E+04  0.00000000000E+00 0. -1.
        -24    2    1    2    0    0 -0.98953858789E+02  0.37047689383E+03 -0.20318351006E+04  0.20692340487E+04  0.79565553809E+02 0.  0.
        254    2    1    2    0    0  0.98953858789E+02 -0.37047689383E+03 -0.10549755848E+04  0.14150387958E+04  0.86157780495E+03 0.  0.
         23    2    4    4    0    0  0.39893738383E+03 -0.36495714725E+03 -0.92467073489E+03  0.10750883371E+04  0.91946772831E+02 0.  0.
         23    2    4    4    0    0 -0.29998352504E+03 -0.55197465839E+01 -0.13030484990E+03  0.33995045868E+03  0.92554727337E+02 0.  0.
          3    1    3    3  502    0 -0.74953449271E+02  0.34791946080E+03 -0.17779625737E+04  0.18132338195E+04  0.00000000000E+00 0. -1.
         -4    1    3    3    0  502 -0.24000409518E+02  0.22557433035E+02 -0.25387252688E+03  0.25600022919E+03  0.00000000000E+00 0.  1.
         11    1    5    5    0    0  0.38695171438E+03 -0.36943936643E+03 -0.89393196647E+03  0.10417924147E+04  0.00000000000E+00 0. -1.
        -11    1    5    5    0    0  0.11985669451E+02  0.44822191851E+01 -0.30738768420E+02  0.33295922348E+02  0.00000000000E+00 0.  1.
          1    1    6    6  503    0 -0.15101202631E+03  0.17224284223E+02 -0.11059436650E+03  0.18796920481E+03  0.00000000000E+00 0. -1.
         -1    1    6    6    0  503 -0.14897149873E+03 -0.22744030807E+02 -0.19710483404E+02  0.15198125387E+03  0.00000000000E+00 0.  1.
<mgrwt>
<rscale>  0 0.16160931E+04</rscale>
<asrwt>0</asrwt>
<pdfrwt beam="1">  1        1 0.50546794E+00 0.16160931E+04</pdfrwt>
<pdfrwt beam="2">  1       -2 0.30574014E-01 0.16160931E+04</pdfrwt>
<totfact> 0.30730959E+00</totfact>
</mgrwt>
</event>
<event>
12    4  0.4424320E-008  0.1523368E+04  0.7818608E-02  0.8869061E-01
          1   -1    0    0  501    0  0.00000000000E+00  0.00000000000E+00  0.77194955171E+03  0.77194955171E+03  0.00000000000E+00 0. -1.
         -2   -1    0    0    0  501 -0.00000000000E+00 -0.00000000000E+00 -0.75155470187E+03  0.75155470187E+03  0.00000000000E+00 0.  1.
        -24    2    1    2    0    0  0.29968300654E+02 -0.49518238310E+03  0.11093591600E+02  0.50239865731E+03  0.78598037596E+02 0.  0.
        254    2    1    2    0    0 -0.29968300654E+02  0.49518238310E+03  0.93012582382E+01  0.10211055963E+04  0.89244968137E+03 0.  0.
         23    2    4    4    0    0 -0.27654104815E+03 -0.88369448498E+02 -0.18064995033E+03  0.35335756957E+03  0.89123827760E+02 0.  0.
         23    2    4    4    0    0  0.24657274750E+03  0.58355183160E+03  0.18995120857E+03  0.66774802671E+03  0.92060336566E+02 0.  0.
          1    1    3    3  502    0  0.15821846500E+02 -0.43121584953E+03  0.34374063315E+02  0.43287297899E+03  0.00000000000E+00 0. -1.
         -2    1    3    3    0  502  0.14146454154E+02 -0.63966533571E+02 -0.23280471715E+02  0.69525678317E+02  0.00000000000E+00 0.  1.
         11    1    5    5    0    0 -0.25917846003E+03 -0.63712416366E+02 -0.18220870402E+03  0.32316057613E+03  0.00000000000E+00 0. -1.
        -11    1    5    5    0    0 -0.17362588120E+02 -0.24657032131E+02  0.15587536838E+01  0.30196993440E+02  0.00000000000E+00 0.  1.
          3    1    6    6  503    0  0.20594170422E+03  0.47707998480E+03  0.19144654689E+03  0.55377710114E+03  0.00000000000E+00 0. -1.
         -3    1    6    6    0  503  0.40631043282E+02  0.10647184680E+03 -0.14953383159E+01  0.11397092557E+03  0.00000000000E+00 0.  1.
<mgrwt>
<rscale>  0 0.15233677E+04</rscale>
<asrwt>0</asrwt>
<pdfrwt beam="1">  1        1 0.11876147E+00 0.15233677E+04</pdfrwt>
<pdfrwt beam="2">  1       -2 0.11562380E+00 0.15233677E+04</pdfrwt>
<totfact> 0.11517050E+01</totfact>
</mgrwt>
</event>
<event>
12    4  0.4424320E-008  0.1610072E+04  0.7818608E-02  0.8814384E-01
         -2   -1    0    0    0  501 -0.00000000000E+00  0.00000000000E+00  0.21755166543E+03  0.21755166543E+03  0.00000000000E+00 0.  1.
          1   -1    0    0  501    0  0.00000000000E+00 -0.00000000000E+00 -0.29789835776E+04  0.29789835776E+04  0.00000000000E+00 0. -1.
        -24    2    1    2    0    0  0.27205864057E+03 -0.12125720724E+03 -0.18568349000E+04  0.18822328808E+04  0.79028839062E+02 0.  0.
        254    2    1    2    0    0 -0.27205864057E+03  0.12125720724E+03 -0.90459701216E+03  0.13143023622E+04  0.90574595267E+03 0.  0.
         23    2    4    4    0    0 -0.36959071589E+03  0.44482974638E+03 -0.68551281364E+03  0.90122857824E+03  0.88398710636E+02 0.  0.
         23    2    4    4    0    0  0.97532075311E+02 -0.32357253914E+03 -0.21908419853E+03  0.41307378400E+03  0.91762580538E+02 0.  0.
          3    1    3    3  502    0  0.22708902174E+03 -0.65249903663E+02 -0.14081354337E+04  0.14278208478E+04  0.00000000000E+00 0. -1.
         -4    1    3    3    0  502  0.44969618832E+02 -0.56007303577E+02 -0.44869946625E+03  0.45441203294E+03  0.00000000000E+00 0.  1.
         11    1    5    5    0    0 -0.15934854417E+03  0.16845545197E+03 -0.33851762153E+03  0.41032106686E+03  0.00000000000E+00 0. -1.
        -11    1    5    5    0    0 -0.21024217172E+03  0.27637429441E+03 -0.34699519211E+03  0.49090751138E+03  0.00000000000E+00 0.  1.
          3    1    6    6  503    0  0.40286339911E+02 -0.25312066028E+03 -0.18504394311E+03  0.31612389775E+03  0.00000000000E+00 0. -1.
         -3    1    6    6    0  503  0.57245735400E+02 -0.70451878863E+02 -0.34040255410E+02  0.96949886257E+02  0.00000000000E+00 0.  1.
<mgrwt>
<rscale>  0 0.16100718E+04</rscale>
<asrwt>0</asrwt>
<pdfrwt beam="1">  1        1 0.45830519E+00 0.16100718E+04</pdfrwt>
<pdfrwt beam="2">  1       -2 0.33469485E-01 0.16100718E+04</pdfrwt>
<totfact> 0.43705798E+00</totfact>
</mgrwt>
</event>
<event>
12    4  0.4424320E-008  0.1489946E+04  0.7818608E-02  0.8891166E-01
         -2   -1    0    0    0  501 -0.00000000000E+00  0.00000000000E+00  0.11581383017E+04  0.11581383017E+04  0.00000000000E+00 0.  1.
          1   -1    0    0  501    0  0.00000000000E+00 -0.00000000000E+00 -0.47920451801E+03  0.47920451801E+03  0.00000000000E+00 0. -1.
        -24    2    1    2    0    0  0.56971112365E+02  0.42937714397E+03  0.41585846425E+03  0.60578191121E+03  0.80143759907E+02 0.  0.
        254    2    1    2    0    0 -0.56971112365E+02 -0.42937714397E+03  0.26307531947E+03  0.10315609085E+04  0.89849810511E+03 0.  0.
         23    2    4    4    0    0 -0.23234127505E+03 -0.37898216534E+03  0.52827243479E+03  0.69659745760E+03  0.92554323724E+02 0.  0.
         23    2    4    4    0    0  0.17537016268E+03 -0.50394978626E+02 -0.26519711532E+03  0.33496345093E+03  0.92610235161E+02 0.  0.
          3    1    3    3  502    0  0.14230320920E+02  0.25539480245E+02  0.81840347497E+01  0.30360262012E+02  0.00000000000E+00 0. -1.
         -4    1    3    3    0  502  0.42740791446E+02  0.40383766372E+03  0.40767442950E+03  0.57542164920E+03  0.00000000000E+00 0.  1.
         11    1    5    5    0    0 -0.17865122873E+03 -0.23909704662E+03  0.40176811304E+03  0.50050102486E+03  0.00000000000E+00 0.  1.
        -11    1    5    5    0    0 -0.53690046320E+02 -0.13988511871E+03  0.12650432175E+03  0.19609643274E+03  0.00000000000E+00 0. -1.
          1    1    6    6  503    0  0.73421168286E+01  0.14893101424E+02 -0.31518113610E+01  0.16901037377E+02  0.00000000000E+00 0. -1.
         -1    1    6    6    0  503  0.16802804586E+03 -0.65288080050E+02 -0.26204530396E+03  0.31806241356E+03  0.00000000000E+00 0.  1.
<mgrwt>
<rscale>  0 0.14899465E+04</rscale>
<asrwt>0</asrwt>
<pdfrwt beam="1">  1        1 0.73723772E-01 0.14899465E+04</pdfrwt>
<pdfrwt beam="2">  1       -2 0.17817512E+00 0.14899465E+04</pdfrwt>
<totfact> 0.74198976E+00</totfact>
</mgrwt>
</event>
<event>
12    4  0.4424320E-008  0.2509076E+04  0.7818608E-02  0.8399759E-01
         -2   -1    0    0    0  501 -0.00000000000E+00  0.00000000000E+00  0.57821492209E+03  0.57821492209E+03  0.00000000000E+00 0.  1.
          1   -1    0    0  501    0  0.00000000000E+00 -0.00000000000E+00 -0.27219393423E+04  0.27219393423E+04  0.00000000000E+00 0. -1.
        -24    2    1    2    0    0 -0.82210476993E+03 -0.65820017649E+03 -0.57279464476E+03  0.12014746155E+04  0.79773564253E+02 0.  0.
        254    2    1    2    0    0  0.82210476993E+03  0.65820017649E+03 -0.15709297754E+04  0.20986796489E+04  0.90969895252E+03 0.  0.
         23    2    4    4    0    0 -0.17915279257E+03  0.27426200179E+02 -0.27441471668E+03  0.34093517791E+03  0.89919070636E+02 0.  0.
         23    2    4    4    0    0  0.10012575625E+04  0.63077397631E+03 -0.12965150588E+04  0.17577444710E+04  0.91223966202E+02 0.  0.
          3    1    3    3  502    0 -0.31536770058E+03 -0.29242128077E+03 -0.26064716754E+03  0.50289555373E+03  0.00000000000E+00 0. -1.
         -4    1    3    3    0  502 -0.50673706935E+03 -0.36577889572E+03 -0.31214747722E+03  0.69857906177E+03  0.00000000000E+00 0.  1.
         11    1    5    5    0    0 -0.26879212768E+02  0.36792149174E+02 -0.36844743528E+02  0.58597691469E+02  0.00000000000E+00 0. -1.
        -11    1    5    5    0    0 -0.15227357980E+03 -0.93659489946E+01 -0.23756997315E+03  0.28233748644E+03  0.00000000000E+00 0.  1.
          3    1    6    6  503    0  0.47154787228E+03  0.24361096890E+03 -0.57477414863E+03  0.78234840190E+03  0.00000000000E+00 0. -1.
         -3    1    6    6    0  503  0.52970969022E+03  0.38716300741E+03 -0.72174091012E+03  0.97539606907E+03  0.00000000000E+00 0.  1.
<mgrwt>
<rscale>  0 0.25090763E+04</rscale>
<asrwt>0</asrwt>
<pdfrwt beam="1">  1        1 0.41875990E+00 0.25090763E+04</pdfrwt>
<pdfrwt beam="2">  1       -2 0.88956142E-01 0.25090763E+04</pdfrwt>
<totfact> 0.80223277E-01</totfact>
</mgrwt>
</event>
<event>
12    4  0.4424320E-008  0.1199434E+04  0.7818608E-02  0.9113352E-01
         -2   -1    0    0    0  501 -0.00000000000E+00  0.00000000000E+00  0.61895684528E+03  0.61895684528E+03  0.00000000000E+00 0.  1.
          1   -1    0    0  501    0  0.00000000000E+00 -0.00000000000E+00 -0.58107545270E+03  0.58107545270E+03  0.00000000000E+00 0. -1.
        -24    2    1    2    0    0  0.17106170477E+03  0.13707143698E+03  0.13971516633E+03  0.27209203717E+03  0.80393179520E+02 0.  0.
        254    2    1    2    0    0 -0.17106170477E+03 -0.13707143698E+03 -0.10183377375E+03  0.92794026081E+03  0.89590865856E+03 0.  0.
         23    2    4    4    0    0  0.10984888806E+03  0.24349803543E+03 -0.29655030454E+03  0.40812265695E+03  0.85228801058E+02 0.  0.
         23    2    4    4    0    0 -0.28091059283E+03 -0.38056947241E+03  0.19471653079E+03  0.51981760386E+03  0.92476642602E+02 0.  0.
          1    1    3    3  502    0  0.23961783998E+01  0.25194380244E+02  0.37784106208E+02  0.45476775927E+02  0.00000000000E+00 0. -1.
         -2    1    3    3    0  502  0.16866552637E+03  0.11187705674E+03  0.10193106012E+03  0.22661526124E+03  0.00000000000E+00 0.  1.
         11    1    5    5    0    0  0.88078562956E+02  0.94107329591E+02 -0.14915194865E+03  0.19713022731E+03  0.00000000000E+00 0.  1.
        -11    1    5    5    0    0  0.21770325107E+02  0.14939070584E+03 -0.14739835589E+03  0.21099242964E+03  0.00000000000E+00 0. -1.
          2    1    6    6  503    0 -0.27006094685E+03 -0.35680404334E+03  0.15759382218E+03  0.47442370635E+03  0.00000000000E+00 0. -1.
         -2    1    6    6    0  503 -0.10849645983E+02 -0.23765429066E+02  0.37122708610E+02  0.45393897510E+02  0.00000000000E+00 0.  1.
<mgrwt>
<rscale>  0 0.11994342E+04</rscale>
<asrwt>0</asrwt>
<pdfrwt beam="1">  1        1 0.89396223E-01 0.11994342E+04</pdfrwt>
<pdfrwt beam="2">  1       -2 0.95224130E-01 0.11994342E+04</pdfrwt>
<totfact> 0.28799122E+01</totfact>
</mgrwt>
</event>
<event>
12    4  0.4424320E-008  0.2625250E+04  0.7818608E-02  0.8359675E-01
         -4   -1    0    0    0  501 -0.00000000000E+00  0.00000000000E+00  0.18940738090E+04  0.18940738090E+04  0.00000000000E+00 0.  1.
          3   -1    0    0  501    0  0.00000000000E+00 -0.00000000000E+00 -0.90967138460E+03  0.90967138460E+03  0.00000000000E+00 0. -1.
        -24    2    1    2    0    0  0.16687157816E+03  0.38020822477E+03  0.16258940034E+04  0.16799652966E+04  0.79672263259E+02 0.  0.
        254    2    1    2    0    0 -0.16687157816E+03 -0.38020822477E+03 -0.64149157901E+03  0.11237798971E+04  0.82399356387E+03 0.  0.
         23    2    4    4    0    0  0.74511939152E+02  0.77418331512E+02 -0.57878755088E+03  0.59580664240E+03  0.91896131312E+02 0.  0.
         23    2    4    4    0    0 -0.24138351731E+03 -0.45762655628E+03 -0.62704028132E+02  0.52797325465E+03  0.84474227068E+02 0.  0.
          3    1    3    3  502    0  0.69684801647E+02  0.25465512849E+03  0.10164950098E+04  0.10502225055E+04  0.00000000000E+00 0. -1.
         -4    1    3    3    0  502  0.97186776512E+02  0.12555309628E+03  0.60939899364E+03  0.62974279112E+03  0.00000000000E+00 0.  1.
         11    1    5    5    0    0  0.93932986794E+02  0.74398619048E+02 -0.45725800911E+03  0.47269805100E+03  0.00000000000E+00 0. -1.
        -11    1    5    5    0    0 -0.19421047641E+02  0.30197124636E+01 -0.12152954177E+03  0.12310859140E+03  0.00000000000E+00 0.  1.
          2    1    6    6  503    0 -0.11238480433E+03 -0.13434792906E+03 -0.36528605092E+02  0.17892470282E+03  0.00000000000E+00 0. -1.
         -2    1    6    6    0  503 -0.12899871298E+03 -0.32327862722E+03 -0.26175423040E+02  0.34904855184E+03  0.00000000000E+00 0.  1.
<mgrwt>
<rscale>  0 0.26252503E+04</rscale>
<asrwt>0</asrwt>
<pdfrwt beam="1">  1        3 0.13994944E+00 0.26252503E+04</pdfrwt>
<pdfrwt beam="2">  1       -4 0.29139597E+00 0.26252503E+04</pdfrwt>
<totfact> 0.27114376E-02</totfact>
</mgrwt>
</event>
<event>
12    4  0.4424320E-008  0.2547435E+04  0.7818608E-02  0.8386279E-01
         -2   -1    0    0    0  501 -0.00000000000E+00  0.00000000000E+00  0.57282199562E+03  0.57282199562E+03  0.00000000000E+00 0.  1.
          1   -1    0    0  501    0  0.00000000000E+00 -0.00000000000E+00 -0.28322179653E+04  0.28322179653E+04  0.00000000000E+00 0. -1.
        -24    2    1    2    0    0 -0.84167224138E+03 -0.45058969401E+03 -0.22791770610E+03  0.98465372668E+03  0.78442631610E+02 0.  0.
        254    2    1    2    0    0  0.84167224138E+03  0.45058969401E+03 -0.20314782636E+04  0.24203862343E+04  0.90549563953E+03 0.  0.
         23    2    4    4    0    0  0.60444416336E+03  0.51671758279E+03 -0.20016211738E+04  0.21557505523E+04  0.91778610291E+02 0.  0.
         23    2    4    4    0    0  0.23722807801E+03 -0.66127888779E+02 -0.29857089835E+02  0.26463568199E+03  0.92144124583E+02 0.  0.
          1    1    3    3  502    0 -0.41274954435E+02 -0.22392054499E+02 -0.29586588099E+02  0.55501280739E+02  0.00000000000E+00 0. -1.
         -2    1    3    3    0  502 -0.80039728694E+03 -0.42819763951E+03 -0.19833111800E+03  0.92915244594E+03  0.00000000000E+00 0.  1.
         11    1    5    5    0    0  0.59494186667E+03  0.49783800611E+03 -0.19740702324E+04  0.21210261167E+04  0.00000000000E+00 0.  1.
        -11    1    5    5    0    0  0.95022966944E+01  0.18879576680E+02 -0.27550941320E+02  0.34724435571E+02  0.00000000000E+00 0. -1.
          4    1    6    6  503    0  0.60115624928E+02  0.12748591090E+02 -0.34931978156E+02  0.70687042894E+02  0.00000000000E+00 0. -1.
         -4    1    6    6    0  503  0.17711245309E+03 -0.78876479869E+02  0.50748883215E+01  0.19394863909E+03  0.00000000000E+00 0.  1.
<mgrwt>
<rscale>  0 0.25474354E+04</rscale>
<asrwt>0</asrwt>
<pdfrwt beam="1">  1        1 0.43572583E+00 0.25474354E+04</pdfrwt>
<pdfrwt beam="2">  1       -2 0.88126464E-01 0.25474354E+04</pdfrwt>
<totfact> 0.68196058E-01</totfact>
</mgrwt>
</event>
<event>
12    4  0.4424320E-008  0.2336145E+04  0.7818608E-02  0.8463805E-01
          1   -1    0    0  501    0  0.00000000000E+00  0.00000000000E+00  0.27454599633E+04  0.27454599633E+04  0.00000000000E+00 0. -1.
         -2   -1    0    0    0  501 -0.00000000000E+00 -0.00000000000E+00 -0.49696338977E+03  0.49696338977E+03  0.00000000000E+00 0.  1.
        -24    2    1    2    0    0  0.62492217653E+03  0.57837016839E+03  0.16740670682E+04  0.18799311328E+04  0.81244918315E+02 0.  0.
        254    2    1    2    0    0 -0.62492217653E+03 -0.57837016839E+03  0.57442950530E+03  0.13624922203E+04  0.89519607647E+03 0.  0.
         23    2    4    4    0    0  0.53403688992E+02 -0.51733845324E+03  0.12905255445E+03  0.54333052307E+03  0.89791237286E+02 0.  0.
         23    2    4    4    0    0 -0.67832586552E+03 -0.61031715158E+02  0.44537695085E+03  0.81916169720E+03  0.93885077213E+02 0.  0.
          3    1    3    3  502    0  0.57192268052E+03  0.53332443634E+03  0.14821461832E+04  0.16757946817E+04  0.00000000000E+00 0. -1.
         -4    1    3    3    0  502  0.52999496011E+02  0.45045732050E+02  0.19192088500E+03  0.20413645106E+03  0.00000000000E+00 0.  1.
         11    1    5    5    0    0  0.21579257168E+02 -0.20930651934E+03  0.97961861696E+02  0.23210215364E+03  0.00000000000E+00 0.  1.
        -11    1    5    5    0    0  0.31824431823E+02 -0.30803193389E+03  0.31090692757E+02  0.31122836942E+03  0.00000000000E+00 0. -1.
          3    1    6    6  503    0 -0.55488748834E+03 -0.84666996759E+02  0.35141149673E+03  0.66223761982E+03  0.00000000000E+00 0. -1.
         -3    1    6    6    0  503 -0.12343837718E+03  0.23635281601E+02  0.93965454117E+02  0.15692407739E+03  0.00000000000E+00 0.  1.
<mgrwt>
<rscale>  0 0.23361448E+04</rscale>
<asrwt>0</asrwt>
<pdfrwt beam="1">  1        1 0.42237845E+00 0.23361448E+04</pdfrwt>
<pdfrwt beam="2">  1       -2 0.76455908E-01 0.23361448E+04</pdfrwt>
<totfact> 0.11043823E+00</totfact>
</mgrwt>
</event>
<event>
12    4  0.4424320E-008  0.1533729E+04  0.7818608E-02  0.8862328E-01
         -2   -1    0    0    0  501 -0.00000000000E+00  0.00000000000E+00  0.27363587426E+03  0.27363587426E+03  0.00000000000E+00 0.  1.
          1   -1    0    0  501    0  0.00000000000E+00 -0.00000000000E+00 -0.21491376366E+04  0.21491376366E+04  0.00000000000E+00 0. -1.
        -24    2    1    2    0    0 -0.10483486089E+03 -0.37983387673E+03 -0.13703469342E+03  0.42547719755E+03  0.83595552910E+02 0.  0.
        254    2    1    2    0    0  0.10483486089E+03  0.37983387673E+03 -0.17384670689E+04  0.19972963133E+04  0.90092213396E+03 0.  0.
         23    2    4    4    0    0 -0.25043186831E+03 -0.17449493534E+03 -0.59665310665E+03  0.67618369649E+03  0.89804557843E+02 0.  0.
         23    2    4    4    0    0  0.35526672920E+03  0.55432881207E+03 -0.11418139623E+04  0.13211126168E+04  0.90025224811E+02 0.  0.
          3    1    3    3  502    0 -0.14719034320E+02 -0.63553493310E+02  0.86103522381E+01  0.65801479079E+02  0.00000000000E+00 0. -1.
         -4    1    3    3    0  502 -0.90115826569E+02 -0.31628038342E+03 -0.14564504566E+03  0.35967571847E+03  0.00000000000E+00 0.  1.
         11    1    5    5    0    0 -0.25409523725E+03 -0.17338574549E+03 -0.55660366127E+03  0.63595176081E+03  0.00000000000E+00 0. -1.
        -11    1    5    5    0    0  0.36633689460E+01 -0.11091898492E+01 -0.40049445373E+02  0.40231935683E+02  0.00000000000E+00 0.  1.
          4    1    6    6  503    0  0.25842605092E+03  0.35056310448E+03 -0.81365430109E+03  0.92288235203E+03  0.00000000000E+00 0. -1.
         -4    1    6    6    0  503  0.96840678273E+02  0.20376570759E+03 -0.32815966119E+03  0.39823026478E+03  0.00000000000E+00 0.  1.
<mgrwt>
<rscale>  0 0.15337290E+04</rscale>
<asrwt>0</asrwt>
<pdfrwt beam="1">  1        1 0.33063656E+00 0.15337290E+04</pdfrwt>
<pdfrwt beam="2">  1       -2 0.42097827E-01 0.15337290E+04</pdfrwt>
<totfact> 0.10698217E+01</totfact>
</mgrwt>
</event>
<event>
12    4  0.4424320E-008  0.1839494E+04  0.7818608E-02  0.8685575E-01
         -2   -1    0    0    0  501 -0.00000000000E+00  0.00000000000E+00  0.45931036318E+03  0.45931036318E+03  0.00000000000E+00 0.  1.
          1   -1    0    0  501    0  0.00000000000E+00 -0.00000000000E+00 -0.18417483813E+04  0.18417483813E+04  0.00000000000E+00 0. -1.
        -24    2    1    2    0    0 -0.50662127700E+03 -0.43069933950E+03 -0.27561242579E+03  0.72438057377E+03  0.81227871101E+02 0.  0.
        254    2    1    2    0    0  0.50662127700E+03  0.43069933950E+03 -0.11068255924E+04  0.15766781708E+04  0.90481165048E+03 0.  0.
         23    2    4    4    0    0  0.60886985771E+03  0.24609509645E+03 -0.11669638340E+04  0.13421875557E+04  0.91528928991E+02 0.  0.
         23    2    4    4    0    0 -0.10224858071E+03  0.18460424305E+03  0.60138241599E+02  0.23449061502E+03  0.82678543903E+02 0.  0.
          3    1    3    3  502    0 -0.31142625952E+03 -0.23948648304E+03 -0.20013600972E+03  0.44090193135E+03  0.00000000000E+00 0. -1.
         -4    1    3    3    0  502 -0.19519501748E+03 -0.19121285647E+03 -0.75476416067E+02  0.28347864242E+03  0.00000000000E+00 0.  1.
         11    1    5    5    0    0  0.50480733443E+03  0.17758495116E+03 -0.99581571719E+03  0.11304936101E+04  0.00000000000E+00 0. -1.
        -11    1    5    5    0    0  0.10406252327E+03  0.68510145288E+02 -0.17114811678E+03  0.21169394568E+03  0.00000000000E+00 0.  1.
          3    1    6    6  503    0 -0.71334949132E+02  0.18022658295E+03  0.61163481727E+02  0.20325173472E+03  0.00000000000E+00 0. -1.
         -3    1    6    6    0  503 -0.30913631574E+02  0.43776600975E+01 -0.10252401279E+01  0.31238880300E+02  0.00000000000E+00 0.  1.
<mgrwt>
<rscale>  0 0.18394935E+04</rscale>
<asrwt>0</asrwt>
<pdfrwt beam="1">  1        1 0.28334590E+00 0.18394935E+04</pdfrwt>
<pdfrwt beam="2">  1       -2 0.70663134E-01 0.18394935E+04</pdfrwt>
<totfact> 0.57377971E+00</totfact>
</mgrwt>
</event>
<event>
12    4  0.4424320E-008  0.1702708E+04  0.7818608E-02  0.8759822E-01
          1   -1    0    0  501    0  0.00000000000E+00  0.00000000000E+00  0.17836769959E+04  0.17836769959E+04  0.00000000000E+00 0. -1.
         -2   -1    0    0    0  501 -0.00000000000E+00 -0.00000000000E+00 -0.40635345528E+03  0.40635345528E+03  0.00000000000E+00 0.  1.
        -24    2    1    2    0    0 -0.60023542441E+02  0.12852467036E+03  0.12614198032E+04  0.12718534612E+04  0.79434818895E+02 0.  0.
        254    2    1    2    0    0  0.60023542441E+02 -0.12852467036E+03  0.11590373747E+03  0.91817698998E+03  0.89971878497E+03 0.  0.
         23    2    4    4    0    0 -0.31352515363E+03  0.19497389565E+03 -0.60613623198E+02  0.38553081854E+03  0.92990100478E+02 0.  0.
         23    2    4    4    0    0  0.37354869607E+03 -0.32349856601E+03  0.17651736067E+03  0.53264617143E+03  0.91452800801E+02 0.  0.
          1    1    3    3  502    0 -0.23511390790E+02  0.10011669405E+03  0.59436431556E+03  0.60319572076E+03  0.00000000000E+00 0. -1.
         -2    1    3    3    0  502 -0.36512151650E+02  0.28407976307E+02  0.66705548760E+03  0.66865774046E+03  0.00000000000E+00 0.  1.
         11    1    5    5    0    0 -0.27489298653E+03  0.16652075445E+03 -0.83947279010E+02  0.33217835776E+03  0.00000000000E+00 0.  1.
        -11    1    5    5    0    0 -0.38632167094E+02  0.28453141200E+02  0.23333655812E+02  0.53352460787E+02  0.00000000000E+00 0. -1.
          4    1    6    6  503    0  0.18331181595E+03 -0.10740839119E+03  0.50523304412E+02  0.21838587101E+03  0.00000000000E+00 0. -1.
         -4    1    6    6    0  503  0.19023688012E+03 -0.21609017482E+03  0.12599405626E+03  0.31426030042E+03  0.00000000000E+00 0.  1.
<mgrwt>
<rscale>  0 0.17027076E+04</rscale>
<asrwt>0</asrwt>
<pdfrwt beam="1">  1        1 0.27441184E+00 0.17027076E+04</pdfrwt>
<pdfrwt beam="2">  1       -2 0.62515917E-01 0.17027076E+04</pdfrwt>
<totfact> 0.82847504E+00</totfact>
</mgrwt>
</event>
<event>
12    4  0.4424320E-008  0.1947701E+04  0.7818608E-02  0.8631470E-01
          1   -1    0    0  501    0  0.00000000000E+00  0.00000000000E+00  0.11063413008E+04  0.11063413008E+04  0.00000000000E+00 0. -1.
         -2   -1    0    0    0  501 -0.00000000000E+00 -0.00000000000E+00 -0.85722591528E+03  0.85722591528E+03  0.00000000000E+00 0.  1.
        -24    2    1    2    0    0  0.44825507518E+03  0.36562900024E+03 -0.40390310184E+03  0.70976301445E+03  0.77515435639E+02 0.  0.
        254    2    1    2    0    0 -0.44825507518E+03 -0.36562900024E+03  0.65301848739E+03  0.12538042017E+04  0.90054131110E+03 0.  0.
         23    2    4    4    0    0 -0.15776674750E+03 -0.24838577171E+03 -0.18137162777E+03  0.35777696315E+03  0.92319281837E+02 0.  0.
         23    2    4    4    0    0 -0.29048832767E+03 -0.11724322853E+03  0.83439011515E+03  0.89602723851E+03  0.92349903830E+02 0.  0.
          1    1    3    3  502    0  0.30579025064E+03  0.29248904830E+03 -0.28214243862E+03  0.50858812062E+03  0.00000000000E+00 0. -1.
         -2    1    3    3    0  502  0.14246482453E+03  0.73139951943E+02 -0.12176066322E+03  0.20117489383E+03  0.00000000000E+00 0.  1.
         11    1    5    5    0    0 -0.13835478100E+03 -0.22394910334E+03 -0.19086851661E+03  0.32515540430E+03  0.00000000000E+00 0. -1.
        -11    1    5    5    0    0 -0.19411966505E+02 -0.24436668371E+02  0.94968888396E+01  0.32621558857E+02  0.00000000000E+00 0.  1.
          3    1    6    6  503    0 -0.26247744458E+03 -0.10182653527E+03  0.80418574153E+03  0.85204328475E+03  0.00000000000E+00 0. -1.
         -3    1    6    6    0  503 -0.28010883095E+02 -0.15416693262E+02  0.30204373618E+02  0.43983953762E+02  0.00000000000E+00 0.  1.
<mgrwt>
<rscale>  0 0.19477006E+04</rscale>
<asrwt>0</asrwt>
<pdfrwt beam="1">  1        1 0.17020635E+00 0.19477006E+04</pdfrwt>
<pdfrwt beam="2">  1       -2 0.13188091E+00 0.19477006E+04</pdfrwt>
<totfact> 0.42908912E+00</totfact>
</mgrwt>
</event>
<event>
12    4  0.4424320E-008  0.1418905E+04  0.7818608E-02  0.8940247E-01
         -2   -1    0    0    0  501 -0.00000000000E+00  0.00000000000E+00  0.26908566582E+03  0.26908566582E+03  0.00000000000E+00 0.  1.
          1   -1    0    0  501    0  0.00000000000E+00 -0.00000000000E+00 -0.18704931088E+04  0.18704931088E+04  0.00000000000E+00 0. -1.
        -24    2    1    2    0    0  0.59439445121E+02 -0.36132233611E+03 -0.17506144082E+03  0.41366060237E+03  0.79885591198E+02 0.  0.
        254    2    1    2    0    0 -0.59439445121E+02  0.36132233611E+03 -0.14263460021E+04  0.17259181722E+04  0.90013540160E+03 0.  0.
         23    2    4    4    0    0 -0.43980994661E+03  0.27198065082E+03 -0.54139213667E+03  0.75429596482E+03  0.91927652734E+02 0.  0.
         23    2    4    4    0    0  0.38037050149E+03  0.89341685285E+02 -0.88495386545E+03  0.97162220739E+03  0.90789398075E+02 0.  0.
          1    1    3    3  502    0  0.62811209326E+02 -0.14883044923E+03 -0.62857237696E+02  0.17334007894E+03  0.00000000000E+00 0. -1.
         -2    1    3    3    0  502 -0.33717642044E+01 -0.21249188687E+03 -0.11220420312E+03  0.24032052343E+03  0.00000000000E+00 0.  1.
         11    1    5    5    0    0 -0.10176687940E+03  0.23633120581E+02 -0.87672266033E+02  0.13638712682E+03  0.00000000000E+00 0.  1.
        -11    1    5    5    0    0 -0.33804306721E+03  0.24834753024E+03 -0.45371987064E+03  0.61790883800E+03  0.00000000000E+00 0. -1.
          1    1    6    6  503    0  0.38192694620E+03  0.79010843475E+02 -0.85138869621E+03  0.93646869550E+03  0.00000000000E+00 0. -1.
         -1    1    6    6    0  503 -0.15564447093E+01  0.10330841811E+02 -0.33565169237E+02  0.35153511895E+02  0.00000000000E+00 0.  1.
<mgrwt>
<rscale>  0 0.14189050E+04</rscale>
<asrwt>0</asrwt>
<pdfrwt beam="1">  1        1 0.28776818E+00 0.14189050E+04</pdfrwt>
<pdfrwt beam="2">  1       -2 0.41397793E-01 0.14189050E+04</pdfrwt>
<totfact> 0.17245767E+01</totfact>
</mgrwt>
</event>
<event>
12    4  0.4424320E-008  0.2606941E+04  0.7818608E-02  0.8365847E-01
          1   -1    0    0  501    0  0.00000000000E+00  0.00000000000E+00  0.26295063996E+04  0.26295063996E+04  0.00000000000E+00 0. -1.
         -2   -1    0    0    0  501 -0.00000000000E+00 -0.00000000000E+00 -0.64614248473E+03  0.64614248473E+03  0.00000000000E+00 0.  1.
        -24    2    1    2    0    0 -0.38460980164E+03  0.22570298554E+03 -0.46434150145E+03  0.64836010212E+03  0.76754510265E+02 0.  0.
        254    2    1    2    0    0  0.38460980164E+03 -0.22570298554E+03  0.24477054163E+04  0.26272887822E+04  0.84410781467E+03 0.  0.
         23    2    4    4    0    0  0.17958541179E+03 -0.51898183643E+03  0.17686930349E+04  0.18542365848E+04  0.91242500433E+02 0.  0.
         23    2    4    4    0    0  0.20502438985E+03  0.29327885088E+03  0.67901238140E+03  0.77305219742E+03  0.92219309450E+02 0.  0.
          3    1    3    3  502    0 -0.14129220489E+03  0.11179266265E+03 -0.14672359996E+03  0.23235511909E+03  0.00000000000E+00 0. -1.
         -4    1    3    3    0  502 -0.24331759675E+03  0.11391032289E+03 -0.31761790149E+03  0.41600498302E+03  0.00000000000E+00 0.  1.
         11    1    5    5    0    0  0.77215691166E+02 -0.34206349288E+03  0.10475763356E+04  0.11047107653E+04  0.00000000000E+00 0. -1.
        -11    1    5    5    0    0  0.10236972062E+03 -0.17691834355E+03  0.72111669930E+03  0.74952581943E+03  0.00000000000E+00 0.  1.
          3    1    6    6  503    0  0.41883395895E+02  0.12869123078E+03  0.20860155625E+03  0.24865691424E+03  0.00000000000E+00 0. -1.
         -3    1    6    6    0  503  0.16314099396E+03  0.16458762010E+03  0.47041082515E+03  0.52439528318E+03  0.00000000000E+00 0.  1.
<mgrwt>
<rscale>  0 0.26069413E+04</rscale>
<asrwt>0</asrwt>
<pdfrwt beam="1">  1        1 0.40453944E+00 0.26069413E+04</pdfrwt>
<pdfrwt beam="2">  1       -2 0.99406538E-01 0.26069413E+04</pdfrwt>
<totfact> 0.71316851E-01</totfact>
</mgrwt>
</event>
<event>
12    4  0.4424320E-008  0.1998471E+04  0.7818608E-02  0.8607336E-01
          3   -1    0    0  501    0  0.00000000000E+00  0.00000000000E+00  0.10530194834E+04  0.10530194834E+04  0.00000000000E+00 0. -1.
         -4   -1    0    0    0  501 -0.00000000000E+00 -0.00000000000E+00 -0.94819851929E+03  0.94819851929E+03  0.00000000000E+00 0.  1.
        -24    2    1    2    0    0 -0.80271801496E+03 -0.22089719063E+03  0.28850854100E+03  0.88474992503E+03  0.79959184883E+02 0.  0.
        254    2    1    2    0    0  0.80271801496E+03  0.22089719063E+03 -0.18368757684E+03  0.11164680777E+04  0.72083844396E+03 0.  0.
         23    2    4    4    0    0  0.75759762421E+03  0.33335848115E+03 -0.34134996768E+03  0.89980820743E+03  0.89738356099E+02 0.  0.
         23    2    4    4    0    0  0.45120390744E+02 -0.11246129052E+03  0.15766239084E+03  0.21665987027E+03  0.86027195553E+02 0.  0.
          3    1    3    3  502    0 -0.27356883629E+03 -0.76942008820E+02  0.13898578145E+03  0.31634953509E+03  0.00000000000E+00 0. -1.
         -4    1    3    3    0  502 -0.52914917867E+03 -0.14395518181E+03  0.14952275955E+03  0.56840038993E+03  0.00000000000E+00 0.  1.
         11    1    5    5    0    0  0.28737156487E+03  0.14641479351E+03 -0.90259121699E+02  0.33491255143E+03  0.00000000000E+00 0. -1.
        -11    1    5    5    0    0  0.47022605934E+03  0.18694368764E+03 -0.25109084598E+03  0.56489565600E+03  0.00000000000E+00 0.  1.
          4    1    6    6  503    0  0.58791370780E+02 -0.98417695754E+02  0.16009740210E+03  0.19691024929E+03  0.00000000000E+00 0.  1.
         -4    1    6    6    0  503 -0.13670980036E+02 -0.14043594766E+02 -0.24350112614E+01  0.19749620982E+02  0.00000000000E+00 0. -1.
<mgrwt>
<rscale>  0 0.19984709E+04</rscale>
<asrwt>0</asrwt>
<pdfrwt beam="1">  1        3 0.16200300E+00 0.19984709E+04</pdfrwt>
<pdfrwt beam="2">  1       -4 0.14587669E+00 0.19984709E+04</pdfrwt>
<totfact> 0.18022964E-01</totfact>
</mgrwt>
</event>
<event>
12    4  0.4424320E-008  0.1417608E+04  0.7818608E-02  0.8941171E-01
          1   -1    0    0  501    0  0.00000000000E+00  0.00000000000E+00  0.64253827985E+03  0.64253827985E+03  0.00000000000E+00 0. -1.
         -2   -1    0    0    0  501 -0.00000000000E+00 -0.00000000000E+00 -0.78190398766E+03  0.78190398766E+03  0.00000000000E+00 0.  1.
        -24    2    1    2    0    0 -0.26071764441E+02  0.16097533603E+03  0.33647281198E+03  0.38265437603E+03  0.81348771221E+02 0.  0.
        254    2    1    2    0    0  0.26071764441E+02 -0.16097533603E+03 -0.47583851979E+03  0.10417878915E+04  0.91230856524E+03 0.  0.
         23    2    4    4    0    0  0.32380508921E+03  0.55339700076E+02 -0.55757058599E+03  0.65373538779E+03  0.92589311906E+02 0.  0.
         23    2    4    4    0    0 -0.29773332477E+03 -0.21631503611E+03  0.81732066203E+02  0.38805250369E+03  0.92017864853E+02 0.  0.
          1    1    3    3  502    0 -0.34649091210E+02  0.16443833563E+03  0.28916033586E+03  0.33444614750E+03  0.00000000000E+00 0. -1.
         -2    1    3    3    0  502  0.85773267685E+01 -0.34629995950E+01  0.47312476125E+02  0.48208228527E+02  0.00000000000E+00 0.  1.
         11    1    5    5    0    0  0.19523763385E+03 -0.11125351560E+02 -0.34506288681E+03  0.39662312460E+03  0.00000000000E+00 0. -1.
        -11    1    5    5    0    0  0.12856745536E+03  0.66465051636E+02 -0.21250769919E+03  0.25711226319E+03  0.00000000000E+00 0.  1.
          3    1    6    6  503    0 -0.23678997530E+03 -0.12183187344E+03  0.47272689235E+02  0.27045739948E+03  0.00000000000E+00 0. -1.
         -3    1    6    6    0  503 -0.60943349468E+02 -0.94483162672E+02  0.34459376969E+02  0.11759510421E+03  0.00000000000E+00 0.  1.
<mgrwt>
<rscale>  0 0.14176082E+04</rscale>
<asrwt>0</asrwt>
<pdfrwt beam="1">  1        1 0.98852044E-01 0.14176082E+04</pdfrwt>
<pdfrwt beam="2">  1       -2 0.12029292E+00 0.14176082E+04</pdfrwt>
<totfact> 0.13933680E+01</totfact>
</mgrwt>
</event>
<event>
12    4  0.4424320E-008  0.1104119E+04  0.7818608E-02  0.9201187E-01
          1   -1    0    0  501    0  0.00000000000E+00  0.00000000000E+00  0.10533657657E+04  0.10533657657E+04  0.00000000000E+00 0. -1.
         -2   -1    0    0    0  501 -0.00000000000E+00 -0.00000000000E+00 -0.28932939488E+03  0.28932939488E+03  0.00000000000E+00 0.  1.
        -24    2    1    2    0    0 -0.76684853479E+01 -0.76283580702E+02 -0.58160556485E+02  0.12479748527E+03  0.79459245190E+02 0.  0.
        254    2    1    2    0    0  0.76684853479E+01  0.76283580702E+02  0.82219692734E+03  0.12178976754E+04  0.89520331207E+03 0.  0.
         23    2    4    4    0    0  0.24397578308E+03  0.33845676095E+02  0.90981192546E+03  0.94694871762E+03  0.91018797968E+02 0.  0.
         23    2    4    4    0    0 -0.23630729773E+03  0.42437904607E+02 -0.87614998110E+02  0.27094895773E+03  0.89971301504E+02 0.  0.
          3    1    3    3  502    0  0.21424217201E+02 -0.54320082159E+01  0.80820054758E+01  0.23533435968E+02  0.00000000000E+00 0. -1.
         -4    1    3    3    0  502 -0.29092702549E+02 -0.70851572487E+02 -0.66242561960E+02  0.10126404930E+03  0.00000000000E+00 0.  1.
         11    1    5    5    0    0  0.59321786203E+02 -0.46938885014E+01  0.37840382527E+03  0.38305425449E+03  0.00000000000E+00 0.  1.
        -11    1    5    5    0    0  0.18465399688E+03  0.38539564596E+02  0.53140810019E+03  0.56389446313E+03  0.00000000000E+00 0. -1.
          4    1    6    6  503    0 -0.23880179404E+03  0.39870692571E+02 -0.68654250261E+02  0.25165328339E+03  0.00000000000E+00 0. -1.
         -4    1    6    6    0  503  0.24944963047E+01  0.25672120366E+01 -0.18960747849E+02  0.19295674346E+02  0.00000000000E+00 0.  1.
<mgrwt>
<rscale>  0 0.11041190E+04</rscale>
<asrwt>0</asrwt>
<pdfrwt beam="1">  1        1 0.16205627E+00 0.11041190E+04</pdfrwt>
<pdfrwt beam="2">  1       -2 0.44512215E-01 0.11041190E+04</pdfrwt>
<totfact> 0.57499317E+01</totfact>
</mgrwt>
</event>
<event>
12    4  0.4424320E-008  0.1846642E+04  0.7818608E-02  0.8681882E-01
         -2   -1    0    0    0  501 -0.00000000000E+00  0.00000000000E+00  0.13014522401E+04  0.13014522401E+04  0.00000000000E+00 0.  1.
          1   -1    0    0  501    0  0.00000000000E+00 -0.00000000000E+00 -0.65505403654E+03  0.65505403654E+03  0.00000000000E+00 0. -1.
        -24    2    1    2    0    0  0.69701807839E+03  0.56682328641E+02  0.29977280629E+03  0.76507860048E+03  0.80214970856E+02 0.  0.
        254    2    1    2    0    0 -0.69701807839E+03 -0.56682328641E+02  0.34662539726E+03  0.11914276761E+04  0.90016868056E+03 0.  0.
         23    2    4    4    0    0 -0.15565734360E+03 -0.41680781249E+03  0.27482976158E+03  0.53092337550E+03  0.91598425972E+02 0.  0.
         23    2    4    4    0    0 -0.54136073479E+03  0.36012548385E+03  0.71795635674E+02  0.66050430063E+03  0.91375645352E+02 0.  0.
          1    1    3    3  502    0  0.37536115395E+03  0.98355364025E+01  0.19783413443E+03  0.42441851799E+03  0.00000000000E+00 0. -1.
         -2    1    3    3    0  502  0.32165692444E+03  0.46846792238E+02  0.10193867186E+03  0.34066008249E+03  0.00000000000E+00 0.  1.
         11    1    5    5    0    0 -0.16073007430E+03 -0.40961865966E+03  0.25343546801E+03  0.50779044849E+03  0.00000000000E+00 0. -1.
        -11    1    5    5    0    0  0.50727307015E+01 -0.71891528251E+01  0.21394293570E+02  0.23132927019E+02  0.00000000000E+00 0.  1.
          2    1    6    6  503    0 -0.31458632283E+03  0.23508410909E+03  0.36997099091E+01  0.39273754686E+03  0.00000000000E+00 0. -1.
         -2    1    6    6    0  503 -0.22677441196E+03  0.12504137475E+03  0.68095925765E+02  0.26776675377E+03  0.00000000000E+00 0.  1.
<mgrwt>
<rscale>  0 0.18466419E+04</rscale>
<asrwt>0</asrwt>
<pdfrwt beam="1">  1        1 0.10077754E+00 0.18466419E+04</pdfrwt>
<pdfrwt beam="2">  1       -2 0.20022342E+00 0.18466419E+04</pdfrwt>
<totfact> 0.32820398E+00</totfact>
</mgrwt>
</event>
<event>
12    4  0.4424320E-008  0.1705529E+04  0.7818608E-02  0.8758217E-01
         -2   -1    0    0    0  501 -0.00000000000E+00  0.00000000000E+00  0.39171713463E+03  0.39171713463E+03  0.00000000000E+00 0.  1.
          1   -1    0    0  501    0  0.00000000000E+00 -0.00000000000E+00 -0.18564608457E+04  0.18564608457E+04  0.00000000000E+00 0. -1.
        -24    2    1    2    0    0 -0.33712107826E+03  0.31997878056E+03 -0.29012969680E+01  0.47194975131E+03  0.81799198171E+02 0.  0.
        254    2    1    2    0    0  0.33712107826E+03 -0.31997878056E+03 -0.14618424141E+04  0.17762282290E+04  0.89552578769E+03 0.  0.
         23    2    4    4    0    0  0.39847349254E+03 -0.31690481567E+02 -0.16405224845E+03  0.44162763164E+03  0.91303964490E+02 0.  0.
         23    2    4    4    0    0 -0.61352414276E+02 -0.28828829899E+03 -0.12977901656E+04  0.13346005973E+04  0.10012581267E+03 0.  0.
          3    1    3    3  502    0 -0.27765323121E+03  0.23599998663E+03 -0.29720865899E+02  0.36560995659E+03  0.00000000000E+00 0. -1.
         -4    1    3    3    0  502 -0.59467847056E+02  0.83978793934E+02  0.26819568931E+02  0.10633979472E+03  0.00000000000E+00 0.  1.
         11    1    5    5    0    0  0.23241855604E+03 -0.32983872048E+02 -0.14136184808E+03  0.27402462134E+03  0.00000000000E+00 0.  1.
        -11    1    5    5    0    0  0.16605493650E+03  0.12933904805E+01 -0.22690400373E+02  0.16760301031E+03  0.00000000000E+00 0. -1.
          1    1    6    6  503    0  0.25985077343E+01 -0.16044117267E+03 -0.53556707157E+03  0.55908873203E+03  0.00000000000E+00 0. -1.
         -1    1    6    6    0  503 -0.63950922010E+02 -0.12784712632E+03 -0.76222309404E+03  0.77551186530E+03  0.00000000000E+00 0.  1.
<mgrwt>
<rscale>  0 0.17055293E+04</rscale>
<asrwt>0</asrwt>
<pdfrwt beam="1">  1        1 0.28560936E+00 0.17055293E+04</pdfrwt>
<pdfrwt beam="2">  1       -2 0.60264175E-01 0.17055293E+04</pdfrwt>
<totfact> 0.79917872E+00</totfact>
</mgrwt>
</event>
<event>
12    4  0.4424320E-008  0.2500932E+04  0.7818608E-02  0.8402654E-01
          1   -1    0    0  501    0  0.00000000000E+00  0.00000000000E+00  0.29846423641E+04  0.29846423641E+04  0.00000000000E+00 0. -1.
         -2   -1    0    0    0  501 -0.00000000000E+00 -0.00000000000E+00 -0.52390367209E+03  0.52390367209E+03  0.00000000000E+00 0.  1.
        -24    2    1    2    0    0 -0.10730946628E+04  0.11108095320E+03  0.12870548200E+04  0.16811479848E+04  0.76663574349E+02 0.  0.
        254    2    1    2    0    0  0.10730946628E+04 -0.11108095320E+03  0.11736838720E+04  0.18273980514E+04  0.89329652045E+03 0.  0.
         23    2    4    4    0    0  0.63317012647E+02  0.25309369491E+03  0.68947661806E+02  0.28477088076E+03  0.90968192063E+02 0.  0.
         23    2    4    4    0    0  0.10097776501E+04 -0.36417464811E+03  0.11047362102E+04  0.15426271706E+04  0.83560854944E+02 0.  0.
          3    1    3    3  502    0 -0.78345919286E+03  0.86040632802E+02  0.99113689784E+03  0.12663189360E+04  0.00000000000E+00 0. -1.
         -4    1    3    3    0  502 -0.28963546992E+03  0.25040320401E+02  0.29591792220E+03  0.41482904884E+03  0.00000000000E+00 0.  1.
         11    1    5    5    0    0  0.20145409092E+02  0.20645611958E+03  0.75796834292E+02  0.22085091557E+03  0.00000000000E+00 0. -1.
        -11    1    5    5    0    0  0.43171603555E+02  0.46637575328E+02 -0.68491724864E+01  0.63919965189E+02  0.00000000000E+00 0.  1.
          2    1    6    6  503    0  0.92882977135E+03 -0.34239659646E+03  0.10466825615E+04  0.14406611531E+04  0.00000000000E+00 0. -1.
         -2    1    6    6    0  503  0.80947878779E+02 -0.21778051656E+02  0.58053648643E+02  0.10196601754E+03  0.00000000000E+00 0.  1.
<mgrwt>
<rscale>  0 0.25009319E+04</rscale>
<asrwt>0</asrwt>
<pdfrwt beam="1">  1        1 0.45917574E+00 0.25009319E+04</pdfrwt>
<pdfrwt beam="2">  1       -2 0.80600567E-01 0.25009319E+04</pdfrwt>
<totfact> 0.65119714E-01</totfact>
</mgrwt>
</event>
<event>
12    4  0.4424320E-008  0.1795273E+04  0.7818608E-02  0.8708817E-01
         -2   -1    0    0    0  501 -0.00000000000E+00  0.00000000000E+00  0.67074624436E+03  0.67074624436E+03  0.00000000000E+00 0.  1.
          1   -1    0    0  501    0  0.00000000000E+00 -0.00000000000E+00 -0.12012758594E+04  0.12012758594E+04  0.00000000000E+00 0. -1.
        -24    2    1    2    0    0  0.31499313815E+03 -0.36312216736E+03  0.28323226033E+03  0.56830209156E+03  0.10802022251E+03 0.  0.
        254    2    1    2    0    0 -0.31499313815E+03  0.36312216736E+03 -0.81376187537E+03  0.13037200122E+04  0.89799726886E+03 0.  0.
         23    2    4    4    0    0  0.15077440338E+03  0.34676927996E+03 -0.35435109075E+02  0.39216255007E+03  0.97744383355E+02 0.  0.
         23    2    4    4    0    0 -0.46576754154E+03  0.16352887393E+02 -0.77832676629E+03  0.91155746213E+03  0.89093388981E+02 0.  0.
          3    1    3    3  502    0  0.35976518837E+02 -0.16239089132E+01  0.22294382062E+02  0.42355477324E+02  0.00000000000E+00 0. -1.
         -4    1    3    3    0  502  0.27901661932E+03 -0.36149825844E+03  0.26093787827E+03  0.52594661424E+03  0.00000000000E+00 0.  1.
         11    1    5    5    0    0  0.14627241772E+00  0.46199832352E+02  0.21866880177E+02  0.51113661126E+02  0.00000000000E+00 0.  1.
        -11    1    5    5    0    0  0.15062813096E+03  0.30056944761E+03 -0.57301989252E+02  0.34104888894E+03  0.00000000000E+00 0. -1.
          1    1    6    6  503    0 -0.14091964819E+03  0.42820132224E+02 -0.21195647998E+03  0.25810358459E+03  0.00000000000E+00 0. -1.
         -1    1    6    6    0  503 -0.32484789335E+03 -0.26467244831E+02 -0.56637028631E+03  0.65345387754E+03  0.00000000000E+00 0.  1.
<mgrwt>
<rscale>  0 0.17952730E+04</rscale>
<asrwt>0</asrwt>
<pdfrwt beam="1">  1        1 0.18481167E+00 0.17952730E+04</pdfrwt>
<pdfrwt beam="2">  1       -2 0.10319173E+00 0.17952730E+04</pdfrwt>
<totfact> 0.67661339E+00</totfact>
</mgrwt>
</event>
<event>
12    4  0.4424320E-008  0.1381222E+04  0.7818608E-02  0.8967524E-01
          1   -1    0    0  501    0  0.00000000000E+00  0.00000000000E+00  0.15815480887E+04  0.15815480887E+04  0.00000000000E+00 0. -1.
         -2   -1    0    0    0  501 -0.00000000000E+00 -0.00000000000E+00 -0.30156740952E+03  0.30156740952E+03  0.00000000000E+00 0.  1.
        -24    2    1    2    0    0  0.30006792164E+02  0.36143516954E+03  0.53599097607E+03  0.65210360533E+03  0.80106156400E+02 0.  0.
        254    2    1    2    0    0 -0.30006792164E+02 -0.36143516954E+03  0.74398970308E+03  0.12310118929E+04  0.91122654304E+03 0.  0.
         23    2    4    4    0    0 -0.31886642790E+03 -0.91819565999E+02  0.74996995498E+03  0.82517643905E+03  0.91403449892E+02 0.  0.
         23    2    4    4    0    0  0.28885963573E+03 -0.26961560354E+03 -0.59802519013E+01  0.40583545382E+03  0.92380676211E+02 0.  0.
          3    1    3    3  502    0  0.36137387727E+02  0.31352234683E+03  0.50227596950E+03  0.59319754070E+03  0.00000000000E+00 0. -1.
         -4    1    3    3    0  502 -0.61305955633E+01  0.47912822708E+02  0.33715006575E+02  0.58906064630E+02  0.00000000000E+00 0.  1.
         11    1    5    5    0    0 -0.23481822932E+03 -0.30751187182E+02  0.46447132107E+03  0.52136248851E+03  0.00000000000E+00 0. -1.
        -11    1    5    5    0    0 -0.84048198573E+02 -0.61068378817E+02  0.28549863391E+03  0.30381395053E+03  0.00000000000E+00 0.  1.
          1    1    6    6  503    0  0.23781675052E+03 -0.17922936105E+03  0.21161477096E+02  0.29854275875E+03  0.00000000000E+00 0. -1.
         -1    1    6    6    0  503  0.51042885216E+02 -0.90386242492E+02 -0.27141728997E+02  0.10729269507E+03  0.00000000000E+00 0.  1.
<mgrwt>
<rscale>  0 0.13812217E+04</rscale>
<asrwt>0</asrwt>
<pdfrwt beam="1">  1        1 0.24331509E+00 0.13812217E+04</pdfrwt>
<pdfrwt beam="2">  1       -2 0.46394987E-01 0.13812217E+04</pdfrwt>
<totfact> 0.21686598E+01</totfact>
</mgrwt>
</event>
<event>
12    4  0.4424320E-008  0.2232104E+04  0.7818608E-02  0.8505183E-01
         -2   -1    0    0    0  501 -0.00000000000E+00  0.00000000000E+00  0.52264986571E+03  0.52264986571E+03  0.00000000000E+00 0.  1.
          1   -1    0    0  501    0  0.00000000000E+00 -0.00000000000E+00 -0.23831859876E+04  0.23831859876E+04  0.00000000000E+00 0. -1.
        -24    2    1    2    0    0  0.45783043639E+03 -0.46615828763E+03 -0.16265947821E+04  0.17548757992E+04  0.82862705712E+02 0.  0.
        254    2    1    2    0    0 -0.45783043639E+03  0.46615828763E+03 -0.23394133986E+03  0.11509600541E+04  0.91818747438E+03 0.  0.
         23    2    4    4    0    0 -0.21410021525E+03  0.71968258577E+03 -0.21473141472E+03  0.78710057989E+03  0.98162192100E+02 0.  0.
         23    2    4    4    0    0 -0.24373022114E+03 -0.25352429814E+03 -0.19209925145E+02  0.36385947425E+03  0.91354831997E+02 0.  0.
          1    1    3    3  502    0  0.32219136295E+03 -0.29370687782E+03 -0.11615639933E+04  0.12406860662E+04  0.00000000000E+00 0. -1.
         -2    1    3    3    0  502  0.13563907344E+03 -0.17245140981E+03 -0.46503078879E+03  0.51418973299E+03  0.00000000000E+00 0.  1.
         11    1    5    5    0    0 -0.38628791481E+02  0.11228170150E+03  0.19644483733E+01  0.11875699171E+03  0.00000000000E+00 0.  1.
        -11    1    5    5    0    0 -0.17547142377E+03  0.60740088427E+03 -0.21669586309E+03  0.66834358817E+03  0.00000000000E+00 0. -1.
          3    1    6    6  503    0 -0.11705849286E+03 -0.60813089561E+02 -0.18789125431E+02  0.13324396364E+03  0.00000000000E+00 0.  1.
         -3    1    6    6    0  503 -0.12667172827E+03 -0.19271120858E+03 -0.42079971409E+00  0.23061551060E+03  0.00000000000E+00 0. -1.
<mgrwt>
<rscale>  0 0.22321038E+04</rscale>
<asrwt>0</asrwt>
<pdfrwt beam="1">  1        1 0.36664400E+00 0.22321038E+04</pdfrwt>
<pdfrwt beam="2">  1       -2 0.80407672E-01 0.22321038E+04</pdfrwt>
<totfact> 0.17813039E+00</totfact>
</mgrwt>
</event>
<event>
12    4  0.4424320E-008  0.1992468E+04  0.7818608E-02  0.8610150E-01
         -2   -1    0    0    0  501 -0.00000000000E+00  0.00000000000E+00  0.93501413772E+03  0.93501413772E+03  0.00000000000E+00 0.  1.
          1   -1    0    0  501    0  0.00000000000E+00 -0.00000000000E+00 -0.10614624929E+04  0.10614624929E+04  0.00000000000E+00 0. -1.
        -24    2    1    2    0    0 -0.81712211746E+01 -0.65739764087E+03 -0.49639305446E+03  0.82757420829E+03  0.78959347989E+02 0.  0.
        254    2    1    2    0    0  0.81712211746E+01  0.65739764087E+03  0.36994469930E+03  0.11689024223E+04  0.89288037569E+03 0.  0.
         23    2    4    4    0    0  0.22588616242E+03  0.13758354170E+03 -0.21386397199E+03  0.35235925103E+03  0.92007901587E+02 0.  0.
         23    2    4    4    0    0 -0.21771494125E+03  0.51981409917E+03  0.58380867128E+03  0.81654317129E+03  0.91124599128E+02 0.  0.
          3    1    3    3  502    0 -0.37268417352E+02 -0.53653057297E+03 -0.40013247421E+03  0.67034318642E+03  0.00000000000E+00 0. -1.
         -4    1    3    3    0  502  0.29097196177E+02 -0.12086706790E+03 -0.96260580251E+02  0.15723102187E+03  0.00000000000E+00 0.  1.
         11    1    5    5    0    0  0.19476063497E+03  0.10920423081E+03 -0.12964868443E+03  0.25819769623E+03  0.00000000000E+00 0.  1.
        -11    1    5    5    0    0  0.31125527452E+02  0.28379310886E+02 -0.84215287558E+02  0.94161554809E+02  0.00000000000E+00 0. -1.
          2    1    6    6  503    0 -0.69855374618E+00  0.36781308846E+02  0.15971882121E+02  0.40105531741E+02  0.00000000000E+00 0. -1.
         -2    1    6    6    0  503 -0.21701638750E+03  0.48303279033E+03  0.56783678916E+03  0.77643763955E+03  0.00000000000E+00 0.  1.
<mgrwt>
<rscale>  0 0.19924683E+04</rscale>
<asrwt>0</asrwt>
<pdfrwt beam="1">  1        1 0.16330192E+00 0.19924683E+04</pdfrwt>
<pdfrwt beam="2">  1       -2 0.14384833E+00 0.19924683E+04</pdfrwt>
<totfact> 0.36933944E+00</totfact>
</mgrwt>
</event>
<event>
12    4  0.4424320E-008  0.2822666E+04  0.7818608E-02  0.8296266E-01
          1   -1    0    0  501    0  0.00000000000E+00  0.00000000000E+00  0.37136034355E+04  0.37136034355E+04  0.00000000000E+00 0. -1.
         -2   -1    0    0    0  501 -0.00000000000E+00 -0.00000000000E+00 -0.53636866348E+03  0.53636866348E+03  0.00000000000E+00 0.  1.
        -24    2    1    2    0    0  0.37735012558E+03 -0.69758360860E+03 -0.60234963653E+02  0.79929294175E+03  0.78898337212E+02 0.  0.
        254    2    1    2    0    0 -0.37735012558E+03  0.69758360860E+03  0.32374697357E+04  0.34506791572E+04  0.89272635702E+03 0.  0.
         23    2    4    4    0    0 -0.15826127092E+03 -0.13964745836E+03  0.24576202624E+03  0.33490787253E+03  0.84948614128E+02 0.  0.
         23    2    4    4    0    0 -0.21908885466E+03  0.83723106696E+03  0.29917077094E+04  0.31157712847E+04  0.93594306387E+02 0.  0.
          1    1    3    3  502    0  0.13979396076E+03 -0.28399169212E+03 -0.60863619060E+02  0.32233214668E+03  0.00000000000E+00 0. -1.
         -2    1    3    3    0  502  0.23755616483E+03 -0.41359191648E+03  0.62865540644E+00  0.47696079507E+03  0.00000000000E+00 0.  1.
         11    1    5    5    0    0 -0.14625326083E+03 -0.14551390321E+03  0.20040192513E+03  0.28761996441E+03  0.00000000000E+00 0. -1.
        -11    1    5    5    0    0 -0.12008010086E+02  0.58664448528E+01  0.45360101114E+02  0.47287908121E+02  0.00000000000E+00 0.  1.
          2    1    6    6  503    0 -0.19996357052E+03  0.70322258904E+03  0.26236818934E+04  0.27236398655E+04  0.00000000000E+00 0. -1.
         -2    1    6    6    0  503 -0.19125284146E+02  0.13400847793E+03  0.36802581603E+03  0.39213141919E+03  0.00000000000E+00 0.  1.
<mgrwt>
<rscale>  0 0.28226658E+04</rscale>
<asrwt>0</asrwt>
<pdfrwt beam="1">  1        1 0.57132359E+00 0.28226658E+04</pdfrwt>
<pdfrwt beam="2">  1       -2 0.82518258E-01 0.28226658E+04</pdfrwt>
<totfact> 0.16473574E-01</totfact>
</mgrwt>
</event>
<event>
12    4  0.4424320E-008  0.1292537E+04  0.7818608E-02  0.9035505E-01
         -2   -1    0    0    0  501 -0.00000000000E+00  0.00000000000E+00  0.77464469527E+03  0.77464469527E+03  0.00000000000E+00 0.  1.
          1   -1    0    0  501    0  0.00000000000E+00 -0.00000000000E+00 -0.53916694563E+03  0.53916694563E+03  0.00000000000E+00 0. -1.
        -24    2    1    2    0    0 -0.23182025570E+03  0.14384064483E+03 -0.11275862004E+03  0.30583189873E+03  0.79924225547E+02 0.  0.
        254    2    1    2    0    0  0.23182025570E+03 -0.14384064483E+03  0.34823636967E+03  0.10079797422E+04  0.90571730105E+03 0.  0.
         23    2    4    4    0    0  0.26461905359E+03 -0.23898863652E+03 -0.21693124806E+03  0.42693410203E+03  0.89859608195E+02 0.  0.
         23    2    4    4    0    0 -0.32798797890E+02  0.95147991691E+02  0.56516761774E+03  0.58104564014E+03  0.89837065408E+02 0.  0.
          1    1    3    3  502    0 -0.14263043842E+03  0.12963713845E+03 -0.89865826731E+02  0.21266192993E+03  0.00000000000E+00 0. -1.
         -2    1    3    3    0  502 -0.89189817281E+02  0.14203506383E+02 -0.22892793305E+02  0.93169968796E+02  0.00000000000E+00 0.  1.
         11    1    5    5    0    0  0.20620938843E+03 -0.15807169194E+03 -0.19473126458E+03  0.32469868659E+03  0.00000000000E+00 0.  1.
        -11    1    5    5    0    0  0.58409665163E+02 -0.80916944579E+02 -0.22199983485E+02  0.10223541545E+03  0.00000000000E+00 0. -1.
          1    1    6    6  503    0 -0.29318743570E+02  0.90342668210E+02  0.27727357464E+03  0.29309046661E+03  0.00000000000E+00 0. -1.
         -1    1    6    6    0  503 -0.34800543202E+01  0.48053234805E+01  0.28789404310E+03  0.28795517354E+03  0.00000000000E+00 0.  1.
<mgrwt>
<rscale>  0 0.12925368E+04</rscale>
<asrwt>0</asrwt>
<pdfrwt beam="1">  1        1 0.82948761E-01 0.12925368E+04</pdfrwt>
<pdfrwt beam="2">  1       -2 0.11917611E+00 0.12925368E+04</pdfrwt>
<totfact> 0.18526818E+01</totfact>
</mgrwt>
</event>
<event>
12    4  0.4424320E-008  0.1358303E+04  0.7818608E-02  0.8984566E-01
          1   -1    0    0  501    0  0.00000000000E+00  0.00000000000E+00  0.15346180005E+04  0.15346180005E+04  0.00000000000E+00 0. -1.
         -2   -1    0    0    0  501 -0.00000000000E+00 -0.00000000000E+00 -0.30056148804E+03  0.30056148804E+03  0.00000000000E+00 0.  1.
        -24    2    1    2    0    0 -0.74631713593E+02 -0.36089489014E+03  0.45925259697E+03  0.59521298703E+03  0.86893830085E+02 0.  0.
        254    2    1    2    0    0  0.74631713593E+02  0.36089489014E+03  0.77480391546E+03  0.12399665015E+04  0.89519875053E+03 0.  0.
         23    2    4    4    0    0  0.86095644380E+02  0.15585805085E+03  0.93960662969E+03  0.96115302587E+03  0.96178628571E+02 0.  0.
         23    2    4    4    0    0 -0.11463930788E+02  0.20503683929E+03 -0.16480271423E+03  0.27881347560E+03  0.91681472409E+02 0.  0.
          1    1    3    3  502    0 -0.64046846822E+02 -0.31783762715E+03  0.44077082646E+03  0.54717609348E+03  0.00000000000E+00 0. -1.
         -2    1    3    3    0  502 -0.10584866771E+02 -0.43057262987E+02  0.18481770505E+02  0.48036893546E+02  0.00000000000E+00 0.  1.
         11    1    5    5    0    0  0.10510959529E+03  0.12043404681E+03  0.68590187165E+03  0.70428244631E+03  0.00000000000E+00 0.  1.
        -11    1    5    5    0    0 -0.19013950911E+02  0.35424004044E+02  0.25370475804E+03  0.25687057956E+03  0.00000000000E+00 0. -1.
          1    1    6    6  503    0  0.27516939419E+02  0.29436264599E+02 -0.10048285273E+02  0.41528829329E+02  0.00000000000E+00 0. -1.
         -1    1    6    6    0  503 -0.38980870206E+02  0.17560057469E+03 -0.15475442896E+03  0.23728464627E+03  0.00000000000E+00 0.  1.
<mgrwt>
<rscale>  0 0.13583035E+04</rscale>
<asrwt>0</asrwt>
<pdfrwt beam="1">  1        1 0.23609507E+00 0.13583035E+04</pdfrwt>
<pdfrwt beam="2">  1       -2 0.46240230E-01 0.13583035E+04</pdfrwt>
<totfact> 0.23561912E+01</totfact>
</mgrwt>
</event>
<event>
12    4  0.4424320E-008  0.1776848E+04  0.7818608E-02  0.8718709E-01
         -2   -1    0    0    0  501 -0.00000000000E+00  0.00000000000E+00  0.48585754081E+03  0.48585754081E+03  0.00000000000E+00 0.  1.
          1   -1    0    0  501    0  0.00000000000E+00 -0.00000000000E+00 -0.16245451420E+04  0.16245451420E+04  0.00000000000E+00 0. -1.
        -24    2    1    2    0    0  0.11285458682E+03 -0.54306522767E+03 -0.86080155162E+01  0.56034024504E+03  0.79063854017E+02 0.  0.
        254    2    1    2    0    0 -0.11285458682E+03  0.54306522767E+03 -0.11300795857E+04  0.15500624377E+04  0.90441013469E+03 0.  0.
         23    2    4    4    0    0  0.12132955238E+03 -0.94376450258E+02  0.49912956674E+02  0.18545822018E+03  0.90970729044E+02 0.  0.
         23    2    4    4    0    0 -0.23418413920E+03  0.63744167793E+03 -0.11799925423E+04  0.13646042176E+04  0.92672362938E+02 0.  0.
          1    1    3    3  502    0  0.18178903892E+02 -0.83430593718E+02  0.27400520820E+02  0.89676781031E+02  0.00000000000E+00 0. -1.
         -2    1    3    3    0  502  0.94675682924E+02 -0.45963463396E+03 -0.36008536336E+02  0.47066346401E+03  0.00000000000E+00 0.  1.
         11    1    5    5    0    0  0.27777646988E+02 -0.65421694288E+02 -0.82598798124E+01  0.71552927056E+02  0.00000000000E+00 0. -1.
        -11    1    5    5    0    0  0.93551905393E+02 -0.28954755969E+02  0.58172836487E+02  0.11390529312E+03  0.00000000000E+00 0.  1.
          4    1    6    6  503    0 -0.20156441351E+03  0.56445125560E+03 -0.97396651690E+03  0.11436101647E+04  0.00000000000E+00 0. -1.
         -4    1    6    6    0  503 -0.32619725686E+02  0.72990422336E+02 -0.20602602542E+03  0.22099405288E+03  0.00000000000E+00 0.  1.
<mgrwt>
<rscale>  0 0.17768483E+04</rscale>
<asrwt>0</asrwt>
<pdfrwt beam="1">  1        1 0.24993002E+00 0.17768483E+04</pdfrwt>
<pdfrwt beam="2">  1       -2 0.74747314E-01 0.17768483E+04</pdfrwt>
<totfact> 0.71660728E+00</totfact>
</mgrwt>
</event>
<event>
12    4  0.4424320E-008  0.1577606E+04  0.7818608E-02  0.8834425E-01
          1   -1    0    0  501    0  0.00000000000E+00  0.00000000000E+00  0.10012683277E+04  0.10012683277E+04  0.00000000000E+00 0. -1.
         -2   -1    0    0    0  501 -0.00000000000E+00 -0.00000000000E+00 -0.62142234690E+03  0.62142234690E+03  0.00000000000E+00 0.  1.
        -24    2    1    2    0    0  0.53764713336E+02  0.52174397472E+03  0.21239134837E+03  0.57164791763E+03  0.81017512370E+02 0.  0.
        254    2    1    2    0    0 -0.53764713336E+02 -0.52174397472E+03  0.16745463246E+03  0.10510427570E+04  0.89528900559E+03 0.  0.
         23    2    4    4    0    0 -0.41021350200E+03 -0.50141474144E+03  0.21598294820E+02  0.65448076280E+03  0.90480508254E+02 0.  0.
         23    2    4    4    0    0  0.35644878867E+03 -0.20329233280E+02  0.14585633764E+03  0.39656199420E+03  0.92294785025E+02 0.  0.
          1    1    3    3  502    0  0.60881560748E+02  0.45656209148E+03  0.20951432435E+03  0.50601557281E+03  0.00000000000E+00 0. -1.
         -4    1    3    3    0  502 -0.71168474119E+01  0.65181883242E+02  0.28770240243E+01  0.65632344826E+02  0.00000000000E+00 0.  1.
         11    1    5    5    0    0 -0.11511448334E+03 -0.15646188626E+03 -0.33772609350E+02  0.19716048100E+03  0.00000000000E+00 0. -1.
        -11    1    5    5    0    0 -0.29509901866E+03 -0.34495285518E+03  0.55370904171E+02  0.45732028180E+03  0.00000000000E+00 0.  1.
          3    1    6    6  503    0 -0.36871131295E+01 -0.17119136273E+01 -0.43136009437E+01  0.59272763221E+01  0.00000000000E+00 0. -1.
         -3    1    6    6    0  503  0.36013590180E+03 -0.18617319653E+02  0.15016993859E+03  0.39063471787E+03  0.00000000000E+00 0.  1.
<mgrwt>
<rscale>  0 0.15776064E+04</rscale>
<asrwt>0</asrwt>
<pdfrwt beam="1">  1        1 0.15404128E+00 0.15776064E+04</pdfrwt>
<pdfrwt beam="2">  1       -2 0.95603438E-01 0.15776064E+04</pdfrwt>
<totfact> 0.11682924E+01</totfact>
</mgrwt>
</event>
<event>
12    4  0.4424320E-008  0.1115888E+04  0.7818608E-02  0.9189844E-01
         -2   -1    0    0    0  501 -0.00000000000E+00  0.00000000000E+00  0.17717498530E+03  0.17717498530E+03  0.00000000000E+00 0.  1.
          1   -1    0    0  501    0  0.00000000000E+00 -0.00000000000E+00 -0.17570272775E+04  0.17570272775E+04  0.00000000000E+00 0. -1.
        -24    2    1    2    0    0 -0.72529937689E+02  0.65739442051E+01  0.27739433032E+02  0.11075734494E+03  0.78701364088E+02 0.  0.
        254    2    1    2    0    0  0.72529937689E+02 -0.65739442051E+01 -0.16075917252E+04  0.18234449179E+04  0.85749425938E+03 0.  0.
         23    2    4    4    0    0 -0.17023833639E+03  0.22929531576E+03 -0.17349314021E+03  0.34719971894E+03  0.94288610795E+02 0.  0.
         23    2    4    4    0    0  0.24276827408E+03 -0.23586925996E+03 -0.14340985850E+04  0.14762451989E+04  0.89946612608E+02 0.  0.
          1    1    3    3  502    0 -0.25266348495E+02  0.19173392841E+02 -0.23835894154E+02  0.39675650082E+02  0.00000000000E+00 0. -1.
         -2    1    3    3    0  502 -0.47263589194E+02 -0.12599448636E+02  0.51575327185E+02  0.71081694857E+02  0.00000000000E+00 0.  1.
         11    1    5    5    0    0 -0.15103616828E+03  0.13080086971E+03 -0.12567389781E+03  0.23603965818E+03  0.00000000000E+00 0. -1.
        -11    1    5    5    0    0 -0.19202168106E+02  0.98494446050E+02 -0.47819242408E+02  0.11116006076E+03  0.00000000000E+00 0.  1.
          1    1    6    6  503    0  0.21270663635E+03 -0.23337526887E+03 -0.12278655807E+04  0.12678178156E+04  0.00000000000E+00 0. -1.
         -1    1    6    6    0  503  0.30061637728E+02 -0.24939910870E+01 -0.20623300430E+03  0.20842738332E+03  0.00000000000E+00 0.  1.
<mgrwt>
<rscale>  0 0.11158876E+04</rscale>
<asrwt>0</asrwt>
<pdfrwt beam="1">  1        1 0.27031187E+00 0.11158876E+04</pdfrwt>
<pdfrwt beam="2">  1       -2 0.27257691E-01 0.11158876E+04</pdfrwt>
<totfact> 0.46684294E+01</totfact>
</mgrwt>
</event>
<event>
12    4  0.4424320E-008  0.1710932E+04  0.7818608E-02  0.8755154E-01
         -2   -1    0    0    0  501 -0.00000000000E+00  0.00000000000E+00  0.93410178037E+03  0.93410178037E+03  0.00000000000E+00 0.  1.
          1   -1    0    0  501    0  0.00000000000E+00 -0.00000000000E+00 -0.78344988410E+03  0.78344988410E+03  0.00000000000E+00 0. -1.
        -24    2    1    2    0    0  0.59119737076E+03 -0.15286936487E+03 -0.24033993614E+01  0.61592928854E+03  0.80496821340E+02 0.  0.
        254    2    1    2    0    0 -0.59119737076E+03  0.15286936487E+03  0.15305529562E+03  0.11016223759E+04  0.90402575279E+03 0.  0.
         23    2    4    4    0    0 -0.73154339187E+03 -0.99604842139E+02  0.24858821697E+03  0.78397945117E+03  0.88038738522E+02 0.  0.
         23    2    4    4    0    0  0.14034602110E+03  0.25247420701E+03 -0.95532921343E+02  0.31764292476E+03  0.91270245652E+02 0.  0.
          3    1    3    3  502    0  0.42485461511E+03 -0.14669030784E+03 -0.11844225955E+01  0.44946734393E+03  0.00000000000E+00 0. -1.
         -4    1    3    3    0  502  0.16634275565E+03 -0.61790570340E+01 -0.12189767660E+01  0.16646194462E+03  0.00000000000E+00 0.  1.
         11    1    5    5    0    0 -0.47920049827E+03 -0.56773486695E+02  0.11860912012E+03  0.49691495219E+03  0.00000000000E+00 0. -1.
        -11    1    5    5    0    0 -0.25234289359E+03 -0.42831355444E+02  0.12997909684E+03  0.28706449898E+03  0.00000000000E+00 0.  1.
          4    1    6    6  503    0  0.10506358744E+03  0.11291104144E+03 -0.77364058956E+02  0.17254697420E+03  0.00000000000E+00 0. -1.
         -4    1    6    6    0  503  0.35282433663E+02  0.13956316557E+03 -0.18168862387E+02  0.14509595056E+03  0.00000000000E+00 0.  1.
<mgrwt>
<rscale>  0 0.17109318E+04</rscale>
<asrwt>0</asrwt>
<pdfrwt beam="1">  1        1 0.12053075E+00 0.17109318E+04</pdfrwt>
<pdfrwt beam="2">  1       -2 0.14370797E+00 0.17109318E+04</pdfrwt>
<totfact> 0.63847888E+00</totfact>
</mgrwt>
</event>
<event>
12    4  0.4424320E-008  0.1340147E+04  0.7818608E-02  0.8998321E-01
          1   -1    0    0  501    0  0.00000000000E+00  0.00000000000E+00  0.13691999378E+04  0.13691999378E+04  0.00000000000E+00 0. -1.
         -2   -1    0    0    0  501 -0.00000000000E+00 -0.00000000000E+00 -0.32792740917E+03  0.32792740917E+03  0.00000000000E+00 0.  1.
        -24    2    1    2    0    0 -0.22730552342E+03 -0.92837431526E+02  0.62114526746E+03  0.67302114775E+03  0.82761297481E+02 0.  0.
        254    2    1    2    0    0  0.22730552342E+03  0.92837431526E+02  0.42012726118E+03  0.10241061992E+04  0.90111042721E+03 0.  0.
         23    2    4    4    0    0  0.31704686500E+03  0.24832968607E+03  0.61698165325E+03  0.74243360368E+03  0.91405403716E+02 0.  0.
         23    2    4    4    0    0 -0.89741341583E+02 -0.15549225454E+03 -0.19685439207E+03  0.28167259555E+03  0.91413619292E+02 0.  0.
          1    1    3    3  502    0 -0.23266290030E+03 -0.86019025645E+02  0.57745661982E+03  0.62848026677E+03  0.00000000000E+00 0. -1.
         -2    1    3    3    0  502  0.53573768749E+01 -0.68184058816E+01  0.43688647640E+02  0.44540880979E+02  0.00000000000E+00 0.  1.
         11    1    5    5    0    0  0.27799076200E+03  0.19575335889E+03  0.56236009259E+03  0.65715075516E+03  0.00000000000E+00 0.  1.
        -11    1    5    5    0    0  0.39056103005E+02  0.52576327182E+02  0.54621560664E+02  0.85282848518E+02  0.00000000000E+00 0. -1.
          3    1    6    6  503    0 -0.55704373196E+02 -0.14530872016E+03 -0.11837351229E+03  0.19552465256E+03  0.00000000000E+00 0. -1.
         -3    1    6    6    0  503 -0.34036968387E+02 -0.10183534387E+02 -0.78480879782E+02  0.86147942988E+02  0.00000000000E+00 0.  1.
<mgrwt>
<rscale>  0 0.13401465E+04</rscale>
<asrwt>0</asrwt>
<pdfrwt beam="1">  1        1 0.21064614E+00 0.13401465E+04</pdfrwt>
<pdfrwt beam="2">  1       -2 0.50450371E-01 0.13401465E+04</pdfrwt>
<totfact> 0.25786379E+01</totfact>
</mgrwt>
</event>
<event>
12    4  0.4424320E-008  0.1430485E+04  0.7818608E-02  0.8932043E-01
         -2   -1    0    0    0  501 -0.00000000000E+00  0.00000000000E+00  0.65640731793E+03  0.65640731793E+03  0.00000000000E+00 0.  1.
          1   -1    0    0  501    0  0.00000000000E+00 -0.00000000000E+00 -0.77935160612E+03  0.77935160612E+03  0.00000000000E+00 0. -1.
        -24    2    1    2    0    0 -0.13418139019E+03  0.81417042943E+02  0.36584384490E+03  0.40676761814E+03  0.83575091723E+02 0.  0.
        254    2    1    2    0    0  0.13418139019E+03 -0.81417042943E+02 -0.48878813309E+03  0.10289913059E+04  0.89178242203E+03 0.  0.
         23    2    4    4    0    0  0.99725988731E+02  0.19007428557E+03  0.18402084282E+03  0.29697141993E+03  0.90856187461E+02 0.  0.
         23    2    4    4    0    0  0.34455401464E+02 -0.27149132852E+03 -0.67280897591E+03  0.73201988598E+03  0.91030100874E+02 0.  0.
          3    1    3    3  502    0 -0.10258425694E+02 -0.56548339134E+01  0.10099489572E+03  0.10167193027E+03  0.00000000000E+00 0. -1.
         -4    1    3    3    0  502 -0.12392296450E+03  0.87071876857E+02  0.26484894919E+03  0.30509568787E+03  0.00000000000E+00 0.  1.
         11    1    5    5    0    0  0.79041610536E+02  0.17452205811E+03  0.19062261098E+03  0.27026376890E+03  0.00000000000E+00 0.  1.
        -11    1    5    5    0    0  0.20684378195E+02  0.15552227461E+02 -0.66017681692E+01  0.26707651025E+02  0.00000000000E+00 0. -1.
          3    1    6    6  503    0 -0.81406444026E+01 -0.34294282135E+01 -0.30385470040E+01  0.93415114974E+01  0.00000000000E+00 0. -1.
         -3    1    6    6    0  503  0.42596045866E+02 -0.26806190030E+03 -0.66977042890E+03  0.72267837449E+03  0.00000000000E+00 0.  1.
<mgrwt>
<rscale>  0 0.14304854E+04</rscale>
<asrwt>0</asrwt>
<pdfrwt beam="1">  1        1 0.11990025E+00 0.14304854E+04</pdfrwt>
<pdfrwt beam="2">  1       -2 0.10098574E+00 0.14304854E+04</pdfrwt>
<totfact> 0.15852024E+01</totfact>
</mgrwt>
</event>
<event>
12    4  0.4424320E-008  0.1411840E+04  0.7818608E-02  0.8945292E-01
          1   -1    0    0  501    0  0.00000000000E+00  0.00000000000E+00  0.37812089040E+03  0.37812089040E+03  0.00000000000E+00 0. -1.
         -2   -1    0    0    0  501 -0.00000000000E+00 -0.00000000000E+00 -0.13178939916E+04  0.13178939916E+04  0.00000000000E+00 0.  1.
        -24    2    1    2    0    0  0.36511973284E+03  0.13758786547E+03 -0.12336786372E+03  0.41676479185E+03  0.78933021583E+02 0.  0.
        254    2    1    2    0    0 -0.36511973284E+03 -0.13758786547E+03 -0.81640523749E+03  0.12792500902E+04  0.90427896212E+03 0.  0.
         23    2    4    4    0    0 -0.53251599153E+03 -0.36317215493E+03 -0.38368058586E+03  0.75539954798E+03  0.89164958219E+02 0.  0.
         23    2    4    4    0    0  0.16739625870E+03  0.22558428945E+03 -0.43272465162E+03  0.52385054217E+03  0.90878970817E+02 0.  0.
          1    1    3    3  502    0  0.19719710453E+03  0.81173880970E+02 -0.10776493053E+03  0.23893341591E+03  0.00000000000E+00 0. -1.
         -2    1    3    3    0  502  0.16792262831E+03  0.56413984503E+02 -0.15602933191E+02  0.17783137594E+03  0.00000000000E+00 0.  1.
         11    1    5    5    0    0 -0.19156456411E+03 -0.17567840304E+03 -0.18042810954E+03  0.31640825879E+03  0.00000000000E+00 0.  1.
        -11    1    5    5    0    0 -0.34095142742E+03 -0.18749375188E+03 -0.20325247633E+03  0.43899128920E+03  0.00000000000E+00 0. -1.
          2    1    6    6  503    0  0.60686637781E+02  0.12882938148E+03 -0.27864517188E+03  0.31292652388E+03  0.00000000000E+00 0.  1.
         -2    1    6    6    0  503  0.10670962091E+03  0.96754907977E+02 -0.15407947975E+03  0.21092401829E+03  0.00000000000E+00 0. -1.
<mgrwt>
<rscale>  0 0.14118403E+04</rscale>
<asrwt>0</asrwt>
<pdfrwt beam="1">  1        1 0.58172445E-01 0.14118403E+04</pdfrwt>
<pdfrwt beam="2">  1       -2 0.20275292E+00 0.14118403E+04</pdfrwt>
<totfact> 0.70160100E+00</totfact>
</mgrwt>
</event>
<event>
12    4  0.4424320E-008  0.2513694E+04  0.7818608E-02  0.8398123E-01
         -2   -1    0    0    0  501 -0.00000000000E+00  0.00000000000E+00  0.12241352682E+04  0.12241352682E+04  0.00000000000E+00 0.  1.
          1   -1    0    0  501    0  0.00000000000E+00 -0.00000000000E+00 -0.12904331625E+04  0.12904331625E+04  0.00000000000E+00 0. -1.
        -24    2    1    2    0    0  0.20057049577E+03  0.99363486274E+03 -0.44251026344E+03  0.11089655500E+04  0.80314964680E+02 0.  0.
        254    2    1    2    0    0 -0.20057049577E+03 -0.99363486274E+03  0.37621236905E+03  0.14056028807E+04  0.89813414779E+03 0.  0.
         23    2    4    4    0    0  0.12795639804E+03 -0.50333266725E+03 -0.20995815460E+03  0.56758281927E+03  0.91384989611E+02 0.  0.
         23    2    4    4    0    0 -0.32852689381E+03 -0.49030219549E+03  0.58617052365E+03  0.83802006145E+03  0.10176235911E+03 0.  0.
          1    1    3    3  502    0  0.91974931587E+02  0.53273923559E+03 -0.27622660897E+03  0.60710099710E+03  0.00000000000E+00 0. -1.
         -2    1    3    3    0  502  0.10859556418E+03  0.46089562715E+03 -0.16628365447E+03  0.50186455287E+03  0.00000000000E+00 0.  1.
         11    1    5    5    0    0  0.89058214023E+01 -0.21634996518E+01 -0.13412457583E+02  0.16244642317E+02  0.00000000000E+00 0.  1.
        -11    1    5    5    0    0  0.11905057664E+03 -0.50116916760E+03 -0.19654569702E+03  0.55133817695E+03  0.00000000000E+00 0. -1.
          1    1    6    6  503    0 -0.33475338590E+03 -0.47200187461E+03  0.55812793356E+03  0.80396044009E+03  0.00000000000E+00 0. -1.
         -1    1    6    6    0  503  0.62264920910E+01 -0.18300320881E+02  0.28042590091E+02  0.34059621359E+02  0.00000000000E+00 0.  1.
<mgrwt>
<rscale>  0 0.25136943E+04</rscale>
<asrwt>0</asrwt>
<pdfrwt beam="1">  1        1 0.19852818E+00 0.25136943E+04</pdfrwt>
<pdfrwt beam="2">  1       -2 0.18832850E+00 0.25136943E+04</pdfrwt>
<totfact> 0.11384098E+00</totfact>
</mgrwt>
</event>
<event>
12    4  0.4424320E-008  0.1327709E+04  0.7818608E-02  0.9007876E-01
          1   -1    0    0  501    0  0.00000000000E+00  0.00000000000E+00  0.23595483599E+04  0.23595483599E+04  0.00000000000E+00 0. -1.
         -2   -1    0    0    0  501 -0.00000000000E+00 -0.00000000000E+00 -0.18677429613E+03  0.18677429613E+03  0.00000000000E+00 0.  1.
        -24    2    1    2    0    0 -0.10598239305E+03 -0.21586386503E+03  0.11309521790E+03  0.27686812990E+03  0.77691422839E+02 0.  0.
        254    2    1    2    0    0  0.10598239305E+03  0.21586386503E+03  0.20596788459E+04  0.22694545262E+04  0.92212657602E+03 0.  0.
         23    2    4    4    0    0  0.39008378049E+03  0.42750898931E+03  0.11940778364E+04  0.13299897014E+04  0.90119003465E+02 0.  0.
         23    2    4    4    0    0 -0.28410138744E+03 -0.21164512428E+03  0.86560100950E+03  0.93946482473E+03  0.88440897117E+02 0.  0.
          1    1    3    3  502    0 -0.92948057792E+02 -0.17444348454E+03  0.12235852752E+03  0.23246823439E+03  0.00000000000E+00 0. -1.
         -2    1    3    3    0  502 -0.13034335257E+02 -0.41420380493E+02 -0.92633096294E+01  0.44399895508E+02  0.00000000000E+00 0.  1.
         11    1    5    5    0    0  0.10019453148E+03  0.14193488504E+03  0.44126312924E+03  0.47423370289E+03  0.00000000000E+00 0. -1.
        -11    1    5    5    0    0  0.28988924901E+03  0.28557410427E+03  0.75281470716E+03  0.85575599854E+03  0.00000000000E+00 0.  1.
          4    1    6    6  503    0 -0.14370507723E+03 -0.65315928665E+02  0.30722314862E+03  0.34540321771E+03  0.00000000000E+00 0. -1.
         -4    1    6    6    0  503 -0.14039631021E+03 -0.14632919561E+03  0.55837786089E+03  0.59406160702E+03  0.00000000000E+00 0.  1.
<mgrwt>
<rscale>  0 0.13277093E+04</rscale>
<asrwt>0</asrwt>
<pdfrwt beam="1">  1        1 0.36300742E+00 0.13277093E+04</pdfrwt>
<pdfrwt beam="2">  1       -2 0.28734509E-01 0.13277093E+04</pdfrwt>
<totfact> 0.16255066E+01</totfact>
</mgrwt>
</event>
<event>
12    4  0.4424320E-008  0.1278283E+04  0.7818608E-02  0.9046966E-01
          1   -1    0    0  501    0  0.00000000000E+00  0.00000000000E+00  0.16534712539E+04  0.16534712539E+04  0.00000000000E+00 0. -1.
         -2   -1    0    0    0  501 -0.00000000000E+00 -0.00000000000E+00 -0.24705724544E+03  0.24705724544E+03  0.00000000000E+00 0.  1.
        -24    2    1    2    0    0 -0.23173819640E+03 -0.16312999830E+03  0.15271222157E+03  0.33181324808E+03  0.80405354094E+02 0.  0.
        254    2    1    2    0    0  0.23173819640E+03  0.16312999830E+03  0.12537017869E+04  0.15687152513E+04  0.89932495856E+03 0.  0.
         23    2    4    4    0    0 -0.25301019997E+03 -0.10311471485E+02  0.89554361768E+03  0.93498094126E+03  0.89835970584E+02 0.  0.
         23    2    4    4    0    0  0.48474839637E+03  0.17344146979E+03  0.35815816926E+03  0.63373431005E+03  0.90988737210E+02 0.  0.
          1    1    3    3  502    0 -0.20789844813E+03 -0.14818224188E+03  0.16178485417E+03  0.30224837565E+03  0.00000000000E+00 0. -1.
         -2    1    3    3    0  502 -0.23839748270E+02 -0.14947756419E+02 -0.90726325975E+01  0.29564872430E+02  0.00000000000E+00 0.  1.
         11    1    5    5    0    0 -0.15069283402E+03 -0.13639652457E+02  0.37331715741E+03  0.40281518139E+03  0.00000000000E+00 0. -1.
        -11    1    5    5    0    0 -0.10231736595E+03  0.33281809717E+01  0.52222646027E+03  0.53216575986E+03  0.00000000000E+00 0.  1.
          2    1    6    6  503    0  0.25178737391E+03  0.11295068389E+03  0.23945771385E+03  0.36536931367E+03  0.00000000000E+00 0. -1.
         -2    1    6    6    0  503  0.23296102247E+03  0.60490785894E+02  0.11870045541E+03  0.26836499638E+03  0.00000000000E+00 0.  1.
<mgrwt>
<rscale>  0 0.12782833E+04</rscale>
<asrwt>0</asrwt>
<pdfrwt beam="1">  1        1 0.25438019E+00 0.12782833E+04</pdfrwt>
<pdfrwt beam="2">  1       -2 0.38008808E-01 0.12782833E+04</pdfrwt>
<totfact> 0.28944081E+01</totfact>
</mgrwt>
</event>
<event>
12    4  0.4424320E-008  0.1222025E+04  0.7818608E-02  0.9093794E-01
          1   -1    0    0  501    0  0.00000000000E+00  0.00000000000E+00  0.81604129380E+03  0.81604129380E+03  0.00000000000E+00 0. -1.
         -2   -1    0    0    0  501 -0.00000000000E+00 -0.00000000000E+00 -0.45749681941E+03  0.45749681941E+03  0.00000000000E+00 0.  1.
        -24    2    1    2    0    0 -0.15809821714E+03 -0.12204007351E+03 -0.23368009665E+03  0.31739288605E+03  0.79012851705E+02 0.  0.
        254    2    1    2    0    0  0.15809821714E+03  0.12204007351E+03  0.59222457104E+03  0.95614522716E+03  0.72359859527E+03 0.  0.
         23    2    4    4    0    0 -0.23044885039E+03  0.21240512382E+03  0.17338518416E+03  0.37011663956E+03  0.93280735021E+02 0.  0.
         23    2    4    4    0    0  0.38854706753E+03 -0.90365050310E+02  0.41883938689E+03  0.58602858760E+03  0.94172222373E+02 0.  0.
          1    1    3    3  502    0 -0.14687612746E+03 -0.12659002398E+03 -0.18778621169E+03  0.26992830954E+03  0.00000000000E+00 0. -1.
         -2    1    3    3    0  502 -0.11222089685E+02  0.45499504698E+01 -0.45893884964E+02  0.47464576510E+02  0.00000000000E+00 0.  1.
         11    1    5    5    0    0 -0.90699698630E+02  0.66024416055E+02  0.11226304140E+03  0.15870932333E+03  0.00000000000E+00 0.  1.
        -11    1    5    5    0    0 -0.13974915176E+03  0.14638070777E+03  0.61122142760E+02  0.21140731624E+03  0.00000000000E+00 0. -1.
          3    1    6    6  503    0  0.34812533584E+03 -0.92714267161E+02  0.33068067979E+03  0.48901625410E+03  0.00000000000E+00 0. -1.
         -3    1    6    6    0  503  0.40421731689E+02  0.23492168509E+01  0.88158707100E+02  0.97012333494E+02  0.00000000000E+00 0.  1.
<mgrwt>
<rscale>  0 0.12220250E+04</rscale>
<asrwt>0</asrwt>
<pdfrwt beam="1">  1        1 0.12554481E+00 0.12220250E+04</pdfrwt>
<pdfrwt beam="2">  1       -2 0.70384126E-01 0.12220250E+04</pdfrwt>
<totfact> 0.34057920E+01</totfact>
</mgrwt>
</event>
<event>
12    4  0.4424320E-008  0.2373339E+04  0.7818608E-02  0.8449553E-01
         -2   -1    0    0    0  501 -0.00000000000E+00  0.00000000000E+00  0.49962451279E+03  0.49962451279E+03  0.00000000000E+00 0.  1.
          1   -1    0    0  501    0  0.00000000000E+00 -0.00000000000E+00 -0.28184864553E+04  0.28184864553E+04  0.00000000000E+00 0. -1.
        -24    2    1    2    0    0 -0.65550050881E+03  0.53854549376E+03 -0.17227230071E+04  0.19219282737E+04  0.79508264855E+02 0.  0.
        254    2    1    2    0    0  0.65550050881E+03 -0.53854549376E+03 -0.59613893534E+03  0.13961826943E+04  0.93500391432E+03 0.  0.
         23    2    4    4    0    0 -0.15214122581E+03  0.11279720524E+03 -0.39037309504E+02  0.21500332402E+03  0.93980613441E+02 0.  0.
         23    2    4    4    0    0  0.80764173462E+03 -0.65134269901E+03 -0.55710162584E+03  0.11811793703E+04  0.91049438564E+02 0.  0.
          3    1    3    3  502    0 -0.24229036273E+03  0.20002762295E+03 -0.72656781621E+03  0.79159109481E+03  0.00000000000E+00 0. -1.
         -4    1    3    3    0  502 -0.41321014608E+03  0.33851787081E+03 -0.99615519092E+03  0.11303371789E+04  0.00000000000E+00 0.  1.
         11    1    5    5    0    0 -0.50132902687E+02  0.94594274030E+02 -0.28893294619E+02  0.11088826396E+03  0.00000000000E+00 0. -1.
        -11    1    5    5    0    0 -0.10200832313E+03  0.18202931213E+02 -0.10144014884E+02  0.10411506005E+03  0.00000000000E+00 0.  1.
          2    1    6    6  503    0  0.79762537717E+03 -0.63270999583E+03 -0.53324578991E+03  0.11492951116E+04  0.00000000000E+00 0. -1.
         -2    1    6    6    0  503  0.10016357457E+02 -0.18632703174E+02 -0.23855835924E+02  0.31884258686E+02  0.00000000000E+00 0.  1.
<mgrwt>
<rscale>  0 0.23733394E+04</rscale>
<asrwt>0</asrwt>
<pdfrwt beam="1">  1        1 0.43361329E+00 0.23733394E+04</pdfrwt>
<pdfrwt beam="2">  1       -2 0.76865312E-01 0.23733394E+04</pdfrwt>
<totfact> 0.96512270E-01</totfact>
</mgrwt>
</event>
<event>
12    4  0.4424320E-008  0.1348797E+04  0.7818608E-02  0.8991739E-01
          1   -1    0    0  501    0  0.00000000000E+00  0.00000000000E+00  0.89150819673E+03  0.89150819673E+03  0.00000000000E+00 0. -1.
         -2   -1    0    0    0  501 -0.00000000000E+00 -0.00000000000E+00 -0.51016194284E+03  0.51016194284E+03  0.00000000000E+00 0.  1.
        -24    2    1    2    0    0  0.20254615605E+03  0.22520138802E+03  0.30960301923E+03  0.44474297627E+03  0.10100334114E+03 0.  0.
        254    2    1    2    0    0 -0.20254615605E+03 -0.22520138802E+03  0.71743234659E+02  0.95692716331E+03  0.90488777959E+03 0.  0.
         23    2    4    4    0    0  0.26251557005E+03 -0.25058797079E+03 -0.18557465602E+03  0.41762555469E+03  0.90908719877E+02 0.  0.
         23    2    4    4    0    0 -0.46506172610E+03  0.25386582762E+02  0.25731789068E+03  0.53930160862E+03  0.87788612740E+02 0.  0.
          1    1    3    3  502    0  0.16126306936E+03  0.12333073592E+03  0.24124834620E+03  0.31530463445E+03  0.00000000000E+00 0. -1.
         -2    1    3    3    0  502  0.41283086696E+02  0.10187065210E+03  0.68354673030E+02  0.12943834182E+03  0.00000000000E+00 0.  1.
         11    1    5    5    0    0  0.57382926173E+02 -0.10900263484E+03 -0.42970070714E+02  0.13046379420E+03  0.00000000000E+00 0. -1.
        -11    1    5    5    0    0  0.20513264387E+03 -0.14158533594E+03 -0.14260458531E+03  0.28716176049E+03  0.00000000000E+00 0.  1.
          1    1    6    6  503    0 -0.28795768342E+03  0.25327680829E+02  0.11126778867E+03  0.30974447477E+03  0.00000000000E+00 0. -1.
         -1    1    6    6    0  503 -0.17710404269E+03  0.58901933013E-01  0.14605010201E+03  0.22955713385E+03  0.00000000000E+00 0.  1.
<mgrwt>
<rscale>  0 0.13487973E+04</rscale>
<asrwt>0</asrwt>
<pdfrwt beam="1">  1        1 0.13715511E+00 0.13487973E+04</pdfrwt>
<pdfrwt beam="2">  1       -2 0.78486453E-01 0.13487973E+04</pdfrwt>
<totfact> 0.22893536E+01</totfact>
</mgrwt>
</event>
<event>
12    4  0.4424320E-008  0.1820750E+04  0.7818608E-02  0.8695342E-01
         -2   -1    0    0    0  501 -0.00000000000E+00  0.00000000000E+00  0.13274004891E+04  0.13274004891E+04  0.00000000000E+00 0.  1.
          1   -1    0    0  501    0  0.00000000000E+00 -0.00000000000E+00 -0.62436486856E+03  0.62436486856E+03  0.00000000000E+00 0. -1.
        -24    2    1    2    0    0  0.54413760558E+03  0.21764423531E+03 -0.12136325722E+03  0.60379215647E+03  0.79882294862E+02 0.  0.
        254    2    1    2    0    0 -0.54413760558E+03 -0.21764423531E+03  0.82439887776E+03  0.13479732012E+04  0.89103506918E+03 0.  0.
         23    2    4    4    0    0 -0.37060250671E+03 -0.55052301229E+03  0.60861714306E+03  0.90570042635E+03  0.97245207719E+02 0.  0.
         23    2    4    4    0    0 -0.17353509887E+03  0.33287877698E+03  0.21578173469E+03  0.44227277484E+03  0.90115146529E+02 0.  0.
          1    1    3    3  502    0  0.35397265291E+02  0.34865804996E+02 -0.21171319838E+02  0.54007550692E+02  0.00000000000E+00 0. -1.
         -2    1    3    3    0  502  0.50874034029E+03  0.18277843032E+03 -0.10019193738E+03  0.54978460577E+03  0.00000000000E+00 0.  1.
         11    1    5    5    0    0 -0.36903949502E+03 -0.51614427923E+03  0.59069076267E+03  0.86689713517E+03  0.00000000000E+00 0.  1.
        -11    1    5    5    0    0 -0.15630116896E+01 -0.34378733061E+02  0.17926380392E+02  0.38803291180E+02  0.00000000000E+00 0. -1.
          3    1    6    6  503    0 -0.68501970299E+02  0.90241168715E+02  0.24435200968E+02  0.11590111092E+03  0.00000000000E+00 0. -1.
         -3    1    6    6    0  503 -0.10503312858E+03  0.24263760826E+03  0.19134653373E+03  0.32637166392E+03  0.00000000000E+00 0.  1.
<mgrwt>
<rscale>  0 0.18207496E+04</rscale>
<asrwt>0</asrwt>
<pdfrwt beam="1">  1        1 0.96056134E-01 0.18207496E+04</pdfrwt>
<pdfrwt beam="2">  1       -2 0.20421546E+00 0.18207496E+04</pdfrwt>
<totfact> 0.33243053E+00</totfact>
</mgrwt>
</event>
<event>
12    4  0.4424320E-008  0.2810347E+04  0.7818608E-02  0.8300063E-01
         -4   -1    0    0    0  501 -0.00000000000E+00  0.00000000000E+00  0.79707902606E+03  0.79707902606E+03  0.00000000000E+00 0.  1.
          1   -1    0    0  501    0  0.00000000000E+00 -0.00000000000E+00 -0.24771856203E+04  0.24771856203E+04  0.00000000000E+00 0. -1.
        -24    2    1    2    0    0 -0.17093627122E+03  0.79787737530E+03 -0.18695627608E+04  0.20415054469E+04  0.81560152686E+02 0.  0.
        254    2    1    2    0    0  0.17093627122E+03 -0.79787737530E+03  0.18945616655E+03  0.12327591994E+04  0.90441920030E+03 0.  0.
         23    2    4    4    0    0  0.17376463712E+03 -0.21062475109E+03  0.48870313159E+03  0.56738386590E+03  0.92394618751E+02 0.  0.
         23    2    4    4    0    0 -0.28283659024E+01 -0.58725262421E+03 -0.29924696504E+03  0.66537533352E+03  0.91115004648E+02 0.  0.
          1    1    3    3  502    0 -0.10809283770E+03  0.65641514813E+03 -0.15164037161E+04  0.16559121772E+04  0.00000000000E+00 0. -1.
         -4    1    3    3    0  502 -0.62843433525E+02  0.14146222717E+03 -0.35315904464E+03  0.38559326973E+03  0.00000000000E+00 0.  1.
         11    1    5    5    0    0  0.17326091785E+03 -0.21813168120E+03  0.46056561354E+03  0.53825780103E+03  0.00000000000E+00 0. -1.
        -11    1    5    5    0    0  0.50371927453E+00  0.75069301091E+01  0.28137518055E+02  0.29126064875E+02  0.00000000000E+00 0.  1.
          1    1    6    6  503    0 -0.87518340093E-01 -0.56722048405E+03 -0.30543876361E+03  0.64422971330E+03  0.00000000000E+00 0. -1.
         -1    1    6    6    0  503 -0.27408475623E+01 -0.20032140165E+02  0.61917985697E+01  0.21145620220E+02  0.00000000000E+00 0.  1.
<mgrwt>
<rscale>  0 0.28103471E+04</rscale>
<asrwt>0</asrwt>
<pdfrwt beam="1">  1        1 0.38110548E+00 0.28103471E+04</pdfrwt>
<pdfrwt beam="2">  1       -4 0.12262754E+00 0.28103471E+04</pdfrwt>
<totfact> 0.30001849E-01</totfact>
</mgrwt>
</event>
<event>
12    4  0.4424320E-008  0.1968366E+04  0.7818608E-02  0.8621555E-01
          3   -1    0    0  501    0  0.00000000000E+00  0.00000000000E+00  0.25001958906E+04  0.25001958906E+04  0.00000000000E+00 0. -1.
         -4   -1    0    0    0  501 -0.00000000000E+00 -0.00000000000E+00 -0.38741609395E+03  0.38741609395E+03  0.00000000000E+00 0.  1.
        -24    2    1    2    0    0  0.65298860675E+03 -0.21721487430E+03  0.30505954662E+03  0.75694138398E+03  0.79514210234E+02 0.  0.
        254    2    1    2    0    0 -0.65298860675E+03  0.21721487430E+03  0.18077202500E+04  0.21306706006E+04  0.89349218439E+03 0.  0.
         23    2    4    4    0    0 -0.80468347408E+03  0.30933842033E+03  0.16765548840E+04  0.18873765934E+04  0.90268346952E+02 0.  0.
         23    2    4    4    0    0  0.15169486732E+03 -0.92123546034E+02  0.13116536598E+03  0.24329400713E+03  0.10241845618E+03 0.  0.
          3    1    3    3  502    0  0.24768246137E+02 -0.57022006716E+01 -0.37076998478E+01  0.25685173687E+02  0.00000000000E+00 0. -1.
         -4    1    3    3    0  502  0.62822036062E+03 -0.21151267362E+03  0.30876724647E+03  0.73125621029E+03  0.00000000000E+00 0.  1.
         11    1    5    5    0    0 -0.72646065479E+03  0.24876922680E+03  0.14843351919E+04  0.16711918421E+04  0.00000000000E+00 0. -1.
        -11    1    5    5    0    0 -0.78222819287E+02  0.60569193533E+02  0.19221969212E+03  0.21618475131E+03  0.00000000000E+00 0.  1.
          3    1    6    6  503    0 -0.10599276599E+02 -0.28635186456E+02  0.16832964953E+02  0.34866420478E+02  0.00000000000E+00 0.  1.
         -3    1    6    6    0  503  0.16229414392E+03 -0.63488359578E+02  0.11433240102E+03  0.20842758665E+03  0.00000000000E+00 0. -1.
<mgrwt>
<rscale>  0 0.19683659E+04</rscale>
<asrwt>0</asrwt>
<pdfrwt beam="1">  1        3 0.38464551E+00 0.19683659E+04</pdfrwt>
<pdfrwt beam="2">  1       -4 0.59602478E-01 0.19683659E+04</pdfrwt>
<totfact> 0.76541166E-02</totfact>
</mgrwt>
</event>
<event>
12    4  0.4424320E-008  0.2735209E+04  0.7818608E-02  0.8323670E-01
         -2   -1    0    0    0  501 -0.00000000000E+00  0.00000000000E+00  0.12022673675E+04  0.12022673675E+04  0.00000000000E+00 0.  1.
          1   -1    0    0  501    0  0.00000000000E+00 -0.00000000000E+00 -0.15556792453E+04  0.15556792453E+04  0.00000000000E+00 0. -1.
        -24    2    1    2    0    0 -0.11839582789E+04  0.14430354703E+03 -0.41552179789E+03  0.12655277860E+04  0.79507814520E+02 0.  0.
        254    2    1    2    0    0  0.11839582789E+04 -0.14430354703E+03  0.62109920074E+02  0.14924188268E+04  0.89491652822E+03 0.  0.
         23    2    4    4    0    0  0.79996226235E+03  0.28473230234E+03  0.23256049475E+03  0.88493106661E+03  0.89479068713E+02 0.  0.
         23    2    4    4    0    0  0.38399601659E+03 -0.42903584937E+03 -0.17045057468E+03  0.60748776021E+03  0.91996084628E+02 0.  0.
          3    1    3    3  502    0 -0.79391085073E+03  0.13422617018E+03 -0.27726316338E+03  0.85157851395E+03  0.00000000000E+00 0. -1.
         -4    1    3    3    0  502 -0.39004742822E+03  0.10077376848E+02 -0.13825863451E+03  0.41394927202E+03  0.00000000000E+00 0.  1.
         11    1    5    5    0    0  0.45766627058E+02  0.35077475998E+02  0.19543310491E+01  0.57696038724E+02  0.00000000000E+00 0.  1.
        -11    1    5    5    0    0  0.75419563529E+03  0.24965482635E+03  0.23060616370E+03  0.82723502788E+03  0.00000000000E+00 0. -1.
          4    1    6    6  503    0  0.23831279750E+03 -0.23882650396E+03 -0.14259368759E+03  0.36628410857E+03  0.00000000000E+00 0. -1.
         -4    1    6    6    0  503  0.14568321909E+03 -0.19020934541E+03 -0.27856887087E+02  0.24120365164E+03  0.00000000000E+00 0.  1.
<mgrwt>
<rscale>  0 0.27352092E+04</rscale>
<asrwt>0</asrwt>
<pdfrwt beam="1">  1        1 0.23933527E+00 0.27352092E+04</pdfrwt>
<pdfrwt beam="2">  1       -2 0.18496421E+00 0.27352092E+04</pdfrwt>
<totfact> 0.76736734E-01</totfact>
</mgrwt>
</event>
<event>
12    4  0.4424320E-008  0.1643939E+04  0.7818608E-02  0.8794000E-01
         -2   -1    0    0    0  501 -0.00000000000E+00  0.00000000000E+00  0.28154213114E+03  0.28154213114E+03  0.00000000000E+00 0.  1.
          1   -1    0    0  501    0  0.00000000000E+00 -0.00000000000E+00 -0.23997624611E+04  0.23997624611E+04  0.00000000000E+00 0. -1.
        -24    2    1    2    0    0 -0.10185073749E+03 -0.20081627759E+03  0.11222303420E+03  0.26638611473E+03  0.87560280066E+02 0.  0.
        254    2    1    2    0    0  0.10185073749E+03  0.20081627759E+03 -0.22304433641E+04  0.24149184775E+04  0.89791586589E+03 0.  0.
         23    2    4    4    0    0 -0.84257408814E+02  0.52533864876E+03 -0.13377973684E+04  0.14425712704E+04  0.90719702200E+02 0.  0.
         23    2    4    4    0    0  0.18610814630E+03 -0.32452237117E+03 -0.89264599571E+03  0.97234720710E+03  0.93226637715E+02 0.  0.
          3    1    3    3  502    0  0.15419884024E+02 -0.31462796417E+02  0.10078688620E+02  0.36459022834E+02  0.00000000000E+00 0. -1.
         -4    1    3    3    0  502 -0.11727062151E+03 -0.16935348117E+03  0.10214434558E+03  0.22992709190E+03  0.00000000000E+00 0.  1.
         11    1    5    5    0    0 -0.99423456350E+02  0.35765671227E+03 -0.90466408355E+03  0.97786525226E+03  0.00000000000E+00 0. -1.
        -11    1    5    5    0    0  0.15166047536E+02  0.16768193649E+03 -0.43313328487E+03  0.46470601813E+03  0.00000000000E+00 0.  1.
          1    1    6    6  503    0  0.14044407628E+03 -0.18461105730E+03 -0.62894241461E+03  0.67035389306E+03  0.00000000000E+00 0. -1.
         -1    1    6    6    0  503  0.45664070022E+02 -0.13991131387E+03 -0.26370358110E+03  0.30199331404E+03  0.00000000000E+00 0.  1.
<mgrwt>
<rscale>  0 0.16439395E+04</rscale>
<asrwt>0</asrwt>
<pdfrwt beam="1">  1        1 0.36919424E+00 0.16439395E+04</pdfrwt>
<pdfrwt beam="2">  1       -2 0.43314172E-01 0.16439395E+04</pdfrwt>
<totfact> 0.67530415E+00</totfact>
</mgrwt>
</event>
<event>
12    4  0.4424320E-008  0.1442993E+04  0.7818608E-02  0.8923273E-01
         -2   -1    0    0    0  501 -0.00000000000E+00  0.00000000000E+00  0.80723449888E+03  0.80723449888E+03  0.00000000000E+00 0.  1.
          1   -1    0    0  501    0  0.00000000000E+00 -0.00000000000E+00 -0.64486446667E+03  0.64486446667E+03  0.00000000000E+00 0. -1.
        -24    2    1    2    0    0  0.43348491698E+03  0.26778645661E+02  0.36568600669E+02  0.44316294949E+03  0.80186458534E+02 0.  0.
        254    2    1    2    0    0 -0.43348491698E+03 -0.26778645661E+02  0.12580143154E+03  0.10089360161E+04  0.90194213519E+03 0.  0.
         23    2    4    4    0    0 -0.55367409526E+03 -0.32051027310E+03 -0.24556601415E+02  0.64654244332E+03  0.90179074127E+02 0.  0.
         23    2    4    4    0    0  0.12018917828E+03  0.29373162744E+03  0.15035803296E+03  0.36239357275E+03  0.89430732766E+02 0.  0.
          3    1    3    3  502    0  0.42880871631E+03  0.37004229336E+02  0.35301171366E+02  0.43184765934E+03  0.00000000000E+00 0. -1.
         -4    1    3    3    0  502  0.46762006646E+01 -0.10225583674E+02  0.12674293033E+01  0.11315290150E+02  0.00000000000E+00 0.  1.
         11    1    5    5    0    0 -0.25300995014E+02 -0.32828269222E+01  0.13902760705E+02  0.29055189838E+02  0.00000000000E+00 0. -1.
        -11    1    5    5    0    0 -0.52837310025E+03 -0.31722744618E+03 -0.38459362120E+02  0.61748725348E+03  0.00000000000E+00 0.  1.
          1    1    6    6  503    0  0.37314036260E+02  0.19064820384E+03  0.11390129524E+03  0.22519453809E+03  0.00000000000E+00 0. -1.
         -1    1    6    6    0  503  0.82875142024E+02  0.10308342360E+03  0.36456737715E+02  0.13719903466E+03  0.00000000000E+00 0.  1.
<mgrwt>
<rscale>  0 0.14429925E+04</rscale>
<asrwt>0</asrwt>
<pdfrwt beam="1">  1        1 0.99209918E-01 0.14429925E+04</pdfrwt>
<pdfrwt beam="2">  1       -2 0.12418992E+00 0.14429925E+04</pdfrwt>
<totfact> 0.12771877E+01</totfact>
</mgrwt>
</event>
<event>
12    4  0.4424320E-008  0.1388357E+04  0.7818608E-02  0.8962290E-01
          1   -1    0    0  501    0  0.00000000000E+00  0.00000000000E+00  0.18518883085E+04  0.18518883085E+04  0.00000000000E+00 0. -1.
         -2   -1    0    0    0  501 -0.00000000000E+00 -0.00000000000E+00 -0.26021216325E+03  0.26021216325E+03  0.00000000000E+00 0.  1.
        -24    2    1    2    0    0 -0.13331753281E+03 -0.32337041972E+03  0.74081762406E+03  0.82314911322E+03  0.80135619891E+02 0.  0.
        254    2    1    2    0    0  0.13331753281E+03  0.32337041972E+03  0.85085852121E+03  0.12889513585E+04  0.90282522599E+03 0.  0.
         23    2    4    4    0    0  0.20880168363E+03  0.47996238785E+03  0.93543393400E+03  0.10757454771E+04  0.90717416644E+02 0.  0.
         23    2    4    4    0    0 -0.75484150827E+02 -0.15659196812E+03 -0.84575412788E+02  0.21320588150E+03  0.89915771421E+02 0.  0.
          1    1    3    3  502    0 -0.12560991796E+03 -0.32685687138E+03  0.72727205553E+03  0.80717898177E+03  0.00000000000E+00 0. -1.
         -2    1    3    3    0  502 -0.77076148462E+01  0.34864516561E+01  0.13545568525E+02  0.15970131447E+02  0.00000000000E+00 0.  1.
         11    1    5    5    0    0  0.10380740041E+02  0.11422832651E+03  0.18482064445E+03  0.21751905883E+03  0.00000000000E+00 0. -1.
        -11    1    5    5    0    0  0.19842094359E+03  0.36573406134E+03  0.75061328955E+03  0.85822641822E+03  0.00000000000E+00 0.  1.
          3    1    6    6  503    0 -0.88006815344E+01  0.10653683855E+02 -0.14417654867E+02  0.19970521952E+02  0.00000000000E+00 0. -1.
         -3    1    6    6    0  503 -0.66683469292E+02 -0.16724565198E+03 -0.70157757921E+02  0.19323535955E+03  0.00000000000E+00 0.  1.
<mgrwt>
<rscale>  0 0.13883571E+04</rscale>
<asrwt>0</asrwt>
<pdfrwt beam="1">  1        1 0.28490589E+00 0.13883571E+04</pdfrwt>
<pdfrwt beam="2">  1       -2 0.40032642E-01 0.13883571E+04</pdfrwt>
<totfact> 0.19010378E+01</totfact>
</mgrwt>
</event>
<event>
12    4  0.4424320E-008  0.2300787E+04  0.7818608E-02  0.8477611E-01
          1   -1    0    0  501    0  0.00000000000E+00  0.00000000000E+00  0.14990197039E+04  0.14990197039E+04  0.00000000000E+00 0. -1.
         -2   -1    0    0    0  501 -0.00000000000E+00 -0.00000000000E+00 -0.88284710621E+03  0.88284710621E+03  0.00000000000E+00 0.  1.
        -24    2    1    2    0    0  0.28849867299E+03  0.12041305318E+03  0.12332034135E+04  0.12747946241E+04  0.81116501303E+02 0.  0.
        254    2    1    2    0    0 -0.28849867299E+03 -0.12041305318E+03 -0.61703081584E+03  0.11070721860E+04  0.86437897340E+03 0.  0.
         23    2    4    4    0    0 -0.27366348633E+03  0.33993183595E+03 -0.24408870085E+03  0.50786777101E+03  0.88910191220E+02 0.  0.
         23    2    4    4    0    0 -0.14835186656E+02 -0.46034488913E+03 -0.37294211499E+03  0.59920441500E+03  0.88445520601E+02 0.  0.
          1    1    3    3  502    0  0.24727955686E+03  0.12319957228E+03  0.97813662260E+03  0.10164037418E+04  0.00000000000E+00 0. -1.
         -2    1    3    3    0  502  0.41219116126E+02 -0.27865190986E+01  0.25506679091E+03  0.25839088228E+03  0.00000000000E+00 0.  1.
         11    1    5    5    0    0 -0.21911393375E+03  0.31241169726E+03 -0.19004313086E+03  0.42629611320E+03  0.00000000000E+00 0.  1.
        -11    1    5    5    0    0 -0.54549552588E+02  0.27520138686E+02 -0.54045569994E+02  0.81571657804E+02  0.00000000000E+00 0. -1.
          4    1    6    6  503    0  0.38949821665E+01 -0.44434814125E+03 -0.35376776781E+03  0.56798950259E+03  0.00000000000E+00 0.  1.
         -4    1    6    6    0  503 -0.18730168823E+02 -0.15996747886E+02 -0.19174347183E+02  0.31214912413E+02  0.00000000000E+00 0. -1.
<mgrwt>
<rscale>  0 0.23007870E+04</rscale>
<asrwt>0</asrwt>
<pdfrwt beam="1">  1        1 0.23061842E+00 0.23007870E+04</pdfrwt>
<pdfrwt beam="2">  1       -2 0.13582263E+00 0.23007870E+04</pdfrwt>
<totfact> 0.20195307E+00</totfact>
</mgrwt>
</event>
<event>
12    4  0.4424320E-008  0.2174482E+04  0.7818608E-02  0.8529125E-01
          1   -1    0    0  501    0  0.00000000000E+00  0.00000000000E+00  0.95516578470E+03  0.95516578470E+03  0.00000000000E+00 0. -1.
         -2   -1    0    0    0  501 -0.00000000000E+00 -0.00000000000E+00 -0.12375786768E+04  0.12375786768E+04  0.00000000000E+00 0.  1.
        -24    2    1    2    0    0 -0.24173665523E+03 -0.27780226161E+03 -0.94297892286E+03  0.10156149143E+04  0.81570204429E+02 0.  0.
        254    2    1    2    0    0  0.24173665523E+03  0.27780226161E+03  0.66056603073E+03  0.11771295472E+04  0.90203979007E+03 0.  0.
         23    2    4    4    0    0  0.36315216705E+03 -0.21617260370E+03  0.43944596582E+03  0.61638400291E+03  0.90589133737E+02 0.  0.
         23    2    4    4    0    0 -0.12141551182E+03  0.49397486531E+03  0.22112006492E+03  0.56074554428E+03  0.82392889542E+02 0.  0.
          1    1    3    3  502    0 -0.13004018251E+03 -0.11695256479E+03 -0.53917830127E+03  0.56683471316E+03  0.00000000000E+00 0. -1.
         -2    1    3    3    0  502 -0.11169647272E+03 -0.16084969682E+03 -0.40380062159E+03  0.44878020119E+03  0.00000000000E+00 0.  1.
         11    1    5    5    0    0  0.26477996953E+03 -0.12734954834E+03  0.25362951875E+03  0.38814207774E+03  0.00000000000E+00 0. -1.
        -11    1    5    5    0    0  0.98372197513E+02 -0.88823055359E+02  0.18581644706E+03  0.22824192517E+03  0.00000000000E+00 0.  1.
          4    1    6    6  503    0 -0.77618241747E+02  0.18531785446E+03  0.11459467750E+03  0.23129902452E+03  0.00000000000E+00 0. -1.
         -4    1    6    6    0  503 -0.43797270074E+02  0.30865701085E+03  0.10652538741E+03  0.32944651975E+03  0.00000000000E+00 0.  1.
<mgrwt>
<rscale>  0 0.21744818E+04</rscale>
<asrwt>0</asrwt>
<pdfrwt beam="1">  1        1 0.14694858E+00 0.21744818E+04</pdfrwt>
<pdfrwt beam="2">  1       -2 0.19039672E+00 0.21744818E+04</pdfrwt>
<totfact> 0.20256297E+00</totfact>
</mgrwt>
</event>
<event>
12    4  0.4424320E-008  0.1277682E+04  0.7818608E-02  0.9047453E-01
         -2   -1    0    0    0  501 -0.00000000000E+00  0.00000000000E+00  0.12566394620E+04  0.12566394620E+04  0.00000000000E+00 0.  1.
          1   -1    0    0  501    0  0.00000000000E+00 -0.00000000000E+00 -0.32476918790E+03  0.32476918790E+03  0.00000000000E+00 0. -1.
        -24    2    1    2    0    0 -0.63898345274E+02 -0.21721419444E+03 -0.34947815137E+02  0.24328313131E+03  0.81855527638E+02 0.  0.
        254    2    1    2    0    0  0.63898345274E+02  0.21721419444E+03  0.96681808921E+03  0.13381255186E+04  0.89698254218E+03 0.  0.
         23    2    4    4    0    0 -0.35237729147E+03  0.19119356059E+03  0.19144916136E+03  0.45292499771E+03  0.88110947136E+02 0.  0.
         23    2    4    4    0    0  0.41627563675E+03  0.26020633844E+02  0.77536892785E+03  0.88520052084E+03  0.91763329814E+02 0.  0.
          1    1    3    3  502    0 -0.73364206261E+02 -0.21725358099E+03 -0.39657260702E+02  0.23271038555E+03  0.00000000000E+00 0. -1.
         -2    1    3    3    0  502  0.94658609865E+01  0.39386556308E-01  0.47094455650E+01  0.10572745767E+02  0.00000000000E+00 0.  1.
         11    1    5    5    0    0 -0.32647032898E+03  0.17732887744E+03  0.20050989958E+03  0.42217606079E+03  0.00000000000E+00 0. -1.
        -11    1    5    5    0    0 -0.25906962490E+02  0.13864683153E+02 -0.90607382129E+01  0.30748936914E+02  0.00000000000E+00 0.  1.
          4    1    6    6  503    0  0.18930209400E+02 -0.12740412813E+02  0.81932500804E+02  0.85050606315E+02  0.00000000000E+00 0.  1.
         -4    1    6    6    0  503  0.39734542735E+03  0.38761046658E+02  0.69343642704E+03  0.80014991453E+03  0.00000000000E+00 0. -1.
<mgrwt>
<rscale>  0 0.12776819E+04</rscale>
<asrwt>0</asrwt>
<pdfrwt beam="1">  1        1 0.49964491E-01 0.12776819E+04</pdfrwt>
<pdfrwt beam="2">  1       -2 0.19332915E+00 0.12776819E+04</pdfrwt>
<totfact> 0.99891070E+00</totfact>
</mgrwt>
</event>
<event>
12    4  0.4424320E-008  0.1290721E+04  0.7818608E-02  0.9036956E-01
          1   -1    0    0  501    0  0.00000000000E+00  0.00000000000E+00  0.18154860680E+04  0.18154860680E+04  0.00000000000E+00 0. -1.
         -2   -1    0    0    0  501 -0.00000000000E+00 -0.00000000000E+00 -0.22940956969E+03  0.22940956969E+03  0.00000000000E+00 0.  1.
        -24    2    1    2    0    0 -0.12384696257E+03  0.28707452951E+03  0.41992299159E+03  0.52969462397E+03  0.80568108868E+02 0.  0.
        254    2    1    2    0    0  0.12384696257E+03 -0.28707452951E+03  0.11661535067E+04  0.15152010137E+04  0.91551638711E+03 0.  0.
         23    2    4    4    0    0 -0.37952885210E+03 -0.17963582316E+03  0.40885072360E+03  0.59387761924E+03  0.96023611190E+02 0.  0.
         23    2    4    4    0    0  0.50337581467E+03 -0.10743870636E+03  0.75730278310E+03  0.92132339446E+03  0.10197551403E+03 0.  0.
          3    1    3    3  502    0 -0.45644516808E+02  0.11560638063E+03  0.23399643405E+03  0.26495771041E+03  0.00000000000E+00 0. -1.
         -4    1    3    3    0  502 -0.78202445765E+02  0.17146814888E+03  0.18592655753E+03  0.26473691356E+03  0.00000000000E+00 0.  1.
         11    1    5    5    0    0 -0.35137857306E+03 -0.13192865204E+03  0.35770795797E+03  0.51848534601E+03  0.00000000000E+00 0. -1.
        -11    1    5    5    0    0 -0.28150279042E+02 -0.47707171115E+02  0.51142765629E+02  0.75392273226E+02  0.00000000000E+00 0.  1.
          3    1    6    6  503    0  0.29991681136E+03 -0.79578333320E+02  0.36952881445E+03  0.48252911785E+03  0.00000000000E+00 0. -1.
         -3    1    6    6    0  503  0.20345900331E+03 -0.27860373036E+02  0.38777396865E+03  0.43879427660E+03  0.00000000000E+00 0.  1.
<mgrwt>
<rscale>  0 0.12907205E+04</rscale>
<asrwt>0</asrwt>
<pdfrwt beam="1">  1        1 0.27930554E+00 0.12907205E+04</pdfrwt>
<pdfrwt beam="2">  1       -2 0.35293781E-01 0.12907205E+04</pdfrwt>
<totfact> 0.25886647E+01</totfact>
</mgrwt>
</event>
<event>
12    4  0.4424320E-008  0.1357481E+04  0.7818608E-02  0.8985184E-01
         -2   -1    0    0    0  501 -0.00000000000E+00  0.00000000000E+00  0.25021272157E+03  0.25021272157E+03  0.00000000000E+00 0.  1.
          1   -1    0    0  501    0  0.00000000000E+00 -0.00000000000E+00 -0.18411877646E+04  0.18411877646E+04  0.00000000000E+00 0. -1.
        -24    2    1    2    0    0 -0.14434449336E+03 -0.22752279757E+03 -0.44716884469E+02  0.28469785759E+03  0.80320073348E+02 0.  0.
        254    2    1    2    0    0  0.14434449336E+03  0.22752279757E+03 -0.15462581586E+04  0.18067026286E+04  0.89479502626E+03 0.  0.
         23    2    4    4    0    0  0.28266141468E+03  0.27924277179E+03 -0.20734739828E+03  0.45650215646E+03  0.86759865947E+02 0.  0.
         23    2    4    4    0    0 -0.13831692131E+03 -0.51719974223E+02 -0.13389107603E+04  0.13502004721E+04  0.92481157151E+02 0.  0.
          3    1    3    3  502    0 -0.12546147746E+03 -0.15807530369E+03 -0.61155814239E+02  0.21087536029E+03  0.00000000000E+00 0. -1.
         -4    1    3    3    0  502 -0.18883015906E+02 -0.69447493879E+02  0.16438929770E+02  0.73822497301E+02  0.00000000000E+00 0.  1.
         11    1    5    5    0    0  0.58297563713E+02  0.11222574347E+03 -0.75432728861E+02  0.14725257219E+03  0.00000000000E+00 0.  1.
        -11    1    5    5    0    0  0.22436385096E+03  0.16701702832E+03 -0.13191466942E+03  0.30924958428E+03  0.00000000000E+00 0. -1.
          4    1    6    6  503    0 -0.74635268884E+02 -0.23957784303E+02 -0.10552282739E+04  0.10581356760E+04  0.00000000000E+00 0. -1.
         -4    1    6    6    0  503 -0.63681652431E+02 -0.27762189919E+02 -0.28368248642E+03  0.29206479614E+03  0.00000000000E+00 0.  1.
<mgrwt>
<rscale>  0 0.13574809E+04</rscale>
<asrwt>0</asrwt>
<pdfrwt beam="1">  1        1 0.28325967E+00 0.13574809E+04</pdfrwt>
<pdfrwt beam="2">  1       -2 0.38494264E-01 0.13574809E+04</pdfrwt>
<totfact> 0.20919604E+01</totfact>
</mgrwt>
</event>
<event>
12    4  0.4424320E-008  0.1643134E+04  0.7818608E-02  0.8794479E-01
         -2   -1    0    0    0  501 -0.00000000000E+00  0.00000000000E+00  0.58941559405E+03  0.58941559405E+03  0.00000000000E+00 0.  1.
          1   -1    0    0  501    0  0.00000000000E+00 -0.00000000000E+00 -0.11451547209E+04  0.11451547209E+04  0.00000000000E+00 0. -1.
        -24    2    1    2    0    0  0.52427879516E+03  0.82714378174E+02  0.55107407747E+02  0.54143856745E+03  0.91700449952E+02 0.  0.
        254    2    1    2    0    0 -0.52427879516E+03 -0.82714378174E+02 -0.61084653462E+03  0.11931317475E+04  0.87676676184E+03 0.  0.
         23    2    4    4    0    0 -0.15740902347E+02  0.34363183271E+03 -0.21057826743E+03  0.41345138665E+03  0.90929807806E+02 0.  0.
         23    2    4    4    0    0 -0.50853789281E+03 -0.42634621089E+03 -0.40026826718E+03  0.77968036087E+03  0.85468704454E+02 0.  0.
          1    1    3    3  502    0  0.71964405766E+02  0.12658841135E+02 -0.24073297082E+02  0.76932734181E+02  0.00000000000E+00 0. -1.
         -2    1    3    3    0  502  0.45231438939E+03  0.70055537038E+02  0.79180704830E+02  0.46450583327E+03  0.00000000000E+00 0.  1.
         11    1    5    5    0    0  0.37750033601E+02  0.16895501755E+03 -0.10328475678E+03  0.20159018819E+03  0.00000000000E+00 0.  1.
        -11    1    5    5    0    0 -0.53490935947E+02  0.17467681517E+03 -0.10729351066E+03  0.21186119846E+03  0.00000000000E+00 0. -1.
          3    1    6    6  503    0 -0.65927686787E+02 -0.83578816497E+02 -0.38771219498E+02  0.11329203817E+03  0.00000000000E+00 0. -1.
         -3    1    6    6    0  503 -0.44261020603E+03 -0.34276739439E+03 -0.36149704769E+03  0.66638832269E+03  0.00000000000E+00 0.  1.
<mgrwt>
<rscale>  0 0.16431337E+04</rscale>
<asrwt>0</asrwt>
<pdfrwt beam="1">  1        1 0.17617765E+00 0.16431337E+04</pdfrwt>
<pdfrwt beam="2">  1       -2 0.90679322E-01 0.16431337E+04</pdfrwt>
<totfact> 0.10214805E+01</totfact>
</mgrwt>
</event>
<event>
12    4  0.4424320E-008  0.1965068E+04  0.7818608E-02  0.8623129E-01
          1   -1    0    0  501    0  0.00000000000E+00  0.00000000000E+00  0.14648009758E+04  0.14648009758E+04  0.00000000000E+00 0. -1.
         -2   -1    0    0    0  501 -0.00000000000E+00 -0.00000000000E+00 -0.65904755792E+03  0.65904755792E+03  0.00000000000E+00 0.  1.
        -24    2    1    2    0    0  0.77874839049E+03  0.16800807073E+02  0.27361217573E+03  0.82970384088E+03  0.82544037078E+02 0.  0.
        254    2    1    2    0    0 -0.77874839049E+03 -0.16800807073E+02  0.53214124214E+03  0.12941446928E+04  0.88594856599E+03 0.  0.
         23    2    4    4    0    0 -0.48733719958E+03 -0.17703016296E+03  0.72728683556E+03  0.89781460458E+03  0.91036796512E+02 0.  0.
         23    2    4    4    0    0 -0.29141119091E+03  0.16022935589E+03 -0.19514559342E+03  0.39633008825E+03  0.91661374326E+02 0.  0.
          1    1    3    3  502    0  0.28941053781E+03 -0.39560882568E+01  0.14285623486E+03  0.32277238709E+03  0.00000000000E+00 0. -1.
         -4    1    3    3    0  502  0.48933785268E+03  0.20756895330E+02  0.13075594086E+03  0.50693145379E+03  0.00000000000E+00 0.  1.
         11    1    5    5    0    0 -0.29261355969E+03 -0.12778277198E+03  0.51181433809E+03  0.60324542999E+03  0.00000000000E+00 0.  1.
        -11    1    5    5    0    0 -0.19472363989E+03 -0.49247390978E+02  0.21547249747E+03  0.29456917459E+03  0.00000000000E+00 0. -1.
          2    1    6    6  503    0 -0.98574209080E+01  0.27323880732E+02 -0.31547428043E+00  0.29049315469E+02  0.00000000000E+00 0. -1.
         -2    1    6    6    0  503 -0.28155377001E+03  0.13290547516E+03 -0.19483011914E+03  0.36728077278E+03  0.00000000000E+00 0.  1.
<mgrwt>
<rscale>  0 0.19650685E+04</rscale>
<asrwt>0</asrwt>
<pdfrwt beam="1">  1        1 0.22535399E+00 0.19650685E+04</pdfrwt>
<pdfrwt beam="2">  1       -2 0.10139193E+00 0.19650685E+04</pdfrwt>
<totfact> 0.45172227E+00</totfact>
</mgrwt>
</event>
<event>
12    4  0.4424320E-008  0.2144267E+04  0.7818608E-02  0.8541990E-01
          1   -1    0    0  501    0  0.00000000000E+00  0.00000000000E+00  0.17478342204E+04  0.17478342204E+04  0.00000000000E+00 0. -1.
         -2   -1    0    0    0  501 -0.00000000000E+00 -0.00000000000E+00 -0.65765402255E+03  0.65765402255E+03  0.00000000000E+00 0.  1.
        -24    2    1    2    0    0  0.18485606683E+03 -0.10829739063E+03  0.14237613902E+04  0.14420440442E+04  0.80588081873E+02 0.  0.
        254    2    1    2    0    0 -0.18485606683E+03  0.10829739063E+03 -0.33358119236E+03  0.96344419874E+03  0.87809351548E+03 0.  0.
         23    2    4    4    0    0  0.27697474271E+03 -0.16603657479E+03 -0.23857953590E+02  0.33661494335E+03  0.91963394175E+02 0.  0.
         23    2    4    4    0    0 -0.46183080955E+03  0.27433396542E+03 -0.30972323877E+03  0.62682925539E+03  0.91867347540E+02 0.  0.
          1    1    3    3  502    0  0.31119602235E+02 -0.60245476040E+02  0.43040266205E+03  0.43571137066E+03  0.00000000000E+00 0. -1.
         -2    1    3    3    0  502  0.15373646460E+03 -0.48051914587E+02  0.99335872815E+03  0.10063326735E+04  0.00000000000E+00 0.  1.
         11    1    5    5    0    0  0.21820611523E+03 -0.10647727062E+03  0.17208709436E+02  0.24340800637E+03  0.00000000000E+00 0. -1.
        -11    1    5    5    0    0  0.58768627477E+02 -0.59559304178E+02 -0.41066663026E+02  0.93206936983E+02  0.00000000000E+00 0.  1.
          2    1    6    6  503    0 -0.36539250104E+03  0.25763057454E+03 -0.25515034713E+03  0.51476877566E+03  0.00000000000E+00 0. -1.
         -2    1    6    6    0  503 -0.96438308508E+02  0.16703390882E+02 -0.54572891636E+02  0.11206047973E+03  0.00000000000E+00 0.  1.
<mgrwt>
<rscale>  0 0.21442670E+04</rscale>
<asrwt>0</asrwt>
<pdfrwt beam="1">  1        1 0.26889757E+00 0.21442670E+04</pdfrwt>
<pdfrwt beam="2">  1       -2 0.10117754E+00 0.21442670E+04</pdfrwt>
<totfact> 0.28572162E+00</totfact>
</mgrwt>
</event>
<event>
12    4  0.4424320E-008  0.1567143E+04  0.7818608E-02  0.8840991E-01
         -2   -1    0    0    0  501 -0.00000000000E+00  0.00000000000E+00  0.42788886302E+03  0.42788886302E+03  0.00000000000E+00 0.  1.
          1   -1    0    0  501    0  0.00000000000E+00 -0.00000000000E+00 -0.14349160563E+04  0.14349160563E+04  0.00000000000E+00 0. -1.
        -24    2    1    2    0    0 -0.27836649213E+03 -0.10130840269E+03  0.16826500191E+03  0.34974862840E+03  0.79118239383E+02 0.  0.
        254    2    1    2    0    0  0.27836649213E+03  0.10130840269E+03 -0.11752921951E+04  0.15130562909E+04  0.90569106157E+03 0.  0.
         23    2    4    4    0    0 -0.31775492079E+02 -0.28320063697E+03 -0.81795345059E+02  0.30968082873E+03  0.89439669792E+02 0.  0.
         23    2    4    4    0    0  0.31014198421E+03  0.38450903966E+03 -0.10934968501E+04  0.12033754622E+04  0.91333946686E+02 0.  0.
          1    1    3    3  502    0 -0.18327721190E+03 -0.56304322331E+02  0.65304133559E+02  0.20254713766E+03  0.00000000000E+00 0. -1.
         -2    1    3    3    0  502 -0.95089280231E+02 -0.45004080359E+02  0.10296086835E+03  0.14720149074E+03  0.00000000000E+00 0.  1.
         11    1    5    5    0    0 -0.48535801732E+02 -0.25580473320E+03 -0.51262049323E+02  0.26536688429E+03  0.00000000000E+00 0.  1.
        -11    1    5    5    0    0  0.16760309653E+02 -0.27395903763E+02 -0.30533295736E+02  0.44313944432E+02  0.00000000000E+00 0. -1.
          1    1    6    6  503    0  0.46285478975E+02  0.24289474484E+02 -0.16518746791E+03  0.17326056588E+03  0.00000000000E+00 0. -1.
         -1    1    6    6    0  503  0.26385650523E+03  0.36021956517E+03 -0.92830938218E+03  0.10301148963E+04  0.00000000000E+00 0.  1.
<mgrwt>
<rscale>  0 0.15671434E+04</rscale>
<asrwt>0</asrwt>
<pdfrwt beam="1">  1        1 0.22075632E+00 0.15671434E+04</pdfrwt>
<pdfrwt beam="2">  1       -2 0.65829056E-01 0.15671434E+04</pdfrwt>
<totfact> 0.13021615E+01</totfact>
</mgrwt>
</event>
<event>
12    4  0.4424320E-008  0.1400296E+04  0.7818608E-02  0.8953605E-01
         -2   -1    0    0    0  501 -0.00000000000E+00  0.00000000000E+00  0.39200636234E+03  0.39200636234E+03  0.00000000000E+00 0.  1.
          1   -1    0    0  501    0  0.00000000000E+00 -0.00000000000E+00 -0.12505075130E+04  0.12505075130E+04  0.00000000000E+00 0. -1.
        -24    2    1    2    0    0 -0.13342832243E+03 -0.13911743704E+03  0.16719589177E+03  0.26700920548E+03  0.78629962956E+02 0.  0.
        254    2    1    2    0    0  0.13342832243E+03  0.13911743704E+03 -0.10256970424E+04  0.13755046698E+04  0.89599212910E+03 0.  0.
         23    2    4    4    0    0 -0.25658471876E+03  0.35335477061E+03 -0.37870500243E+03  0.58511956422E+03  0.90841145720E+02 0.  0.
         23    2    4    4    0    0  0.39001304120E+03 -0.21423733358E+03 -0.64699204000E+03  0.79038510562E+03  0.90011710156E+02 0.  0.
          3    1    3    3  502    0 -0.95075967494E+02 -0.46628085147E+02  0.66711190780E+02  0.12515590635E+03  0.00000000000E+00 0. -1.
         -4    1    3    3    0  502 -0.38352354939E+02 -0.92489351888E+02  0.10048470099E+03  0.14185329913E+03  0.00000000000E+00 0.  1.
         11    1    5    5    0    0 -0.25244806926E+03  0.35654418960E+03 -0.38075640479E+03  0.57950774507E+03  0.00000000000E+00 0.  1.
        -11    1    5    5    0    0 -0.41366494989E+01 -0.31894189822E+01  0.20514023643E+01  0.56118191507E+01  0.00000000000E+00 0. -1.
          4    1    6    6  503    0  0.27957968260E+01 -0.11923153326E+02 -0.44562868600E+02  0.46215011879E+02  0.00000000000E+00 0. -1.
         -4    1    6    6    0  503  0.38721724437E+03 -0.20231418025E+03 -0.60242917140E+03  0.74417009374E+03  0.00000000000E+00 0.  1.
<mgrwt>
<rscale>  0 0.14002955E+04</rscale>
<asrwt>0</asrwt>
<pdfrwt beam="1">  1        1 0.19238577E+00 0.14002955E+04</pdfrwt>
<pdfrwt beam="2">  1       -2 0.60308671E-01 0.14002955E+04</pdfrwt>
<totfact> 0.21512373E+01</totfact>
</mgrwt>
</event>
<event>
12    4  0.4424320E-008  0.2067273E+04  0.7818608E-02  0.8575799E-01
          1   -1    0    0  501    0  0.00000000000E+00  0.00000000000E+00  0.20907108064E+04  0.20907108064E+04  0.00000000000E+00 0. -1.
         -2   -1    0    0    0  501 -0.00000000000E+00 -0.00000000000E+00 -0.51102437562E+03  0.51102437562E+03  0.00000000000E+00 0.  1.
        -24    2    1    2    0    0 -0.26027237607E+03  0.62710330065E+02  0.16371002828E+04  0.16605152603E+04  0.74426463278E+02 0.  0.
        254    2    1    2    0    0  0.26027237607E+03 -0.62710330065E+02 -0.57413851981E+02  0.94121992178E+03  0.90051335110E+03 0.  0.
         23    2    4    4    0    0  0.55201509113E+03  0.57315004990E+02 -0.18152997932E+03  0.59000557027E+03  0.84544478991E+02 0.  0.
         23    2    4    4    0    0 -0.29174271506E+03 -0.12002533506E+03  0.12411612734E+03  0.35121435151E+03  0.91797684044E+02 0.  0.
          1    1    3    3  502    0 -0.25963607475E+03  0.62194109314E+02  0.15105475764E+04  0.15339599014E+04  0.00000000000E+00 0. -1.
         -2    1    3    3    0  502 -0.63630132137E+00  0.51622075168E+00  0.12655270641E+03  0.12655535888E+03  0.00000000000E+00 0.  1.
         11    1    5    5    0    0  0.32217102264E+03  0.43129813323E+00 -0.77381505430E+02  0.33133404780E+03  0.00000000000E+00 0.  1.
        -11    1    5    5    0    0  0.22984406849E+03  0.56883706857E+02 -0.10414847389E+03  0.25867152247E+03  0.00000000000E+00 0. -1.
          3    1    6    6  503    0  0.32810177187E+01 -0.12546198035E+02  0.12395308579E+02  0.17939226214E+02  0.00000000000E+00 0. -1.
         -3    1    6    6    0  503 -0.29502373278E+03 -0.10747913702E+03  0.11172081876E+03  0.33327512529E+03  0.00000000000E+00 0.  1.
<mgrwt>
<rscale>  0 0.20672728E+04</rscale>
<asrwt>0</asrwt>
<pdfrwt beam="1">  1        1 0.32164781E+00 0.20672728E+04</pdfrwt>
<pdfrwt beam="2">  1       -2 0.78619136E-01 0.20672728E+04</pdfrwt>
<totfact> 0.30110123E+00</totfact>
</mgrwt>
</event>
<event>
12    4  0.4424320E-008  0.1685944E+04  0.7818608E-02  0.8769422E-01
          1   -1    0    0  501    0  0.00000000000E+00  0.00000000000E+00  0.20880865475E+04  0.20880865475E+04  0.00000000000E+00 0. -1.
         -2   -1    0    0    0  501 -0.00000000000E+00 -0.00000000000E+00 -0.34031226357E+03  0.34031226357E+03  0.00000000000E+00 0.  1.
        -24    2    1    2    0    0 -0.53140755245E+03 -0.28696614300E+03  0.73640567651E+03  0.95581830243E+03  0.80942898552E+02 0.  0.
        254    2    1    2    0    0  0.53140755245E+03  0.28696614300E+03  0.10113686074E+04  0.14725805086E+04  0.88367603808E+03 0.  0.
         23    2    4    4    0    0  0.17764695258E+03  0.37854031901E+03  0.10107098430E+04  0.10971502360E+04  0.85749873677E+02 0.  0.
         23    2    4    4    0    0  0.35376059987E+03 -0.91574176017E+02  0.65876444054E+00  0.37543027261E+03  0.86110765207E+02 0.  0.
          3    1    3    3  502    0 -0.37567478902E+03 -0.21440149987E+03  0.57958841967E+03  0.72320279761E+03  0.00000000000E+00 0. -1.
         -4    1    3    3    0  502 -0.15573276344E+03 -0.72564643131E+02  0.15681725684E+03  0.23261550482E+03  0.00000000000E+00 0.  1.
         11    1    5    5    0    0  0.14801695900E+03  0.35744528594E+03  0.95740743002E+03  0.10326205206E+04  0.00000000000E+00 0.  1.
        -11    1    5    5    0    0  0.29629993580E+02  0.21095033078E+02  0.53302412932E+02  0.64529715360E+02  0.00000000000E+00 0. -1.
          1    1    6    6  503    0  0.91714946936E+01  0.25864738257E+01 -0.15105585700E+02  0.17860147846E+02  0.00000000000E+00 0. -1.
         -1    1    6    6    0  503  0.34458910518E+03 -0.94160649843E+02  0.15764350140E+02  0.35757012476E+03  0.00000000000E+00 0.  1.
<mgrwt>
<rscale>  0 0.16859436E+04</rscale>
<asrwt>0</asrwt>
<pdfrwt beam="1">  1        1 0.32124408E+00 0.16859436E+04</pdfrwt>
<pdfrwt beam="2">  1       -2 0.52355734E-01 0.16859436E+04</pdfrwt>
<totfact> 0.74816209E+00</totfact>
</mgrwt>
</event>
<event>
12    4  0.4424320E-008  0.2820884E+04  0.7818608E-02  0.8296814E-01
         -2   -1    0    0    0  501 -0.00000000000E+00  0.00000000000E+00  0.10068755320E+04  0.10068755320E+04  0.00000000000E+00 0.  1.
          1   -1    0    0  501    0  0.00000000000E+00 -0.00000000000E+00 -0.19757628215E+04  0.19757628215E+04  0.00000000000E+00 0. -1.
        -24    2    1    2    0    0 -0.18767595247E+03 -0.85579849380E+03 -0.13711104636E+04  0.16290247128E+04  0.78512971291E+02 0.  0.
        254    2    1    2    0    0  0.18767595247E+03  0.85579849380E+03  0.40222317407E+03  0.13536136407E+04  0.95019633836E+03 0.  0.
         23    2    4    4    0    0  0.20020511148E+03  0.61371483323E+03 -0.21340047074E+03  0.68591690155E+03  0.90632509221E+02 0.  0.
         23    2    4    4    0    0 -0.12529159005E+02  0.24208366057E+03  0.61562364481E+03  0.66769673917E+03  0.89805260970E+02 0.  0.
          3    1    3    3  502    0 -0.15815067504E+03 -0.80111528890E+03 -0.12921063907E+04  0.15285078564E+04  0.00000000000E+00 0. -1.
         -4    1    3    3    0  502 -0.29525277436E+02 -0.54683204905E+02 -0.79004072835E+02  0.10051685645E+03  0.00000000000E+00 0.  1.
         11    1    5    5    0    0  0.73929748099E+02  0.19084624109E+03 -0.11117726072E+03  0.23291259883E+03  0.00000000000E+00 0.  1.
        -11    1    5    5    0    0  0.12627536338E+03  0.42286859214E+03 -0.10222321003E+03  0.45300430272E+03  0.00000000000E+00 0. -1.
          3    1    6    6  503    0 -0.44652570850E+00  0.14047745315E+03  0.46382972903E+03  0.48463608178E+03  0.00000000000E+00 0. -1.
         -3    1    6    6    0  503 -0.12082633296E+02  0.10160620742E+03  0.15179391578E+03  0.18306065739E+03  0.00000000000E+00 0.  1.
<mgrwt>
<rscale>  0 0.28208844E+04</rscale>
<asrwt>0</asrwt>
<pdfrwt beam="1">  1        1 0.30396351E+00 0.28208844E+04</pdfrwt>
<pdfrwt beam="2">  1       -2 0.15490393E+00 0.28208844E+04</pdfrwt>
<totfact> 0.64649838E-01</totfact>
</mgrwt>
</event>
<event>
12    4  0.4424320E-008  0.1727689E+04  0.7818608E-02  0.8745728E-01
          1   -1    0    0  501    0  0.00000000000E+00  0.00000000000E+00  0.66012906345E+03  0.66012906345E+03  0.00000000000E+00 0. -1.
         -2   -1    0    0    0  501 -0.00000000000E+00 -0.00000000000E+00 -0.11304260464E+04  0.11304260464E+04  0.00000000000E+00 0.  1.
        -24    2    1    2    0    0  0.53403734396E+03  0.30105322372E+03 -0.40421653719E+02  0.61916838587E+03  0.76854744264E+02 0.  0.
        254    2    1    2    0    0 -0.53403734396E+03 -0.30105322372E+03 -0.42987532924E+03  0.11713867240E+04  0.90084689610E+03 0.  0.
         23    2    4    4    0    0 -0.37168861017E+03 -0.12928401485E+03 -0.69577446642E+03  0.80460919944E+03  0.91799108229E+02 0.  0.
         23    2    4    4    0    0 -0.16234873379E+03 -0.17176920887E+03  0.26589913718E+03  0.36677752456E+03  0.89227960233E+02 0.  0.
          1    1    3    3  502    0  0.47939429754E+03  0.28293302429E+03 -0.16718975280E+02  0.55691068663E+03  0.00000000000E+00 0. -1.
         -2    1    3    3    0  502  0.54643046418E+02  0.18120199425E+02 -0.23702678439E+02  0.62257699237E+02  0.00000000000E+00 0.  1.
         11    1    5    5    0    0 -0.24458322796E+03 -0.10259531600E+03 -0.38230897886E+03  0.46530302984E+03  0.00000000000E+00 0. -1.
        -11    1    5    5    0    0 -0.12710538221E+03 -0.26688698848E+02 -0.31346548756E+03  0.33930616959E+03  0.00000000000E+00 0.  1.
          2    1    6    6  503    0 -0.95900548275E+01 -0.35800875635E+02  0.88885069845E+02  0.96302790662E+02  0.00000000000E+00 0. -1.
         -2    1    6    6    0  503 -0.15275867896E+03 -0.13596833323E+03  0.17701406734E+03  0.27047473389E+03  0.00000000000E+00 0.  1.
<mgrwt>
<rscale>  0 0.17276887E+04</rscale>
<asrwt>0</asrwt>
<pdfrwt beam="1">  1        1 0.10155832E+00 0.17276887E+04</pdfrwt>
<pdfrwt beam="2">  1       -2 0.17391170E+00 0.17276887E+04</pdfrwt>
<totfact> 0.49437376E+00</totfact>
</mgrwt>
</event>
<event>
12    4  0.4424320E-008  0.2256196E+04  0.7818608E-02  0.8495395E-01
          1   -1    0    0  501    0  0.00000000000E+00  0.00000000000E+00  0.18640530757E+04  0.18640530757E+04  0.00000000000E+00 0. -1.
         -2   -1    0    0    0  501 -0.00000000000E+00 -0.00000000000E+00 -0.68270866776E+03  0.68270866776E+03  0.00000000000E+00 0.  1.
        -24    2    1    2    0    0 -0.67975712922E+03  0.53145997695E+03  0.92602506851E+03  0.12682425286E+04  0.79982635240E+02 0.  0.
        254    2    1    2    0    0  0.67975712922E+03 -0.53145997695E+03  0.25531933943E+03  0.12785192149E+04  0.90824223416E+03 0.  0.
         23    2    4    4    0    0  0.65739843932E+03 -0.49525551613E+03  0.53151348181E+03  0.98425015198E+03  0.93760578342E+02 0.  0.
         23    2    4    4    0    0  0.22358689897E+02 -0.36204460823E+02 -0.27619414238E+03  0.29426906290E+03  0.92197630670E+02 0.  0.
          1    1    3    3  502    0 -0.58439575560E+03  0.47172447559E+03  0.76734377299E+03  0.10737126459E+04  0.00000000000E+00 0. -1.
         -2    1    3    3    0  502 -0.95361373621E+02  0.59735501366E+02  0.15868129552E+03  0.19452988267E+03  0.00000000000E+00 0.  1.
         11    1    5    5    0    0  0.48949354985E+03 -0.41723992547E+03  0.40763968987E+03  0.76148749662E+03  0.00000000000E+00 0. -1.
        -11    1    5    5    0    0  0.16790488948E+03 -0.78015590664E+02  0.12387379194E+03  0.22276265537E+03  0.00000000000E+00 0.  1.
          1    1    6    6  503    0 -0.19978093062E+02 -0.52429257449E+02 -0.15914021953E+03  0.16874110557E+03  0.00000000000E+00 0. -1.
         -1    1    6    6    0  503  0.42336782959E+02  0.16224796625E+02 -0.11705392285E+03  0.12552795733E+03  0.00000000000E+00 0.  1.
<mgrwt>
<rscale>  0 0.22561961E+04</rscale>
<asrwt>0</asrwt>
<pdfrwt beam="1">  1        1 0.28677739E+00 0.22561961E+04</pdfrwt>
<pdfrwt beam="2">  1       -2 0.10503210E+00 0.22561961E+04</pdfrwt>
<totfact> 0.21574130E+00</totfact>
</mgrwt>
</event>
<event>
12    4  0.4424320E-008  0.1989266E+04  0.7818608E-02  0.8611656E-01
          1   -1    0    0  501    0  0.00000000000E+00  0.00000000000E+00  0.20543904158E+04  0.20543904158E+04  0.00000000000E+00 0. -1.
         -2   -1    0    0    0  501 -0.00000000000E+00 -0.00000000000E+00 -0.48155134420E+03  0.48155134420E+03  0.00000000000E+00 0.  1.
        -24    2    1    2    0    0  0.55482024397E+03 -0.45813680388E+03  0.15918862940E+03  0.74085347636E+03  0.76210363587E+02 0.  0.
        254    2    1    2    0    0 -0.55482024397E+03  0.45813680388E+03  0.14136504422E+04  0.17950882836E+04  0.84036869236E+03 0.  0.
         23    2    4    4    0    0 -0.52476612435E+02  0.57105459271E+03  0.68496616025E+03  0.89804673527E+03  0.91935604294E+02 0.  0.
         23    2    4    4    0    0 -0.50234363153E+03 -0.11291778882E+03  0.72868428192E+03  0.89704154833E+03  0.92753466482E+02 0.  0.
          1    1    3    3  502    0  0.19356262415E+03 -0.13414359626E+03  0.21747070084E+02  0.23650354954E+03  0.00000000000E+00 0. -1.
         -2    1    3    3    0  502  0.36125761981E+03 -0.32399320762E+03  0.13744155932E+03  0.50434992682E+03  0.00000000000E+00 0.  1.
         11    1    5    5    0    0 -0.43402858660E+02  0.56961928822E+03  0.66996482708E+03  0.88045602456E+03  0.00000000000E+00 0. -1.
        -11    1    5    5    0    0 -0.90737537746E+01  0.14353044860E+01  0.15001333170E+02  0.17590710714E+02  0.00000000000E+00 0.  1.
          3    1    6    6  503    0 -0.45396572232E+03 -0.87902269750E+02  0.68847916744E+03  0.82934627874E+03  0.00000000000E+00 0. -1.
         -3    1    6    6    0  503 -0.48377909216E+02 -0.25015519075E+02  0.40205114484E+02  0.67695269593E+02  0.00000000000E+00 0.  1.
<mgrwt>
<rscale>  0 0.19892657E+04</rscale>
<asrwt>0</asrwt>
<pdfrwt beam="1">  1        1 0.31606006E+00 0.19892657E+04</pdfrwt>
<pdfrwt beam="2">  1       -2 0.74084823E-01 0.19892657E+04</pdfrwt>
<totfact> 0.36623381E+00</totfact>
</mgrwt>
</event>
<event>
12    4  0.4424320E-008  0.1196230E+04  0.7818608E-02  0.9116163E-01
          1   -1    0    0  501    0  0.00000000000E+00  0.00000000000E+00  0.10769623459E+04  0.10769623459E+04  0.00000000000E+00 0. -1.
         -2   -1    0    0    0  501 -0.00000000000E+00 -0.00000000000E+00 -0.33217654236E+03  0.33217654236E+03  0.00000000000E+00 0.  1.
        -24    2    1    2    0    0 -0.17995698118E+03  0.30016294897E+02 -0.14248880002E+02  0.20247963067E+03  0.86657239865E+02 0.  0.
        254    2    1    2    0    0  0.17995698118E+03 -0.30016294897E+02  0.75903468352E+03  0.12066592576E+04  0.92011272137E+03 0.  0.
         23    2    4    4    0    0 -0.35395262480E+03  0.38839251027E+02  0.44477302142E+03  0.57723921078E+03  0.92688283219E+02 0.  0.
         23    2    4    4    0    0  0.53390960599E+03 -0.68855545924E+02  0.31426166210E+03  0.62942004678E+03  0.87227572762E+02 0.  0.
          3    1    3    3  502    0 -0.16545248261E+03  0.75716004652E+01  0.10632051043E+02  0.16596654375E+03  0.00000000000E+00 0. -1.
         -4    1    3    3    0  502 -0.14504498573E+02  0.22444694432E+02 -0.24880931045E+02  0.36513086923E+02  0.00000000000E+00 0.  1.
         11    1    5    5    0    0 -0.16370287086E+03 -0.23268068843E+02  0.23470203789E+03  0.28709768293E+03  0.00000000000E+00 0. -1.
        -11    1    5    5    0    0 -0.19024975395E+03  0.62107319870E+02  0.21007098354E+03  0.29014152785E+03  0.00000000000E+00 0.  1.
          3    1    6    6  503    0  0.58006400043E+02  0.10760939133E+02  0.12477510611E+02  0.60301148646E+02  0.00000000000E+00 0. -1.
         -3    1    6    6    0  503  0.47590320595E+03 -0.79616485057E+02  0.30178415148E+03  0.56911889813E+03  0.00000000000E+00 0.  1.
<mgrwt>
<rscale>  0 0.11962301E+04</rscale>
<asrwt>0</asrwt>
<pdfrwt beam="1">  1        1 0.16568651E+00 0.11962301E+04</pdfrwt>
<pdfrwt beam="2">  1       -2 0.51104084E-01 0.11962301E+04</pdfrwt>
<totfact> 0.41454675E+01</totfact>
</mgrwt>
</event>
<event>
12    4  0.4424320E-008  0.1289525E+04  0.7818608E-02  0.9037913E-01
          1   -1    0    0  501    0  0.00000000000E+00  0.00000000000E+00  0.29080624089E+04  0.29080624089E+04  0.00000000000E+00 0. -1.
         -2   -1    0    0    0  501 -0.00000000000E+00 -0.00000000000E+00 -0.14295384809E+03  0.14295384809E+03  0.00000000000E+00 0.  1.
        -24    2    1    2    0    0 -0.59078592481E+02  0.31636805954E+03  0.72946571941E+03  0.80106317038E+03  0.77478629060E+02 0.  0.
        254    2    1    2    0    0  0.59078592481E+02 -0.31636805954E+03  0.20356428414E+04  0.22499530866E+04  0.90270044036E+03 0.  0.
         23    2    4    4    0    0  0.29422587379E+03  0.18529704871E+03  0.11215006858E+04  0.11772811325E+04  0.85575788862E+02 0.  0.
         23    2    4    4    0    0 -0.23514728131E+03 -0.50166510825E+03  0.91414215558E+03  0.10726719541E+04  0.89482488469E+02 0.  0.
          3    1    3    3  502    0  0.10567379428E+02  0.11976061567E+03  0.31274024156E+03  0.33505332898E+03  0.00000000000E+00 0. -1.
         -4    1    3    3    0  502 -0.69645971909E+02  0.19660744387E+03  0.41672547785E+03  0.46600984140E+03  0.00000000000E+00 0.  1.
         11    1    5    5    0    0  0.25079499853E+02  0.20447530863E+01  0.16428841058E+03  0.16620422431E+03  0.00000000000E+00 0. -1.
        -11    1    5    5    0    0  0.26914637393E+03  0.18325229562E+03  0.95721227519E+03  0.10110769082E+04  0.00000000000E+00 0.  1.
          1    1    6    6  503    0 -0.43170487153E+02 -0.16790020440E+03  0.23579346087E+03  0.29266486941E+03  0.00000000000E+00 0. -1.
         -1    1    6    6    0  503 -0.19197679415E+03 -0.33376490385E+03  0.67834869471E+03  0.78000708468E+03  0.00000000000E+00 0.  1.
<mgrwt>
<rscale>  0 0.12895250E+04</rscale>
<asrwt>0</asrwt>
<pdfrwt beam="1">  1        1 0.44739417E+00 0.12895250E+04</pdfrwt>
<pdfrwt beam="2">  1       -2 0.21992902E-01 0.12895250E+04</pdfrwt>
<totfact> 0.10972796E+01</totfact>
</mgrwt>
</event>
<event>
12    4  0.4424320E-008  0.1490290E+04  0.7818608E-02  0.8890936E-01
          1   -1    0    0  501    0  0.00000000000E+00  0.00000000000E+00  0.12149759163E+04  0.12149759163E+04  0.00000000000E+00 0. -1.
         -2   -1    0    0    0  501 -0.00000000000E+00 -0.00000000000E+00 -0.45699732765E+03  0.45699732765E+03  0.00000000000E+00 0.  1.
        -24    2    1    2    0    0  0.32305627639E+03 -0.31981034772E+03  0.26253409780E+03  0.53084657881E+03  0.78929851785E+02 0.  0.
        254    2    1    2    0    0 -0.32305627639E+03  0.31981034772E+03  0.49544449083E+03  0.11411266651E+04  0.92198742189E+03 0.  0.
         23    2    4    4    0    0 -0.42675654304E+03 -0.51495452448E+02 -0.76084778807E+02  0.44572442890E+03  0.90046900543E+02 0.  0.
         23    2    4    4    0    0  0.10370026665E+03  0.37130580017E+03  0.57152926964E+03  0.69540223622E+03  0.91196609265E+02 0.  0.
          3    1    3    3  502    0  0.74223115030E+02 -0.55170449088E+02  0.21647867524E+02  0.94981468854E+02  0.00000000000E+00 0. -1.
         -4    1    3    3    0  502  0.24883316136E+03 -0.26463989863E+03  0.24088623028E+03  0.43586510996E+03  0.00000000000E+00 0.  1.
         11    1    5    5    0    0 -0.66748737083E+02 -0.33369297439E+02 -0.36561694575E+02  0.83100309410E+02  0.00000000000E+00 0. -1.
        -11    1    5    5    0    0 -0.36000780596E+03 -0.18126155009E+02 -0.39523084231E+02  0.36262411949E+03  0.00000000000E+00 0.  1.
          1    1    6    6  503    0  0.39403723670E+02  0.10146872022E+03  0.23717909322E+03  0.26096451269E+03  0.00000000000E+00 0. -1.
         -1    1    6    6    0  503  0.64296542981E+02  0.26983707995E+03  0.33435017642E+03  0.43443772353E+03  0.00000000000E+00 0.  1.
<mgrwt>
<rscale>  0 0.14902896E+04</rscale>
<asrwt>0</asrwt>
<pdfrwt beam="1">  1        1 0.18691937E+00 0.14902896E+04</pdfrwt>
<pdfrwt beam="2">  1       -2 0.70307281E-01 0.14902896E+04</pdfrwt>
<totfact> 0.16289974E+01</totfact>
</mgrwt>
</event>
<event>
12    4  0.4424320E-008  0.1887294E+04  0.7818608E-02  0.8661207E-01
         -2   -1    0    0    0  501 -0.00000000000E+00  0.00000000000E+00  0.40581530101E+03  0.40581530101E+03  0.00000000000E+00 0.  1.
          1   -1    0    0  501    0  0.00000000000E+00 -0.00000000000E+00 -0.21942735338E+04  0.21942735338E+04  0.00000000000E+00 0. -1.
        -24    2    1    2    0    0  0.54111992966E+03 -0.25907449850E+03 -0.12952489681E+03  0.61890276443E+03  0.79583659626E+02 0.  0.
        254    2    1    2    0    0 -0.54111992966E+03  0.25907449850E+03 -0.16589333360E+04  0.19811860704E+04  0.90172504580E+03 0.  0.
         23    2    4    4    0    0 -0.82239611815E+02  0.35665512578E+03 -0.16406352487E+03  0.41180935530E+03  0.93294546559E+02 0.  0.
         23    2    4    4    0    0 -0.45888031785E+03 -0.97580627279E+02 -0.14948698111E+04  0.15693767151E+04  0.90633309448E+02 0.  0.
          1    1    3    3  502    0  0.47749640419E+03 -0.19895418125E+03 -0.11839612954E+03  0.53066300581E+03  0.00000000000E+00 0. -1.
         -2    1    3    3    0  502  0.63623525471E+02 -0.60120317255E+02 -0.11128767272E+02  0.88239758619E+02  0.00000000000E+00 0.  1.
         11    1    5    5    0    0 -0.88031463534E+02  0.24521530638E+03 -0.81471903521E+02  0.27297940604E+03  0.00000000000E+00 0.  1.
        -11    1    5    5    0    0  0.57918517192E+01  0.11143981940E+03 -0.82591621352E+02  0.13882994926E+03  0.00000000000E+00 0. -1.
          1    1    6    6  503    0 -0.39640713055E+03 -0.86041844583E+02 -0.11691485429E+04  0.12375177282E+04  0.00000000000E+00 0. -1.
         -1    1    6    6    0  503 -0.62473187297E+02 -0.11538782696E+02 -0.32572126822E+03  0.33185898693E+03  0.00000000000E+00 0.  1.
<mgrwt>
<rscale>  0 0.18872941E+04</rscale>
<asrwt>0</asrwt>
<pdfrwt beam="1">  1        1 0.33758055E+00 0.18872941E+04</pdfrwt>
<pdfrwt beam="2">  1       -2 0.62433122E-01 0.18872941E+04</pdfrwt>
<totfact> 0.43047130E+00</totfact>
</mgrwt>
</event>
<event>
12    4  0.4424320E-008  0.1401722E+04  0.7818608E-02  0.8952573E-01
         -2   -1    0    0    0  501 -0.00000000000E+00  0.00000000000E+00  0.44441208345E+03  0.44441208345E+03  0.00000000000E+00 0.  1.
          1   -1    0    0  501    0  0.00000000000E+00 -0.00000000000E+00 -0.11052949185E+04  0.11052949185E+04  0.00000000000E+00 0. -1.
        -24    2    1    2    0    0  0.23490134872E+03  0.21449922226E+03  0.82748583305E+02  0.33810820264E+03  0.79254455256E+02 0.  0.
        254    2    1    2    0    0 -0.23490134872E+03 -0.21449922226E+03 -0.74363141831E+03  0.12115987993E+04  0.90210609359E+03 0.  0.
         23    2    4    4    0    0 -0.33870493139E+03 -0.50064179238E+03 -0.34518909886E+03  0.70223040324E+03  0.92783567708E+02 0.  0.
         23    2    4    4    0    0  0.10380358268E+03  0.28614257012E+03 -0.39844231944E+03  0.50936839602E+03  0.89705778655E+02 0.  0.
          1    1    3    3  502    0  0.54459952526E+02  0.28578191311E+02 -0.11199748738E+02  0.62514268927E+02  0.00000000000E+00 0. -1.
         -2    1    3    3    0  502  0.18044139619E+03  0.18592103095E+03  0.93948332043E+02  0.27559393372E+03  0.00000000000E+00 0.  1.
         11    1    5    5    0    0 -0.27920403207E+03 -0.33834670218E+03 -0.24685942580E+03  0.50336165777E+03  0.00000000000E+00 0.  1.
        -11    1    5    5    0    0 -0.59500899318E+02 -0.16229509020E+03 -0.98329673061E+02  0.19886874547E+03  0.00000000000E+00 0. -1.
          3    1    6    6  503    0 -0.14955885190E+02  0.29655659726E+02 -0.28206657378E+02  0.43574673563E+02  0.00000000000E+00 0. -1.
         -3    1    6    6    0  503  0.11875946787E+03  0.25648691040E+03 -0.37023566207E+03  0.46579372245E+03  0.00000000000E+00 0.  1.
<mgrwt>
<rscale>  0 0.14017224E+04</rscale>
<asrwt>0</asrwt>
<pdfrwt beam="1">  1        1 0.17004537E+00 0.14017224E+04</pdfrwt>
<pdfrwt beam="2">  1       -2 0.68371089E-01 0.14017224E+04</pdfrwt>
<totfact> 0.21017388E+01</totfact>
</mgrwt>
</event>
<event>
12    4  0.4424320E-008  0.3306537E+04  0.7818608E-02  0.8161234E-01
         -2   -1    0    0    0  501 -0.00000000000E+00  0.00000000000E+00  0.22321198331E+04  0.22321198331E+04  0.00000000000E+00 0.  1.
          1   -1    0    0  501    0  0.00000000000E+00 -0.00000000000E+00 -0.12245292511E+04  0.12245292511E+04  0.00000000000E+00 0. -1.
        -24    2    1    2    0    0  0.91678819614E+02  0.12999109046E+04 -0.37191038269E+03  0.13575500088E+04  0.80320157176E+02 0.  0.
        254    2    1    2    0    0 -0.91678819614E+02 -0.12999109046E+04  0.13795009648E+04  0.20990990754E+04  0.89722943029E+03 0.  0.
         23    2    4    4    0    0  0.16650490981E+01 -0.14021419378E+04  0.13032587045E+04  0.19163210247E+04  0.88307602999E+02 0.  0.
         23    2    4    4    0    0 -0.93343868712E+02  0.10223103313E+03  0.76242260236E+02  0.18277805069E+03  0.91818688778E+02 0.  0.
          1    1    3    3  502    0  0.67939964120E+02  0.12191741070E+04 -0.35601854289E+03  0.12719082297E+04  0.00000000000E+00 0. -1.
         -2    1    3    3    0  502  0.23738855494E+02  0.80736797630E+02 -0.15891839808E+02  0.85641779081E+02  0.00000000000E+00 0.  1.
         11    1    5    5    0    0  0.37677641558E+02 -0.82115465863E+03  0.73098692355E+03  0.11000256636E+04  0.00000000000E+00 0. -1.
        -11    1    5    5    0    0 -0.36012592460E+02 -0.58098727914E+03  0.57227178099E+03  0.81629536117E+03  0.00000000000E+00 0.  1.
          1    1    6    6  503    0 -0.33831002206E+02  0.14898793615E+02  0.67216892340E+02  0.76711285853E+02  0.00000000000E+00 0. -1.
         -1    1    6    6    0  503 -0.59512866507E+02  0.87332239511E+02  0.90253678960E+01  0.10606676484E+03  0.00000000000E+00 0.  1.
<mgrwt>
<rscale>  0 0.33065366E+04</rscale>
<asrwt>0</asrwt>
<pdfrwt beam="1">  1        1 0.18838912E+00 0.33065366E+04</pdfrwt>
<pdfrwt beam="2">  1       -2 0.34340305E+00 0.33065366E+04</pdfrwt>
<totfact> 0.12772511E-01</totfact>
</mgrwt>
</event>
<event>
12    4  0.4424320E-008  0.1589226E+04  0.7818608E-02  0.8827195E-01
         -2   -1    0    0    0  501 -0.00000000000E+00  0.00000000000E+00  0.14678634078E+04  0.14678634078E+04  0.00000000000E+00 0.  1.
          1   -1    0    0  501    0  0.00000000000E+00 -0.00000000000E+00 -0.43015543673E+03  0.43015543673E+03  0.00000000000E+00 0. -1.
        -24    2    1    2    0    0  0.25198686938E+03  0.39714128365E+03  0.56006317984E+02  0.48056787055E+03  0.81179979257E+02 0.  0.
        254    2    1    2    0    0 -0.25198686938E+03 -0.39714128365E+03  0.98170165310E+03  0.14174509740E+04  0.90786042234E+03 0.  0.
         23    2    4    4    0    0 -0.30989416743E+03 -0.39822490566E+03  0.93113177914E+02  0.52196321575E+03  0.95697775304E+02 0.  0.
         23    2    4    4    0    0  0.57907298049E+02  0.10836220081E+01  0.88858847519E+03  0.89548775824E+03  0.94627784097E+02 0.  0.
          3    1    3    3  502    0  0.25036782108E+03  0.39970983988E+03  0.60109904393E+02  0.47546314530E+03  0.00000000000E+00 0. -1.
         -4    1    3    3    0  502  0.16190483062E+01 -0.25685562303E+01 -0.41035864095E+01  0.51047252567E+01  0.00000000000E+00 0.  1.
         11    1    5    5    0    0 -0.28528913095E+02 -0.96058422536E+02  0.27411700129E+02  0.10388705755E+03  0.00000000000E+00 0.  1.
        -11    1    5    5    0    0 -0.28136525434E+03 -0.30216648312E+03  0.65701477785E+02  0.41807615820E+03  0.00000000000E+00 0. -1.
          2    1    6    6  503    0  0.11989738288E+02  0.26406538888E+02  0.78198191519E+02  0.83402735430E+02  0.00000000000E+00 0.  1.
         -2    1    6    6    0  503  0.45917559761E+02 -0.25322916880E+02  0.81039028367E+03  0.81208502281E+03  0.00000000000E+00 0. -1.
<mgrwt>
<rscale>  0 0.15892255E+04</rscale>
<asrwt>0</asrwt>
<pdfrwt beam="1">  1        1 0.66177760E-01 0.15892255E+04</pdfrwt>
<pdfrwt beam="2">  1       -2 0.22582514E+00 0.15892255E+04</pdfrwt>
<totfact> 0.41482503E+00</totfact>
</mgrwt>
</event>
<event>
12    4  0.4424320E-008  0.2133134E+04  0.7818608E-02  0.8546786E-01
         -2   -1    0    0    0  501 -0.00000000000E+00  0.00000000000E+00  0.45390099873E+03  0.45390099873E+03  0.00000000000E+00 0.  1.
          1   -1    0    0  501    0  0.00000000000E+00 -0.00000000000E+00 -0.25061973990E+04  0.25061973990E+04  0.00000000000E+00 0. -1.
        -24    2    1    2    0    0  0.60994175995E+03 -0.12217535652E+02  0.20346330747E+02  0.61560320202E+03  0.79844288861E+02 0.  0.
        254    2    1    2    0    0 -0.60994175995E+03  0.12217535652E+02 -0.20726427310E+04  0.23444951957E+04  0.91029204848E+03 0.  0.
         23    2    4    4    0    0 -0.57381485193E+03  0.30888147129E+03 -0.81017066101E+03  0.10441323527E+04  0.95732034180E+02 0.  0.
         23    2    4    4    0    0 -0.36126908013E+02 -0.29666393564E+03 -0.12624720700E+04  0.13003628430E+04  0.88278829506E+02 0.  0.
          3    1    3    3  502    0  0.88406474238E+02 -0.30158028353E+02  0.15847147971E+01  0.93422281509E+02  0.00000000000E+00 0. -1.
         -4    1    3    3    0  502  0.52153528571E+03  0.17940492701E+02  0.18761615950E+02  0.52218092052E+03  0.00000000000E+00 0.  1.
         11    1    5    5    0    0 -0.42009707638E+03  0.26349748707E+03 -0.57169865847E+03  0.75680369672E+03  0.00000000000E+00 0.  1.
        -11    1    5    5    0    0 -0.15371777555E+03  0.45383984214E+02 -0.23847200254E+03  0.28732865597E+03  0.00000000000E+00 0. -1.
          4    1    6    6  503    0 -0.31587729382E+02 -0.40343966127E+02 -0.14270713232E+03  0.15162699584E+03  0.00000000000E+00 0. -1.
         -4    1    6    6    0  503 -0.45391786312E+01 -0.25631996951E+03 -0.11197649377E+04  0.11487358472E+04  0.00000000000E+00 0.  1.
<mgrwt>
<rscale>  0 0.21331343E+04</rscale>
<asrwt>0</asrwt>
<pdfrwt beam="1">  1        1 0.38556882E+00 0.21331343E+04</pdfrwt>
<pdfrwt beam="2">  1       -2 0.69830924E-01 0.21331343E+04</pdfrwt>
<totfact> 0.20202007E+00</totfact>
</mgrwt>
</event>
<event>
12    4  0.4424320E-008  0.1894140E+04  0.7818608E-02  0.8657779E-01
         -2   -1    0    0    0  501 -0.00000000000E+00  0.00000000000E+00  0.13855148978E+04  0.13855148978E+04  0.00000000000E+00 0.  1.
          1   -1    0    0  501    0  0.00000000000E+00 -0.00000000000E+00 -0.64737027697E+03  0.64737027697E+03  0.00000000000E+00 0. -1.
        -24    2    1    2    0    0 -0.60330469765E+03 -0.11610032107E+03 -0.16563240055E+03  0.64133479658E+03  0.80127313930E+02 0.  0.
        254    2    1    2    0    0  0.60330469765E+03  0.11610032107E+03  0.90377702139E+03  0.13915503782E+04  0.86147763053E+03 0.  0.
         23    2    4    4    0    0  0.59585178517E+03  0.18134648141E+03  0.17229671113E+03  0.65160803588E+03  0.83552256403E+02 0.  0.
         23    2    4    4    0    0  0.74529124777E+01 -0.65246160339E+02  0.73148031026E+03  0.73994234231E+03  0.90214291018E+02 0.  0.
          3    1    3    3  502    0 -0.38460868003E+03 -0.85638944194E+02 -0.14381310712E+03  0.41945211323E+03  0.00000000000E+00 0. -1.
         -4    1    3    3    0  502 -0.21869601763E+03 -0.30461376875E+02 -0.21819293428E+02  0.22188268335E+03  0.00000000000E+00 0.  1.
         11    1    5    5    0    0  0.23959789062E+03  0.11604115884E+03  0.71487806549E+02  0.27565051464E+03  0.00000000000E+00 0.  1.
        -11    1    5    5    0    0  0.35625389455E+03  0.65305322569E+02  0.10080890458E+03  0.37595752125E+03  0.00000000000E+00 0. -1.
          4    1    6    6  503    0 -0.83325191745E+00  0.22965798399E+02  0.15315961159E+03  0.15487410638E+03  0.00000000000E+00 0. -1.
         -4    1    6    6    0  503  0.82861643952E+01 -0.88211958738E+02  0.57832069866E+03  0.58506823592E+03  0.00000000000E+00 0.  1.
<mgrwt>
<rscale>  0 0.18941396E+04</rscale>
<asrwt>0</asrwt>
<pdfrwt beam="1">  1        1 0.99595428E-01 0.18941396E+04</pdfrwt>
<pdfrwt beam="2">  1       -2 0.21315614E+00 0.18941396E+04</pdfrwt>
<totfact> 0.27429789E+00</totfact>
</mgrwt>
</event>
<event>
12    4  0.4424320E-008  0.2643853E+04  0.7818608E-02  0.8353456E-01
         -2   -1    0    0    0  501 -0.00000000000E+00  0.00000000000E+00  0.95365273627E+03  0.95365273627E+03  0.00000000000E+00 0.  1.
          1   -1    0    0  501    0  0.00000000000E+00 -0.00000000000E+00 -0.18324173048E+04  0.18324173048E+04  0.00000000000E+00 0. -1.
        -24    2    1    2    0    0 -0.10444792930E+03  0.48442960309E+03  0.72348210757E+03  0.88137717181E+03  0.88419164982E+02 0.  0.
        254    2    1    2    0    0  0.10444792930E+03 -0.48442960309E+03 -0.16022466761E+04  0.19046928693E+04  0.90281731536E+03 0.  0.
         23    2    4    4    0    0 -0.61470177844E+02 -0.25657288832E+03 -0.15826095996E+04  0.16074090791E+04  0.97481141052E+02 0.  0.
         23    2    4    4    0    0  0.16591810715E+03 -0.22785671476E+03 -0.19637076489E+02  0.29728379022E+03  0.92436661619E+02 0.  0.
          3    1    3    3  502    0 -0.81638890429E+02  0.24526678528E+03  0.43440997731E+03  0.50550245576E+03  0.00000000000E+00 0. -1.
         -4    1    3    3    0  502 -0.22809038875E+02  0.23916281781E+03  0.28907213026E+03  0.37587471605E+03  0.00000000000E+00 0.  1.
         11    1    5    5    0    0 -0.73825765179E+02 -0.24507495378E+03 -0.13408267438E+04  0.13650378505E+04  0.00000000000E+00 0. -1.
        -11    1    5    5    0    0  0.12355587335E+02 -0.11497934541E+02 -0.24178285585E+03  0.24237122853E+03  0.00000000000E+00 0.  1.
          1    1    6    6  503    0  0.13157556775E+03 -0.18616290013E+03 -0.52663950372E+02  0.23397061158E+03  0.00000000000E+00 0. -1.
         -1    1    6    6    0  503  0.34342539395E+02 -0.41693814632E+02  0.33026873883E+02  0.63313178637E+02  0.00000000000E+00 0.  1.
<mgrwt>
<rscale>  0 0.26438531E+04</rscale>
<asrwt>0</asrwt>
<pdfrwt beam="1">  1        1 0.28191035E+00 0.26438531E+04</pdfrwt>
<pdfrwt beam="2">  1       -2 0.14671581E+00 0.26438531E+04</pdfrwt>
<totfact> 0.94848497E-01</totfact>
</mgrwt>
</event>
<event>
12    4  0.4424320E-008  0.1725927E+04  0.7818608E-02  0.8746714E-01
          1   -1    0    0  501    0  0.00000000000E+00  0.00000000000E+00  0.23275052214E+04  0.23275052214E+04  0.00000000000E+00 0. -1.
         -2   -1    0    0    0  501 -0.00000000000E+00 -0.00000000000E+00 -0.31995907485E+03  0.31995907485E+03  0.00000000000E+00 0.  1.
        -24    2    1    2    0    0  0.48235752208E+03  0.39696219212E+03  0.85852434927E+03  0.10657081649E+04  0.91771854990E+02 0.  0.
        254    2    1    2    0    0 -0.48235752208E+03 -0.39696219212E+03  0.11490217973E+04  0.15817561313E+04  0.88963678394E+03 0.  0.
         23    2    4    4    0    0 -0.25820427511E+03  0.26412461118E+03  0.35258801534E+03  0.51871024967E+03  0.91163351379E+02 0.  0.
         23    2    4    4    0    0 -0.22415324697E+03 -0.66108680330E+03  0.79643378193E+03  0.10630458817E+04  0.92083320445E+02 0.  0.
          3    1    3    3  502    0  0.50551409713E+02  0.42898926661E+02  0.14674471776E+03  0.16102724963E+03  0.00000000000E+00 0. -1.
         -4    1    3    3    0  502  0.43180611237E+03  0.35406326546E+03  0.71177963151E+03  0.90468091527E+03  0.00000000000E+00 0.  1.
         11    1    5    5    0    0 -0.15027003669E+03  0.93304130226E+02  0.18767599295E+03  0.25789343337E+03  0.00000000000E+00 0. -1.
        -11    1    5    5    0    0 -0.10793423841E+03  0.17082048096E+03  0.16491202239E+03  0.26081681630E+03  0.00000000000E+00 0.  1.
          3    1    6    6  503    0 -0.19167288960E+03 -0.62987020713E+03  0.73343502966E+03  0.98559723882E+03  0.00000000000E+00 0. -1.
         -3    1    6    6    0  503 -0.32480357373E+02 -0.31216596175E+02  0.62998752262E+02  0.77448642844E+02  0.00000000000E+00 0.  1.
<mgrwt>
<rscale>  0 0.17259275E+04</rscale>
<asrwt>0</asrwt>
<pdfrwt beam="1">  1        1 0.35807772E+00 0.17259275E+04</pdfrwt>
<pdfrwt beam="2">  1       -2 0.49224475E-01 0.17259275E+04</pdfrwt>
<totfact> 0.58105587E+00</totfact>
</mgrwt>
</event>
<event>
12    4  0.4424320E-008  0.1623249E+04  0.7818608E-02  0.8806391E-01
          1   -1    0    0  501    0  0.00000000000E+00  0.00000000000E+00  0.61507211951E+03  0.61507211951E+03  0.00000000000E+00 0. -1.
         -2   -1    0    0    0  501 -0.00000000000E+00 -0.00000000000E+00 -0.10709868994E+04  0.10709868994E+04  0.00000000000E+00 0.  1.
        -24    2    1    2    0    0  0.12929675716E+03  0.26206840659E+03  0.33447653119E+03  0.45171886497E+03  0.82327892646E+02 0.  0.
        254    2    1    2    0    0 -0.12929675716E+03 -0.26206840659E+03 -0.79039131107E+03  0.12343401539E+04  0.90193108932E+03 0.  0.
         23    2    4    4    0    0  0.39432218797E+02 -0.51486328319E+03 -0.19439626304E+03  0.55913739775E+03  0.90584889616E+02 0.  0.
         23    2    4    4    0    0 -0.16872897596E+03  0.25279487660E+03 -0.59599504803E+03  0.67520275619E+03  0.91180851787E+02 0.  0.
          1    1    3    3  502    0  0.34394766549E+02  0.74137678997E+02  0.15432017604E+03  0.17462563427E+03  0.00000000000E+00 0. -1.
         -2    1    3    3    0  502  0.94901990613E+02  0.18793072759E+03  0.18015635515E+03  0.27709323069E+03  0.00000000000E+00 0.  1.
         11    1    5    5    0    0 -0.18668768143E+02 -0.31053229214E+03 -0.12997440710E+03  0.33715304220E+03  0.00000000000E+00 0. -1.
        -11    1    5    5    0    0  0.58100986940E+02 -0.20433099104E+03 -0.64421855945E+02  0.22198435555E+03  0.00000000000E+00 0.  1.
          1    1    6    6  503    0 -0.90642445652E+02  0.20145108701E+03 -0.45867969259E+03  0.50910279296E+03  0.00000000000E+00 0. -1.
         -1    1    6    6    0  503 -0.78086530307E+02  0.51343789591E+02 -0.13731535544E+03  0.16609996323E+03  0.00000000000E+00 0.  1.
<mgrwt>
<rscale>  0 0.16232488E+04</rscale>
<asrwt>0</asrwt>
<pdfrwt beam="1">  1        1 0.94626480E-01 0.16232488E+04</pdfrwt>
<pdfrwt beam="2">  1       -2 0.16476721E+00 0.16232488E+04</pdfrwt>
<totfact> 0.64310306E+00</totfact>
</mgrwt>
</event>
<event>
12    4  0.4424320E-008  0.1087201E+04  0.7818608E-02  0.9217757E-01
         -2   -1    0    0    0  501 -0.00000000000E+00  0.00000000000E+00  0.31440594168E+03  0.31440594168E+03  0.00000000000E+00 0.  1.
          1   -1    0    0  501    0  0.00000000000E+00 -0.00000000000E+00 -0.93987303113E+03  0.93987303113E+03  0.00000000000E+00 0. -1.
        -24    2    1    2    0    0  0.68002699619E+02  0.36890691725E+02 -0.25556634381E+03  0.27865485644E+03  0.79681131006E+02 0.  0.
        254    2    1    2    0    0 -0.68002699619E+02 -0.36890691725E+02 -0.36990074565E+03  0.97562411638E+03  0.89946126350E+03 0.  0.
         23    2    4    4    0    0 -0.36857819102E+03 -0.13974711820E+03  0.86149844113E+02  0.41225281069E+03  0.84566212753E+02 0.  0.
         23    2    4    4    0    0  0.30057549140E+03  0.10285642648E+03 -0.45605058976E+03  0.56337130569E+03  0.92087008629E+02 0.  0.
          3    1    3    3  502    0  0.83241549692E+02  0.23029511086E+02 -0.23086102027E+03  0.24648798075E+03  0.00000000000E+00 0. -1.
         -4    1    3    3    0  502 -0.15238850074E+02  0.13861180639E+02 -0.24705323541E+02  0.32166875688E+02  0.00000000000E+00 0.  1.
         11    1    5    5    0    0 -0.20587540856E+03 -0.90321188304E+02  0.90006151521E+02  0.24216463040E+03  0.00000000000E+00 0. -1.
        -11    1    5    5    0    0 -0.16270278246E+03 -0.49425929900E+02 -0.38563074082E+01  0.17008818029E+03  0.00000000000E+00 0.  1.
          3    1    6    6  503    0  0.79310740525E+02  0.62523099927E+02 -0.18846732770E+03  0.21382063791E+03  0.00000000000E+00 0. -1.
         -3    1    6    6    0  503  0.22126475087E+03  0.40333326553E+02 -0.26758326206E+03  0.34955066778E+03  0.00000000000E+00 0.  1.
<mgrwt>
<rscale>  0 0.10872013E+04</rscale>
<asrwt>0</asrwt>
<pdfrwt beam="1">  1        1 0.14459585E+00 0.10872013E+04</pdfrwt>
<pdfrwt beam="2">  1       -2 0.48370146E-01 0.10872013E+04</pdfrwt>
<totfact> 0.59760152E+01</totfact>
</mgrwt>
</event>
<event>
12    4  0.4424320E-008  0.1269654E+04  0.7818608E-02  0.9053982E-01
          1   -1    0    0  501    0  0.00000000000E+00  0.00000000000E+00  0.12496178629E+04  0.12496178629E+04  0.00000000000E+00 0. -1.
         -2   -1    0    0    0  501 -0.00000000000E+00 -0.00000000000E+00 -0.32250264873E+03  0.32250264873E+03  0.00000000000E+00 0.  1.
        -24    2    1    2    0    0 -0.20546724268E+03 -0.22134940167E+03  0.19236801249E+03  0.36455199920E+03  0.68413174578E+02 0.  0.
        254    2    1    2    0    0  0.20546724268E+03  0.22134940167E+03  0.73474720171E+03  0.12075685125E+04  0.90948112483E+03 0.  0.
         23    2    4    4    0    0  0.12165285343E+03  0.21671129587E+03  0.93523836241E+03  0.97209500694E+03  0.92383469822E+02 0.  0.
         23    2    4    4    0    0  0.83814389247E+02  0.46381058026E+01 -0.20049116069E+03  0.23547350551E+03  0.90579812387E+02 0.  0.
          1    1    3    3  502    0  0.31134969022E+01 -0.18279774016E+02  0.10660020489E+02  0.21388782992E+02  0.00000000000E+00 0. -1.
         -2    1    3    3    0  502 -0.20858073958E+03 -0.20306962766E+03  0.18170799200E+03  0.34316321621E+03  0.00000000000E+00 0.  1.
         11    1    5    5    0    0  0.33029029623E+02  0.40982772615E+02  0.90145695454E+02  0.10438750336E+03  0.00000000000E+00 0.  1.
        -11    1    5    5    0    0  0.88623823812E+02  0.17572852326E+03  0.84509266695E+03  0.86770750358E+03  0.00000000000E+00 0. -1.
          1    1    6    6  503    0 -0.23654789285E+01  0.75722026309E+00  0.87769600739E+01  0.91216172484E+01  0.00000000000E+00 0.  1.
         -1    1    6    6    0  503  0.86179868176E+02  0.38808855395E+01 -0.20926812077E+03  0.22635188827E+03  0.00000000000E+00 0. -1.
<mgrwt>
<rscale>  0 0.12696536E+04</rscale>
<asrwt>0</asrwt>
<pdfrwt beam="1">  1        1 0.19224890E+00 0.12696536E+04</pdfrwt>
<pdfrwt beam="2">  1       -2 0.49615793E-01 0.12696536E+04</pdfrwt>
<totfact> 0.32646142E+01</totfact>
</mgrwt>
</event>
<event>
12    4  0.4424320E-008  0.1383562E+04  0.7818608E-02  0.8965804E-01
          1   -1    0    0  501    0  0.00000000000E+00  0.00000000000E+00  0.93438522722E+03  0.93438522722E+03  0.00000000000E+00 0. -1.
         -2   -1    0    0    0  501 -0.00000000000E+00 -0.00000000000E+00 -0.51216660994E+03  0.51216660994E+03  0.00000000000E+00 0.  1.
        -24    2    1    2    0    0  0.71805548898E+02  0.28152078748E+03 -0.74831557434E+02  0.31034870169E+03  0.79413878001E+02 0.  0.
        254    2    1    2    0    0 -0.71805548898E+02 -0.28152078748E+03  0.49705017471E+03  0.11362031355E+04  0.97953493977E+03 0.  0.
         23    2    4    4    0    0 -0.76677355575E+02  0.16416581119E+03 -0.21376651182E+03  0.29255266287E+03  0.84030402567E+02 0.  0.
         23    2    4    4    0    0  0.48718066771E+01 -0.44568659867E+03  0.71081668653E+03  0.84365047259E+03  0.88461739267E+02 0.  0.
          3    1    3    3  502    0  0.12090864970E+02  0.49695777341E+02 -0.46790636898E+02  0.69319715828E+02  0.00000000000E+00 0. -1.
         -4    1    3    3    0  502  0.59714683928E+02  0.23182501014E+03 -0.28040920536E+02  0.24102898587E+03  0.00000000000E+00 0.  1.
         11    1    5    5    0    0 -0.23700334367E+02  0.13592048976E+03 -0.13059623749E+03  0.18997753191E+03  0.00000000000E+00 0.  1.
        -11    1    5    5    0    0 -0.52977021208E+02  0.28245321433E+02 -0.83170274332E+02  0.10257513096E+03  0.00000000000E+00 0. -1.
          4    1    6    6  503    0  0.12486679607E+02 -0.40872982931E+03  0.68553101149E+03  0.79822851255E+03  0.00000000000E+00 0. -1.
         -4    1    6    6    0  503 -0.76148729303E+01 -0.36956769364E+02  0.25285675041E+02  0.45421960040E+02  0.00000000000E+00 0.  1.
<mgrwt>
<rscale>  0 0.13835619E+04</rscale>
<asrwt>0</asrwt>
<pdfrwt beam="1">  1        1 0.14375157E+00 0.13835619E+04</pdfrwt>
<pdfrwt beam="2">  1       -2 0.78794863E-01 0.13835619E+04</pdfrwt>
<totfact> 0.20883086E+01</totfact>
</mgrwt>
</event>
<event>
12    4  0.4424320E-008  0.1217231E+04  0.7818608E-02  0.9097906E-01
          3   -1    0    0  501    0  0.00000000000E+00  0.00000000000E+00  0.58179807148E+03  0.58179807148E+03  0.00000000000E+00 0. -1.
         -4   -1    0    0    0  501 -0.00000000000E+00 -0.00000000000E+00 -0.63666925532E+03  0.63666925532E+03  0.00000000000E+00 0.  1.
        -24    2    1    2    0    0  0.23311844063E+03 -0.11948343735E+03  0.37578246591E+01  0.27380826987E+03  0.79601182387E+02 0.  0.
        254    2    1    2    0    0 -0.23311844063E+03  0.11948343735E+03 -0.58629008493E+02  0.94465905694E+03  0.90571677364E+03 0.  0.
         23    2    4    4    0    0 -0.42435217268E+03  0.33504471255E+03 -0.23357225405E+03  0.59584058090E+03  0.90223467682E+02 0.  0.
         23    2    4    4    0    0  0.19123373204E+03 -0.21556127519E+03  0.17494324556E+03  0.34881847604E+03  0.89622466056E+02 0.  0.
          1    1    3    3  502    0  0.21857741213E+03 -0.84479322541E+02  0.13331178475E+02  0.23471378603E+03  0.00000000000E+00 0. -1.
         -2    1    3    3    0  502  0.14541028499E+02 -0.35004114809E+02 -0.95733538164E+01  0.39094483840E+02  0.00000000000E+00 0.  1.
         11    1    5    5    0    0 -0.26644974201E+03  0.20182177603E+03 -0.19074849189E+03  0.38485384428E+03  0.00000000000E+00 0. -1.
        -11    1    5    5    0    0 -0.15790243067E+03  0.13322293652E+03 -0.42823762169E+02  0.21098673662E+03  0.00000000000E+00 0.  1.
          3    1    6    6  503    0  0.85989038813E+02 -0.14634725870E+03  0.13434853105E+03  0.21647439276E+03  0.00000000000E+00 0. -1.
         -3    1    6    6    0  503  0.10524469323E+03 -0.69214016491E+02  0.40594714516E+02  0.13234408328E+03  0.00000000000E+00 0.  1.
<mgrwt>
<rscale>  0 0.12172312E+04</rscale>
<asrwt>0</asrwt>
<pdfrwt beam="1">  1        3 0.89507396E-01 0.12172312E+04</pdfrwt>
<pdfrwt beam="2">  1       -4 0.97949116E-01 0.12172312E+04</pdfrwt>
<totfact> 0.22093525E+00</totfact>
</mgrwt>
</event>
<event>
12    4  0.4424320E-008  0.1914107E+04  0.7818608E-02  0.8647866E-01
         -2   -1    0    0    0  501 -0.00000000000E+00  0.00000000000E+00  0.17883723783E+04  0.17883723783E+04  0.00000000000E+00 0.  1.
          1   -1    0    0  501    0  0.00000000000E+00 -0.00000000000E+00 -0.51217032629E+03  0.51217032629E+03  0.00000000000E+00 0. -1.
        -24    2    1    2    0    0  0.61140303511E+03  0.92085892578E+02 -0.32278066339E+01  0.62264964012E+03  0.73407578970E+02 0.  0.
        254    2    1    2    0    0 -0.61140303511E+03 -0.92085892578E+02  0.12794298586E+04  0.16778930645E+04  0.89223925583E+03 0.  0.
         23    2    4    4    0    0 -0.57320017251E+03 -0.20655707263E+03  0.29665487202E+03  0.68348951920E+03  0.89048008097E+02 0.  0.
         23    2    4    4    0    0 -0.38202862600E+02  0.11447118006E+03  0.98277498661E+03  0.99440354526E+03  0.91807552711E+02 0.  0.
          3    1    3    3  502    0  0.48593373396E+03  0.73530522080E+02  0.27197566688E+02  0.49221747136E+03  0.00000000000E+00 0. -1.
         -4    1    3    3    0  502  0.12546930115E+03  0.18555370498E+02 -0.30425373322E+02  0.13043216876E+03  0.00000000000E+00 0.  1.
         11    1    5    5    0    0 -0.26748756179E+03 -0.80121720928E+02  0.18223753433E+03  0.33343605803E+03  0.00000000000E+00 0.  1.
        -11    1    5    5    0    0 -0.30571261072E+03 -0.12643535171E+03  0.11441733769E+03  0.35005346117E+03  0.00000000000E+00 0. -1.
          3    1    6    6  503    0 -0.63661643993E+02  0.95389160095E+02  0.85825585503E+03  0.86588394688E+03  0.00000000000E+00 0. -1.
         -3    1    6    6    0  503  0.25458781393E+02  0.19082019962E+02  0.12451913159E+03  0.12851959838E+03  0.00000000000E+00 0.  1.
<mgrwt>
<rscale>  0 0.19141069E+04</rscale>
<asrwt>0</asrwt>
<pdfrwt beam="1">  1        1 0.78795436E-01 0.19141069E+04</pdfrwt>
<pdfrwt beam="2">  1       -2 0.27513421E+00 0.19141069E+04</pdfrwt>
<totfact> 0.15818676E+00</totfact>
</mgrwt>
</event>
<event>
12    4  0.4424320E-008  0.1191504E+04  0.7818608E-02  0.9120326E-01
         -2   -1    0    0    0  501 -0.00000000000E+00  0.00000000000E+00  0.51927330112E+03  0.51927330112E+03  0.00000000000E+00 0.  1.
          1   -1    0    0  501    0  0.00000000000E+00 -0.00000000000E+00 -0.68349417078E+03  0.68349417078E+03  0.00000000000E+00 0. -1.
        -24    2    1    2    0    0  0.57098195162E+02  0.47250463622E+02  0.19248286489E+03  0.21850260178E+03  0.72117428577E+02 0.  0.
        254    2    1    2    0    0 -0.57098195162E+02 -0.47250463622E+02 -0.35670373456E+03  0.98426487012E+03  0.91435604122E+03 0.  0.
         23    2    4    4    0    0  0.39403825026E+03 -0.17073408173E+03 -0.14156105743E+03  0.46161651497E+03  0.92919344486E+02 0.  0.
         23    2    4    4    0    0 -0.45113644542E+03  0.12348361811E+03 -0.21514267713E+03  0.52264835516E+03  0.90014639374E+02 0.  0.
          3    1    3    3  502    0 -0.16577626852E+02  0.16323152841E+02  0.37407712849E+02  0.44052241842E+02  0.00000000000E+00 0. -1.
         -4    1    3    3    0  502  0.73675822013E+02  0.30927310781E+02  0.15507515204E+03  0.17445035994E+03  0.00000000000E+00 0.  1.
         11    1    5    5    0    0  0.34035037624E+03 -0.16226590279E+03 -0.92121614119E+02  0.38814300664E+03  0.00000000000E+00 0.  1.
        -11    1    5    5    0    0  0.53687874012E+02 -0.84681789411E+01 -0.49439443311E+02  0.73473508323E+02  0.00000000000E+00 0. -1.
          3    1    6    6  503    0 -0.14608494983E+03  0.15340957541E+02 -0.30469195287E+02  0.15001509726E+03  0.00000000000E+00 0. -1.
         -3    1    6    6    0  503 -0.30505149559E+03  0.10814266057E+03 -0.18467348184E+03  0.37263325790E+03  0.00000000000E+00 0.  1.
<mgrwt>
<rscale>  0 0.11915037E+04</rscale>
<asrwt>0</asrwt>
<pdfrwt beam="1">  1        1 0.10515295E+00 0.11915037E+04</pdfrwt>
<pdfrwt beam="2">  1       -2 0.79888200E-01 0.11915037E+04</pdfrwt>
<totfact> 0.33977403E+01</totfact>
</mgrwt>
</event>
<event>
12    4  0.4424320E-008  0.1997329E+04  0.7818608E-02  0.8607870E-01
         -2   -1    0    0    0  501 -0.00000000000E+00  0.00000000000E+00  0.29620156155E+03  0.29620156155E+03  0.00000000000E+00 0.  1.
          1   -1    0    0  501    0  0.00000000000E+00 -0.00000000000E+00 -0.33670695812E+04  0.33670695812E+04  0.00000000000E+00 0. -1.
        -24    2    1    2    0    0 -0.64657665973E+02  0.65642129895E+02  0.21926377752E+03  0.25060594434E+03  0.78976149687E+02 0.  0.
        254    2    1    2    0    0  0.64657665973E+02 -0.65642129895E+02 -0.32901317972E+04  0.34126651984E+04  0.90156919352E+03 0.  0.
         23    2    4    4    0    0  0.28906166268E+03 -0.15626280391E+02 -0.30593132589E+04  0.30744444445E+04  0.94922074916E+02 0.  0.
         23    2    4    4    0    0 -0.22440399671E+03 -0.50015849504E+02 -0.23081853822E+03  0.33822075394E+03  0.90869917291E+02 0.  0.
          1    1    3    3  502    0 -0.11317247077E+02 -0.17324854417E+02  0.57870625574E+02  0.61459254521E+02  0.00000000000E+00 0. -1.
         -2    1    3    3    0  502 -0.53340418896E+02  0.82966984312E+02  0.16139315194E+03  0.18914668982E+03  0.00000000000E+00 0.  1.
         11    1    5    5    0    0  0.79828847459E+02 -0.42943352497E+02 -0.11287496480E+04  0.11323835676E+04  0.00000000000E+00 0. -1.
        -11    1    5    5    0    0  0.20923281522E+03  0.27317072106E+02 -0.19305636110E+04  0.19420608769E+04  0.00000000000E+00 0.  1.
          1    1    6    6  503    0 -0.17143983110E+03  0.36049812596E+01 -0.16873656382E+03  0.24057564205E+03  0.00000000000E+00 0. -1.
         -1    1    6    6    0  503 -0.52964165601E+02 -0.53620830764E+02 -0.62081974405E+02  0.97645111888E+02  0.00000000000E+00 0.  1.
<mgrwt>
<rscale>  0 0.19973295E+04</rscale>
<asrwt>0</asrwt>
<pdfrwt beam="1">  1        1 0.51801072E+00 0.19973295E+04</pdfrwt>
<pdfrwt beam="2">  1       -2 0.45569470E-01 0.19973295E+04</pdfrwt>
<totfact> 0.11853686E+00</totfact>
</mgrwt>
</event>
<event>
12    4  0.4424320E-008  0.2876199E+04  0.7818608E-02  0.8279994E-01
         -2   -1    0    0    0  501 -0.00000000000E+00  0.00000000000E+00  0.21304401086E+04  0.21304401086E+04  0.00000000000E+00 0.  1.
          1   -1    0    0  501    0  0.00000000000E+00 -0.00000000000E+00 -0.97075227530E+03  0.97075227530E+03  0.00000000000E+00 0. -1.
        -24    2    1    2    0    0 -0.11137621721E+03  0.58551555278E+03  0.17420286971E+04  0.18429057543E+04  0.80028202076E+02 0.  0.
        254    2    1    2    0    0  0.11137621721E+03 -0.58551555278E+03 -0.58234086381E+03  0.12582866297E+04  0.94283149948E+03 0.  0.
         23    2    4    4    0    0 -0.81558763484E+02 -0.13741607944E+03  0.23726481079E+03  0.29986670631E+03  0.89946875016E+02 0.  0.
         23    2    4    4    0    0  0.19293498069E+03 -0.44809947334E+03 -0.81960567460E+03  0.95841992336E+03  0.93798949212E+02 0.  0.
          3    1    3    3  502    0  0.80496225329E+01  0.13318220115E+03  0.40102631938E+03  0.42263980405E+03  0.00000000000E+00 0. -1.
         -4    1    3    3    0  502 -0.11942583974E+03  0.45233335163E+03  0.13410023778E+04  0.14202659502E+04  0.00000000000E+00 0.  1.
         11    1    5    5    0    0 -0.86294397087E+02 -0.10575026132E+03  0.13214651756E+03  0.18998037489E+03  0.00000000000E+00 0.  1.
        -11    1    5    5    0    0  0.47356336039E+01 -0.31665818111E+02  0.10511829322E+03  0.10988633142E+03  0.00000000000E+00 0. -1.
          1    1    6    6  503    0  0.41389635054E+01  0.35277946984E+01 -0.26734189181E+01  0.60599936505E+01  0.00000000000E+00 0. -1.
         -1    1    6    6    0  503  0.18879601718E+03 -0.45162726804E+03 -0.81693225568E+03  0.95235992971E+03  0.00000000000E+00 0.  1.
<mgrwt>
<rscale>  0 0.28761986E+04</rscale>
<asrwt>0</asrwt>
<pdfrwt beam="1">  1        1 0.14934650E+00 0.28761986E+04</pdfrwt>
<pdfrwt beam="2">  1       -2 0.32776002E+00 0.28761986E+04</pdfrwt>
<totfact> 0.25806067E-01</totfact>
</mgrwt>
</event>
<event>
12    4  0.4424320E-008  0.1889798E+04  0.7818608E-02  0.8659951E-01
         -2   -1    0    0    0  501 -0.00000000000E+00  0.00000000000E+00  0.43865907066E+03  0.43865907066E+03  0.00000000000E+00 0.  1.
          1   -1    0    0  501    0  0.00000000000E+00 -0.00000000000E+00 -0.20353708251E+04  0.20353708251E+04  0.00000000000E+00 0. -1.
        -24    2    1    2    0    0 -0.40886167941E+03  0.58768211915E+03 -0.43665765213E+03  0.84240013255E+03  0.80186857390E+02 0.  0.
        254    2    1    2    0    0  0.40886167941E+03 -0.58768211915E+03 -0.11600541023E+04  0.16316297632E+04  0.89663371445E+03 0.  0.
         23    2    4    4    0    0  0.47122476082E+03 -0.53263177789E+03 -0.12751556692E+04  0.14629889648E+04  0.92549145285E+02 0.  0.
         23    2    4    4    0    0 -0.62363081414E+02 -0.55050341262E+02  0.11510156691E+03  0.16864079845E+03  0.90948634953E+02 0.  0.
          3    1    3    3  502    0 -0.32096927844E+03  0.51254592392E+03 -0.36479870649E+03  0.70625965344E+03  0.00000000000E+00 0. -1.
         -4    1    3    3    0  502 -0.87892400974E+02  0.75136195230E+02 -0.71858945643E+02  0.13614047911E+03  0.00000000000E+00 0.  1.
         11    1    5    5    0    0  0.11882754468E+03 -0.14521773464E+03 -0.42328999954E+03  0.46301468610E+03  0.00000000000E+00 0. -1.
        -11    1    5    5    0    0  0.35239721614E+03 -0.38741404325E+03 -0.85186566968E+03  0.99997427868E+03  0.00000000000E+00 0.  1.
          2    1    6    6  503    0  0.36428307409E+01 -0.49357355794E+02  0.78917573608E+02  0.93152574902E+02  0.00000000000E+00 0. -1.
         -2    1    6    6    0  503 -0.66005912155E+02 -0.56929854686E+01  0.36183993300E+02  0.75488223545E+02  0.00000000000E+00 0.  1.
<mgrwt>
<rscale>  0 0.18897977E+04</rscale>
<asrwt>0</asrwt>
<pdfrwt beam="1">  1        1 0.31313397E+00 0.18897977E+04</pdfrwt>
<pdfrwt beam="2">  1       -2 0.67486011E-01 0.18897977E+04</pdfrwt>
<totfact> 0.46679965E+00</totfact>
</mgrwt>
</event>
<event>
12    4  0.4424320E-008  0.1580021E+04  0.7818608E-02  0.8832917E-01
          1   -1    0    0  501    0  0.00000000000E+00  0.00000000000E+00  0.29599060269E+04  0.29599060269E+04  0.00000000000E+00 0. -1.
         -2   -1    0    0    0  501 -0.00000000000E+00 -0.00000000000E+00 -0.21085690670E+03  0.21085690670E+03  0.00000000000E+00 0.  1.
        -24    2    1    2    0    0 -0.42277508339E+03  0.30493014713E+03  0.92389074695E+03  0.10641484551E+04  0.84360278165E+02 0.  0.
        254    2    1    2    0    0  0.42277508339E+03 -0.30493014713E+03  0.18251583732E+04  0.21066144784E+04  0.91372879325E+03 0.  0.
         23    2    4    4    0    0  0.58118916453E+03 -0.50826686976E+03  0.13830500498E+04  0.15866133364E+04  0.91642692179E+02 0.  0.
         23    2    4    4    0    0 -0.15841408114E+03  0.20333672263E+03  0.44210832346E+03  0.52000114209E+03  0.92198558729E+02 0.  0.
          1    1    3    3  502    0 -0.50176632548E+02  0.68962863710E+01  0.99111441514E+02  0.11130287983E+03  0.00000000000E+00 0. -1.
         -2    1    3    3    0  502 -0.37259845085E+03  0.29803386076E+03  0.82477930543E+03  0.95284557532E+03  0.00000000000E+00 0.  1.
         11    1    5    5    0    0  0.10104355015E+02 -0.30535196285E+02  0.72822871422E+02  0.79609464290E+02  0.00000000000E+00 0. -1.
        -11    1    5    5    0    0  0.57108480952E+03 -0.47773167347E+03  0.13102271784E+04  0.15070038721E+04  0.00000000000E+00 0.  1.
          1    1    6    6  503    0 -0.10705490477E+03  0.80848948681E+02  0.16459594380E+03  0.21234201151E+03  0.00000000000E+00 0. -1.
         -1    1    6    6    0  503 -0.51359176370E+02  0.12248777395E+03  0.27751237966E+03  0.30765913058E+03  0.00000000000E+00 0.  1.
<mgrwt>
<rscale>  0 0.15800210E+04</rscale>
<asrwt>0</asrwt>
<pdfrwt beam="1">  1        1 0.45537013E+00 0.15800210E+04</pdfrwt>
<pdfrwt beam="2">  1       -2 0.32439526E-01 0.15800210E+04</pdfrwt>
<totfact> 0.48006433E+00</totfact>
</mgrwt>
</event>
<event>
12    4  0.4424320E-008  0.1256574E+04  0.7818608E-02  0.9064729E-01
         -4   -1    0    0    0  501 -0.00000000000E+00  0.00000000000E+00  0.79910765838E+03  0.79910765838E+03  0.00000000000E+00 0.  1.
          3   -1    0    0  501    0  0.00000000000E+00 -0.00000000000E+00 -0.49398172766E+03  0.49398172766E+03  0.00000000000E+00 0. -1.
        -24    2    1    2    0    0 -0.33595737681E+02  0.49803454143E+02 -0.27325174109E+03  0.29128185916E+03  0.81052759541E+02 0.  0.
        254    2    1    2    0    0  0.33595737681E+02 -0.49803454143E+02  0.57837767182E+03  0.10018075269E+04  0.81577480473E+03 0.  0.
         23    2    4    4    0    0 -0.19985257424E+03  0.17166687032E+03 -0.56388183128E+02  0.28453061494E+03  0.91473918941E+02 0.  0.
         23    2    4    4    0    0  0.23344831192E+03 -0.22147032446E+03  0.63476585494E+03  0.71727691194E+03  0.89505635820E+02 0.  0.
          3    1    3    3  502    0  0.19375339224E+01  0.20013185797E+02 -0.21897132189E+03  0.21989252250E+03  0.00000000000E+00 0. -1.
         -4    1    3    3    0  502 -0.35533271603E+02  0.29790268346E+02 -0.54280419206E+02  0.71389336655E+02  0.00000000000E+00 0.  1.
         11    1    5    5    0    0 -0.13816740759E+03  0.93241420084E+02  0.61052624575E+01  0.16679768934E+03  0.00000000000E+00 0.  1.
        -11    1    5    5    0    0 -0.61685166649E+02  0.78425450233E+02 -0.62493445586E+02  0.11773292560E+03  0.00000000000E+00 0. -1.
          3    1    6    6  503    0  0.13997606468E+03 -0.96482088236E+02  0.40789388898E+03  0.44190442033E+03  0.00000000000E+00 0. -1.
         -3    1    6    6    0  503  0.93472247243E+02 -0.12498823622E+03  0.22687196596E+03  0.27537249162E+03  0.00000000000E+00 0.  1.
<mgrwt>
<rscale>  0 0.12565740E+04</rscale>
<asrwt>0</asrwt>
<pdfrwt beam="1">  1        3 0.75997189E-01 0.12565740E+04</pdfrwt>
<pdfrwt beam="2">  1       -4 0.12293964E+00 0.12565740E+04</pdfrwt>
<totfact> 0.18263921E+00</totfact>
</mgrwt>
</event>
<event>
12    4  0.4424320E-008  0.1483899E+04  0.7818608E-02  0.8895231E-01
         -2   -1    0    0    0  501 -0.00000000000E+00  0.00000000000E+00  0.55567600059E+03  0.55567600059E+03  0.00000000000E+00 0.  1.
          1   -1    0    0  501    0  0.00000000000E+00 -0.00000000000E+00 -0.99066504350E+03  0.99066504350E+03  0.00000000000E+00 0. -1.
        -24    2    1    2    0    0  0.11998991080E+03  0.44626777003E+03 -0.83325640919E+02  0.47626841455E+03  0.79598611775E+02 0.  0.
        254    2    1    2    0    0 -0.11998991080E+03 -0.44626777003E+03 -0.35166340199E+03  0.10700726295E+04  0.89879685299E+03 0.  0.
         23    2    4    4    0    0 -0.50099319593E+03 -0.30720392947E+03 -0.19250309722E+03  0.62500735213E+03  0.90599730258E+02 0.  0.
         23    2    4    4    0    0  0.38100328513E+03 -0.13906384056E+03 -0.15916030477E+03  0.44506527742E+03  0.90823144159E+02 0.  0.
          1    1    3    3  502    0  0.75715931454E+02  0.35132902474E+03 -0.92513679018E+02  0.37111152867E+03  0.00000000000E+00 0. -1.
         -2    1    3    3    0  502  0.44273979342E+02  0.94938745289E+02  0.91880380993E+01  0.10515688588E+03  0.00000000000E+00 0.  1.
         11    1    5    5    0    0 -0.18122967183E+03 -0.62928387334E+02 -0.72736838194E+02  0.20517023057E+03  0.00000000000E+00 0.  1.
        -11    1    5    5    0    0 -0.31976352410E+03 -0.24427554214E+03 -0.11976625902E+03  0.41983712155E+03  0.00000000000E+00 0. -1.
          3    1    6    6  503    0  0.28955251407E+03 -0.11571994862E+03 -0.80097943915E+02  0.32194323340E+03  0.00000000000E+00 0. -1.
         -3    1    6    6    0  503  0.91450771062E+02 -0.23343891944E+02 -0.79062360858E+02  0.12312204402E+03  0.00000000000E+00 0.  1.
<mgrwt>
<rscale>  0 0.14838986E+04</rscale>
<asrwt>0</asrwt>
<pdfrwt beam="1">  1        1 0.15241001E+00 0.14838986E+04</pdfrwt>
<pdfrwt beam="2">  1       -2 0.85488616E-01 0.14838986E+04</pdfrwt>
<totfact> 0.15540185E+01</totfact>
</mgrwt>
</event>
<event>
12    4  0.4424320E-008  0.1514740E+04  0.7818608E-02  0.8874710E-01
          1   -1    0    0  501    0  0.00000000000E+00  0.00000000000E+00  0.10566329886E+04  0.10566329886E+04  0.00000000000E+00 0. -1.
         -2   -1    0    0    0  501 -0.00000000000E+00 -0.00000000000E+00 -0.54286498094E+03  0.54286498094E+03  0.00000000000E+00 0.  1.
        -24    2    1    2    0    0  0.31486701178E+02 -0.20009944199E+03  0.65560242619E+03  0.69098281843E+03  0.81311223779E+02 0.  0.
        254    2    1    2    0    0 -0.31486701178E+02  0.20009944199E+03 -0.14183441848E+03  0.90851515116E+03  0.87421483548E+03 0.  0.
         23    2    4    4    0    0  0.11920208518E+03  0.45495509562E+03  0.13066351612E+03  0.49653683967E+03  0.91008804846E+02 0.  0.
         23    2    4    4    0    0 -0.15068878635E+03 -0.25485565363E+03 -0.27249793460E+03  0.41197831149E+03  0.88388292517E+02 0.  0.
          1    1    3    3  502    0  0.82821620645E+00 -0.16254179740E+03  0.41814403949E+03  0.44862563414E+03  0.00000000000E+00 0. -1.
         -2    1    3    3    0  502  0.30658484972E+02 -0.37557644597E+02  0.23745838669E+03  0.24235718430E+03  0.00000000000E+00 0.  1.
         11    1    5    5    0    0 -0.26035832760E+00  0.90789227459E+02  0.54157589309E+02  0.10571563786E+03  0.00000000000E+00 0.  1.
        -11    1    5    5    0    0  0.11946244350E+03  0.36416586816E+03  0.76505926815E+02  0.39082120181E+03  0.00000000000E+00 0. -1.
          4    1    6    6  503    0 -0.92823797781E+02 -0.22473903478E+03 -0.20409273585E+03  0.31745509291E+03  0.00000000000E+00 0. -1.
         -4    1    6    6    0  503 -0.57864988573E+02 -0.30116618846E+02 -0.68405198756E+02  0.94523218577E+02  0.00000000000E+00 0.  1.
<mgrwt>
<rscale>  0 0.15147396E+04</rscale>
<asrwt>0</asrwt>
<pdfrwt beam="1">  1        1 0.16255892E+00 0.15147396E+04</pdfrwt>
<pdfrwt beam="2">  1       -2 0.83517690E-01 0.15147396E+04</pdfrwt>
<totfact> 0.14532555E+01</totfact>
</mgrwt>
</event>
<event>
12    4  0.4424320E-008  0.1210277E+04  0.7818608E-02  0.9103908E-01
         -2   -1    0    0    0  501 -0.00000000000E+00  0.00000000000E+00  0.54982776693E+03  0.54982776693E+03  0.00000000000E+00 0.  1.
          1   -1    0    0  501    0  0.00000000000E+00 -0.00000000000E+00 -0.66601353223E+03  0.66601353223E+03  0.00000000000E+00 0. -1.
        -24    2    1    2    0    0 -0.23407620534E+02 -0.19505500824E+03 -0.19551759313E+03  0.28778908166E+03  0.77466466027E+02 0.  0.
        254    2    1    2    0    0  0.23407620534E+02  0.19505500824E+03  0.79331827831E+02  0.92805221750E+03  0.90354468985E+03 0.  0.
         23    2    4    4    0    0 -0.23476962085E+03  0.23666083005E+03 -0.29983228559E+03  0.45810921584E+03  0.94018778943E+02 0.  0.
         23    2    4    4    0    0  0.25817724138E+03 -0.41605821815E+02  0.37916411343E+03  0.46994300166E+03  0.93244128629E+02 0.  0.
          3    1    3    3  502    0  0.16244617723E+02 -0.11654148341E+03 -0.14359664840E+03  0.18564967651E+03  0.00000000000E+00 0. -1.
         -4    1    3    3    0  502 -0.39652238258E+02 -0.78513524832E+02 -0.51920944736E+02  0.10213940514E+03  0.00000000000E+00 0.  1.
         11    1    5    5    0    0  0.81588993510E+01  0.79914495928E+01 -0.18305484257E+02  0.21575950943E+02  0.00000000000E+00 0.  1.
        -11    1    5    5    0    0 -0.24292852020E+03  0.22866938046E+03 -0.28152680134E+03  0.43653326489E+03  0.00000000000E+00 0. -1.
          3    1    6    6  503    0  0.25611773428E+03 -0.42140267964E+02  0.32588346290E+03  0.41661988358E+03  0.00000000000E+00 0. -1.
         -3    1    6    6    0  503  0.20595071018E+01  0.53444614889E+00  0.53280650524E+02  0.53323118087E+02  0.00000000000E+00 0.  1.
<mgrwt>
<rscale>  0 0.12102772E+04</rscale>
<asrwt>0</asrwt>
<pdfrwt beam="1">  1        1 0.10246362E+00 0.12102772E+04</pdfrwt>
<pdfrwt beam="2">  1       -2 0.84588888E-01 0.12102772E+04</pdfrwt>
<totfact> 0.30992428E+01</totfact>
</mgrwt>
</event>
<event>
12    4  0.4424320E-008  0.2249981E+04  0.7818608E-02  0.8497908E-01
          1   -1    0    0  501    0  0.00000000000E+00  0.00000000000E+00  0.32264844157E+04  0.32264844157E+04  0.00000000000E+00 0. -1.
         -2   -1    0    0    0  501 -0.00000000000E+00 -0.00000000000E+00 -0.39225454769E+03  0.39225454769E+03  0.00000000000E+00 0.  1.
        -24    2    1    2    0    0  0.83469090021E+03 -0.13074817406E+03  0.18620770466E+04  0.20463598540E+04  0.80335178949E+02 0.  0.
        254    2    1    2    0    0 -0.83469090021E+03  0.13074817406E+03  0.97215282144E+03  0.15723791093E+04  0.90193734335E+03 0.  0.
         23    2    4    4    0    0 -0.71379752405E+02  0.40475454832E+03  0.31989829822E+03  0.52827849078E+03  0.88441671091E+02 0.  0.
         23    2    4    4    0    0 -0.76331114781E+03 -0.27400637426E+03  0.65225452323E+03  0.10441006186E+04  0.83586704056E+02 0.  0.
          1    1    3    3  502    0  0.55915091275E+03 -0.60690265846E+02  0.13007542494E+04  0.14171431364E+04  0.00000000000E+00 0. -1.
         -2    1    3    3    0  502  0.27553998746E+03 -0.70057908212E+02  0.56132279712E+03  0.62921671764E+03  0.00000000000E+00 0.  1.
         11    1    5    5    0    0  0.18569576954E+02  0.11000779920E+03  0.98524109250E+02  0.14884067044E+03  0.00000000000E+00 0.  1.
        -11    1    5    5    0    0 -0.89949329359E+02  0.29474674912E+03  0.22137418897E+03  0.37943782034E+03  0.00000000000E+00 0. -1.
          2    1    6    6  503    0 -0.61666717860E+03 -0.24619649074E+03  0.56015863919E+03  0.86871676758E+03  0.00000000000E+00 0. -1.
         -2    1    6    6    0  503 -0.14664396921E+03 -0.27809883522E+02  0.92095884035E+02  0.17538385098E+03  0.00000000000E+00 0.  1.
<mgrwt>
<rscale>  0 0.22499806E+04</rscale>
<asrwt>0</asrwt>
<pdfrwt beam="1">  1        1 0.49638220E+00 0.22499806E+04</pdfrwt>
<pdfrwt beam="2">  1       -2 0.60346856E-01 0.22499806E+04</pdfrwt>
<totfact> 0.82995057E-01</totfact>
</mgrwt>
</event>
<event>
12    4  0.4424320E-008  0.1663597E+04  0.7818608E-02  0.8782403E-01
         -2   -1    0    0    0  501 -0.00000000000E+00  0.00000000000E+00  0.41422284847E+03  0.41422284847E+03  0.00000000000E+00 0.  1.
          1   -1    0    0  501    0  0.00000000000E+00 -0.00000000000E+00 -0.16703299543E+04  0.16703299543E+04  0.00000000000E+00 0. -1.
        -24    2    1    2    0    0  0.43037833679E+03 -0.12582822854E+03 -0.91278337565E+03  0.10203584662E+04  0.83064148323E+02 0.  0.
        254    2    1    2    0    0 -0.43037833679E+03  0.12582822854E+03 -0.34332373018E+03  0.10641943366E+04  0.90198677732E+03 0.  0.
         23    2    4    4    0    0  0.20030296417E+03 -0.19217952851E+03 -0.13469030064E+03  0.32185219446E+03  0.91613914649E+02 0.  0.
         23    2    4    4    0    0 -0.63068130096E+03  0.31800775705E+03 -0.20863342954E+03  0.74234214214E+03  0.93038224102E+02 0.  0.
          1    1    3    3  502    0  0.41505528157E+03 -0.10188810598E+03 -0.86318078048E+03  0.96318904307E+03  0.00000000000E+00 0. -1.
         -4    1    3    3    0  502  0.15323055217E+02 -0.23940122559E+02 -0.49602595167E+02  0.57169423092E+02  0.00000000000E+00 0.  1.
         11    1    5    5    0    0  0.46258213591E+02 -0.13812549469E+02 -0.54727616744E+02  0.72977536832E+02  0.00000000000E+00 0. -1.
        -11    1    5    5    0    0  0.15404475058E+03 -0.17836697904E+03 -0.79962683898E+02  0.24887465763E+03  0.00000000000E+00 0.  1.
          1    1    6    6  503    0 -0.26448925630E+03  0.83119926340E+02 -0.88076526738E+02  0.29089682607E+03  0.00000000000E+00 0. -1.
         -1    1    6    6    0  503 -0.36619204466E+03  0.23488783071E+03 -0.12055690280E+03  0.45144531607E+03  0.00000000000E+00 0.  1.
<mgrwt>
<rscale>  0 0.16635971E+04</rscale>
<asrwt>0</asrwt>
<pdfrwt beam="1">  1        1 0.25697383E+00 0.16635971E+04</pdfrwt>
<pdfrwt beam="2">  1       -2 0.63726593E-01 0.16635971E+04</pdfrwt>
<totfact> 0.95301161E+00</totfact>
</mgrwt>
</event>
<event>
12    4  0.4424320E-008  0.1999198E+04  0.7818608E-02  0.8606996E-01
         -2   -1    0    0    0  501 -0.00000000000E+00  0.00000000000E+00  0.61548604667E+03  0.61548604667E+03  0.00000000000E+00 0.  1.
          1   -1    0    0  501    0  0.00000000000E+00 -0.00000000000E+00 -0.16234296952E+04  0.16234296952E+04  0.00000000000E+00 0. -1.
        -24    2    1    2    0    0  0.62978380595E+03 -0.25268490940E+03 -0.87776182382E+03  0.11124284408E+04  0.80956228572E+02 0.  0.
        254    2    1    2    0    0 -0.62978380595E+03  0.25268490940E+03 -0.13018182471E+03  0.11264873010E+04  0.88969041033E+03 0.  0.
         23    2    4    4    0    0  0.30125796034E+01 -0.12042829424E+03 -0.32655017451E+03  0.36066048381E+03  0.94492954330E+02 0.  0.
         23    2    4    4    0    0 -0.63279638555E+03  0.37311320364E+03  0.19636834980E+03  0.76582681722E+03  0.91024485061E+02 0.  0.
          1    1    3    3  502    0  0.59884950782E+03 -0.23821018437E+03 -0.85758185748E+03  0.10727588113E+04  0.00000000000E+00 0. -1.
         -2    1    3    3    0  502  0.30934298122E+02 -0.14474725036E+02 -0.20179966338E+02  0.39669629524E+02  0.00000000000E+00 0.  1.
         11    1    5    5    0    0  0.62341454482E+01 -0.65126942127E+02 -0.28224046350E+03  0.28972411428E+03  0.00000000000E+00 0. -1.
        -11    1    5    5    0    0 -0.32215658448E+01 -0.55301352109E+02 -0.44309711016E+02  0.70936369529E+02  0.00000000000E+00 0.  1.
          4    1    6    6  503    0 -0.58256787718E+03  0.36611215112E+03  0.17036801460E+03  0.70883615816E+03  0.00000000000E+00 0. -1.
         -4    1    6    6    0  503 -0.50228508370E+02  0.70010525155E+01  0.26000335205E+02  0.56990659061E+02  0.00000000000E+00 0.  1.
<mgrwt>
<rscale>  0 0.19991982E+04</rscale>
<asrwt>0</asrwt>
<pdfrwt beam="1">  1        1 0.24975841E+00 0.19991982E+04</pdfrwt>
<pdfrwt beam="2">  1       -2 0.94690162E-01 0.19991982E+04</pdfrwt>
<totfact> 0.41127615E+00</totfact>
</mgrwt>
</event>
<event>
12    4  0.4424320E-008  0.1379293E+04  0.7818608E-02  0.8968945E-01
          1   -1    0    0  501    0  0.00000000000E+00  0.00000000000E+00  0.71868240982E+03  0.71868240982E+03  0.00000000000E+00 0. -1.
         -2   -1    0    0    0  501 -0.00000000000E+00 -0.00000000000E+00 -0.66178331723E+03  0.66178331723E+03  0.00000000000E+00 0.  1.
        -24    2    1    2    0    0  0.36340068096E+03  0.11123582624E+03 -0.94235526573E+02  0.39879728849E+03  0.75666894181E+02 0.  0.
        254    2    1    2    0    0 -0.36340068096E+03 -0.11123582624E+03  0.15113461916E+03  0.98166843857E+03  0.89241122035E+03 0.  0.
         23    2    4    4    0    0  0.77418950053E+02  0.43148920789E+01  0.42526442824E+03  0.44245048373E+03  0.94341319191E+02 0.  0.
         23    2    4    4    0    0 -0.44081963101E+03 -0.11555071832E+03 -0.27412980908E+03  0.53921795483E+03  0.89078252084E+02 0.  0.
          1    1    3    3  502    0  0.12655680438E+03  0.32312591331E+01 -0.20492224475E+02  0.12824584607E+03  0.00000000000E+00 0. -1.
         -2    1    3    3    0  502  0.23684387658E+03  0.10800456711E+03 -0.73743302098E+02  0.27055144242E+03  0.00000000000E+00 0.  1.
         11    1    5    5    0    0  0.56915190502E+02 -0.27743825008E+00  0.89728638732E+02  0.10625744440E+03  0.00000000000E+00 0.  1.
        -11    1    5    5    0    0  0.20503759551E+02  0.45923303290E+01  0.33553578951E+03  0.33619303933E+03  0.00000000000E+00 0. -1.
          2    1    6    6  503    0 -0.21704809872E+03 -0.41694773215E+02 -0.18161336447E+03  0.28606248518E+03  0.00000000000E+00 0. -1.
         -2    1    6    6    0  503 -0.22377153229E+03 -0.73855945108E+02 -0.92516444612E+02  0.25315546965E+03  0.00000000000E+00 0.  1.
<mgrwt>
<rscale>  0 0.13792926E+04</rscale>
<asrwt>0</asrwt>
<pdfrwt beam="1">  1        1 0.11056652E+00 0.13792926E+04</pdfrwt>
<pdfrwt beam="2">  1       -2 0.10181282E+00 0.13792926E+04</pdfrwt>
<totfact> 0.17712024E+01</totfact>
</mgrwt>
</event>
<event>
12    4  0.4424320E-008  0.1360511E+04  0.7818608E-02  0.8982909E-01
          1   -1    0    0  501    0  0.00000000000E+00  0.00000000000E+00  0.14293166789E+04  0.14293166789E+04  0.00000000000E+00 0. -1.
         -2   -1    0    0    0  501 -0.00000000000E+00 -0.00000000000E+00 -0.32375451869E+03  0.32375451869E+03  0.00000000000E+00 0.  1.
        -24    2    1    2    0    0 -0.93733323236E+02 -0.18241817652E+03 -0.10223129972E+03  0.24192173418E+03  0.77540697809E+02 0.  0.
        254    2    1    2    0    0  0.93733323236E+02  0.18241817652E+03  0.12077934599E+04  0.15111494634E+04  0.88472895957E+03 0.  0.
         23    2    4    4    0    0  0.35633544857E+03 -0.12836154503E+03  0.93479222577E+03  0.10126753764E+04  0.90682271578E+02 0.  0.
         23    2    4    4    0    0 -0.26260212534E+03  0.31077972156E+03  0.27300123414E+03  0.49847408703E+03  0.91666951691E+02 0.  0.
          1    1    3    3  502    0  0.11116233962E+02 -0.40989828837E+02 -0.27921225911E+02  0.50826485045E+02  0.00000000000E+00 0. -1.
         -2    1    3    3    0  502 -0.10484955720E+03 -0.14142834769E+03 -0.74310073807E+02  0.19109524914E+03  0.00000000000E+00 0.  1.
         11    1    5    5    0    0  0.53146406382E+01 -0.21138763473E+02  0.40451605641E+02  0.45950246193E+02  0.00000000000E+00 0.  1.
        -11    1    5    5    0    0  0.35102080794E+03 -0.10722278156E+03  0.89434062013E+03  0.96672513017E+03  0.00000000000E+00 0. -1.
          1    1    6    6  503    0 -0.25142799475E+03  0.31520974392E+03  0.25584059987E+03  0.47752238874E+03  0.00000000000E+00 0. -1.
         -1    1    6    6    0  503 -0.11174130584E+02 -0.44300223625E+01  0.17160634273E+02  0.20951698287E+02  0.00000000000E+00 0.  1.
<mgrwt>
<rscale>  0 0.13605113E+04</rscale>
<asrwt>0</asrwt>
<pdfrwt beam="1">  1        1 0.21989487E+00 0.13605113E+04</pdfrwt>
<pdfrwt beam="2">  1       -2 0.49808388E-01 0.13605113E+04</pdfrwt>
<totfact> 0.23980028E+01</totfact>
</mgrwt>
</event>
<event>
12    4  0.4424320E-008  0.2026663E+04  0.7818608E-02  0.8594255E-01
         -2   -1    0    0    0  501 -0.00000000000E+00  0.00000000000E+00  0.62682185420E+03  0.62682185420E+03  0.00000000000E+00 0.  1.
          1   -1    0    0  501    0  0.00000000000E+00 -0.00000000000E+00 -0.16381707485E+04  0.16381707485E+04  0.00000000000E+00 0. -1.
        -24    2    1    2    0    0 -0.60329030453E+03  0.31645492880E+03  0.86587246141E+02  0.69205140992E+03  0.85643968190E+02 0.  0.
        254    2    1    2    0    0  0.60329030453E+03 -0.31645492880E+03 -0.10979361404E+04  0.15729411928E+04  0.89698233759E+03 0.  0.
         23    2    4    4    0    0 -0.13159458385E+03  0.16898179385E+03 -0.15693870477E+03  0.28083487891E+03  0.91468524681E+02 0.  0.
         23    2    4    4    0    0  0.73488488837E+03 -0.48543672265E+03 -0.94099743566E+03  0.12921063139E+04  0.91421778259E+02 0.  0.
          3    1    3    3  502    0 -0.13778460116E+03  0.51732695846E+02 -0.11520172940E+02  0.14762649668E+03  0.00000000000E+00 0. -1.
         -4    1    3    3    0  502 -0.46550570336E+03  0.26472223296E+03  0.98107419081E+02  0.54442491325E+03  0.00000000000E+00 0.  1.
         11    1    5    5    0    0 -0.13109274965E+03  0.16193810973E+03 -0.11435277400E+03  0.23766745111E+03  0.00000000000E+00 0. -1.
        -11    1    5    5    0    0 -0.50183419344E+00  0.70436841171E+01 -0.42585930769E+02  0.43167427801E+02  0.00000000000E+00 0.  1.
          3    1    6    6  503    0  0.68714110318E+03 -0.42323112774E+03 -0.85443238365E+03  0.11753051439E+04  0.00000000000E+00 0. -1.
         -3    1    6    6    0  503  0.47743785198E+02 -0.62205594910E+02 -0.86565052007E+02  0.11680116991E+03  0.00000000000E+00 0.  1.
<mgrwt>
<rscale>  0 0.20266635E+04</rscale>
<asrwt>0</asrwt>
<pdfrwt beam="1">  1        1 0.25202627E+00 0.20266635E+04</pdfrwt>
<pdfrwt beam="2">  1       -2 0.96434132E-01 0.20266635E+04</pdfrwt>
<totfact> 0.38410839E+00</totfact>
</mgrwt>
</event>
<event>
12    4  0.4424320E-008  0.1440705E+04  0.7818608E-02  0.8924870E-01
         -2   -1    0    0    0  501 -0.00000000000E+00  0.00000000000E+00  0.23349988117E+03  0.23349988117E+03  0.00000000000E+00 0.  1.
          1   -1    0    0  501    0  0.00000000000E+00 -0.00000000000E+00 -0.22223044167E+04  0.22223044167E+04  0.00000000000E+00 0. -1.
        -24    2    1    2    0    0 -0.36916302990E+03 -0.11343393724E+03 -0.96363043073E+03  0.10411150336E+04  0.78665783194E+02 0.  0.
        254    2    1    2    0    0  0.36916302990E+03  0.11343393724E+03 -0.10251741048E+04  0.14146892642E+04  0.89510623305E+03 0.  0.
         23    2    4    4    0    0 -0.11028479836E+03 -0.19576326410E+03 -0.44697475476E+01  0.24176341005E+03  0.89126738256E+02 0.  0.
         23    2    4    4    0    0  0.47944782827E+03  0.30919720134E+03 -0.10207043572E+04  0.11729258542E+04  0.91894206483E+02 0.  0.
          1    1    3    3  502    0 -0.34089842821E+03 -0.83018551688E+02 -0.88862986417E+03  0.95538832617E+03  0.00000000000E+00 0. -1.
         -2    1    3    3    0  502 -0.28264601690E+02 -0.30415385555E+02 -0.75000566560E+02  0.85726707458E+02  0.00000000000E+00 0.  1.
         11    1    5    5    0    0 -0.67522901403E+02 -0.75223191307E+02 -0.40484471088E+02  0.10888922409E+03  0.00000000000E+00 0.  1.
        -11    1    5    5    0    0 -0.42761896959E+02 -0.12054007279E+03  0.36014723540E+02  0.13287418595E+03  0.00000000000E+00 0. -1.
          1    1    6    6  503    0  0.24993108484E+03  0.20668754679E+03 -0.62485203156E+03  0.70400664096E+03  0.00000000000E+00 0. -1.
         -1    1    6    6    0  503  0.22951674343E+03  0.10250965455E+03 -0.39585232567E+03  0.46891921322E+03  0.00000000000E+00 0.  1.
<mgrwt>
<rscale>  0 0.14407051E+04</rscale>
<asrwt>0</asrwt>
<pdfrwt beam="1">  1        1 0.34189300E+00 0.14407051E+04</pdfrwt>
<pdfrwt beam="2">  1       -2 0.35923057E-01 0.14407051E+04</pdfrwt>
<totfact> 0.13102255E+01</totfact>
</mgrwt>
</event>
<event>
12    4  0.4424320E-008  0.1816269E+04  0.7818608E-02  0.8697696E-01
          1   -1    0    0  501    0  0.00000000000E+00  0.00000000000E+00  0.13447265895E+04  0.13447265895E+04  0.00000000000E+00 0. -1.
         -2   -1    0    0    0  501 -0.00000000000E+00 -0.00000000000E+00 -0.61329037219E+03  0.61329037219E+03  0.00000000000E+00 0.  1.
        -24    2    1    2    0    0 -0.21678578297E+01  0.68403681633E+03  0.18387286759E+03  0.71286338988E+03  0.80336265052E+02 0.  0.
        254    2    1    2    0    0  0.21678578297E+01 -0.68403681633E+03  0.54756334976E+03  0.12451535718E+04  0.88468679756E+03 0.  0.
         23    2    4    4    0    0 -0.15324018401E+02 -0.64193464748E+03  0.76613734140E+03  0.10038021776E+04  0.91309740847E+02 0.  0.
         23    2    4    4    0    0  0.17491876231E+02 -0.42102168853E+02 -0.21857399164E+03  0.24135139421E+03  0.91637041128E+02 0.  0.
          3    1    3    3  502    0 -0.13411942164E+02  0.55478022029E+03  0.17874015535E+03  0.58301716625E+03  0.00000000000E+00 0. -1.
         -4    1    3    3    0  502  0.11244084335E+02  0.12925659605E+03  0.51327122489E+01  0.12984622362E+03  0.00000000000E+00 0.  1.
         11    1    5    5    0    0  0.21010070512E+02 -0.11242780442E+03  0.17809730878E+03  0.21166030725E+03  0.00000000000E+00 0.  1.
        -11    1    5    5    0    0 -0.36334088913E+02 -0.52950684306E+03  0.58804003262E+03  0.79214187039E+03  0.00000000000E+00 0. -1.
          1    1    6    6  503    0  0.17279483923E+02  0.80561775017E+01 -0.21442972780E+01  0.19185426015E+02  0.00000000000E+00 0. -1.
         -1    1    6    6    0  503  0.21239230822E+00 -0.50158346355E+02 -0.21642969437E+03  0.22216596819E+03  0.00000000000E+00 0.  1.
<mgrwt>
<rscale>  0 0.18162686E+04</rscale>
<asrwt>0</asrwt>
<pdfrwt beam="1">  1        1 0.20688101E+00 0.18162686E+04</pdfrwt>
<pdfrwt beam="2">  1       -2 0.94352365E-01 0.18162686E+04</pdfrwt>
<totfact> 0.65813599E+00</totfact>
</mgrwt>
</event>
<event>
12    4  0.4424320E-008  0.2232149E+04  0.7818608E-02  0.8505165E-01
          1   -1    0    0  501    0  0.00000000000E+00  0.00000000000E+00  0.14905485468E+04  0.14905485468E+04  0.00000000000E+00 0. -1.
         -2   -1    0    0    0  501 -0.00000000000E+00 -0.00000000000E+00 -0.83568049983E+03  0.83568049983E+03  0.00000000000E+00 0.  1.
        -24    2    1    2    0    0  0.77783220527E+03 -0.35399978725E+03  0.70126776946E+03  0.11084235892E+04  0.80545512617E+02 0.  0.
        254    2    1    2    0    0 -0.77783220527E+03  0.35399978725E+03 -0.46399722446E+02  0.12178054575E+04  0.86634774147E+03 0.  0.
         23    2    4    4    0    0 -0.15010461834E+03  0.41978826964E+03  0.24441620144E+03  0.51682311516E+03  0.92807677807E+02 0.  0.
         23    2    4    4    0    0 -0.62772758692E+03 -0.65788482385E+02 -0.29081592389E+03  0.70098234234E+03  0.91827527969E+02 0.  0.
          3    1    3    3  502    0  0.47791903690E+03 -0.20029957215E+03  0.37773797507E+03  0.64125852996E+03  0.00000000000E+00 0. -1.
         -4    1    3    3    0  502  0.29991316836E+03 -0.15370021511E+03  0.32352979439E+03  0.46716505920E+03  0.00000000000E+00 0.  1.
         11    1    5    5    0    0 -0.13230468117E+03  0.37977512648E+03  0.18413016086E+03  0.44230938436E+03  0.00000000000E+00 0. -1.
        -11    1    5    5    0    0 -0.17799937171E+02  0.40013143156E+02  0.60286040578E+02  0.74513730796E+02  0.00000000000E+00 0.  1.
          4    1    6    6  503    0 -0.50890427384E+03 -0.84164991969E+02 -0.21494756976E+03  0.55881102670E+03  0.00000000000E+00 0. -1.
         -4    1    6    6    0  503 -0.11882331308E+03  0.18376509584E+02 -0.75868354124E+02  0.14217131565E+03  0.00000000000E+00 0.  1.
<mgrwt>
<rscale>  0 0.22321491E+04</rscale>
<asrwt>0</asrwt>
<pdfrwt beam="1">  1        1 0.22931516E+00 0.22321491E+04</pdfrwt>
<pdfrwt beam="2">  1       -2 0.12856623E+00 0.22321491E+04</pdfrwt>
<totfact> 0.23677891E+00</totfact>
</mgrwt>
</event>
<event>
12    4  0.4424320E-008  0.1302276E+04  0.7818608E-02  0.9027762E-01
         -2   -1    0    0    0  501 -0.00000000000E+00  0.00000000000E+00  0.74748939520E+03  0.74748939520E+03  0.00000000000E+00 0.  1.
          1   -1    0    0  501    0  0.00000000000E+00 -0.00000000000E+00 -0.56720611107E+03  0.56720611107E+03  0.00000000000E+00 0. -1.
        -24    2    1    2    0    0 -0.19128250954E+03  0.18111153465E+02  0.32449978001E+03  0.38470222506E+03  0.76017645345E+02 0.  0.
        254    2    1    2    0    0  0.19128250954E+03 -0.18111153465E+02 -0.14421649588E+03  0.92999328121E+03  0.89842756696E+03 0.  0.
         23    2    4    4    0    0 -0.30422318887E+02  0.40985334029E+03 -0.80725608412E+01  0.42071349832E+03  0.89606938353E+02 0.  0.
         23    2    4    4    0    0  0.22170482842E+03 -0.42796449375E+03 -0.13614393504E+03  0.50927978289E+03  0.92325984141E+02 0.  0.
          1    1    3    3  502    0 -0.26839006399E+02  0.31007674946E+02  0.77640742191E+02  0.87805996481E+02  0.00000000000E+00 0. -1.
         -2    1    3    3    0  502 -0.16444350314E+03 -0.12896521481E+02  0.24685903782E+03  0.29689622858E+03  0.00000000000E+00 0.  1.
         11    1    5    5    0    0 -0.14428413012E+02  0.18186430557E+03  0.40928033769E+02  0.18697034175E+03  0.00000000000E+00 0.  1.
        -11    1    5    5    0    0 -0.15993905876E+02  0.22798903472E+03 -0.49000594611E+02  0.23374315658E+03  0.00000000000E+00 0. -1.
          1    1    6    6  503    0  0.13431754256E+03 -0.19652535027E+03 -0.29414905949E+02  0.23985131275E+03  0.00000000000E+00 0. -1.
         -1    1    6    6    0  503  0.87387285868E+02 -0.23143914348E+03 -0.10672902909E+03  0.26942847013E+03  0.00000000000E+00 0.  1.
<mgrwt>
<rscale>  0 0.13022758E+04</rscale>
<asrwt>0</asrwt>
<pdfrwt beam="1">  1        1 0.87262479E-01 0.13022758E+04</pdfrwt>
<pdfrwt beam="2">  1       -2 0.11499837E+00 0.13022758E+04</pdfrwt>
<totfact> 0.18814451E+01</totfact>
</mgrwt>
</event>
<event>
12    4  0.4424320E-008  0.1531859E+04  0.7818608E-02  0.8863539E-01
          1   -1    0    0  501    0  0.00000000000E+00  0.00000000000E+00  0.11906839789E+04  0.11906839789E+04  0.00000000000E+00 0. -1.
         -2   -1    0    0    0  501 -0.00000000000E+00 -0.00000000000E+00 -0.49269842828E+03  0.49269842828E+03  0.00000000000E+00 0.  1.
        -24    2    1    2    0    0 -0.12770752646E+03 -0.34049898263E+03  0.61211777413E+03  0.71643071691E+03  0.79599203713E+02 0.  0.
        254    2    1    2    0    0  0.12770752646E+03  0.34049898263E+03  0.85867776522E+02  0.96695169031E+03  0.89183716387E+03 0.  0.
         23    2    4    4    0    0  0.99126830063E+02  0.29779303619E+03  0.46800807612E+03  0.57067635202E+03  0.90183804578E+02 0.  0.
         23    2    4    4    0    0  0.28580696398E+02  0.42705946444E+02 -0.38214029960E+03  0.39627533828E+03  0.91445508838E+02 0.  0.
          1    1    3    3  502    0 -0.68005154050E+02 -0.24087274642E+03  0.47354934417E+03  0.53562427345E+03  0.00000000000E+00 0. -1.
         -2    1    3    3    0  502 -0.59702372412E+02 -0.99626236214E+02  0.13856842996E+03  0.18080644346E+03  0.00000000000E+00 0.  1.
         11    1    5    5    0    0  0.21814578307E+01 -0.65426870003E+01  0.69584152734E+01  0.97971962606E+01  0.00000000000E+00 0. -1.
        -11    1    5    5    0    0  0.96945372233E+02  0.30433572319E+03  0.46104966085E+03  0.56087915576E+03  0.00000000000E+00 0.  1.
          3    1    6    6  503    0  0.30825465795E+02  0.49186783017E+02 -0.11290862344E+03  0.12695631616E+03  0.00000000000E+00 0. -1.
         -3    1    6    6    0  503 -0.22447693965E+01 -0.64808365733E+01 -0.26923167616E+03  0.26931902213E+03  0.00000000000E+00 0.  1.
<mgrwt>
<rscale>  0 0.15318592E+04</rscale>
<asrwt>0</asrwt>
<pdfrwt beam="1">  1        1 0.18318215E+00 0.15318592E+04</pdfrwt>
<pdfrwt beam="2">  1       -2 0.75799758E-01 0.15318592E+04</pdfrwt>
<totfact> 0.14326547E+01</totfact>
</mgrwt>
</event>
<event>
12    4  0.4424320E-008  0.1781193E+04  0.7818608E-02  0.8716365E-01
         -2   -1    0    0    0  501 -0.00000000000E+00  0.00000000000E+00  0.52347351089E+03  0.52347351089E+03  0.00000000000E+00 0.  1.
          1   -1    0    0  501    0  0.00000000000E+00 -0.00000000000E+00 -0.15151904375E+04  0.15151904375E+04  0.00000000000E+00 0. -1.
        -24    2    1    2    0    0 -0.49251471658E+03  0.21170020528E+03  0.66558696649E+02  0.54809033454E+03  0.92656525676E+02 0.  0.
        254    2    1    2    0    0  0.49251471658E+03 -0.21170020528E+03 -0.10582756233E+04  0.14905736139E+04  0.90248250984E+03 0.  0.
         23    2    4    4    0    0  0.29906788674E+03 -0.55185560520E+03 -0.75965027364E+03  0.98976477036E+03  0.92625873936E+02 0.  0.
         23    2    4    4    0    0  0.19344682984E+03  0.34015539992E+03 -0.29862534965E+03  0.50080884352E+03  0.92222699083E+02 0.  0.
          3    1    3    3  502    0 -0.93767245097E+02  0.43780917972E+02 -0.23583330527E+02  0.10613782789E+03  0.00000000000E+00 0. -1.
         -4    1    3    3    0  502 -0.39874747148E+03  0.16791928731E+03  0.90142027176E+02  0.44195250665E+03  0.00000000000E+00 0.  1.
         11    1    5    5    0    0  0.26658188000E+03 -0.45445897149E+03 -0.67759632815E+03  0.85833305857E+03  0.00000000000E+00 0.  1.
        -11    1    5    5    0    0  0.32486006742E+02 -0.97396633713E+02 -0.82053945493E+02  0.13143171179E+03  0.00000000000E+00 0. -1.
          2    1    6    6  503    0  0.17078242219E+03  0.22291106731E+03 -0.23070723437E+03  0.36343060913E+03  0.00000000000E+00 0. -1.
         -2    1    6    6    0  503  0.22664407655E+02  0.11724433261E+03 -0.67918115274E+02  0.13737823439E+03  0.00000000000E+00 0.  1.
<mgrwt>
<rscale>  0 0.17811929E+04</rscale>
<asrwt>0</asrwt>
<pdfrwt beam="1">  1        1 0.23310622E+00 0.17811929E+04</pdfrwt>
<pdfrwt beam="2">  1       -2 0.80534388E-01 0.17811929E+04</pdfrwt>
<totfact> 0.72113096E+00</totfact>
</mgrwt>
</event>
<event>
12    4  0.4424320E-008  0.1441643E+04  0.7818608E-02  0.8924215E-01
          1   -1    0    0  501    0  0.00000000000E+00  0.00000000000E+00  0.57092455105E+03  0.57092455105E+03  0.00000000000E+00 0. -1.
         -2   -1    0    0    0  501 -0.00000000000E+00 -0.00000000000E+00 -0.91007347438E+03  0.91007347438E+03  0.00000000000E+00 0.  1.
        -24    2    1    2    0    0  0.13604832051E+03 -0.30434205058E+03 -0.39485656799E+03  0.52350737554E+03  0.83755797950E+02 0.  0.
        254    2    1    2    0    0 -0.13604832051E+03  0.30434205058E+03  0.55707644666E+02  0.95749064989E+03  0.89585254015E+03 0.  0.
         23    2    4    4    0    0 -0.11891843359E+03 -0.10703414905E+03 -0.33548989481E+03  0.38268643804E+03  0.91090819685E+02 0.  0.
         23    2    4    4    0    0 -0.17129886920E+02  0.41137619963E+03  0.39119753947E+03  0.57480421185E+03  0.88546916533E+02 0.  0.
          3    1    3    3  502    0  0.42318847110E+02 -0.77832069504E+02 -0.54334944031E+02  0.10392786925E+03  0.00000000000E+00 0. -1.
         -2    1    3    3    0  502  0.93729473397E+02 -0.22650998108E+03 -0.34052162396E+03  0.41957950629E+03  0.00000000000E+00 0.  1.
         11    1    5    5    0    0 -0.51558786153E+01  0.49856689436E+00 -0.98662593547E+02  0.98798476804E+02  0.00000000000E+00 0.  1.
        -11    1    5    5    0    0 -0.11376255497E+03 -0.10753271594E+03 -0.23682730126E+03  0.28388796123E+03  0.00000000000E+00 0. -1.
          1    1    6    6  503    0  0.31614223293E+02  0.21074946836E+03  0.17383758465E+03  0.27501691469E+03  0.00000000000E+00 0. -1.
         -1    1    6    6    0  503 -0.48744110213E+02  0.20062673127E+03  0.21735995482E+03  0.29978729716E+03  0.00000000000E+00 0.  1.
<mgrwt>
<rscale>  0 0.14416425E+04</rscale>
<asrwt>0</asrwt>
<pdfrwt beam="1">  1        1 0.87834547E-01 0.14416425E+04</pdfrwt>
<pdfrwt beam="2">  1       -2 0.14001130E+00 0.14416425E+04</pdfrwt>
<totfact> 0.11225193E+01</totfact>
</mgrwt>
</event>
<event>
12    4  0.4424320E-008  0.2028000E+04  0.7818608E-02  0.8593641E-01
         -2   -1    0    0    0  501 -0.00000000000E+00  0.00000000000E+00  0.47291796749E+03  0.47291796749E+03  0.00000000000E+00 0.  1.
          1   -1    0    0  501    0  0.00000000000E+00 -0.00000000000E+00 -0.21741527301E+04  0.21741527301E+04  0.00000000000E+00 0. -1.
        -24    2    1    2    0    0  0.11741690718E+03 -0.45627960883E+03 -0.14356030408E+04  0.15128097584E+04  0.75229402683E+02 0.  0.
        254    2    1    2    0    0 -0.11741690718E+03  0.45627960883E+03 -0.26563172188E+03  0.11342609392E+04  0.99700042876E+03 0.  0.
         23    2    4    4    0    0 -0.15660577347E+03  0.70656881575E+03 -0.40339639611E+03  0.83366418083E+03  0.92208754069E+02 0.  0.
         23    2    4    4    0    0  0.39188866291E+02 -0.25028920692E+03  0.13776467423E+03  0.30059675835E+03  0.84846044836E+02 0.  0.
          1    1    3    3  502    0  0.29322018182E+02 -0.25827895721E+03 -0.81588833591E+03  0.85629526284E+03  0.00000000000E+00 0. -1.
         -2    1    3    3    0  502  0.88094889000E+02 -0.19800065162E+03 -0.61971470488E+03  0.65651449561E+03  0.00000000000E+00 0.  1.
         11    1    5    5    0    0 -0.14730715830E+03  0.67463829383E+03 -0.35925277193E+03  0.77839500289E+03  0.00000000000E+00 0.  1.
        -11    1    5    5    0    0 -0.92986151733E+01  0.31930521922E+02 -0.44143624176E+02  0.55269177936E+02  0.00000000000E+00 0. -1.
          4    1    6    6  503    0 -0.11543300816E+02 -0.46641017542E+02 -0.25892171180E+01  0.48117942146E+02  0.00000000000E+00 0. -1.
         -4    1    6    6    0  503  0.50732167107E+02 -0.20364818938E+03  0.14035389135E+03  0.25247881621E+03  0.00000000000E+00 0.  1.
<mgrwt>
<rscale>  0 0.20279999E+04</rscale>
<asrwt>0</asrwt>
<pdfrwt beam="1">  1        1 0.33448502E+00 0.20279999E+04</pdfrwt>
<pdfrwt beam="2">  1       -2 0.72756613E-01 0.20279999E+04</pdfrwt>
<totfact> 0.31495953E+00</totfact>
</mgrwt>
</event>
<event>
12    4  0.4424320E-008  0.1233006E+04  0.7818608E-02  0.9084447E-01
          1   -1    0    0  501    0  0.00000000000E+00  0.00000000000E+00  0.31131435607E+04  0.31131435607E+04  0.00000000000E+00 0. -1.
         -2   -1    0    0    0  501 -0.00000000000E+00 -0.00000000000E+00 -0.12208755827E+03  0.12208755827E+03  0.00000000000E+00 0.  1.
        -24    2    1    2    0    0 -0.25162040367E+01  0.25477480281E+03  0.40598628936E+03  0.48598474185E+03  0.80248182119E+02 0.  0.
        254    2    1    2    0    0  0.25162040367E+01 -0.25477480281E+03  0.25850697131E+04  0.27492463771E+04  0.90047414690E+03 0.  0.
         23    2    4    4    0    0  0.37130439303E+03 -0.34559738814E+03  0.18012517612E+04  0.18735613506E+04  0.91759033623E+02 0.  0.
         23    2    4    4    0    0 -0.36878818900E+03  0.90822585329E+02  0.78381795191E+03  0.87568502656E+03  0.90555031087E+02 0.  0.
          1    1    3    3  502    0  0.20154464488E+02  0.14061058521E+02  0.49161847356E+02  0.54961832584E+02  0.00000000000E+00 0. -1.
         -2    1    3    3    0  502 -0.22670668524E+02  0.24071374429E+03  0.35682444201E+03  0.43102290927E+03  0.00000000000E+00 0.  1.
         11    1    5    5    0    0  0.19630679594E+03 -0.18358665995E+03  0.78626805782E+03  0.83093795111E+03  0.00000000000E+00 0.  1.
        -11    1    5    5    0    0  0.17499759710E+03 -0.16201072819E+03  0.10149837033E+04  0.10426233994E+04  0.00000000000E+00 0. -1.
          4    1    6    6  503    0 -0.13678904830E+03  0.23013728228E+02  0.38632710850E+03  0.41047473757E+03  0.00000000000E+00 0. -1.
         -4    1    6    6    0  503 -0.23199914070E+03  0.67808857101E+02  0.39749084341E+03  0.46521028899E+03  0.00000000000E+00 0.  1.
<mgrwt>
<rscale>  0 0.12330062E+04</rscale>
<asrwt>0</asrwt>
<pdfrwt beam="1">  1        1 0.47894510E+00 0.12330062E+04</pdfrwt>
<pdfrwt beam="2">  1       -2 0.18782704E-01 0.12330062E+04</pdfrwt>
<totfact> 0.10349249E+01</totfact>
</mgrwt>
</event>
<event>
12    4  0.4424320E-008  0.2397540E+04  0.7818608E-02  0.8440425E-01
         -2   -1    0    0    0  501 -0.00000000000E+00  0.00000000000E+00  0.92102936034E+03  0.92102936034E+03  0.00000000000E+00 0.  1.
          1   -1    0    0  501    0  0.00000000000E+00 -0.00000000000E+00 -0.15602640707E+04  0.15602640707E+04  0.00000000000E+00 0. -1.
        -24    2    1    2    0    0  0.44720779724E+03  0.18696201810E+03  0.66412244440E+03  0.82608110809E+03  0.80011035939E+02 0.  0.
        254    2    1    2    0    0 -0.44720779724E+03 -0.18696201810E+03 -0.13033571548E+04  0.16552123230E+04  0.89779638620E+03 0.  0.
         23    2    4    4    0    0 -0.48680631000E+03 -0.59754569541E+02 -0.19567802456E+03  0.53584683566E+03  0.91054653652E+02 0.  0.
         23    2    4    4    0    0  0.39598512765E+02 -0.12720744856E+03 -0.11076791302E+04  0.11193654873E+04  0.90973960368E+02 0.  0.
          3    1    3    3  502    0  0.70701461548E+02  0.53463432448E+02  0.87084100587E+02  0.12426051605E+03  0.00000000000E+00 0. -1.
         -4    1    3    3    0  502  0.37650633569E+03  0.13349858565E+03  0.57703834382E+03  0.70182059204E+03  0.00000000000E+00 0.  1.
         11    1    5    5    0    0 -0.28160424862E+03  0.10414853873E+02 -0.10351245214E+03  0.30020701153E+03  0.00000000000E+00 0.  1.
        -11    1    5    5    0    0 -0.20520206138E+03 -0.70169423414E+02 -0.92165572417E+02  0.23563982413E+03  0.00000000000E+00 0. -1.
          2    1    6    6  503    0  0.61598747249E+02 -0.50875308149E+02 -0.46763346340E+03  0.47440885187E+03  0.00000000000E+00 0. -1.
         -2    1    6    6    0  503 -0.22000234484E+02 -0.76332140407E+02 -0.64004566684E+03  0.64495663545E+03  0.00000000000E+00 0.  1.
<mgrwt>
<rscale>  0 0.23975396E+04</rscale>
<asrwt>0</asrwt>
<pdfrwt beam="1">  1        1 0.24004063E+00 0.23975396E+04</pdfrwt>
<pdfrwt beam="2">  1       -2 0.14169682E+00 0.23975396E+04</pdfrwt>
<totfact> 0.16281164E+00</totfact>
</mgrwt>
</event>
<event>
12    4  0.4424320E-008  0.1089240E+04  0.7818608E-02  0.9215743E-01
          1   -1    0    0  501    0  0.00000000000E+00  0.00000000000E+00  0.23974859239E+04  0.23974859239E+04  0.00000000000E+00 0. -1.
         -2   -1    0    0    0  501 -0.00000000000E+00 -0.00000000000E+00 -0.12371758520E+03  0.12371758520E+03  0.00000000000E+00 0.  1.
        -24    2    1    2    0    0  0.24706158631E+03  0.97283300668E+02  0.89830893429E+03  0.94076226765E+03  0.87012842654E+02 0.  0.
        254    2    1    2    0    0 -0.24706158631E+03 -0.97283300668E+02  0.13754594044E+04  0.15804412414E+04  0.73171201744E+03 0.  0.
         23    2    4    4    0    0 -0.38647471154E+03 -0.25628077481E+03  0.12039273387E+04  0.12931194469E+04  0.87603246337E+02 0.  0.
         23    2    4    4    0    0  0.13941312523E+03  0.15899747414E+03  0.17153206570E+03  0.28732179458E+03  0.91729754217E+02 0.  0.
          1    1    3    3  502    0  0.12742193090E+03  0.96278400066E+02  0.50318894631E+03  0.52792517886E+03  0.00000000000E+00 0. -1.
         -2    1    3    3    0  502  0.11963965541E+03  0.10049006020E+01  0.39511998798E+03  0.41283708879E+03  0.00000000000E+00 0.  1.
         11    1    5    5    0    0 -0.22581392744E+02 -0.71761448406E+01  0.13057114759E+03  0.13270358298E+03  0.00000000000E+00 0.  1.
        -11    1    5    5    0    0 -0.36389331879E+03 -0.24910462997E+03  0.10733561911E+04  0.11604158639E+04  0.00000000000E+00 0. -1.
          1    1    6    6  503    0  0.12479974403E+03  0.16704475329E+03  0.17248725115E+03  0.27061185769E+03  0.00000000000E+00 0. -1.
         -1    1    6    6    0  503  0.14613381203E+02 -0.80472791479E+01 -0.95518544866E+00  0.16709936897E+02  0.00000000000E+00 0.  1.
<mgrwt>
<rscale>  0 0.10892404E+04</rscale>
<asrwt>0</asrwt>
<pdfrwt beam="1">  1        1 0.36884395E+00 0.10892404E+04</pdfrwt>
<pdfrwt beam="2">  1       -2 0.19033476E-01 0.10892404E+04</pdfrwt>
<totfact> 0.32807271E+01</totfact>
</mgrwt>
</event>
<event>
12    4  0.4424320E-008  0.1342188E+04  0.7818608E-02  0.8996763E-01
          1   -1    0    0  501    0  0.00000000000E+00  0.00000000000E+00  0.15174719135E+04  0.15174719135E+04  0.00000000000E+00 0. -1.
         -2   -1    0    0    0  501 -0.00000000000E+00 -0.00000000000E+00 -0.29678788706E+03  0.29678788706E+03  0.00000000000E+00 0.  1.
        -24    2    1    2    0    0 -0.17228589728E+03  0.27937567600E+03  0.14436919230E+03  0.36737621235E+03  0.79935092215E+02 0.  0.
        254    2    1    2    0    0  0.17228589728E+03 -0.27937567600E+03  0.10763148341E+04  0.14468835882E+04  0.90955225079E+03 0.  0.
         23    2    4    4    0    0 -0.20891666143E+03  0.45929063761E+02 -0.24096523857E+02  0.23418962972E+03  0.92241475946E+02 0.  0.
         23    2    4    4    0    0  0.38120255872E+03 -0.32530473977E+03  0.11004113580E+04  0.12126939585E+04  0.92644026741E+02 0.  0.
          3    1    3    3  502    0 -0.35756602565E+02  0.60019996288E+02 -0.30017412726E+01  0.69928141918E+02  0.00000000000E+00 0. -1.
         -4    1    3    3    0  502 -0.13652929472E+03  0.21935567972E+03  0.14737093357E+03  0.29744807043E+03  0.00000000000E+00 0.  1.
         11    1    5    5    0    0 -0.15352816494E+02 -0.22514990647E+02 -0.72039570814E+01  0.28187422297E+02  0.00000000000E+00 0. -1.
        -11    1    5    5    0    0 -0.19356384494E+03  0.68444054408E+02 -0.16892566776E+02  0.20600220742E+03  0.00000000000E+00 0.  1.
          1    1    6    6  503    0  0.12756167018E+03 -0.93922975478E+02  0.25458668043E+03  0.29984643215E+03  0.00000000000E+00 0. -1.
         -1    1    6    6    0  503  0.25364088854E+03 -0.23138176429E+03  0.84582467755E+03  0.91284752634E+03  0.00000000000E+00 0.  1.
<mgrwt>
<rscale>  0 0.13421882E+04</rscale>
<asrwt>0</asrwt>
<pdfrwt beam="1">  1        1 0.23345721E+00 0.13421882E+04</pdfrwt>
<pdfrwt beam="2">  1       -2 0.45659676E-01 0.13421882E+04</pdfrwt>
<totfact> 0.24867133E+01</totfact>
</mgrwt>
</event>
<event>
12    4  0.4424320E-008  0.1692482E+04  0.7818608E-02  0.8765664E-01
         -2   -1    0    0    0  501 -0.00000000000E+00  0.00000000000E+00  0.14642723690E+04  0.14642723690E+04  0.00000000000E+00 0.  1.
          1   -1    0    0  501    0  0.00000000000E+00 -0.00000000000E+00 -0.48906476048E+03  0.48906476048E+03  0.00000000000E+00 0. -1.
        -24    2    1    2    0    0 -0.96906647299E+02  0.58485861214E+03  0.18667223773E+03  0.62651643075E+03  0.78903860362E+02 0.  0.
        254    2    1    2    0    0  0.96906647299E+02 -0.58485861214E+03  0.78853537077E+03  0.13268206987E+04  0.88725117136E+03 0.  0.
         23    2    4    4    0    0  0.15680968113E+03  0.46764116037E+02 -0.11460645654E+03  0.21933847129E+03  0.90545935644E+02 0.  0.
         23    2    4    4    0    0 -0.59903033833E+02 -0.63162272818E+03  0.90314182731E+03  0.11074822274E+04  0.91192541336E+02 0.  0.
          1    1    3    3  502    0 -0.73784176178E+01  0.28477447814E+02 -0.76832217675E+01  0.30404571651E+02  0.00000000000E+00 0. -1.
         -2    1    3    3    0  502 -0.89528229681E+02  0.55638116433E+03  0.19435545949E+03  0.59611185910E+03  0.00000000000E+00 0.  1.
         11    1    5    5    0    0  0.86375906128E+02  0.12099723025E+02 -0.89020493292E+01  0.87672384129E+02  0.00000000000E+00 0. -1.
        -11    1    5    5    0    0  0.70433775004E+02  0.34664393012E+02 -0.10570440721E+03  0.13166608716E+03  0.00000000000E+00 0.  1.
          3    1    6    6  503    0 -0.43782413082E+01 -0.11812489844E+03  0.23431164322E+03  0.26243972027E+03  0.00000000000E+00 0. -1.
         -3    1    6    6    0  503 -0.55524792525E+02 -0.51349782974E+03  0.66883018409E+03  0.84504250714E+03  0.00000000000E+00 0.  1.
<mgrwt>
<rscale>  0 0.16924822E+04</rscale>
<asrwt>0</asrwt>
<pdfrwt beam="1">  1        1 0.75240733E-01 0.16924822E+04</pdfrwt>
<pdfrwt beam="2">  1       -2 0.22527267E+00 0.16924822E+04</pdfrwt>
<totfact> 0.34826663E+00</totfact>
</mgrwt>
</event>
<event>
12    4  0.4424320E-008  0.1951939E+04  0.7818608E-02  0.8629426E-01
         -2   -1    0    0    0  501 -0.00000000000E+00  0.00000000000E+00  0.73220094030E+03  0.73220094030E+03  0.00000000000E+00 0.  1.
          1   -1    0    0  501    0  0.00000000000E+00 -0.00000000000E+00 -0.13008948892E+04  0.13008948892E+04  0.00000000000E+00 0. -1.
        -24    2    1    2    0    0  0.72609716576E+03 -0.51769309593E+02 -0.38461923387E+03  0.82712373565E+03  0.79401281250E+02 0.  0.
        254    2    1    2    0    0 -0.72609716576E+03  0.51769309593E+02 -0.18407471502E+03  0.12059720938E+04  0.94370971960E+03 0.  0.
         23    2    4    4    0    0 -0.13173021438E+03 -0.23024220254E+03 -0.41684110671E+03  0.50219364409E+03  0.89875617984E+02 0.  0.
         23    2    4    4    0    0 -0.59436695138E+03  0.28201151214E+03  0.23276639169E+03  0.70377844975E+03  0.91221419393E+02 0.  0.
          1    1    3    3  502    0  0.61149688037E+03 -0.54518378388E+02 -0.35315505369E+03  0.70825078908E+03  0.00000000000E+00 0. -1.
         -2    1    3    3    0  502  0.11460028539E+03  0.27490687947E+01 -0.31464180179E+02  0.11887294657E+03  0.00000000000E+00 0.  1.
         11    1    5    5    0    0 -0.21153132310E+02 -0.11944984186E+02 -0.94021579462E+02  0.97109191420E+02  0.00000000000E+00 0.  1.
        -11    1    5    5    0    0 -0.11057708207E+03 -0.21829721836E+03 -0.32281952725E+03  0.40508445267E+03  0.00000000000E+00 0. -1.
          4    1    6    6  503    0 -0.75348218613E+02  0.66067433733E+02  0.17000396791E+02  0.10164287156E+03  0.00000000000E+00 0.  1.
         -4    1    6    6    0  503 -0.51901873277E+03  0.21594407840E+03  0.21576599490E+03  0.60213557819E+03  0.00000000000E+00 0. -1.
<mgrwt>
<rscale>  0 0.19519390E+04</rscale>
<asrwt>0</asrwt>
<pdfrwt beam="1">  1        1 0.20013767E+00 0.19519390E+04</pdfrwt>
<pdfrwt beam="2">  1       -2 0.11264630E+00 0.19519390E+04</pdfrwt>
<totfact> 0.45779479E+00</totfact>
</mgrwt>
</event>
<event>
12    4  0.4424320E-008  0.2639272E+04  0.7818608E-02  0.8354983E-01
         -2   -1    0    0    0  501 -0.00000000000E+00  0.00000000000E+00  0.11008119263E+04  0.11008119263E+04  0.00000000000E+00 0.  1.
          1   -1    0    0  501    0  0.00000000000E+00 -0.00000000000E+00 -0.15819584121E+04  0.15819584121E+04  0.00000000000E+00 0. -1.
        -24    2    1    2    0    0 -0.19927148310E+03  0.58105930385E+03  0.79178588696E+03  0.10052180086E+04  0.78735732115E+02 0.  0.
        254    2    1    2    0    0  0.19927148310E+03 -0.58105930385E+03 -0.12729323728E+04  0.16775523297E+04  0.90359612372E+03 0.  0.
         23    2    4    4    0    0  0.53798349649E+03 -0.22162040691E+03 -0.63452924210E+03  0.86560256810E+03  0.89992219432E+02 0.  0.
         23    2    4    4    0    0 -0.33871201339E+03 -0.35943889694E+03 -0.63840313067E+03  0.81194976165E+03  0.88213998556E+02 0.  0.
          3    1    3    3  502    0 -0.62118985742E+02  0.20152618823E+03  0.21392492537E+03  0.30039215474E+03  0.00000000000E+00 0. -1.
         -4    1    3    3    0  502 -0.13715249736E+03  0.37953311562E+03  0.57786096159E+03  0.70482585389E+03  0.00000000000E+00 0.  1.
         11    1    5    5    0    0  0.34376516749E+03 -0.16821710353E+03 -0.46566881004E+03  0.60275942542E+03  0.00000000000E+00 0. -1.
        -11    1    5    5    0    0  0.19421832900E+03 -0.53403303386E+02 -0.16886043206E+03  0.26284314267E+03  0.00000000000E+00 0.  1.
          2    1    6    6  503    0 -0.80394838765E+02 -0.11490455684E+03 -0.12828766993E+03  0.19006344609E+03  0.00000000000E+00 0. -1.
         -2    1    6    6    0  503 -0.25831717462E+03 -0.24453434010E+03 -0.51011546074E+03  0.62188631556E+03  0.00000000000E+00 0.  1.
<mgrwt>
<rscale>  0 0.26392716E+04</rscale>
<asrwt>0</asrwt>
<pdfrwt beam="1">  1        1 0.24337822E+00 0.26392716E+04</pdfrwt>
<pdfrwt beam="2">  1       -2 0.16935568E+00 0.26392716E+04</pdfrwt>
<totfact> 0.95352521E-01</totfact>
</mgrwt>
</event>
<event>
12    4  0.4424320E-008  0.1085873E+04  0.7818608E-02  0.9219072E-01
         -2   -1    0    0    0  501 -0.00000000000E+00  0.00000000000E+00  0.13025289580E+03  0.13025289580E+03  0.00000000000E+00 0.  1.
          1   -1    0    0  501    0  0.00000000000E+00 -0.00000000000E+00 -0.22631351475E+04  0.22631351475E+04  0.00000000000E+00 0. -1.
        -24    2    1    2    0    0  0.47022781928E+02 -0.60880082123E+02 -0.50339349277E+02  0.12139489696E+03  0.79278903270E+02 0.  0.
        254    2    1    2    0    0 -0.47022781928E+02  0.60880082123E+02 -0.20825429024E+04  0.22719931463E+04  0.90501402759E+03 0.  0.
         23    2    4    4    0    0  0.15716641283E+03  0.25838916055E+03 -0.21806082318E+03  0.38382828750E+03  0.91144895971E+02 0.  0.
         23    2    4    4    0    0 -0.20418919475E+03 -0.19750907843E+03 -0.18644820792E+04  0.18881648588E+04  0.90388312597E+02 0.  0.
          3    1    3    3  502    0 -0.16032818578E+01  0.13619278137E+02  0.71565272901E+01  0.15468391401E+02  0.00000000000E+00 0. -1.
         -4    1    3    3    0  502  0.48626063786E+02 -0.74499360260E+02 -0.57495876567E+02  0.10592650556E+03  0.00000000000E+00 0.  1.
         11    1    5    5    0    0 -0.11429971960E+02  0.78068298905E+01 -0.90107557042E+01  0.16516191156E+02  0.00000000000E+00 0.  1.
        -11    1    5    5    0    0  0.16859638479E+03  0.25058233066E+03 -0.20905006748E+03  0.36731209634E+03  0.00000000000E+00 0. -1.
          1    1    6    6  503    0 -0.17035480612E+03 -0.10623405358E+03 -0.12617498534E+04  0.12776224507E+04  0.00000000000E+00 0. -1.
         -1    1    6    6    0  503 -0.33834388638E+02 -0.91275024851E+02 -0.60273222580E+03  0.61054240806E+03  0.00000000000E+00 0.  1.
<mgrwt>
<rscale>  0 0.10858727E+04</rscale>
<asrwt>0</asrwt>
<pdfrwt beam="1">  1        1 0.34817462E+00 0.10858727E+04</pdfrwt>
<pdfrwt beam="2">  1       -2 0.20038908E-01 0.10858727E+04</pdfrwt>
<totfact> 0.37015191E+01</totfact>
</mgrwt>
</event>
<event>
12    4  0.4424320E-008  0.1525841E+04  0.7818608E-02  0.8867448E-01
         -2   -1    0    0    0  501 -0.00000000000E+00  0.00000000000E+00  0.35882060083E+03  0.35882060083E+03  0.00000000000E+00 0.  1.
          1   -1    0    0  501    0  0.00000000000E+00 -0.00000000000E+00 -0.16221137234E+04  0.16221137234E+04  0.00000000000E+00 0. -1.
        -24    2    1    2    0    0  0.21090116978E+03  0.12266302096E+03  0.14098826924E+03  0.29396163991E+03  0.83727137471E+02 0.  0.
        254    2    1    2    0    0 -0.21090116978E+03 -0.12266302096E+03 -0.14042813918E+04  0.16869726843E+04  0.90241071035E+03 0.  0.
         23    2    4    4    0    0 -0.39502853380E+03 -0.35838916287E+03 -0.52603703695E+03  0.75473633565E+03  0.91769480410E+02 0.  0.
         23    2    4    4    0    0  0.18412736402E+03  0.23572614191E+03 -0.87824435487E+03  0.93223634868E+03  0.91004191004E+02 0.  0.
          1    1    3    3  502    0  0.73592861587E+02  0.24820004752E+01  0.56830564160E+02  0.93014959150E+02  0.00000000000E+00 0. -1.
         -2    1    3    3    0  502  0.13730830819E+03  0.12018102049E+03  0.84157705076E+02  0.20094668076E+03  0.00000000000E+00 0.  1.
         11    1    5    5    0    0 -0.96049548058E+02 -0.11249726299E+03 -0.19913717489E+03  0.24806604823E+03  0.00000000000E+00 0. -1.
        -11    1    5    5    0    0 -0.29897898574E+03 -0.24589189988E+03 -0.32689986206E+03  0.50667028742E+03  0.00000000000E+00 0.  1.
          3    1    6    6  503    0  0.24627151731E+02  0.34565886386E+02 -0.52523395184E+02  0.67527802760E+02  0.00000000000E+00 0. -1.
         -3    1    6    6    0  503  0.15950021229E+03  0.20116025552E+03 -0.82572095969E+03  0.86470854592E+03  0.00000000000E+00 0.  1.
<mgrwt>
<rscale>  0 0.15258412E+04</rscale>
<asrwt>0</asrwt>
<pdfrwt beam="1">  1        1 0.24955596E+00 0.15258412E+04</pdfrwt>
<pdfrwt beam="2">  1       -2 0.55203169E-01 0.15258412E+04</pdfrwt>
<totfact> 0.14083872E+01</totfact>
</mgrwt>
</event>
<event>
12    4  0.4424320E-008  0.2380155E+04  0.7818608E-02  0.8446971E-01
          1   -1    0    0  501    0  0.00000000000E+00  0.00000000000E+00  0.93376381523E+03  0.93376381523E+03  0.00000000000E+00 0. -1.
         -2   -1    0    0    0  501 -0.00000000000E+00 -0.00000000000E+00 -0.15167479945E+04  0.15167479945E+04  0.00000000000E+00 0.  1.
        -24    2    1    2    0    0  0.87731165784E+03  0.47285426060E+03 -0.36363728828E+03  0.10637260236E+04  0.77550493948E+02 0.  0.
        254    2    1    2    0    0 -0.87731165784E+03 -0.47285426060E+03 -0.21934689103E+03  0.13867857862E+04  0.93903932897E+03 0.  0.
         23    2    4    4    0    0 -0.77745751803E+03 -0.22099637023E+03 -0.52569899933E+03  0.96851633032E+03  0.91568860442E+02 0.  0.
         23    2    4    4    0    0 -0.99854139812E+02 -0.25185789037E+03  0.30635210831E+03  0.41826945585E+03  0.87718169432E+02 0.  0.
          3    1    3    3  502    0  0.72632178327E+03  0.39128449785E+03 -0.33152962190E+03  0.88913372521E+03  0.00000000000E+00 0. -1.
         -4    1    3    3    0  502  0.15098987456E+03  0.81569762747E+02 -0.32107666387E+02  0.17459229839E+03  0.00000000000E+00 0.  1.
         11    1    5    5    0    0 -0.10052518896E+03 -0.97519999581E+01 -0.96091570999E+02  0.13940590065E+03  0.00000000000E+00 0. -1.
        -11    1    5    5    0    0 -0.67693232907E+03 -0.21124437027E+03 -0.42960742833E+03  0.82911042967E+03  0.00000000000E+00 0.  1.
          4    1    6    6  503    0 -0.10440781789E+03 -0.25308572340E+03  0.30901911629E+03  0.41285129291E+03  0.00000000000E+00 0.  1.
         -4    1    6    6    0  503  0.45536780799E+01  0.12278330295E+01 -0.26670079815E+01  0.54181629338E+01  0.00000000000E+00 0. -1.
<mgrwt>
<rscale>  0 0.23801549E+04</rscale>
<asrwt>0</asrwt>
<pdfrwt beam="1">  1        1 0.14365597E+00 0.23801549E+04</pdfrwt>
<pdfrwt beam="2">  1       -2 0.23334584E+00 0.23801549E+04</pdfrwt>
<totfact> 0.10952298E+00</totfact>
</mgrwt>
</event>
<event>
12    4  0.4424320E-008  0.2273614E+04  0.7818608E-02  0.8488398E-01
         -2   -1    0    0    0  501 -0.00000000000E+00  0.00000000000E+00  0.41404968433E+03  0.41404968433E+03  0.00000000000E+00 0.  1.
          1   -1    0    0  501    0  0.00000000000E+00 -0.00000000000E+00 -0.31211968139E+04  0.31211968139E+04  0.00000000000E+00 0. -1.
        -24    2    1    2    0    0  0.20168810787E+03  0.59227959800E+03 -0.21769768316E+04  0.22665735609E+04  0.81574300221E+02 0.  0.
        254    2    1    2    0    0 -0.20168810787E+03 -0.59227959800E+03 -0.53017029800E+03  0.12686729374E+04  0.96797585824E+03 0.  0.
         23    2    4    4    0    0  0.19395744850E+02  0.25076962556E+03 -0.61971361841E+02  0.27494873026E+03  0.92166992794E+02 0.  0.
         23    2    4    4    0    0 -0.22108385272E+03 -0.84304922356E+03 -0.46819893615E+03  0.99372420713E+03  0.93099370304E+02 0.  0.
          1    1    3    3  502    0  0.18370245761E+03  0.56939624357E+03 -0.20128742189E+04  0.20999098305E+04  0.00000000000E+00 0. -1.
         -2    1    3    3    0  502  0.17985650259E+02  0.22883354423E+02 -0.16410261276E+03  0.16666373042E+03  0.00000000000E+00 0.  1.
         11    1    5    5    0    0 -0.25434305887E+02  0.18993678915E+03 -0.53165205675E+02  0.19887037709E+03  0.00000000000E+00 0. -1.
        -11    1    5    5    0    0  0.44830050737E+02  0.60832836409E+02 -0.88061561669E+01  0.76078353170E+02  0.00000000000E+00 0.  1.
          2    1    6    6  503    0 -0.21443995303E+03 -0.84164558334E+03 -0.46867230440E+03  0.98691717501E+03  0.00000000000E+00 0. -1.
         -2    1    6    6    0  503 -0.66438996820E+01 -0.14036402129E+01  0.47336824044E+00  0.68070321229E+01  0.00000000000E+00 0.  1.
<mgrwt>
<rscale>  0 0.22736144E+04</rscale>
<asrwt>0</asrwt>
<pdfrwt beam="1">  1        1 0.48018415E+00 0.22736144E+04</pdfrwt>
<pdfrwt beam="2">  1       -2 0.63699948E-01 0.22736144E+04</pdfrwt>
<totfact> 0.88449318E-01</totfact>
</mgrwt>
</event>
<event>
12    4  0.4424320E-008  0.2882380E+04  0.7818608E-02  0.8278139E-01
         -4   -1    0    0    0  501 -0.00000000000E+00  0.00000000000E+00  0.98061019905E+03  0.98061019905E+03  0.00000000000E+00 0.  1.
          1   -1    0    0  501    0  0.00000000000E+00 -0.00000000000E+00 -0.21180988314E+04  0.21180988314E+04  0.00000000000E+00 0. -1.
        -24    2    1    2    0    0 -0.43417542536E+02  0.12503978072E+04 -0.93405478550E+03  0.15631926481E+04  0.75717591059E+02 0.  0.
        254    2    1    2    0    0  0.43417542536E+02 -0.12503978072E+04 -0.20343384688E+03  0.15355163823E+04  0.86662879662E+03 0.  0.
         23    2    4    4    0    0 -0.27686899078E+03 -0.10979180809E+04 -0.45085611631E+02  0.11367956982E+04  0.90505230982E+02 0.  0.
         23    2    4    4    0    0  0.32028653332E+03 -0.15247972634E+03 -0.15834823525E+03  0.39872068410E+03  0.89835905709E+02 0.  0.
          1    1    3    3  502    0  0.34461840183E+01  0.67496052892E+03 -0.47030932181E+03  0.82266302334E+03  0.00000000000E+00 0. -1.
         -2    1    3    3    0  502 -0.46863726555E+02  0.57543727828E+03 -0.46374546369E+03  0.74052962479E+03  0.00000000000E+00 0.  1.
         11    1    5    5    0    0 -0.81443444915E+02 -0.40598127423E+03 -0.55110281364E+02  0.41772116640E+03  0.00000000000E+00 0.  1.
        -11    1    5    5    0    0 -0.19542554586E+03 -0.69193680662E+03  0.10024669733E+02  0.71907453184E+03  0.00000000000E+00 0. -1.
          4    1    6    6  503    0  0.19556399694E+03 -0.12851300755E+03 -0.13315472473E+03  0.26924162146E+03  0.00000000000E+00 0. -1.
         -4    1    6    6    0  503  0.12472253638E+03 -0.23966718790E+02 -0.25193510520E+02  0.12947906264E+03  0.00000000000E+00 0.  1.
<mgrwt>
<rscale>  0 0.28823805E+04</rscale>
<asrwt>0</asrwt>
<pdfrwt beam="1">  1        1 0.32586136E+00 0.28823805E+04</pdfrwt>
<pdfrwt beam="2">  1       -4 0.15086311E+00 0.28823805E+04</pdfrwt>
<totfact> 0.30612011E-01</totfact>
</mgrwt>
</event>
<event>
12    4  0.4424320E-008  0.2216999E+04  0.7818608E-02  0.8511386E-01
          1   -1    0    0  501    0  0.00000000000E+00  0.00000000000E+00  0.14266400407E+04  0.14266400407E+04  0.00000000000E+00 0. -1.
         -2   -1    0    0    0  501 -0.00000000000E+00 -0.00000000000E+00 -0.86130440966E+03  0.86130440966E+03  0.00000000000E+00 0.  1.
        -24    2    1    2    0    0 -0.72808164235E+03 -0.52571242611E+02 -0.34780768277E+03  0.81303031931E+03  0.84743745718E+02 0.  0.
        254    2    1    2    0    0  0.72808164235E+03  0.52571242611E+02  0.91314331382E+03  0.14749141311E+04  0.89926323675E+03 0.  0.
         23    2    4    4    0    0  0.59127228183E+03 -0.34403423901E+03  0.37047143452E+03  0.78308259959E+03  0.89480752782E+02 0.  0.
         23    2    4    4    0    0  0.13680936052E+03  0.39660548162E+03  0.54267187931E+03  0.69183153148E+03  0.90140946166E+02 0.  0.
          1    1    3    3  502    0 -0.16508322356E+03  0.15509703290E+02 -0.10411309906E+03  0.19578702458E+03  0.00000000000E+00 0. -1.
         -2    1    3    3    0  502 -0.56299841880E+03 -0.68080945901E+02 -0.24369458370E+03  0.61724329473E+03  0.00000000000E+00 0.  1.
         11    1    5    5    0    0  0.33455806366E+03 -0.22367291030E+03  0.25811346833E+03  0.47810169556E+03  0.00000000000E+00 0. -1.
        -11    1    5    5    0    0  0.25671421817E+03 -0.12036132871E+03  0.11235796618E+03  0.30498090403E+03  0.00000000000E+00 0.  1.
          3    1    6    6  503    0  0.11444715241E+03  0.19968569812E+03  0.27085920785E+03  0.35543950147E+03  0.00000000000E+00 0. -1.
         -3    1    6    6    0  503  0.22362208105E+02  0.19691978350E+03  0.27181267146E+03  0.33639203001E+03  0.00000000000E+00 0.  1.
<mgrwt>
<rscale>  0 0.22169992E+04</rscale>
<asrwt>0</asrwt>
<pdfrwt beam="1">  1        1 0.21948308E+00 0.22169992E+04</pdfrwt>
<pdfrwt beam="2">  1       -2 0.13250837E+00 0.22169992E+04</pdfrwt>
<totfact> 0.24330653E+00</totfact>
</mgrwt>
</event>
<event>
12    4  0.4424320E-008  0.1449279E+04  0.7818608E-02  0.8918901E-01
         -2   -1    0    0    0  501 -0.00000000000E+00  0.00000000000E+00  0.47727912445E+03  0.47727912445E+03  0.00000000000E+00 0.  1.
          1   -1    0    0  501    0  0.00000000000E+00 -0.00000000000E+00 -0.11001996913E+04  0.11001996913E+04  0.00000000000E+00 0. -1.
        -24    2    1    2    0    0  0.28791693059E+03 -0.25934134049E+03 -0.42875376408E+03  0.58312670674E+03  0.77800231971E+02 0.  0.
        254    2    1    2    0    0 -0.28791693059E+03  0.25934134049E+03 -0.19416680275E+03  0.99435210900E+03  0.89491970566E+03 0.  0.
         23    2    4    4    0    0  0.10144326758E+03 -0.21344935477E+03 -0.27032145588E+03  0.37048364895E+03  0.91285711035E+02 0.  0.
         23    2    4    4    0    0 -0.38936019816E+03  0.47279069526E+03  0.76154653131E+02  0.62386846005E+03  0.90994059220E+02 0.  0.
          1    1    3    3  502    0  0.26536959261E+03 -0.26054260627E+03 -0.41193395951E+03  0.55497122211E+03  0.00000000000E+00 0. -1.
         -2    1    3    3    0  502  0.22547337979E+02  0.12012657812E+01 -0.16819804569E+02  0.28155484637E+02  0.00000000000E+00 0.  1.
         11    1    5    5    0    0  0.86842473184E+01 -0.57494578481E+02 -0.12551878760E+03  0.13833296334E+03  0.00000000000E+00 0. -1.
        -11    1    5    5    0    0  0.92759020257E+02 -0.15595477629E+03 -0.14480266829E+03  0.23215068561E+03  0.00000000000E+00 0.  1.
          1    1    6    6  503    0  0.43402950300E+01  0.11955040085E+01 -0.12712118748E+01  0.46779664826E+01  0.00000000000E+00 0. -1.
         -1    1    6    6    0  503 -0.39370049319E+03  0.47159519125E+03  0.77425865006E+02  0.61919049357E+03  0.00000000000E+00 0.  1.
<mgrwt>
<rscale>  0 0.14492789E+04</rscale>
<asrwt>0</asrwt>
<pdfrwt beam="1">  1        1 0.16926149E+00 0.14492789E+04</pdfrwt>
<pdfrwt beam="2">  1       -2 0.73427558E-01 0.14492789E+04</pdfrwt>
<totfact> 0.18065776E+01</totfact>
</mgrwt>
</event>
<event>
12    4  0.4424320E-008  0.1859223E+04  0.7818608E-02  0.8675424E-01
          1   -1    0    0  501    0  0.00000000000E+00  0.00000000000E+00  0.83629666196E+03  0.83629666196E+03  0.00000000000E+00 0. -1.
         -2   -1    0    0    0  501 -0.00000000000E+00 -0.00000000000E+00 -0.10333381610E+04  0.10333381610E+04  0.00000000000E+00 0.  1.
        -24    2    1    2    0    0 -0.40243535766E+03  0.37831758326E+03 -0.51324196961E+03  0.75833254847E+03  0.81071103360E+02 0.  0.
        254    2    1    2    0    0  0.40243535766E+03 -0.37831758326E+03  0.31620047062E+03  0.11113022744E+04  0.91100581593E+03 0.  0.
         23    2    4    4    0    0  0.15301014655E+03  0.68619157200E+02  0.51909801720E+03  0.55301283620E+03  0.90773078899E+02 0.  0.
         23    2    4    4    0    0  0.24942521111E+03 -0.44693674046E+03 -0.20289754659E+03  0.55828943824E+03  0.92489440100E+02 0.  0.
          3    1    3    3  502    0 -0.21890218971E+02  0.46609611514E+02 -0.67397686107E+02  0.84817956028E+02  0.00000000000E+00 0. -1.
         -4    1    3    3    0  502 -0.38054513869E+03  0.33170797174E+03 -0.44584428351E+03  0.67351459244E+03  0.00000000000E+00 0.  1.
         11    1    5    5    0    0  0.42384673045E+02  0.65587531440E+02  0.25428297602E+03  0.26600379073E+03  0.00000000000E+00 0.  1.
        -11    1    5    5    0    0  0.11062547350E+03  0.30316257598E+01  0.26481504118E+03  0.28700904546E+03  0.00000000000E+00 0. -1.
          2    1    6    6  503    0  0.22121398937E+03 -0.43336186879E+03 -0.20240529723E+03  0.52697821849E+03  0.00000000000E+00 0. -1.
         -2    1    6    6    0  503  0.28211221741E+02 -0.13574871671E+02 -0.49224935509E+00  0.31311219754E+02  0.00000000000E+00 0.  1.
<mgrwt>
<rscale>  0 0.18592227E+04</rscale>
<asrwt>0</asrwt>
<pdfrwt beam="1">  1        1 0.12866103E+00 0.18592227E+04</pdfrwt>
<pdfrwt beam="2">  1       -2 0.15897510E+00 0.18592227E+04</pdfrwt>
<totfact> 0.43362363E+00</totfact>
</mgrwt>
</event>
<event>
12    4  0.4424320E-008  0.1499521E+04  0.7818608E-02  0.8884772E-01
          1   -1    0    0  501    0  0.00000000000E+00  0.00000000000E+00  0.89995001979E+03  0.89995001979E+03  0.00000000000E+00 0. -1.
         -2   -1    0    0    0  501 -0.00000000000E+00 -0.00000000000E+00 -0.62463554454E+03  0.62463554454E+03  0.00000000000E+00 0.  1.
        -24    2    1    2    0    0  0.36088280276E+03 -0.32304031229E+02 -0.20669512581E+03  0.42467089007E+03  0.79640078313E+02 0.  0.
        254    2    1    2    0    0 -0.36088280276E+03  0.32304031229E+02  0.48200960106E+03  0.10999146743E+04  0.91989080188E+03 0.  0.
         23    2    4    4    0    0 -0.65042186888E+03  0.16982377286E+02  0.20064805723E+03  0.68709133737E+03  0.92183807473E+02 0.  0.
         23    2    4    4    0    0  0.28953906612E+03  0.15321653943E+02  0.28136154383E+03  0.41282333689E+03  0.84800738522E+02 0.  0.
          3    1    3    3  502    0  0.20050753168E+03  0.75449612055E+01 -0.78235760326E+02  0.21536255685E+03  0.00000000000E+00 0. -1.
         -4    1    3    3    0  502  0.16037527108E+03 -0.39848992435E+02 -0.12845936549E+03  0.20930833322E+03  0.00000000000E+00 0.  1.
         11    1    5    5    0    0 -0.53623823492E+03 -0.20280260403E+02  0.17325569894E+03  0.56389739383E+03  0.00000000000E+00 0.  1.
        -11    1    5    5    0    0 -0.11418363396E+03  0.37262637689E+02  0.27392358287E+02  0.12319394354E+03  0.00000000000E+00 0. -1.
          3    1    6    6  503    0  0.38313270783E+02 -0.75851876417E+01  0.83618538380E+02  0.92290312333E+02  0.00000000000E+00 0. -1.
         -3    1    6    6    0  503  0.25122579533E+03  0.22906841585E+02  0.19774300545E+03  0.32053302456E+03  0.00000000000E+00 0.  1.
<mgrwt>
<rscale>  0 0.14995210E+04</rscale>
<asrwt>0</asrwt>
<pdfrwt beam="1">  1        1 0.13845385E+00 0.14995210E+04</pdfrwt>
<pdfrwt beam="2">  1       -2 0.96097777E-01 0.14995210E+04</pdfrwt>
<totfact> 0.13998214E+01</totfact>
</mgrwt>
</event>
<event>
12    4  0.4424320E-008  0.1646634E+04  0.7818608E-02  0.8792400E-01
         -2   -1    0    0    0  501 -0.00000000000E+00  0.00000000000E+00  0.95638905994E+03  0.95638905994E+03  0.00000000000E+00 0.  1.
          1   -1    0    0  501    0  0.00000000000E+00 -0.00000000000E+00 -0.70876077451E+03  0.70876077451E+03  0.00000000000E+00 0. -1.
        -24    2    1    2    0    0  0.33679844117E+03  0.41506812389E+03 -0.12611923912E+03  0.55516001560E+03  0.81128558483E+02 0.  0.
        254    2    1    2    0    0 -0.33679844117E+03 -0.41506812389E+03  0.37374752455E+03  0.11099898189E+04  0.89815112782E+03 0.  0.
         23    2    4    4    0    0 -0.77700100403E+02  0.24450187486E+03 -0.54225291802E+02  0.27706556463E+03  0.89478893713E+02 0.  0.
         23    2    4    4    0    0 -0.25909834076E+03 -0.65956999875E+03  0.42797281635E+03  0.83292425422E+03  0.91856128243E+02 0.  0.
          1    1    3    3  502    0  0.31369280240E+03  0.41080742003E+03 -0.12415474913E+03  0.53158283678E+03  0.00000000000E+00 0. -1.
         -2    1    3    3    0  502  0.23105638767E+02  0.42607038677E+01 -0.19644899827E+01  0.23577178822E+02  0.00000000000E+00 0.  1.
         11    1    5    5    0    0  0.12126935266E+02  0.87055208371E+02 -0.12523145991E+00  0.87895890384E+02  0.00000000000E+00 0. -1.
        -11    1    5    5    0    0 -0.89827035668E+02  0.15744666649E+03 -0.54100060342E+02  0.18916967425E+03  0.00000000000E+00 0.  1.
          2    1    6    6  503    0 -0.25495054827E+03 -0.64919678465E+03  0.43271096612E+03  0.82078927105E+03  0.00000000000E+00 0. -1.
         -2    1    6    6    0  503 -0.41477924917E+01 -0.10373214106E+02 -0.47381497725E+01  0.12134983177E+02  0.00000000000E+00 0.  1.
<mgrwt>
<rscale>  0 0.16466342E+04</rscale>
<asrwt>0</asrwt>
<pdfrwt beam="1">  1        1 0.10904012E+00 0.16466342E+04</pdfrwt>
<pdfrwt beam="2">  1       -2 0.14713678E+00 0.16466342E+04</pdfrwt>
<totfact> 0.70509377E+00</totfact>
</mgrwt>
</event>
<event>
12    4  0.4424320E-008  0.1504740E+04  0.7818608E-02  0.8881307E-01
          1   -1    0    0  501    0  0.00000000000E+00  0.00000000000E+00  0.11132296255E+04  0.11132296255E+04  0.00000000000E+00 0. -1.
         -2   -1    0    0    0  501 -0.00000000000E+00 -0.00000000000E+00 -0.50848537882E+03  0.50848537882E+03  0.00000000000E+00 0.  1.
        -24    2    1    2    0    0  0.41618302604E+03  0.22842830605E+03  0.18475260792E+03  0.51665556358E+03  0.86090900112E+02 0.  0.
        254    2    1    2    0    0 -0.41618302604E+03 -0.22842830605E+03  0.41999163878E+03  0.11050594407E+04  0.90519367473E+03 0.  0.
         23    2    4    4    0    0 -0.17718172668E+03 -0.46669807682E+03  0.53474417431E+03  0.73729860207E+03  0.91964327254E+02 0.  0.
         23    2    4    4    0    0 -0.23900129936E+03  0.23826977077E+03 -0.11475253553E+03  0.36776083868E+03  0.90475329779E+02 0.  0.
          3    1    3    3  502    0  0.13641397825E+02  0.15620990310E+02 -0.79701765494E+01  0.22217713364E+02  0.00000000000E+00 0. -1.
         -4    1    3    3    0  502  0.40254162821E+03  0.21280731574E+03  0.19272278447E+03  0.49443785022E+03  0.00000000000E+00 0.  1.
         11    1    5    5    0    0 -0.12841936997E+03 -0.41440673856E+03  0.43309460061E+03  0.61302154336E+03  0.00000000000E+00 0. -1.
        -11    1    5    5    0    0 -0.48762356716E+02 -0.52291338257E+02  0.10164957370E+03  0.12427705871E+03  0.00000000000E+00 0.  1.
          3    1    6    6  503    0 -0.18786600996E+03  0.13096337075E+03 -0.59108475319E+02  0.23651396160E+03  0.00000000000E+00 0. -1.
         -3    1    6    6    0  503 -0.51135289399E+02  0.10730640002E+03 -0.55644060211E+02  0.13124687708E+03  0.00000000000E+00 0.  1.
<mgrwt>
<rscale>  0 0.15047405E+04</rscale>
<asrwt>0</asrwt>
<pdfrwt beam="1">  1        1 0.17126610E+00 0.15047405E+04</pdfrwt>
<pdfrwt beam="2">  1       -2 0.78228520E-01 0.15047405E+04</pdfrwt>
<totfact> 0.15273683E+01</totfact>
</mgrwt>
</event>
<event>
12    4  0.4424320E-008  0.2659497E+04  0.7818608E-02  0.8348268E-01
         -4   -1    0    0    0  501 -0.00000000000E+00  0.00000000000E+00  0.94734573827E+03  0.94734573827E+03  0.00000000000E+00 0.  1.
          3   -1    0    0  501    0  0.00000000000E+00 -0.00000000000E+00 -0.18665114564E+04  0.18665114564E+04  0.00000000000E+00 0. -1.
        -24    2    1    2    0    0  0.84768643331E+03  0.52544079092E+03 -0.10608926255E+04  0.14582875518E+04  0.80306332041E+02 0.  0.
        254    2    1    2    0    0 -0.84768643331E+03 -0.52544079092E+03  0.14172690735E+03  0.13555696429E+04  0.90709548914E+03 0.  0.
         23    2    4    4    0    0 -0.84492213453E+03 -0.41091335268E+03  0.42574831875E+03  0.10353462444E+04  0.89089942975E+02 0.  0.
         23    2    4    4    0    0 -0.27642987712E+01 -0.11452743824E+03 -0.28402141140E+03  0.32022339851E+03  0.93545108717E+02 0.  0.
          3    1    3    3  502    0  0.62400929417E+03  0.37512700428E+03 -0.82280855354E+03  0.10986909412E+04  0.00000000000E+00 0. -1.
         -4    1    3    3    0  502  0.22367713913E+03  0.15031378665E+03 -0.23808407194E+03  0.35959661058E+03  0.00000000000E+00 0.  1.
         11    1    5    5    0    0 -0.24673191640E+03 -0.80584274609E+02  0.97588595214E+02  0.27729767002E+03  0.00000000000E+00 0.  1.
        -11    1    5    5    0    0 -0.59819021814E+03 -0.33032907807E+03  0.32815972354E+03  0.75804857433E+03  0.00000000000E+00 0. -1.
          2    1    6    6  503    0  0.12445638455E+02 -0.12517051383E+03 -0.26651002627E+03  0.29470348751E+03  0.00000000000E+00 0. -1.
         -2    1    6    6    0  503 -0.15209937227E+02  0.10643075588E+02 -0.17511385126E+02  0.25519911000E+02  0.00000000000E+00 0.  1.
<mgrwt>
<rscale>  0 0.26594975E+04</rscale>
<asrwt>0</asrwt>
<pdfrwt beam="1">  1        3 0.28715561E+00 0.26594975E+04</pdfrwt>
<pdfrwt beam="2">  1       -4 0.14574550E+00 0.26594975E+04</pdfrwt>
<totfact> 0.29434083E-02</totfact>
</mgrwt>
</event>
<event>
12    4  0.4424320E-008  0.1844021E+04  0.7818608E-02  0.8683233E-01
         -2   -1    0    0    0  501 -0.00000000000E+00  0.00000000000E+00  0.32215346491E+03  0.32215346491E+03  0.00000000000E+00 0.  1.
          1   -1    0    0  501    0  0.00000000000E+00 -0.00000000000E+00 -0.26388161274E+04  0.26388161274E+04  0.00000000000E+00 0. -1.
        -24    2    1    2    0    0 -0.58306640252E+03  0.73837899242E+01 -0.25975341616E+03  0.64234429380E+03  0.71508072740E+02 0.  0.
        254    2    1    2    0    0  0.58306640252E+03 -0.73837899242E+01 -0.20569092463E+04  0.23186252985E+04  0.89728851388E+03 0.  0.
         23    2    4    4    0    0  0.71087197153E+03  0.11518351056E+03 -0.95871694030E+03  0.12026207332E+04  0.92478404038E+02 0.  0.
         23    2    4    4    0    0 -0.12780556900E+03 -0.12256730049E+03 -0.10981923060E+04  0.11160045653E+04  0.89904628505E+02 0.  0.
          3    1    3    3  502    0 -0.62259424534E+01 -0.42942780388E+01 -0.12559880946E+02  0.14661302558E+02  0.00000000000E+00 0. -1.
         -4    1    3    3    0  502 -0.57684046007E+03  0.11678067963E+02 -0.24719353522E+03  0.62768299124E+03  0.00000000000E+00 0.  1.
         11    1    5    5    0    0  0.50010054024E+03  0.40969015726E+02 -0.68937659129E+03  0.85265414748E+03  0.00000000000E+00 0.  1.
        -11    1    5    5    0    0  0.21077143129E+03  0.74214494839E+02 -0.26934034901E+03  0.34996658568E+03  0.00000000000E+00 0. -1.
          1    1    6    6  503    0 -0.44559555393E+02 -0.98114800987E+02 -0.49416648784E+03  0.50577918685E+03  0.00000000000E+00 0. -1.
         -1    1    6    6    0  503 -0.83246013611E+02 -0.24452499502E+02 -0.60402581818E+03  0.61022537848E+03  0.00000000000E+00 0.  1.
<mgrwt>
<rscale>  0 0.18440214E+04</rscale>
<asrwt>0</asrwt>
<pdfrwt beam="1">  1        1 0.40597171E+00 0.18440214E+04</pdfrwt>
<pdfrwt beam="2">  1       -2 0.49562072E-01 0.18440214E+04</pdfrwt>
<totfact> 0.34523587E+00</totfact>
</mgrwt>
</event>
<event>
12    4  0.4424320E-008  0.2681676E+04  0.7818608E-02  0.8340975E-01
         -2   -1    0    0    0  501 -0.00000000000E+00  0.00000000000E+00  0.10925232162E+04  0.10925232162E+04  0.00000000000E+00 0.  1.
          1   -1    0    0  501    0  0.00000000000E+00 -0.00000000000E+00 -0.16455915693E+04  0.16455915693E+04  0.00000000000E+00 0. -1.
        -24    2    1    2    0    0  0.91019591668E+01  0.11542674162E+03 -0.14566966774E+04  0.14635599128E+04  0.81463058874E+02 0.  0.
        254    2    1    2    0    0 -0.91019591668E+01 -0.11542674162E+03  0.90362832425E+03  0.12745548727E+04  0.89136961853E+03 0.  0.
         23    2    4    4    0    0 -0.22269525685E+03  0.13464085010E+02 -0.82456943529E+02  0.25288635250E+03  0.85894707269E+02 0.  0.
         23    2    4    4    0    0  0.21359329769E+03 -0.12889082663E+03  0.98608526778E+03  0.10216685202E+04  0.95955551442E+02 0.  0.
          1    1    3    3  502    0  0.20077015311E+02  0.12422035818E+03 -0.13654609387E+04  0.13712466441E+04  0.00000000000E+00 0. -1.
         -2    1    3    3    0  502 -0.10975056144E+02 -0.87936165535E+01 -0.91235738729E+02  0.92313268661E+02  0.00000000000E+00 0.  1.
         11    1    5    5    0    0 -0.15179123035E+03  0.40469224401E+02 -0.81570101540E+02  0.17700852296E+03  0.00000000000E+00 0. -1.
        -11    1    5    5    0    0 -0.70904026502E+02 -0.27005139391E+02 -0.88684198942E+00  0.75877829545E+02  0.00000000000E+00 0.  1.
          3    1    6    6  503    0  0.19079417055E+03 -0.13906944244E+03  0.80624804265E+03  0.84010632162E+03  0.00000000000E+00 0. -1.
         -3    1    6    6    0  503  0.22799127135E+02  0.10178615805E+02  0.17983722513E+03  0.18156219860E+03  0.00000000000E+00 0.  1.
<mgrwt>
<rscale>  0 0.26816763E+04</rscale>
<asrwt>0</asrwt>
<pdfrwt beam="1">  1        1 0.25316793E+00 0.26816763E+04</pdfrwt>
<pdfrwt beam="2">  1       -2 0.16808050E+00 0.26816763E+04</pdfrwt>
<totfact> 0.87747103E-01</totfact>
</mgrwt>
</event>
<event>
12    4  0.4424320E-008  0.1946113E+04  0.7818608E-02  0.8632238E-01
          1   -1    0    0  501    0  0.00000000000E+00  0.00000000000E+00  0.24081501342E+04  0.24081501342E+04  0.00000000000E+00 0. -1.
         -2   -1    0    0    0  501 -0.00000000000E+00 -0.00000000000E+00 -0.39318093284E+03  0.39318093284E+03  0.00000000000E+00 0.  1.
        -24    2    1    2    0    0 -0.32657041579E+03  0.12757187646E+03  0.17557648159E+04  0.17922164398E+04  0.80042850547E+02 0.  0.
        254    2    1    2    0    0  0.32657041579E+03 -0.12757187646E+03  0.25920438545E+03  0.10091146273E+04  0.91005637050E+03 0.  0.
         23    2    4    4    0    0  0.20666553788E+03  0.35203968246E+03  0.28450475899E+03  0.50598770066E+03  0.91858656443E+02 0.  0.
         23    2    4    4    0    0  0.11990487791E+03 -0.47961155891E+03 -0.25300373542E+02  0.50312692665E+03  0.89956479628E+02 0.  0.
          3    1    3    3  502    0 -0.19029394826E+03  0.69955321114E+02  0.12043782892E+04  0.12213241164E+04  0.00000000000E+00 0. -1.
         -4    1    3    3    0  502 -0.13627646752E+03  0.57616555344E+02  0.55138652673E+03  0.57089232340E+03  0.00000000000E+00 0.  1.
         11    1    5    5    0    0  0.11589727585E+03  0.11497316707E+03  0.91903141785E+02  0.18734245425E+03  0.00000000000E+00 0. -1.
        -11    1    5    5    0    0  0.90768262025E+02  0.23706651539E+03  0.19260161721E+03  0.31864524641E+03  0.00000000000E+00 0.  1.
          3    1    6    6  503    0  0.50664984139E+02 -0.26257520207E+03  0.28838261285E+02  0.26896899946E+03  0.00000000000E+00 0. -1.
         -3    1    6    6    0  503  0.69239893771E+02 -0.21703635685E+03 -0.54138634827E+02  0.23415792719E+03  0.00000000000E+00 0.  1.
<mgrwt>
<rscale>  0 0.19461128E+04</rscale>
<asrwt>0</asrwt>
<pdfrwt beam="1">  1        1 0.37048463E+00 0.19461128E+04</pdfrwt>
<pdfrwt beam="2">  1       -2 0.60489376E-01 0.19461128E+04</pdfrwt>
<totfact> 0.32696955E+00</totfact>
</mgrwt>
</event>
<event>
12    4  0.4424320E-008  0.1261467E+04  0.7818608E-02  0.9060693E-01
         -2   -1    0    0    0  501 -0.00000000000E+00  0.00000000000E+00  0.16113298555E+03  0.16113298555E+03  0.00000000000E+00 0.  1.
          1   -1    0    0  501    0  0.00000000000E+00 -0.00000000000E+00 -0.24689219876E+04  0.24689219876E+04  0.00000000000E+00 0. -1.
        -24    2    1    2    0    0 -0.19316793004E+01  0.28201282421E+03 -0.35882581369E+03  0.46338896805E+03  0.80239683092E+02 0.  0.
        254    2    1    2    0    0  0.19316793004E+01 -0.28201282421E+03 -0.19489631884E+04  0.21666660051E+04  0.90357573211E+03 0.  0.
         23    2    4    4    0    0 -0.20609819072E+03 -0.51927702050E+03 -0.86425179853E+03  0.10331589064E+04  0.91438867365E+02 0.  0.
         23    2    4    4    0    0  0.20802987002E+03  0.23726419629E+03 -0.10847113899E+04  0.11335070987E+04  0.93106486361E+02 0.  0.
          3    1    3    3  502    0 -0.40485364179E+02  0.12471256049E+03 -0.16758944586E+03  0.21278747571E+03  0.00000000000E+00 0. -1.
         -4    1    3    3    0  502  0.38553684879E+02  0.15730026372E+03 -0.19123636783E+03  0.25060149235E+03  0.00000000000E+00 0.  1.
         11    1    5    5    0    0 -0.12204149627E+02 -0.14360425090E+02 -0.68144267370E+02  0.70702222400E+02  0.00000000000E+00 0.  1.
        -11    1    5    5    0    0 -0.19389404110E+03 -0.50491659541E+03 -0.79610753116E+03  0.96245668404E+03  0.00000000000E+00 0. -1.
          1    1    6    6  503    0  0.15696955022E+03  0.21925046329E+03 -0.96786710307E+03  0.10047272936E+04  0.00000000000E+00 0. -1.
         -1    1    6    6    0  503  0.51060319800E+02  0.18013732999E+02 -0.11684428681E+03  0.12877980507E+03  0.00000000000E+00 0.  1.
<mgrwt>
<rscale>  0 0.12614670E+04</rscale>
<asrwt>0</asrwt>
<pdfrwt beam="1">  1        1 0.37983411E+00 0.12614670E+04</pdfrwt>
<pdfrwt beam="2">  1       -2 0.24789693E-01 0.12614670E+04</pdfrwt>
<totfact> 0.18029929E+01</totfact>
</mgrwt>
</event>
<event>
12    4  0.4424320E-008  0.2881996E+04  0.7818608E-02  0.8278254E-01
          1   -1    0    0  501    0  0.00000000000E+00  0.00000000000E+00  0.13624359166E+04  0.13624359166E+04  0.00000000000E+00 0. -1.
         -2   -1    0    0    0  501 -0.00000000000E+00 -0.00000000000E+00 -0.15240899814E+04  0.15240899814E+04  0.00000000000E+00 0.  1.
        -24    2    1    2    0    0  0.80711644960E+02 -0.12742901125E+04 -0.30486796162E+03  0.13152937374E+04  0.81996836899E+02 0.  0.
        254    2    1    2    0    0 -0.80711644960E+02  0.12742901125E+04  0.14321389678E+03  0.15712321606E+04  0.90439516904E+03 0.  0.
         23    2    4    4    0    0  0.39276864026E+02  0.42470247810E+03 -0.36623834152E+03  0.56929637717E+03  0.89738371424E+02 0.  0.
         23    2    4    4    0    0 -0.11998850899E+03  0.84958763439E+03  0.50945223830E+03  0.10019357834E+04  0.90207206855E+02 0.  0.
          3    1    3    3  502    0  0.15653258318E+01 -0.28246391767E+03 -0.36950240628E+02  0.28487477128E+03  0.00000000000E+00 0. -1.
         -4    1    3    3    0  502  0.79146319128E+02 -0.99182619482E+03 -0.26791772099E+03  0.10304189661E+04  0.00000000000E+00 0.  1.
         11    1    5    5    0    0  0.23066308121E+02  0.23075659857E+03 -0.25679733043E+03  0.34601377324E+03  0.00000000000E+00 0.  1.
        -11    1    5    5    0    0  0.16210555905E+02  0.19394587954E+03 -0.10944101109E+03  0.22328260393E+03  0.00000000000E+00 0. -1.
          1    1    6    6  503    0 -0.56789373410E+02  0.16186688587E+03  0.11636142810E+03  0.20728218357E+03  0.00000000000E+00 0. -1.
         -1    1    6    6    0  503 -0.63199135575E+02  0.68772074851E+03  0.39309081020E+03  0.79465359984E+03  0.00000000000E+00 0.  1.
<mgrwt>
<rscale>  0 0.28819958E+04</rscale>
<asrwt>0</asrwt>
<pdfrwt beam="1">  1        1 0.20960552E+00 0.28819958E+04</pdfrwt>
<pdfrwt beam="2">  1       -2 0.23447538E+00 0.28819958E+04</pdfrwt>
<totfact> 0.49413108E-01</totfact>
</mgrwt>
</event>
<event>
12    4  0.4424320E-008  0.1571074E+04  0.7818608E-02  0.8838518E-01
          1   -1    0    0  501    0  0.00000000000E+00  0.00000000000E+00  0.21446340631E+04  0.21446340631E+04  0.00000000000E+00 0. -1.
         -2   -1    0    0    0  501 -0.00000000000E+00 -0.00000000000E+00 -0.28772666877E+03  0.28772666877E+03  0.00000000000E+00 0.  1.
        -24    2    1    2    0    0 -0.36549319582E+02 -0.22176911793E+03  0.13667386027E+04  0.13873841073E+04  0.79642066916E+02 0.  0.
        254    2    1    2    0    0  0.36549319582E+02  0.22176911793E+03  0.49016879164E+03  0.10449766245E+04  0.89509402136E+03 0.  0.
         23    2    4    4    0    0  0.24835335712E+03  0.30333344319E+03  0.64149114770E+03  0.75723509168E+03  0.90573305955E+02 0.  0.
         23    2    4    4    0    0 -0.21180403754E+03 -0.81564325260E+02 -0.15132235606E+03  0.28774153283E+03  0.91558968973E+02 0.  0.
          3    1    3    3  502    0  0.22029972236E+02 -0.52826530519E+02  0.42306158484E+03  0.42691576050E+03  0.00000000000E+00 0. -1.
         -4    1    3    3    0  502 -0.58579291818E+02 -0.16894258741E+03  0.94367701784E+03  0.96046834684E+03  0.00000000000E+00 0.  1.
         11    1    5    5    0    0  0.21540903307E+03  0.21656878016E+03  0.53428216886E+03  0.61543523138E+03  0.00000000000E+00 0.  1.
        -11    1    5    5    0    0  0.32944324057E+02  0.86764663025E+02  0.10720897884E+03  0.14179986030E+03  0.00000000000E+00 0. -1.
          2    1    6    6  503    0  0.10063347990E+01 -0.87079265669E+01 -0.31873134128E+02  0.33056578376E+02  0.00000000000E+00 0. -1.
         -2    1    6    6    0  503 -0.21281037234E+03 -0.72856398693E+02 -0.11944922193E+03  0.25468495446E+03  0.00000000000E+00 0.  1.
<mgrwt>
<rscale>  0 0.15710740E+04</rscale>
<asrwt>0</asrwt>
<pdfrwt beam="1">  1        1 0.32994369E+00 0.15710740E+04</pdfrwt>
<pdfrwt beam="2">  1       -2 0.44265643E-01 0.15710740E+04</pdfrwt>
<totfact> 0.97202227E+00</totfact>
</mgrwt>
</event>
<event>
12    4  0.4424320E-008  0.1262611E+04  0.7818608E-02  0.9059752E-01
          1   -1    0    0  501    0  0.00000000000E+00  0.00000000000E+00  0.75457420011E+03  0.75457420011E+03  0.00000000000E+00 0. -1.
         -2   -1    0    0    0  501 -0.00000000000E+00 -0.00000000000E+00 -0.52817398349E+03  0.52817398349E+03  0.00000000000E+00 0.  1.
        -24    2    1    2    0    0  0.41863204559E+02 -0.34134945780E+01 -0.24004187728E+03  0.25619371621E+03  0.79062870769E+02 0.  0.
        254    2    1    2    0    0 -0.41863204559E+02  0.34134945780E+01  0.46644209390E+03  0.10265544674E+04  0.91349968130E+03 0.  0.
         23    2    4    4    0    0 -0.44224747919E+03 -0.95649291340E+02  0.37902079831E+03  0.59740408312E+03  0.92213085778E+02 0.  0.
         23    2    4    4    0    0  0.40038427463E+03  0.99062785918E+02  0.87421295584E+02  0.42915038428E+03  0.80041030015E+02 0.  0.
          3    1    3    3  502    0  0.24021281820E+02 -0.30455966006E+02 -0.49351227085E+02  0.62770466467E+02  0.00000000000E+00 0. -1.
         -2    1    3    3    0  502  0.17841922739E+02  0.27042471428E+02 -0.19069065020E+03  0.19342324974E+03  0.00000000000E+00 0.  1.
         11    1    5    5    0    0 -0.25253629026E+03 -0.13579007030E+02  0.17960126613E+03  0.31018636677E+03  0.00000000000E+00 0.  1.
        -11    1    5    5    0    0 -0.18971118892E+03 -0.82070284310E+02  0.19941953218E+03  0.28721771635E+03  0.00000000000E+00 0. -1.
          3    1    6    6  503    0  0.28564288280E+03  0.39837360456E+02  0.82315808229E+02  0.29992459731E+03  0.00000000000E+00 0. -1.
         -3    1    6    6    0  503  0.11474139182E+03  0.59225425462E+02  0.51054873552E+01  0.12922578698E+03  0.00000000000E+00 0.  1.
<mgrwt>
<rscale>  0 0.12626107E+04</rscale>
<asrwt>0</asrwt>
<pdfrwt beam="1">  1        1 0.11608834E+00 0.12626107E+04</pdfrwt>
<pdfrwt beam="2">  1       -2 0.81257536E-01 0.12626107E+04</pdfrwt>
<totfact> 0.27946953E+01</totfact>
</mgrwt>
</event>
<event>
12    4  0.4424320E-008  0.1441906E+04  0.7818608E-02  0.8924031E-01
         -2   -1    0    0    0  501 -0.00000000000E+00  0.00000000000E+00  0.31310955745E+03  0.31310955745E+03  0.00000000000E+00 0.  1.
          1   -1    0    0  501    0  0.00000000000E+00 -0.00000000000E+00 -0.16600371913E+04  0.16600371913E+04  0.00000000000E+00 0. -1.
        -24    2    1    2    0    0  0.20530170389E+03  0.22611714911E+03  0.91674549892E+01  0.31632824443E+03  0.81864285588E+02 0.  0.
        254    2    1    2    0    0 -0.20530170389E+03 -0.22611714911E+03 -0.13560950888E+04  0.16568185043E+04  0.90154085405E+03 0.  0.
         23    2    4    4    0    0  0.22894834561E+03 -0.36569244682E+03 -0.91375454319E+03  0.10146562011E+04  0.91823366743E+02 0.  0.
         23    2    4    4    0    0 -0.43425004950E+03  0.13957529771E+03 -0.44234054565E+03  0.64216230318E+03  0.93020944308E+02 0.  0.
          1    1    3    3  502    0  0.59230213591E+01  0.48496528336E+02 -0.36938110416E+01  0.48996323155E+02  0.00000000000E+00 0. -1.
         -2    1    3    3    0  502  0.19937868253E+03  0.17762062077E+03  0.12861266031E+02  0.26733192127E+03  0.00000000000E+00 0.  1.
         11    1    5    5    0    0  0.17946689000E+03 -0.34177015195E+03 -0.80769976242E+03  0.89520618160E+03  0.00000000000E+00 0.  1.
        -11    1    5    5    0    0  0.49481455614E+02 -0.23922294871E+02 -0.10605478077E+03  0.11945001953E+03  0.00000000000E+00 0. -1.
          2    1    6    6  503    0 -0.55139445670E+02  0.40238950942E+02 -0.10405395657E+03  0.12444580154E+03  0.00000000000E+00 0. -1.
         -2    1    6    6    0  503 -0.37911060383E+03  0.99336346770E+02 -0.33828658908E+03  0.51771650164E+03  0.00000000000E+00 0.  1.
<mgrwt>
<rscale>  0 0.14419064E+04</rscale>
<asrwt>0</asrwt>
<pdfrwt beam="1">  1        1 0.25539034E+00 0.14419064E+04</pdfrwt>
<pdfrwt beam="2">  1       -2 0.48170700E-01 0.14419064E+04</pdfrwt>
<totfact> 0.17674932E+01</totfact>
</mgrwt>
</event>
<event>
12    4  0.4424320E-008  0.2088282E+04  0.7818608E-02  0.8566423E-01
         -2   -1    0    0    0  501 -0.00000000000E+00  0.00000000000E+00  0.14773232858E+04  0.14773232858E+04  0.00000000000E+00 0.  1.
          1   -1    0    0  501    0  0.00000000000E+00 -0.00000000000E+00 -0.73797706853E+03  0.73797706853E+03  0.00000000000E+00 0. -1.
        -24    2    1    2    0    0 -0.15939744712E+03 -0.29060507942E+03 -0.52773411382E+03  0.62831064492E+03  0.80075672314E+02 0.  0.
        254    2    1    2    0    0  0.15939744712E+03  0.29060507942E+03  0.12670803311E+04  0.15869897094E+04  0.89620584354E+03 0.  0.
         23    2    4    4    0    0  0.23688167857E+03 -0.27698341100E+03  0.49265880291E+03  0.61963980176E+03  0.91695410054E+02 0.  0.
         23    2    4    4    0    0 -0.77484231447E+02  0.56758849042E+03  0.77442152823E+03  0.96734990769E+03  0.88750436304E+02 0.  0.
          3    1    3    3  502    0 -0.11892460262E+03 -0.17225069272E+03 -0.38733127381E+03  0.44027136850E+03  0.00000000000E+00 0. -1.
         -4    1    3    3    0  502 -0.40472844497E+02 -0.11835438670E+03 -0.14040284002E+03  0.18803927642E+03  0.00000000000E+00 0.  1.
         11    1    5    5    0    0  0.15130431351E+03 -0.22597678815E+03  0.39925655162E+03  0.48307794203E+03  0.00000000000E+00 0. -1.
        -11    1    5    5    0    0  0.85577365054E+02 -0.51006622847E+02  0.93402251295E+02  0.13656185972E+03  0.00000000000E+00 0.  1.
          1    1    6    6  503    0 -0.72798104663E+02  0.44652654983E+03  0.66364285856E+03  0.80318576149E+03  0.00000000000E+00 0. -1.
         -1    1    6    6    0  503 -0.46861267836E+01  0.12106194059E+03  0.11077866967E+03  0.16416414620E+03  0.00000000000E+00 0.  1.
<mgrwt>
<rscale>  0 0.20882823E+04</rscale>
<asrwt>0</asrwt>
<pdfrwt beam="1">  1        1 0.11353493E+00 0.20882823E+04</pdfrwt>
<pdfrwt beam="2">  1       -2 0.22728050E+00 0.20882823E+04</pdfrwt>
<totfact> 0.18007819E+00</totfact>
</mgrwt>
</event>
<event>
12    4  0.4424320E-008  0.1375605E+04  0.7818608E-02  0.8971669E-01
          1   -1    0    0  501    0  0.00000000000E+00  0.00000000000E+00  0.60115841546E+03  0.60115841546E+03  0.00000000000E+00 0. -1.
         -2   -1    0    0    0  501 -0.00000000000E+00 -0.00000000000E+00 -0.78693418706E+03  0.78693418706E+03  0.00000000000E+00 0.  1.
        -24    2    1    2    0    0 -0.38962098667E+03  0.18689460157E+02  0.41647931572E+02  0.39867112423E+03  0.71065504423E+02 0.  0.
        254    2    1    2    0    0  0.38962098667E+03 -0.18689460157E+02 -0.22742370318E+03  0.98942147829E+03  0.88038600157E+03 0.  0.
         23    2    4    4    0    0  0.34609153051E+03 -0.41349710215E+03 -0.65660918038E+02  0.55068579761E+03  0.90467068890E+02 0.  0.
         23    2    4    4    0    0  0.43529456158E+02  0.39480764199E+03 -0.16176278514E+03  0.43873568068E+03  0.92487356537E+02 0.  0.
          3    1    3    3  502    0 -0.31627586710E+03  0.88843785928E+01  0.60904160200E+02  0.32220905174E+03  0.00000000000E+00 0. -1.
         -4    1    3    3    0  502 -0.73345119570E+02  0.98050815644E+01 -0.19256228628E+02  0.76462072494E+02  0.00000000000E+00 0.  1.
         11    1    5    5    0    0  0.17827389217E+03 -0.26450241577E+03 -0.68537390681E+02  0.32625217623E+03  0.00000000000E+00 0. -1.
        -11    1    5    5    0    0  0.16781763834E+03 -0.14899468638E+03  0.28764726427E+01  0.22443362137E+03  0.00000000000E+00 0.  1.
          4    1    6    6  503    0  0.13338785593E+01  0.33226186823E+03 -0.12779072981E+03  0.35599185235E+03  0.00000000000E+00 0. -1.
         -4    1    6    6    0  503  0.42195577599E+02  0.62545773761E+02 -0.33972055326E+02  0.82743828334E+02  0.00000000000E+00 0.  1.
<mgrwt>
<rscale>  0 0.13756048E+04</rscale>
<asrwt>0</asrwt>
<pdfrwt beam="1">  1        1 0.92485910E-01 0.13756048E+04</pdfrwt>
<pdfrwt beam="2">  1       -2 0.12106680E+00 0.13756048E+04</pdfrwt>
<totfact> 0.15161408E+01</totfact>
</mgrwt>
</event>
<event>
12    4  0.4424320E-008  0.1849710E+04  0.7818608E-02  0.8680302E-01
          1   -1    0    0  501    0  0.00000000000E+00  0.00000000000E+00  0.48900245498E+03  0.48900245498E+03  0.00000000000E+00 0. -1.
         -2   -1    0    0    0  501 -0.00000000000E+00 -0.00000000000E+00 -0.17491872054E+04  0.17491872054E+04  0.00000000000E+00 0.  1.
        -24    2    1    2    0    0 -0.19855610847E+03  0.48333320873E+02 -0.12798301598E+04  0.12982578092E+04  0.75812025855E+02 0.  0.
        254    2    1    2    0    0  0.19855610847E+03 -0.48333320873E+02  0.19645409393E+02  0.93993185111E+03  0.91723786692E+03 0.  0.
         23    2    4    4    0    0 -0.18320431423E+02  0.85328450422E+02  0.43064888719E+03  0.44745581498E+03  0.84508340775E+02 0.  0.
         23    2    4    4    0    0  0.21687653989E+03 -0.13366177129E+03 -0.41100347780E+03  0.49247603613E+03  0.93316047612E+02 0.  0.
          3    1    3    3  502    0 -0.86898159764E+02  0.49791404491E+02 -0.45423945388E+03  0.46514939062E+03  0.00000000000E+00 0. -1.
         -4    1    3    3    0  502 -0.11165794871E+03 -0.14580836176E+01 -0.82559070589E+03  0.83310841862E+03  0.00000000000E+00 0.  1.
         11    1    5    5    0    0 -0.34929348640E+02  0.42746389484E+00  0.11865786918E+03  0.12369289406E+03  0.00000000000E+00 0.  1.
        -11    1    5    5    0    0  0.16608917218E+02  0.84900986527E+02  0.31199101801E+03  0.32376292092E+03  0.00000000000E+00 0. -1.
          1    1    6    6  503    0  0.20388972972E+03 -0.14331969239E+03 -0.40433451042E+03  0.47497152802E+03  0.00000000000E+00 0. -1.
         -1    1    6    6    0  503  0.12986810173E+02  0.96579210979E+01 -0.66689673775E+01  0.17504508113E+02  0.00000000000E+00 0.  1.
<mgrwt>
<rscale>  0 0.18497101E+04</rscale>
<asrwt>0</asrwt>
<pdfrwt beam="1">  1        1 0.75231148E-01 0.18497101E+04</pdfrwt>
<pdfrwt beam="2">  1       -2 0.26910572E+00 0.18497101E+04</pdfrwt>
<totfact> 0.18452537E+00</totfact>
</mgrwt>
</event>
<event>
12    4  0.4424320E-008  0.2009615E+04  0.7818608E-02  0.8602138E-01
         -2   -1    0    0    0  501 -0.00000000000E+00  0.00000000000E+00  0.57202012283E+03  0.57202012283E+03  0.00000000000E+00 0.  1.
          1   -1    0    0  501    0  0.00000000000E+00 -0.00000000000E+00 -0.17650402188E+04  0.17650402188E+04  0.00000000000E+00 0. -1.
        -24    2    1    2    0    0  0.56147001740E+03  0.48115590615E+03 -0.10058879532E+03  0.75057545164E+03  0.80534566534E+02 0.  0.
        254    2    1    2    0    0 -0.56147001740E+03 -0.48115590615E+03 -0.10924313007E+04  0.15864848900E+04  0.88134475271E+03 0.  0.
         23    2    4    4    0    0 -0.50528602976E+03 -0.11018745244E+03 -0.11894049931E+03  0.53869813699E+03  0.92701639040E+02 0.  0.
         23    2    4    4    0    0 -0.56183987641E+02 -0.37096845370E+03 -0.97349080138E+03  0.10477867530E+04  0.96945888917E+02 0.  0.
          1    1    3    3  502    0  0.22455598421E+03  0.17528686310E+03 -0.15391765451E+01  0.28487408356E+03  0.00000000000E+00 0. -1.
         -2    1    3    3    0  502  0.33691403319E+03  0.30586904305E+03 -0.99049618778E+02  0.46570136808E+03  0.00000000000E+00 0.  1.
         11    1    5    5    0    0 -0.36758548542E+03 -0.73824771137E+02 -0.43245530384E+02  0.37741139599E+03  0.00000000000E+00 0.  1.
        -11    1    5    5    0    0 -0.13770054434E+03 -0.36362681305E+02 -0.75694968930E+02  0.16128674100E+03  0.00000000000E+00 0. -1.
          3    1    6    6  503    0 -0.53108986184E+02 -0.91899291516E+02 -0.32173649346E+03  0.33879258466E+03  0.00000000000E+00 0. -1.
         -3    1    6    6    0  503 -0.30750014571E+01 -0.27906916219E+03 -0.65175430792E+03  0.70899416839E+03  0.00000000000E+00 0.  1.
<mgrwt>
<rscale>  0 0.20096154E+04</rscale>
<asrwt>0</asrwt>
<pdfrwt beam="1">  1        1 0.27154465E+00 0.20096154E+04</pdfrwt>
<pdfrwt beam="2">  1       -2 0.88003096E-01 0.20096154E+04</pdfrwt>
<totfact> 0.38974244E+00</totfact>
</mgrwt>
</event>
<event>
12    4  0.4424320E-008  0.1531764E+04  0.7818608E-02  0.8863601E-01
         -4   -1    0    0    0  501 -0.00000000000E+00  0.00000000000E+00  0.14074689614E+04  0.14074689614E+04  0.00000000000E+00 0.  1.
          3   -1    0    0  501    0  0.00000000000E+00 -0.00000000000E+00 -0.41675865410E+03  0.41675865410E+03  0.00000000000E+00 0. -1.
        -24    2    1    2    0    0  0.35144246991E+03  0.30157054034E+03  0.51211043865E+03  0.69517163354E+03  0.80931441642E+02 0.  0.
        254    2    1    2    0    0 -0.35144246991E+03 -0.30157054034E+03  0.47859986864E+03  0.11290559819E+04  0.91173075831E+03 0.  0.
         23    2    4    4    0    0 -0.34677795197E+03 -0.53960125781E+03  0.75987625735E+02  0.65230766277E+03  0.91141111728E+02 0.  0.
         23    2    4    4    0    0 -0.46645179361E+01  0.23803071747E+03  0.40261224291E+03  0.47674831918E+03  0.92260292157E+02 0.  0.
          1    1    3    3  502    0  0.49581698983E+02  0.34534076298E+02  0.11203799126E+03  0.12729280728E+03  0.00000000000E+00 0. -1.
         -2    1    3    3    0  502  0.30186077093E+03  0.26703646404E+03  0.40007244739E+03  0.56787882626E+03  0.00000000000E+00 0.  1.
         11    1    5    5    0    0 -0.28569980646E+03 -0.48213999969E+03  0.42605449095E+02  0.56204855930E+03  0.00000000000E+00 0.  1.
        -11    1    5    5    0    0 -0.61078145510E+02 -0.57461258116E+02  0.33382176640E+02  0.90259103477E+02  0.00000000000E+00 0. -1.
          4    1    6    6  503    0 -0.45981238025E+02  0.99471892219E+02  0.19626696941E+03  0.22478802208E+03  0.00000000000E+00 0. -1.
         -4    1    6    6    0  503  0.41316720089E+02  0.13855882525E+03  0.20634527350E+03  0.25196029709E+03  0.00000000000E+00 0.  1.
<mgrwt>
<rscale>  0 0.15317635E+04</rscale>
<asrwt>0</asrwt>
<pdfrwt beam="1">  1        3 0.64116717E-01 0.15317635E+04</pdfrwt>
<pdfrwt beam="2">  1       -4 0.21653368E+00 0.15317635E+04</pdfrwt>
<totfact> 0.53409956E-01</totfact>
</mgrwt>
</event>
<event>
12    4  0.4424320E-008  0.1488973E+04  0.7818608E-02  0.8891819E-01
          1   -1    0    0  501    0  0.00000000000E+00  0.00000000000E+00  0.96600468984E+03  0.96600468984E+03  0.00000000000E+00 0. -1.
         -2   -1    0    0    0  501 -0.00000000000E+00 -0.00000000000E+00 -0.57376576469E+03  0.57376576469E+03  0.00000000000E+00 0.  1.
        -24    2    1    2    0    0  0.81374742454E+02  0.40072630934E+03 -0.11360041374E+03  0.43198405811E+03  0.80633422075E+02 0.  0.
        254    2    1    2    0    0 -0.81374742454E+02 -0.40072630934E+03  0.50583933889E+03  0.11077863964E+04  0.89672394840E+03 0.  0.
         23    2    4    4    0    0 -0.92169280563E+02 -0.58169269370E+03  0.36682452981E+02  0.59727356346E+03  0.92350100530E+02 0.  0.
         23    2    4    4    0    0  0.10794538109E+02  0.18096638436E+03  0.46915688591E+03  0.51051283297E+03  0.87463219216E+02 0.  0.
          1    1    3    3  502    0  0.68254278913E+01  0.57857767496E+02  0.11664005421E+02  0.59415122216E+02  0.00000000000E+00 0. -1.
         -2    1    3    3    0  502  0.74549314563E+02  0.34286854184E+03 -0.12526441916E+03  0.37256893590E+03  0.00000000000E+00 0.  1.
         11    1    5    5    0    0  0.16446763080E+02 -0.97810710346E+02 -0.70019471107E+01  0.99430671010E+02  0.00000000000E+00 0. -1.
        -11    1    5    5    0    0 -0.10861604364E+03 -0.48388198335E+03  0.43684400092E+02  0.49784289245E+03  0.00000000000E+00 0.  1.
          1    1    6    6  503    0 -0.38626538263E+02  0.82899154934E+02  0.21584596015E+03  0.23442217868E+03  0.00000000000E+00 0. -1.
         -1    1    6    6    0  503  0.49421076371E+02  0.98067229424E+02  0.25331092576E+03  0.27609065429E+03  0.00000000000E+00 0.  1.
<mgrwt>
<rscale>  0 0.14889734E+04</rscale>
<asrwt>0</asrwt>
<pdfrwt beam="1">  1        1 0.14861611E+00 0.14889734E+04</pdfrwt>
<pdfrwt beam="2">  1       -2 0.88271656E-01 0.14889734E+04</pdfrwt>
<totfact> 0.15096078E+01</totfact>
</mgrwt>
</event>
<event>
12    4  0.4424320E-008  0.1545567E+04  0.7818608E-02  0.8854704E-01
         -2   -1    0    0    0  501 -0.00000000000E+00  0.00000000000E+00  0.17040599791E+03  0.17040599791E+03  0.00000000000E+00 0.  1.
          1   -1    0    0  501    0  0.00000000000E+00 -0.00000000000E+00 -0.35045395455E+04  0.35045395455E+04  0.00000000000E+00 0. -1.
        -24    2    1    2    0    0 -0.21432143045E+03  0.97526154184E+02 -0.42139365877E+02  0.25234905527E+03  0.80369728377E+02 0.  0.
        254    2    1    2    0    0  0.21432143045E+03 -0.97526154184E+02 -0.32919941817E+04  0.34225964881E+04  0.90636416625E+03 0.  0.
         23    2    4    4    0    0  0.52860674815E+03 -0.19708800357E+03 -0.24087966965E+04  0.24756219293E+04  0.90186674613E+02 0.  0.
         23    2    4    4    0    0 -0.31428531770E+03  0.99561849388E+02 -0.88319748522E+03  0.94697455887E+03  0.89639246320E+02 0.  0.
          1    1    3    3  502    0  0.45102398861E+01  0.10339192389E+02 -0.90783529295E+01  0.14479559903E+02  0.00000000000E+00 0. -1.
         -2    1    3    3    0  502 -0.21883167034E+03  0.87186961795E+02 -0.33061012947E+02  0.23786949537E+03  0.00000000000E+00 0.  1.
         11    1    5    5    0    0  0.38934224986E+03 -0.12303952236E+03 -0.18785255973E+04  0.19223903171E+04  0.00000000000E+00 0.  1.
        -11    1    5    5    0    0  0.13926449828E+03 -0.74048481211E+02 -0.53027109921E+03  0.55323161218E+03  0.00000000000E+00 0. -1.
          2    1    6    6  503    0 -0.19440088832E+03  0.29715435195E+02 -0.60387276808E+03  0.63508820844E+03  0.00000000000E+00 0. -1.
         -2    1    6    6    0  503 -0.11988442937E+03  0.69846414193E+02 -0.27932471714E+03  0.31188635043E+03  0.00000000000E+00 0.  1.
<mgrwt>
<rscale>  0 0.15455673E+04</rscale>
<asrwt>0</asrwt>
<pdfrwt beam="1">  1        1 0.53915992E+00 0.15455673E+04</pdfrwt>
<pdfrwt beam="2">  1       -2 0.26216308E-01 0.15455673E+04</pdfrwt>
<totfact> 0.27897829E+00</totfact>
</mgrwt>
</event>
<event>
12    4  0.4424320E-008  0.2802067E+04  0.7818608E-02  0.8302627E-01
         -2   -1    0    0    0  501 -0.00000000000E+00  0.00000000000E+00  0.69011457499E+03  0.69011457499E+03  0.00000000000E+00 0.  1.
          1   -1    0    0  501    0  0.00000000000E+00 -0.00000000000E+00 -0.28443038323E+04  0.28443038323E+04  0.00000000000E+00 0. -1.
        -24    2    1    2    0    0 -0.42170413415E+03 -0.62114979686E+03  0.30235940502E+03  0.81324839337E+03  0.79311364934E+02 0.  0.
        254    2    1    2    0    0  0.42170413415E+03  0.62114979686E+03 -0.24565486624E+04  0.27211700139E+04  0.89803867810E+03 0.  0.
         23    2    4    4    0    0 -0.21227015109E+03  0.12316285785E+02 -0.91970862020E+03  0.94833259172E+03  0.90887020653E+02 0.  0.
         23    2    4    4    0    0  0.63397428523E+03  0.60883351108E+03 -0.15368400422E+04  0.17728374222E+04  0.92052006400E+02 0.  0.
          3    1    3    3  502    0 -0.90712673823E+02 -0.16642652361E+03  0.10817298342E+03  0.21823833599E+03  0.00000000000E+00 0. -1.
         -4    1    3    3    0  502 -0.33099146032E+03 -0.45472327326E+03  0.19418642160E+03  0.59501005738E+03  0.00000000000E+00 0.  1.
         11    1    5    5    0    0 -0.25083253471E+02  0.13308826497E+02 -0.40782371251E+02  0.49694026525E+02  0.00000000000E+00 0.  1.
        -11    1    5    5    0    0 -0.18718689762E+03 -0.99254071251E+00 -0.87892624895E+03  0.89863856520E+03  0.00000000000E+00 0. -1.
          3    1    6    6  503    0  0.55425065798E+03  0.53527533940E+03 -0.12799338341E+04  0.14939692435E+04  0.00000000000E+00 0. -1.
         -3    1    6    6    0  503  0.79723627255E+02  0.73558171679E+02 -0.25690620808E+03  0.27886817874E+03  0.00000000000E+00 0.  1.
<mgrwt>
<rscale>  0 0.28020675E+04</rscale>
<asrwt>0</asrwt>
<pdfrwt beam="1">  1        1 0.43758520E+00 0.28020675E+04</pdfrwt>
<pdfrwt beam="2">  1       -2 0.10617148E+00 0.28020675E+04</pdfrwt>
<totfact> 0.42203306E-01</totfact>
</mgrwt>
</event>
<event>
12    4  0.4424320E-008  0.2761127E+04  0.7818608E-02  0.8315440E-01
          1   -1    0    0  501    0  0.00000000000E+00  0.00000000000E+00  0.18907277012E+04  0.18907277012E+04  0.00000000000E+00 0. -1.
         -2   -1    0    0    0  501 -0.00000000000E+00 -0.00000000000E+00 -0.10080538049E+04  0.10080538049E+04  0.00000000000E+00 0.  1.
        -24    2    1    2    0    0 -0.95089740429E+03  0.49485414265E+03  0.10349694697E+04  0.14921610106E+04  0.79348485955E+02 0.  0.
        254    2    1    2    0    0  0.95089740429E+03 -0.49485414265E+03 -0.15229557344E+03  0.14066204955E+04  0.89794252635E+03 0.  0.
         23    2    4    4    0    0 -0.26808358548E+01  0.12385594722E+03  0.16131700889E+03  0.22334552079E+03  0.92263545120E+02 0.  0.
         23    2    4    4    0    0  0.95357824015E+03 -0.61871008988E+03 -0.31361258233E+03  0.11832749747E+04  0.98352318326E+02 0.  0.
          3    1    3    3  502    0 -0.64544214682E+03  0.35773893235E+03  0.66779778253E+03  0.99525202184E+03  0.00000000000E+00 0. -1.
         -4    1    3    3    0  502 -0.30545525747E+03  0.13711521030E+03  0.36717168719E+03  0.49690898874E+03  0.00000000000E+00 0.  1.
         11    1    5    5    0    0 -0.40103181160E+02  0.10533177581E+03  0.11708767076E+03  0.16251944739E+03  0.00000000000E+00 0. -1.
        -11    1    5    5    0    0  0.37422345305E+02  0.18524171409E+02  0.44229338127E+02  0.60826073403E+02  0.00000000000E+00 0.  1.
          1    1    6    6  503    0  0.40966351011E+03 -0.20830844323E+03 -0.12645274394E+03  0.47666224467E+03  0.00000000000E+00 0. -1.
         -1    1    6    6    0  503  0.54391473004E+03 -0.41040164665E+03 -0.18715983839E+03  0.70661273002E+03  0.00000000000E+00 0.  1.
<mgrwt>
<rscale>  0 0.27611268E+04</rscale>
<asrwt>0</asrwt>
<pdfrwt beam="1">  1        1 0.29088118E+00 0.27611268E+04</pdfrwt>
<pdfrwt beam="2">  1       -2 0.15508520E+00 0.27611268E+04</pdfrwt>
<totfact> 0.73973073E-01</totfact>
</mgrwt>
</event>
<event>
12    4  0.4424320E-008  0.1317128E+04  0.7818608E-02  0.9016092E-01
          1   -1    0    0  501    0  0.00000000000E+00  0.00000000000E+00  0.28140569060E+03  0.28140569060E+03  0.00000000000E+00 0. -1.
         -2   -1    0    0    0  501 -0.00000000000E+00 -0.00000000000E+00 -0.15412141731E+04  0.15412141731E+04  0.00000000000E+00 0.  1.
        -24    2    1    2    0    0 -0.13958012695E+03  0.27759290595E+03 -0.52099118612E+03  0.61201203699E+03  0.81157157022E+02 0.  0.
        254    2    1    2    0    0  0.13958012695E+03 -0.27759290595E+03 -0.73881729640E+03  0.12106078267E+04  0.90729260958E+03 0.  0.
         23    2    4    4    0    0 -0.15752422657E+03 -0.45933597311E+03 -0.68869462898E+03  0.84748255404E+03  0.90127516621E+02 0.  0.
         23    2    4    4    0    0  0.29710435351E+03  0.18174306716E+03 -0.50122667420E+02  0.36312527269E+03  0.89700292861E+02 0.  0.
          3    1    3    3  502    0  0.79545095288E+01  0.10115102215E+02 -0.41821293785E+02  0.43756258165E+02  0.00000000000E+00 0. -1.
         -4    1    3    3    0  502 -0.14753463648E+03  0.26747780373E+03 -0.47916989233E+03  0.56825577883E+03  0.00000000000E+00 0.  1.
         11    1    5    5    0    0 -0.12141577968E+03 -0.21805596886E+03 -0.33249076281E+03  0.41574066972E+03  0.00000000000E+00 0.  1.
        -11    1    5    5    0    0 -0.36108446884E+02 -0.24128000425E+03 -0.35620386618E+03  0.43174188431E+03  0.00000000000E+00 0. -1.
          2    1    6    6  503    0  0.30194291572E+02  0.40688434840E+02  0.17773151688E+02  0.53694775297E+02  0.00000000000E+00 0. -1.
         -2    1    6    6    0  503  0.26691006194E+03  0.14105463232E+03 -0.67895819108E+02  0.30943049740E+03  0.00000000000E+00 0.  1.
<mgrwt>
<rscale>  0 0.13171278E+04</rscale>
<asrwt>0</asrwt>
<pdfrwt beam="1">  1        1 0.43293184E-01 0.13171278E+04</pdfrwt>
<pdfrwt beam="2">  1       -2 0.23710987E+00 0.13171278E+04</pdfrwt>
<totfact> 0.63065995E+00</totfact>
</mgrwt>
</event>
<event>
12    4  0.4424320E-008  0.1161916E+04  0.7818608E-02  0.9146861E-01
          1   -1    0    0  501    0  0.00000000000E+00  0.00000000000E+00  0.13144873356E+04  0.13144873356E+04  0.00000000000E+00 0. -1.
         -2   -1    0    0    0  501 -0.00000000000E+00 -0.00000000000E+00 -0.25676315147E+03  0.25676315147E+03  0.00000000000E+00 0.  1.
        -24    2    1    2    0    0 -0.16803319291E+03 -0.12707280009E+02  0.38420430966E+03  0.42717447570E+03  0.80426688647E+02 0.  0.
        254    2    1    2    0    0  0.16803319291E+03  0.12707280009E+02  0.67351987443E+03  0.11440760113E+04  0.90933177088E+03 0.  0.
         23    2    4    4    0    0  0.34286430550E+03 -0.23958183462E+01 -0.80965526273E+02  0.36391963988E+03  0.91216313830E+02 0.  0.
         23    2    4    4    0    0 -0.17483111260E+03  0.15103098356E+02  0.75448540071E+03  0.78015637144E+03  0.92745471668E+02 0.  0.
          1    1    3    3  502    0 -0.16947922218E+03 -0.10842585842E+01  0.37720178201E+03  0.41352819338E+03  0.00000000000E+00 0. -1.
         -2    1    3    3    0  502  0.14460292753E+01 -0.11623021425E+02  0.70025276463E+01  0.13646282320E+02  0.00000000000E+00 0.  1.
         11    1    5    5    0    0  0.21290175746E+03  0.30320848072E+02 -0.81291931739E+02  0.22990191457E+03  0.00000000000E+00 0.  1.
        -11    1    5    5    0    0  0.12996254804E+03 -0.32716666418E+02  0.32640546620E+00  0.13401772530E+03  0.00000000000E+00 0. -1.
          4    1    6    6  503    0 -0.16737409502E+03  0.16479907164E+02  0.54106461005E+03  0.56660090652E+03  0.00000000000E+00 0. -1.
         -4    1    6    6    0  503 -0.74570175771E+01 -0.13768088089E+01  0.21342079066E+03  0.21355546493E+03  0.00000000000E+00 0.  1.
<mgrwt>
<rscale>  0 0.11619155E+04</rscale>
<asrwt>0</asrwt>
<pdfrwt beam="1">  1        1 0.20222882E+00 0.11619155E+04</pdfrwt>
<pdfrwt beam="2">  1       -2 0.39502024E-01 0.11619155E+04</pdfrwt>
<totfact> 0.46589195E+01</totfact>
</mgrwt>
</event>
<event>
12    4  0.4424320E-008  0.1782755E+04  0.7818608E-02  0.8715524E-01
          1   -1    0    0  501    0  0.00000000000E+00  0.00000000000E+00  0.17540217851E+04  0.17540217851E+04  0.00000000000E+00 0. -1.
         -2   -1    0    0    0  501 -0.00000000000E+00 -0.00000000000E+00 -0.45298991546E+03  0.45298991546E+03  0.00000000000E+00 0.  1.
        -24    2    1    2    0    0 -0.17356633738E+03  0.63141485560E+03  0.60410131881E+03  0.89445284639E+03  0.79356774674E+02 0.  0.
        254    2    1    2    0    0  0.17356633738E+03 -0.63141485560E+03  0.69693055080E+03  0.13125588541E+04  0.89904869701E+03 0.  0.
         23    2    4    4    0    0  0.91081984095E+01 -0.60873437911E+02 -0.20327422758E+03  0.23045966025E+03  0.89457859824E+02 0.  0.
         23    2    4    4    0    0  0.16445813897E+03 -0.57054141769E+03  0.90020477838E+03  0.10820991939E+04  0.89476441701E+02 0.  0.
          3    1    3    3  502    0 -0.17655270771E+03  0.62544640582E+03  0.60476374254E+03  0.88774616273E+03  0.00000000000E+00 0. -1.
         -2    1    3    3    0  502  0.29863703271E+01  0.59684497800E+01 -0.66242373264E+00  0.67066836595E+01  0.00000000000E+00 0.  1.
         11    1    5    5    0    0  0.15985003756E+02 -0.82808344205E+02 -0.14393422362E+03  0.16682266915E+03  0.00000000000E+00 0. -1.
        -11    1    5    5    0    0 -0.68768053468E+01  0.21934906294E+02 -0.59340003962E+02  0.63636991099E+02  0.00000000000E+00 0.  1.
          3    1    6    6  503    0  0.13772719945E+03 -0.52892205794E+03  0.85683826443E+03  0.10163164548E+04  0.00000000000E+00 0. -1.
         -3    1    6    6    0  503  0.26730939519E+02 -0.41619359753E+02  0.43366513950E+02  0.65782739119E+02  0.00000000000E+00 0.  1.
<mgrwt>
<rscale>  0 0.17827554E+04</rscale>
<asrwt>0</asrwt>
<pdfrwt beam="1">  1        1 0.26984950E+00 0.17827554E+04</pdfrwt>
<pdfrwt beam="2">  1       -2 0.69690757E-01 0.17827554E+04</pdfrwt>
<totfact> 0.68174406E+00</totfact>
</mgrwt>
</event>
<event>
12    4  0.4424320E-008  0.2305161E+04  0.7818608E-02  0.8475889E-01
         -2   -1    0    0    0  501 -0.00000000000E+00  0.00000000000E+00  0.43040951708E+03  0.43040951708E+03  0.00000000000E+00 0.  1.
          1   -1    0    0  501    0  0.00000000000E+00 -0.00000000000E+00 -0.30864597706E+04  0.30864597706E+04  0.00000000000E+00 0. -1.
        -24    2    1    2    0    0  0.97071308415E+03 -0.70459324319E+01 -0.12941469612E+04  0.16197538251E+04  0.80327825818E+02 0.  0.
        254    2    1    2    0    0 -0.97071308415E+03  0.70459324319E+01 -0.13619032923E+04  0.18971154626E+04  0.89550709885E+03 0.  0.
         23    2    4    4    0    0 -0.58556526346E+03  0.41750330702E+03 -0.57303939365E+03  0.92393306506E+03  0.89902574487E+02 0.  0.
         23    2    4    4    0    0 -0.38514782069E+03 -0.41045737459E+03 -0.78886389863E+03  0.97318239756E+03  0.89239163079E+02 0.  0.
          3    1    3    3  502    0  0.96864324552E+03 -0.94628871666E+01 -0.12941961057E+04  0.16165713233E+04  0.00000000000E+00 0. -1.
         -4    1    3    3    0  502  0.20698386366E+01  0.24169547348E+01  0.49144475826E-01  0.31825017440E+01  0.00000000000E+00 0.  1.
         11    1    5    5    0    0 -0.19321283208E+03  0.18667795944E+03 -0.19083630527E+03  0.32954264432E+03  0.00000000000E+00 0. -1.
        -11    1    5    5    0    0 -0.39235243138E+03  0.23082534758E+03 -0.38220308839E+03  0.59439042074E+03  0.00000000000E+00 0.  1.
          1    1    6    6  503    0 -0.91081821438E+02 -0.15742726012E+03 -0.24453504584E+03  0.30475667190E+03  0.00000000000E+00 0.  1.
         -1    1    6    6    0  503 -0.29406599925E+03 -0.25303011447E+03 -0.54432885279E+03  0.66842572566E+03  0.00000000000E+00 0. -1.
<mgrwt>
<rscale>  0 0.23051609E+04</rscale>
<asrwt>0</asrwt>
<pdfrwt beam="1">  1        1 0.47483996E+00 0.23051609E+04</pdfrwt>
<pdfrwt beam="2">  1       -2 0.66216850E-01 0.23051609E+04</pdfrwt>
<totfact> 0.86089571E-01</totfact>
</mgrwt>
</event>
<event>
12    4  0.4424320E-008  0.2345315E+04  0.7818608E-02  0.8460265E-01
         -2   -1    0    0    0  501 -0.00000000000E+00  0.00000000000E+00  0.15851022903E+04  0.15851022903E+04  0.00000000000E+00 0.  1.
          1   -1    0    0  501    0  0.00000000000E+00 -0.00000000000E+00 -0.86753097239E+03  0.86753097239E+03  0.00000000000E+00 0. -1.
        -24    2    1    2    0    0 -0.60370608186E+03 -0.26706747121E+03  0.10920520478E+04  0.12785332616E+04  0.79268899680E+02 0.  0.
        254    2    1    2    0    0  0.60370608186E+03  0.26706747121E+03 -0.37448072985E+03  0.11741000011E+04  0.89581746366E+03 0.  0.
         23    2    4    4    0    0  0.69502571770E+03  0.44809385371E+03 -0.44468545924E+03  0.94335241242E+03  0.91212753287E+02 0.  0.
         23    2    4    4    0    0 -0.91319635847E+02 -0.18102638250E+03  0.70204729394E+02  0.23074758871E+03  0.84887682356E+02 0.  0.
          1    1    3    3  502    0 -0.13252789031E+03 -0.91422156083E+02  0.29621558639E+03  0.33714288655E+03  0.00000000000E+00 0. -1.
         -2    1    3    3    0  502 -0.47117819155E+03 -0.17564531513E+03  0.79583646140E+03  0.94139037504E+03  0.00000000000E+00 0.  1.
         11    1    5    5    0    0  0.66685165684E+03  0.40709781677E+03 -0.42824492109E+03  0.89096210754E+03  0.00000000000E+00 0. -1.
        -11    1    5    5    0    0  0.28174060868E+02  0.40996036937E+02 -0.16440538154E+02  0.52390304877E+02  0.00000000000E+00 0.  1.
          4    1    6    6  503    0 -0.81314938057E+02 -0.16502651821E+03  0.88775587613E+02  0.20427181847E+03  0.00000000000E+00 0. -1.
         -4    1    6    6    0  503 -0.10004697790E+02 -0.15999864285E+02 -0.18570858218E+02  0.26475770243E+02  0.00000000000E+00 0.  1.
<mgrwt>
<rscale>  0 0.23453148E+04</rscale>
<asrwt>0</asrwt>
<pdfrwt beam="1">  1        1 0.13346630E+00 0.23453148E+04</pdfrwt>
<pdfrwt beam="2">  1       -2 0.24386189E+00 0.23453148E+04</pdfrwt>
<totfact> 0.10712270E+00</totfact>
</mgrwt>
</event>
<event>
12    4  0.4424320E-008  0.2759163E+04  0.7818608E-02  0.8316060E-01
         -2   -1    0    0    0  501 -0.00000000000E+00  0.00000000000E+00  0.19586571865E+04  0.19586571865E+04  0.00000000000E+00 0.  1.
          1   -1    0    0  501    0  0.00000000000E+00 -0.00000000000E+00 -0.97170933598E+03  0.97170933598E+03  0.00000000000E+00 0. -1.
        -24    2    1    2    0    0  0.49913450292E+03  0.11029701373E+04  0.19369578524E+03  0.12285458013E+04  0.78283797974E+02 0.  0.
        254    2    1    2    0    0 -0.49913450292E+03 -0.11029701373E+04  0.79325206528E+03  0.17018207211E+04  0.89513493516E+03 0.  0.
         23    2    4    4    0    0  0.21605013698E+03 -0.47430003759E+03  0.15487654266E+03  0.55161226339E+03  0.93011603072E+02 0.  0.
         23    2    4    4    0    0 -0.71518463990E+03 -0.62867009968E+03  0.63837552262E+03  0.11502084578E+04  0.93493449176E+02 0.  0.
          1    1    3    3  502    0  0.11977706747E+03  0.31919884091E+03  0.27166477490E+02  0.34201237321E+03  0.00000000000E+00 0. -1.
         -2    1    3    3    0  502  0.37935743545E+03  0.78377129636E+03  0.16652930775E+03  0.88653342811E+03  0.00000000000E+00 0.  1.
         11    1    5    5    0    0 -0.42987661768E+01 -0.56326030318E+02  0.23545687765E+02  0.61200494233E+02  0.00000000000E+00 0. -1.
        -11    1    5    5    0    0  0.22034890316E+03 -0.41797400727E+03  0.13133085489E+03  0.49041176915E+03  0.00000000000E+00 0.  1.
          4    1    6    6  503    0 -0.44869642568E+02 -0.33950350450E+02  0.13861734926E+02  0.57948760254E+02  0.00000000000E+00 0. -1.
         -4    1    6    6    0  503 -0.67031499733E+03 -0.59471974923E+03  0.62451378769E+03  0.10922596975E+04  0.00000000000E+00 0.  1.
<mgrwt>
<rscale>  0 0.27591633E+04</rscale>
<asrwt>0</asrwt>
<pdfrwt beam="1">  1        1 0.14949375E+00 0.27591633E+04</pdfrwt>
<pdfrwt beam="2">  1       -2 0.30133187E+00 0.27591633E+04</pdfrwt>
<totfact> 0.37864244E-01</totfact>
</mgrwt>
</event>
<event>
12    4  0.4424320E-008  0.1306619E+04  0.7818608E-02  0.9024333E-01
         -2   -1    0    0    0  501 -0.00000000000E+00  0.00000000000E+00  0.40946338948E+03  0.40946338948E+03  0.00000000000E+00 0.  1.
          1   -1    0    0  501    0  0.00000000000E+00 -0.00000000000E+00 -0.10423724479E+04  0.10423724479E+04  0.00000000000E+00 0. -1.
        -24    2    1    2    0    0  0.34013461598E+02  0.32388955712E+03 -0.11278974640E+03  0.35381141287E+03  0.79997676227E+02 0.  0.
        254    2    1    2    0    0 -0.34013461598E+02 -0.32388955712E+03 -0.52011931207E+03  0.10980244246E+04  0.91053400670E+03 0.  0.
         23    2    4    4    0    0 -0.39872352985E+03 -0.44317379621E+02 -0.47089618160E+03  0.62562042504E+03  0.93344624902E+02 0.  0.
         23    2    4    4    0    0  0.36471006825E+03 -0.27957217750E+03 -0.49223130476E+02  0.47240399952E+03  0.97819148779E+02 0.  0.
          1    1    3    3  502    0  0.13897268262E+02  0.29128885091E+03 -0.11907080683E+03  0.31499235827E+03  0.00000000000E+00 0. -1.
         -2    1    3    3    0  502  0.20116193336E+02  0.32600706210E+02  0.62810604317E+01  0.38819054597E+02  0.00000000000E+00 0.  1.
         11    1    5    5    0    0 -0.19690579720E+03 -0.46073274657E+02 -0.17490878434E+03  0.26737188044E+03  0.00000000000E+00 0. -1.
        -11    1    5    5    0    0 -0.20181773265E+03  0.17558950368E+01 -0.29598739725E+03  0.35824854460E+03  0.00000000000E+00 0.  1.
          1    1    6    6  503    0  0.34607519569E+03 -0.27475287163E+03 -0.26569252145E+02  0.44267720372E+03  0.00000000000E+00 0. -1.
         -1    1    6    6    0  503  0.18634872563E+02 -0.48193058740E+01 -0.22653878331E+02  0.29726795791E+02  0.00000000000E+00 0.  1.
<mgrwt>
<rscale>  0 0.13066191E+04</rscale>
<asrwt>0</asrwt>
<pdfrwt beam="1">  1        1 0.16036499E+00 0.13066191E+04</pdfrwt>
<pdfrwt beam="2">  1       -2 0.62994368E-01 0.13066191E+04</pdfrwt>
<totfact> 0.28202753E+01</totfact>
</mgrwt>
</event>
<event>
12    4  0.4424320E-008  0.3515608E+04  0.7818608E-02  0.8110101E-01
          1   -1    0    0  501    0  0.00000000000E+00  0.00000000000E+00  0.19946641236E+04  0.19946641236E+04  0.00000000000E+00 0. -1.
         -4   -1    0    0    0  501 -0.00000000000E+00 -0.00000000000E+00 -0.15490705489E+04  0.15490705489E+04  0.00000000000E+00 0.  1.
        -24    2    1    2    0    0 -0.94288493974E+03  0.74375266639E+03 -0.92135795587E+03  0.15156253595E+04  0.77586784740E+02 0.  0.
        254    2    1    2    0    0  0.94288493974E+03 -0.74375266639E+03  0.13669515306E+04  0.20281093130E+04  0.89580737894E+03 0.  0.
         23    2    4    4    0    0  0.19051026860E+03 -0.55760253349E+01 -0.87695612261E+02  0.22938406699E+03  0.92743060556E+02 0.  0.
         23    2    4    4    0    0  0.75237467114E+03 -0.73817664105E+03  0.14546471429E+04  0.17987252460E+04  0.91879275364E+02 0.  0.
          3    1    3    3  502    0 -0.13070852626E+03  0.13573119794E+03 -0.12980345962E+03  0.22881567922E+03  0.00000000000E+00 0. -1.
         -4    1    3    3    0  502 -0.81217641349E+03  0.60802146845E+03 -0.79155449625E+03  0.12868096803E+04  0.00000000000E+00 0.  1.
         11    1    5    5    0    0  0.19769785396E+03  0.49167961443E+01 -0.88461125004E+02  0.21664253272E+03  0.00000000000E+00 0.  1.
        -11    1    5    5    0    0 -0.71875853641E+01 -0.10492821479E+02  0.76551274309E+00  0.12741534277E+02  0.00000000000E+00 0. -1.
          1    1    6    6  503    0  0.31647796337E+03 -0.26900191082E+03  0.63026396327E+03  0.75481984124E+03  0.00000000000E+00 0. -1.
         -1    1    6    6    0  503  0.43589670777E+03 -0.46917473024E+03  0.82438317960E+03  0.10439054048E+04  0.00000000000E+00 0.  1.
<mgrwt>
<rscale>  0 0.35156083E+04</rscale>
<asrwt>0</asrwt>
<pdfrwt beam="1">  1        1 0.30687140E+00 0.35156083E+04</pdfrwt>
<pdfrwt beam="2">  1       -4 0.23831855E+00 0.35156083E+04</pdfrwt>
<totfact> 0.88801009E-02</totfact>
</mgrwt>
</event>
<event>
12    4  0.4424320E-008  0.1034508E+04  0.7818608E-02  0.9271486E-01
         -2   -1    0    0    0  501 -0.00000000000E+00  0.00000000000E+00  0.15848741711E+04  0.15848741711E+04  0.00000000000E+00 0.  1.
          1   -1    0    0  501    0  0.00000000000E+00 -0.00000000000E+00 -0.16881580963E+03  0.16881580963E+03  0.00000000000E+00 0. -1.
        -24    2    1    2    0    0  0.81860386500E+02  0.53381477494E+02  0.19871372357E+03  0.23534171769E+03  0.79673553515E+02 0.  0.
        254    2    1    2    0    0 -0.81860386500E+02 -0.53381477494E+02  0.12173446379E+04  0.15183482631E+04  0.90216560313E+03 0.  0.
         23    2    4    4    0    0  0.35498274417E+03 -0.17167175975E+03  0.34715294539E+03  0.53355067355E+03  0.93151553939E+02 0.  0.
         23    2    4    4    0    0 -0.43684313067E+03  0.11829028225E+03  0.87019169251E+03  0.98479758950E+03  0.88137386431E+02 0.  0.
          1    1    3    3  502    0  0.79806655338E+01 -0.16381140934E+02  0.94510818189E+01  0.20526951751E+02  0.00000000000E+00 0. -1.
         -2    1    3    3    0  502  0.73879720967E+02  0.69762618427E+02  0.18926264175E+03  0.21481476593E+03  0.00000000000E+00 0.  1.
         11    1    5    5    0    0  0.12459935891E+03 -0.58728593540E+02  0.18263879171E+03  0.22875964717E+03  0.00000000000E+00 0. -1.
        -11    1    5    5    0    0  0.23038338527E+03 -0.11294316620E+03  0.16451415369E+03  0.30479102638E+03  0.00000000000E+00 0.  1.
          2    1    6    6  503    0 -0.31403410356E+03  0.45926727139E+02  0.56736146387E+03  0.65009669523E+03  0.00000000000E+00 0. -1.
         -2    1    6    6    0  503 -0.12280902711E+03  0.72363555112E+02  0.30283022864E+03  0.33470089427E+03  0.00000000000E+00 0.  1.
<mgrwt>
<rscale>  0 0.10345082E+04</rscale>
<asrwt>0</asrwt>
<pdfrwt beam="1">  1        1 0.25971664E-01 0.10345082E+04</pdfrwt>
<pdfrwt beam="2">  1       -2 0.24382679E+00 0.10345082E+04</pdfrwt>
<totfact> 0.11409499E+01</totfact>
</mgrwt>
</event>
<event>
12    4  0.4424320E-008  0.1883046E+04  0.7818608E-02  0.8663342E-01
         -2   -1    0    0    0  501 -0.00000000000E+00  0.00000000000E+00  0.66513183467E+03  0.66513183467E+03  0.00000000000E+00 0.  1.
          1   -1    0    0  501    0  0.00000000000E+00 -0.00000000000E+00 -0.13327672906E+04  0.13327672906E+04  0.00000000000E+00 0. -1.
        -24    2    1    2    0    0 -0.39736176806E+03  0.30678858140E+03  0.29231581748E+03  0.58611395628E+03  0.77880833354E+02 0.  0.
        254    2    1    2    0    0  0.39736176806E+03 -0.30678858140E+03 -0.95995127341E+03  0.14117851690E+04  0.90532607809E+03 0.  0.
         23    2    4    4    0    0  0.38430418866E+03 -0.52333983504E+03 -0.97683085716E+03  0.11765632229E+04  0.92348262972E+02 0.  0.
         23    2    4    4    0    0  0.13057579394E+02  0.21655125364E+03  0.16879583749E+02  0.23522194607E+03  0.89328034414E+02 0.  0.
          1    1    3    3  502    0  0.36136372893E+00 -0.35110531259E+01  0.14599473970E+01  0.38196235678E+01  0.00000000000E+00 0. -1.
         -2    1    3    3    0  502 -0.39772313178E+03  0.31029963453E+03  0.29085587008E+03  0.58229433271E+03  0.00000000000E+00 0.  1.
         11    1    5    5    0    0  0.26817327984E+03 -0.34111327597E+03 -0.72301464001E+03  0.84322318797E+03  0.00000000000E+00 0.  1.
        -11    1    5    5    0    0  0.11613090882E+03 -0.18222655907E+03 -0.25381621715E+03  0.33334003495E+03  0.00000000000E+00 0. -1.
          2    1    6    6  503    0 -0.28171180631E+02  0.59351445939E+02 -0.19801951034E+02  0.68617248691E+02  0.00000000000E+00 0. -1.
         -2    1    6    6    0  503  0.41228760025E+02  0.15719980770E+03  0.36681534782E+02  0.16660469738E+03  0.00000000000E+00 0.  1.
<mgrwt>
<rscale>  0 0.18830464E+04</rscale>
<asrwt>0</asrwt>
<pdfrwt beam="1">  1        1 0.20504112E+00 0.18830464E+04</pdfrwt>
<pdfrwt beam="2">  1       -2 0.10232798E+00 0.18830464E+04</pdfrwt>
<totfact> 0.55100921E+00</totfact>
</mgrwt>
</event>
<event>
12    4  0.4424320E-008  0.1250940E+04  0.7818608E-02  0.9069402E-01
         -2   -1    0    0    0  501 -0.00000000000E+00  0.00000000000E+00  0.50218000348E+03  0.50218000348E+03  0.00000000000E+00 0.  1.
          1   -1    0    0  501    0  0.00000000000E+00 -0.00000000000E+00 -0.77902840139E+03  0.77902840139E+03  0.00000000000E+00 0. -1.
        -24    2    1    2    0    0 -0.16618388743E+03  0.23746913610E+03 -0.71250799456E+01  0.30008654784E+03  0.77411203283E+02 0.  0.
        254    2    1    2    0    0  0.16618388743E+03 -0.23746913610E+03 -0.26972331796E+03  0.98112185702E+03  0.89768633444E+03 0.  0.
         23    2    4    4    0    0  0.45220000061E+03 -0.39209032945E+03 -0.17417642705E+03  0.63006461128E+03  0.91784092543E+02 0.  0.
         23    2    4    4    0    0 -0.28601611318E+03  0.15462119335E+03 -0.95546890910E+02  0.35105724575E+03  0.91646336499E+02 0.  0.
          1    1    3    3  502    0 -0.27337450465E+02  0.26922978096E+02 -0.27276564626E+02  0.47076468912E+02  0.00000000000E+00 0. -1.
         -2    1    3    3    0  502 -0.13884643696E+03  0.21054615800E+03  0.20151484680E+02  0.25301007893E+03  0.00000000000E+00 0.  1.
         11    1    5    5    0    0  0.38632439575E+03 -0.30958283340E+03 -0.11213131141E+03  0.50760368447E+03  0.00000000000E+00 0. -1.
        -11    1    5    5    0    0  0.65875604859E+02 -0.82507496054E+02 -0.62045115637E+02  0.12246092681E+03  0.00000000000E+00 0.  1.
          1    1    6    6  503    0 -0.27619125128E+03  0.11898085951E+03 -0.82320123056E+02  0.31179264724E+03  0.00000000000E+00 0. -1.
         -1    1    6    6    0  503 -0.98248619064E+01  0.35640333848E+02 -0.13226767854E+02  0.39264598510E+02  0.00000000000E+00 0.  1.
<mgrwt>
<rscale>  0 0.12509396E+04</rscale>
<asrwt>0</asrwt>
<pdfrwt beam="1">  1        1 0.11985052E+00 0.12509396E+04</pdfrwt>
<pdfrwt beam="2">  1       -2 0.77258463E-01 0.12509396E+04</pdfrwt>
<totfact> 0.29793928E+01</totfact>
</mgrwt>
</event>
<event>
12    4  0.4424320E-008  0.1727130E+04  0.7818608E-02  0.8746040E-01
         -2   -1    0    0    0  501 -0.00000000000E+00  0.00000000000E+00  0.34121644777E+03  0.34121644777E+03  0.00000000000E+00 0.  1.
          1   -1    0    0  501    0  0.00000000000E+00 -0.00000000000E+00 -0.21855478941E+04  0.21855478941E+04  0.00000000000E+00 0. -1.
        -24    2    1    2    0    0  0.22823216425E+03 -0.39972505992E+03 -0.70064290756E+02  0.47234265179E+03  0.79552068097E+02 0.  0.
        254    2    1    2    0    0 -0.22823216425E+03  0.39972505992E+03 -0.17742671556E+04  0.20544216901E+04  0.92776855788E+03 0.  0.
         23    2    4    4    0    0 -0.57301363471E+02  0.50162314198E+03 -0.17616740257E+04  0.18351973496E+04  0.97697064776E+02 0.  0.
         23    2    4    4    0    0 -0.17093080078E+03 -0.10189808206E+03 -0.12593129930E+02  0.21922434049E+03  0.91105250987E+02 0.  0.
          1    1    3    3  502    0  0.12334338682E+02 -0.76260563481E+02 -0.23030260634E+02  0.80611428210E+02  0.00000000000E+00 0. -1.
         -2    1    3    3    0  502  0.21589782557E+03 -0.32346449644E+03 -0.47034030122E+02  0.39173122358E+03  0.00000000000E+00 0.  1.
         11    1    5    5    0    0  0.54688290689E+01  0.15884088709E+03 -0.42188745106E+03  0.45083184987E+03  0.00000000000E+00 0. -1.
        -11    1    5    5    0    0 -0.62770192540E+02  0.34278225490E+03 -0.13397865746E+04  0.13843654998E+04  0.00000000000E+00 0.  1.
          3    1    6    6  503    0 -0.80773161346E+01 -0.36772386931E+02 -0.21953159875E+02  0.43582022728E+02  0.00000000000E+00 0. -1.
         -3    1    6    6    0  503 -0.16285348464E+03 -0.65125695134E+02  0.93600299460E+01  0.17564231776E+03  0.00000000000E+00 0.  1.
<mgrwt>
<rscale>  0 0.17271304E+04</rscale>
<asrwt>0</asrwt>
<pdfrwt beam="1">  1        1 0.33623814E+00 0.17271304E+04</pdfrwt>
<pdfrwt beam="2">  1       -2 0.52494838E-01 0.17271304E+04</pdfrwt>
<totfact> 0.63657125E+00</totfact>
</mgrwt>
</event>
<event>
12    4  0.4424320E-008  0.4209829E+04  0.7818608E-02  0.7963505E-01
         -4   -1    0    0    0  501 -0.00000000000E+00  0.00000000000E+00  0.11920732412E+04  0.11920732412E+04  0.00000000000E+00 0.  1.
          1   -1    0    0  501    0  0.00000000000E+00 -0.00000000000E+00 -0.37167718104E+04  0.37167718104E+04  0.00000000000E+00 0. -1.
        -24    2    1    2    0    0 -0.17928868049E+04 -0.47525586411E+02 -0.22622390002E+04  0.28880541956E+04  0.80187071084E+02 0.  0.
        254    2    1    2    0    0  0.17928868049E+04  0.47525586411E+02 -0.26245956909E+03  0.20207908560E+04  0.89331342860E+03 0.  0.
         23    2    4    4    0    0  0.13341994515E+04 -0.28489525543E+03  0.47583496404E+02  0.13682307017E+04  0.92399031176E+02 0.  0.
         23    2    4    4    0    0  0.45868735339E+03  0.33242084184E+03 -0.31004306550E+03  0.65256015430E+03  0.93863455452E+02 0.  0.
          1    1    3    3  502    0 -0.15207267411E+04 -0.14607145385E+02 -0.19374334670E+04  0.24630208340E+04  0.00000000000E+00 0. -1.
         -2    1    3    3    0  502 -0.27216006375E+03 -0.32918441026E+02 -0.32480553319E+03  0.42503336157E+03  0.00000000000E+00 0.  1.
         11    1    5    5    0    0  0.12870543228E+04 -0.29102789076E+03  0.40547062495E+02  0.13201704918E+04  0.00000000000E+00 0.  1.
        -11    1    5    5    0    0  0.47145128654E+02  0.61326353273E+01  0.70364339095E+01  0.48060209883E+02  0.00000000000E+00 0. -1.
          3    1    6    6  503    0  0.37089948528E+02  0.38347320092E-01 -0.24878966213E+02  0.44661266352E+02  0.00000000000E+00 0. -1.
         -3    1    6    6    0  503  0.42159740487E+03  0.33238249452E+03 -0.28516409928E+03  0.60789888795E+03  0.00000000000E+00 0.  1.
<mgrwt>
<rscale>  0 0.42098286E+04</rscale>
<asrwt>0</asrwt>
<pdfrwt beam="1">  1        1 0.57181105E+00 0.42098286E+04</pdfrwt>
<pdfrwt beam="2">  1       -4 0.18339588E+00 0.42098286E+04</pdfrwt>
<totfact> 0.10750897E-02</totfact>
</mgrwt>
</event>
<event>
12    4  0.4424320E-008  0.1700891E+04  0.7818608E-02  0.8760857E-01
         -2   -1    0    0    0  501 -0.00000000000E+00  0.00000000000E+00  0.80610578859E+03  0.80610578859E+03  0.00000000000E+00 0.  1.
          1   -1    0    0  501    0  0.00000000000E+00 -0.00000000000E+00 -0.89722380237E+03  0.89722380237E+03  0.00000000000E+00 0. -1.
        -24    2    1    2    0    0 -0.51225896858E+03 -0.17290235936E+03 -0.30794648393E+03  0.62755775047E+03  0.81812080097E+02 0.  0.
        254    2    1    2    0    0  0.51225896858E+03  0.17290235936E+03  0.21682847014E+03  0.10757718405E+04  0.90441472266E+03 0.  0.
         23    2    4    4    0    0  0.69772734174E+03  0.11883226334E+03 -0.73127179513E+02  0.71739887534E+03  0.91482302815E+02 0.  0.
         23    2    4    4    0    0 -0.18546837316E+03  0.54070096018E+02  0.28995564965E+03  0.35837296516E+03  0.83873778161E+02 0.  0.
          3    1    3    3  502    0 -0.49307269577E+03 -0.14740475281E+03 -0.29440110102E+03  0.59289194019E+03  0.00000000000E+00 0. -1.
         -4    1    3    3    0  502 -0.19186272809E+02 -0.25497606548E+02 -0.13545382910E+02  0.34665810277E+02  0.00000000000E+00 0.  1.
         11    1    5    5    0    0  0.20435844657E+03  0.65182073535E+02 -0.51776975549E+02  0.22066248569E+03  0.00000000000E+00 0.  1.
        -11    1    5    5    0    0  0.49336889517E+03  0.53650189808E+02 -0.21350203964E+02  0.49673638965E+03  0.00000000000E+00 0. -1.
          3    1    6    6  503    0 -0.16917973763E+03  0.16902940875E+02  0.23277216925E+03  0.28825401265E+03  0.00000000000E+00 0. -1.
         -3    1    6    6    0  503 -0.16288635533E+02  0.37167155143E+02  0.57183480403E+02  0.70118952502E+02  0.00000000000E+00 0.  1.
<mgrwt>
<rscale>  0 0.17008907E+04</rscale>
<asrwt>0</asrwt>
<pdfrwt beam="1">  1        1 0.13803443E+00 0.17008907E+04</pdfrwt>
<pdfrwt beam="2">  1       -2 0.12401628E+00 0.17008907E+04</pdfrwt>
<totfact> 0.74593114E+00</totfact>
</mgrwt>
</event>
<event>
12    4  0.4424320E-008  0.1414530E+04  0.7818608E-02  0.8943368E-01
         -2   -1    0    0    0  501 -0.00000000000E+00  0.00000000000E+00  0.76919781848E+03  0.76919781848E+03  0.00000000000E+00 0.  1.
          1   -1    0    0  501    0  0.00000000000E+00 -0.00000000000E+00 -0.65031851684E+03  0.65031851684E+03  0.00000000000E+00 0. -1.
        -24    2    1    2    0    0  0.40205077345E+03 -0.31284158859E+01  0.15894159302E+03  0.43790086300E+03  0.69571002649E+02 0.  0.
        254    2    1    2    0    0 -0.40205077345E+03  0.31284158859E+01 -0.40062291382E+02  0.98161547232E+03  0.89460009886E+03 0.  0.
         23    2    4    4    0    0 -0.27320415561E+03  0.78388252818E+02 -0.44792596366E+03  0.53807929953E+03  0.90035742020E+02 0.  0.
         23    2    4    4    0    0 -0.12884661784E+03 -0.75259836932E+02  0.40786367228E+03  0.44353617279E+03  0.90033701584E+02 0.  0.
          3    1    3    3  502    0  0.29907789908E+02  0.43590213830E+01 -0.59340774308E+01  0.30800815566E+02  0.00000000000E+00 0. -1.
         -2    1    3    3    0  502  0.37214298354E+03 -0.74874372689E+01  0.16487567045E+03  0.40710004743E+03  0.00000000000E+00 0.  1.
         11    1    5    5    0    0 -0.14619084044E+03  0.88047086561E+02 -0.24925319509E+03  0.30207814641E+03  0.00000000000E+00 0. -1.
        -11    1    5    5    0    0 -0.12701331517E+03 -0.96588337429E+01 -0.19867276858E+03  0.23600115312E+03  0.00000000000E+00 0.  1.
          1    1    6    6  503    0 -0.11794817072E+03 -0.82728844092E+02  0.27904111650E+03  0.31403785969E+03  0.00000000000E+00 0. -1.
         -1    1    6    6    0  503 -0.10898447122E+02  0.74690071598E+01  0.12882255578E+03  0.12949831310E+03  0.00000000000E+00 0.  1.
<mgrwt>
<rscale>  0 0.14145297E+04</rscale>
<asrwt>0</asrwt>
<pdfrwt beam="1">  1        1 0.10004900E+00 0.14145297E+04</pdfrwt>
<pdfrwt beam="2">  1       -2 0.11833813E+00 0.14145297E+04</pdfrwt>
<totfact> 0.14260486E+01</totfact>
</mgrwt>
</event>
<event>
12    4  0.4424320E-008  0.1709195E+04  0.7818608E-02  0.8756138E-01
         -2   -1    0    0    0  501 -0.00000000000E+00  0.00000000000E+00  0.20438057172E+03  0.20438057172E+03  0.00000000000E+00 0.  1.
          1   -1    0    0  501    0  0.00000000000E+00 -0.00000000000E+00 -0.35734143484E+04  0.35734143484E+04  0.00000000000E+00 0. -1.
        -24    2    1    2    0    0 -0.61460841502E+03 -0.68794592634E+02 -0.11540464539E+04  0.13120797583E+04  0.85169681670E+02 0.  0.
        254    2    1    2    0    0  0.61460841502E+03  0.68794592634E+02 -0.22149873228E+04  0.24657151618E+04  0.88944152093E+03 0.  0.
         23    2    4    4    0    0 -0.44942848616E+02  0.17664082336E+03 -0.13666829909E+04  0.13817581474E+04  0.90616444642E+02 0.  0.
         23    2    4    4    0    0  0.65955126364E+03 -0.10784623073E+03 -0.84830433187E+03  0.10839570144E+04  0.93294645002E+02 0.  0.
          1    1    3    3  502    0 -0.35668200979E+03 -0.29974228479E+02 -0.75192119032E+03  0.83277006847E+03  0.00000000000E+00 0. -1.
         -2    1    3    3    0  502 -0.25792640523E+03 -0.38820364155E+02 -0.40212526353E+03  0.47930968982E+03  0.00000000000E+00 0.  1.
         11    1    5    5    0    0 -0.40535854325E+02  0.26682888495E+02 -0.21907943311E+03  0.22439012910E+03  0.00000000000E+00 0.  1.
        -11    1    5    5    0    0 -0.44069942906E+01  0.14995793487E+03 -0.11476035578E+04  0.11573680183E+04  0.00000000000E+00 0. -1.
          3    1    6    6  503    0  0.49547492384E+03 -0.71165782351E+02 -0.56792041049E+03  0.75702943231E+03  0.00000000000E+00 0. -1.
         -3    1    6    6    0  503  0.16407633980E+03 -0.36680448376E+02 -0.28038392138E+03  0.32692758211E+03  0.00000000000E+00 0.  1.
<mgrwt>
<rscale>  0 0.17091945E+04</rscale>
<asrwt>0</asrwt>
<pdfrwt beam="1">  1        1 0.54975603E+00 0.17091945E+04</pdfrwt>
<pdfrwt beam="2">  1       -2 0.31443166E-01 0.17091945E+04</pdfrwt>
<totfact> 0.17281986E+00</totfact>
</mgrwt>
</event>
<event>
12    4  0.4424320E-008  0.2102329E+04  0.7818608E-02  0.8560218E-01
         -2   -1    0    0    0  501 -0.00000000000E+00  0.00000000000E+00  0.17825534483E+04  0.17825534483E+04  0.00000000000E+00 0.  1.
          1   -1    0    0  501    0  0.00000000000E+00 -0.00000000000E+00 -0.61986741723E+03  0.61986741723E+03  0.00000000000E+00 0. -1.
        -24    2    1    2    0    0 -0.29943157672E+03  0.40506167265E+03  0.12679786432E+04  0.13665907871E+04  0.77886533950E+02 0.  0.
        254    2    1    2    0    0  0.29943157672E+03 -0.40506167265E+03 -0.10529261206E+03  0.10358300784E+04  0.89895672278E+03 0.  0.
         23    2    4    4    0    0 -0.22761977902E+03 -0.16375357349E+03 -0.29593074405E+03  0.41889298716E+03  0.96282567393E+02 0.  0.
         23    2    4    4    0    0  0.52705135574E+03 -0.24130809915E+03  0.19063813199E+03  0.61693709126E+03  0.90861140765E+02 0.  0.
          3    1    3    3  502    0 -0.13084147019E+03  0.11902178455E+03  0.40480525109E+03  0.44176121019E+03  0.00000000000E+00 0. -1.
         -4    1    3    3    0  502 -0.16859010653E+03  0.28603988810E+03  0.86317339206E+03  0.92482957693E+03  0.00000000000E+00 0.  1.
         11    1    5    5    0    0 -0.63191652010E+02  0.79257757811E+00 -0.52163423247E+02  0.81944101605E+02  0.00000000000E+00 0. -1.
        -11    1    5    5    0    0 -0.16442812701E+03 -0.16454615107E+03 -0.24376732081E+03  0.33694888556E+03  0.00000000000E+00 0.  1.
          1    1    6    6  503    0  0.23580158359E+02 -0.33629626721E+02  0.41989605333E+01  0.41286885704E+02  0.00000000000E+00 0. -1.
         -1    1    6    6    0  503  0.50347119738E+03 -0.20767847243E+03  0.18643917146E+03  0.57565020556E+03  0.00000000000E+00 0.  1.
<mgrwt>
<rscale>  0 0.21023290E+04</rscale>
<asrwt>0</asrwt>
<pdfrwt beam="1">  1        1 0.95364219E-01 0.21023290E+04</pdfrwt>
<pdfrwt beam="2">  1       -2 0.27423899E+00 0.21023290E+04</pdfrwt>
<totfact> 0.12014384E+00</totfact>
</mgrwt>
</event>
<event>
12    4  0.4424320E-008  0.3176525E+04  0.7818608E-02  0.8195045E-01
          1   -1    0    0  501    0  0.00000000000E+00  0.00000000000E+00  0.19872985155E+04  0.19872985155E+04  0.00000000000E+00 0. -1.
         -2   -1    0    0    0  501 -0.00000000000E+00 -0.00000000000E+00 -0.12693501783E+04  0.12693501783E+04  0.00000000000E+00 0.  1.
        -24    2    1    2    0    0 -0.32895743052E+03  0.68031330604E+03  0.16140458947E+04  0.17840043011E+04  0.80548188310E+02 0.  0.
        254    2    1    2    0    0  0.32895743052E+03 -0.68031330604E+03 -0.89609755747E+03  0.14726443927E+04  0.89143226859E+03 0.  0.
         23    2    4    4    0    0 -0.25229640818E+01 -0.51355000502E+03 -0.25752077378E+02  0.52217803920E+03  0.90921736309E+02 0.  0.
         23    2    4    4    0    0  0.33148039460E+03 -0.16676330103E+03 -0.87034548009E+03  0.95046635354E+03  0.90530568977E+02 0.  0.
          1    1    3    3  502    0 -0.32984004503E+03  0.67708178048E+03  0.16134834918E+04  0.17806075287E+04  0.00000000000E+00 0. -1.
         -2    1    3    3    0  502  0.88261451599E+00  0.32315255578E+01  0.56240286438E+00  0.33967724086E+01  0.00000000000E+00 0.  1.
         11    1    5    5    0    0 -0.70561028952E+01 -0.50125952450E+03 -0.96258408054E+01  0.50140159184E+03  0.00000000000E+00 0. -1.
        -11    1    5    5    0    0  0.45331388135E+01 -0.12290480515E+02 -0.16126236573E+02  0.20776447357E+02  0.00000000000E+00 0.  1.
          4    1    6    6  503    0  0.26510778246E+03 -0.15816979039E+03 -0.77271550824E+03  0.83209919816E+03  0.00000000000E+00 0. -1.
         -4    1    6    6    0  503  0.66372612138E+02 -0.85935106331E+01 -0.97629971852E+02  0.11836715537E+03  0.00000000000E+00 0.  1.
<mgrwt>
<rscale>  0 0.31765250E+04</rscale>
<asrwt>0</asrwt>
<pdfrwt beam="1">  1        1 0.30573823E+00 0.31765250E+04</pdfrwt>
<pdfrwt beam="2">  1       -2 0.19528464E+00 0.31765250E+04</pdfrwt>
<totfact> 0.32015562E-01</totfact>
</mgrwt>
</event>
<event>
12    4  0.4424320E-008  0.1856076E+04  0.7818608E-02  0.8677035E-01
         -2   -1    0    0    0  501 -0.00000000000E+00  0.00000000000E+00  0.43042379110E+03  0.43042379110E+03  0.00000000000E+00 0.  1.
          1   -1    0    0  501    0  0.00000000000E+00 -0.00000000000E+00 -0.20009446819E+04  0.20009446819E+04  0.00000000000E+00 0. -1.
        -24    2    1    2    0    0  0.24732783083E+03  0.72216634467E+02 -0.16272091189E+04  0.16494082324E+04  0.79697568386E+02 0.  0.
        254    2    1    2    0    0 -0.24732783083E+03 -0.72216634467E+02  0.56688228060E+02  0.78196024061E+03  0.73611273899E+03 0.  0.
         23    2    4    4    0    0 -0.33959531129E+03  0.83654441727E+02 -0.23253151920E+03  0.42941275109E+03  0.89450334314E+02 0.  0.
         23    2    4    4    0    0  0.92267480454E+02 -0.15587107619E+03  0.28921974726E+03  0.35254748952E+03  0.88501919874E+02 0.  0.
          1    1    3    3  502    0  0.20491872481E+03  0.84856487316E+02 -0.12400943516E+04  0.12597723239E+04  0.00000000000E+00 0. -1.
         -2    1    3    3    0  502  0.42409106023E+02 -0.12639852849E+02 -0.38711476731E+03  0.38963590854E+03  0.00000000000E+00 0.  1.
         11    1    5    5    0    0 -0.29576667260E+03  0.10138545153E+03 -0.21265177125E+03  0.37812393500E+03  0.00000000000E+00 0. -1.
        -11    1    5    5    0    0 -0.43828638685E+02 -0.17731009798E+02 -0.19879747944E+02  0.51288816088E+02  0.00000000000E+00 0.  1.
          3    1    6    6  503    0  0.10037601601E+03 -0.89047458713E+02  0.19784254439E+03  0.23905327202E+03  0.00000000000E+00 0. -1.
         -3    1    6    6    0  503 -0.81085355571E+01 -0.66823617481E+02  0.91377202868E+02  0.11349421750E+03  0.00000000000E+00 0.  1.
<mgrwt>
<rscale>  0 0.18560756E+04</rscale>
<asrwt>0</asrwt>
<pdfrwt beam="1">  1        1 0.30783764E+00 0.18560756E+04</pdfrwt>
<pdfrwt beam="2">  1       -2 0.66219045E-01 0.18560756E+04</pdfrwt>
<totfact> 0.51469000E+00</totfact>
</mgrwt>
</event>
<event>
12    4  0.4424320E-008  0.1769896E+04  0.7818608E-02  0.8722474E-01
          3   -1    0    0  501    0  0.00000000000E+00  0.00000000000E+00  0.71667922959E+03  0.71667922959E+03  0.00000000000E+00 0. -1.
         -4   -1    0    0    0  501 -0.00000000000E+00 -0.00000000000E+00 -0.10927247777E+04  0.10927247777E+04  0.00000000000E+00 0.  1.
        -24    2    1    2    0    0 -0.37148632726E+03  0.13467509273E+03  0.38883292770E+03  0.55961858148E+03  0.76435849789E+02 0.  0.
        254    2    1    2    0    0  0.37148632726E+03 -0.13467509273E+03 -0.76487847584E+03  0.12497854258E+04  0.90597188472E+03 0.  0.
         23    2    4    4    0    0  0.33881329212E+03 -0.19304792017E+02 -0.94896665804E+03  0.10120012704E+04  0.91878894938E+02 0.  0.
         23    2    4    4    0    0  0.32673035133E+02 -0.11537030071E+03  0.18408818220E+03  0.23778415543E+03  0.90967094242E+02 0.  0.
          3    1    3    3  502    0 -0.37275734940E+03  0.13544370341E+03  0.39103833472E+03  0.55695961931E+03  0.00000000000E+00 0. -1.
         -4    1    3    3    0  502  0.12710221420E+01 -0.76861067612E+00 -0.22054070236E+01  0.26589621654E+01  0.00000000000E+00 0.  1.
         11    1    5    5    0    0  0.51314734149E+02 -0.31314890032E+02 -0.22644055654E+03  0.23428433564E+03  0.00000000000E+00 0.  1.
        -11    1    5    5    0    0  0.28749855798E+03  0.12010098015E+02 -0.72252610150E+03  0.77771693477E+03  0.00000000000E+00 0. -1.
          1    1    6    6  503    0 -0.12338179086E+02 -0.88730499645E+02  0.75113671170E+02  0.11690763802E+03  0.00000000000E+00 0. -1.
         -1    1    6    6    0  503  0.45011214220E+02 -0.26639801069E+02  0.10897451103E+03  0.12087651741E+03  0.00000000000E+00 0.  1.
<mgrwt>
<rscale>  0 0.17698962E+04</rscale>
<asrwt>0</asrwt>
<pdfrwt beam="1">  1        3 0.11025834E+00 0.17698962E+04</pdfrwt>
<pdfrwt beam="2">  1       -4 0.16811150E+00 0.17698962E+04</pdfrwt>
<totfact> 0.32803246E-01</totfact>
</mgrwt>
</event>
<event>
12    4  0.4424320E-008  0.1639065E+04  0.7818608E-02  0.8796902E-01
          1   -1    0    0  501    0  0.00000000000E+00  0.00000000000E+00  0.14521381283E+04  0.14521381283E+04  0.00000000000E+00 0. -1.
         -2   -1    0    0    0  501 -0.00000000000E+00 -0.00000000000E+00 -0.46251345814E+03  0.46251345814E+03  0.00000000000E+00 0.  1.
        -24    2    1    2    0    0  0.77902444083E+01  0.16905174757E+03  0.96595738930E+03  0.98381643022E+03  0.78625117966E+02 0.  0.
        254    2    1    2    0    0 -0.77902444083E+01 -0.16905174757E+03  0.23667280904E+02  0.93083515626E+03  0.91501626580E+03 0.  0.
         23    2    4    4    0    0 -0.11824642596E+03 -0.35131574352E+03  0.35818515435E+03  0.52363631104E+03  0.92159712153E+02 0.  0.
         23    2    4    4    0    0  0.11045618155E+03  0.18226399595E+03 -0.33451787345E+03  0.40719884522E+03  0.92130123353E+02 0.  0.
          1    1    3    3  502    0  0.36413215368E+02  0.14405106485E+03  0.77465397546E+03  0.78877462765E+03  0.00000000000E+00 0. -1.
         -2    1    3    3    0  502 -0.28622970960E+02  0.25000682724E+02  0.19130341384E+03  0.19504180257E+03  0.00000000000E+00 0.  1.
         11    1    5    5    0    0  0.14623788227E+02 -0.60252816846E+02  0.59394393986E+02  0.85860067301E+02  0.00000000000E+00 0. -1.
        -11    1    5    5    0    0 -0.13287021419E+03 -0.29106292668E+03  0.29879076037E+03  0.43777624374E+03  0.00000000000E+00 0.  1.
          4    1    6    6  503    0  0.26279779405E+02  0.19649725200E+02 -0.12362301077E+03  0.12790382050E+03  0.00000000000E+00 0. -1.
         -4    1    6    6    0  503  0.84176402146E+02  0.16261427075E+03 -0.21089486267E+03  0.27929502472E+03  0.00000000000E+00 0.  1.
<mgrwt>
<rscale>  0 0.16390649E+04</rscale>
<asrwt>0</asrwt>
<pdfrwt beam="1">  1        1 0.22340586E+00 0.16390649E+04</pdfrwt>
<pdfrwt beam="2">  1       -2 0.71155917E-01 0.16390649E+04</pdfrwt>
<totfact> 0.10630442E+01</totfact>
</mgrwt>
</event>
<event>
12    4  0.4424320E-008  0.1452002E+04  0.7818608E-02  0.8917013E-01
          1   -1    0    0  501    0  0.00000000000E+00  0.00000000000E+00  0.23197368614E+04  0.23197368614E+04  0.00000000000E+00 0. -1.
         -2   -1    0    0    0  501 -0.00000000000E+00 -0.00000000000E+00 -0.22721447763E+03  0.22721447763E+03  0.00000000000E+00 0.  1.
        -24    2    1    2    0    0  0.26315231217E+03  0.23244416117E+03  0.88566636033E+03  0.95613550425E+03  0.80689362481E+02 0.  0.
        254    2    1    2    0    0 -0.26315231217E+03 -0.23244416117E+03  0.12068560234E+04  0.15908158348E+04  0.97514826123E+03 0.  0.
         23    2    4    4    0    0  0.62254393775E+02  0.87041204509E+02 -0.12049494352E+03  0.18432546047E+03  0.89471018408E+02 0.  0.
         23    2    4    4    0    0 -0.32540670594E+03 -0.31948536568E+03  0.13273509669E+04  0.14064903743E+04  0.91619650638E+02 0.  0.
          1    1    3    3  502    0  0.20554354822E+03  0.16001943961E+03  0.72945049452E+03  0.77456593988E+03  0.00000000000E+00 0. -1.
         -2    1    3    3    0  502  0.57608763946E+02  0.72424721561E+02  0.15621586581E+03  0.18156956437E+03  0.00000000000E+00 0.  1.
         11    1    5    5    0    0  0.40392195740E+02 -0.76001767023E+01 -0.24975478691E+02  0.48094352043E+02  0.00000000000E+00 0. -1.
        -11    1    5    5    0    0  0.21862198035E+02  0.94641381212E+02 -0.95519464830E+02  0.13623110842E+03  0.00000000000E+00 0.  1.
          4    1    6    6  503    0 -0.11777007221E+03 -0.75796987969E+02  0.31523859279E+03  0.34494976979E+03  0.00000000000E+00 0. -1.
         -4    1    6    6    0  503 -0.20763663373E+03 -0.24368837771E+03  0.10121123741E+04  0.10615406045E+04  0.00000000000E+00 0.  1.
<mgrwt>
<rscale>  0 0.14520025E+04</rscale>
<asrwt>0</asrwt>
<pdfrwt beam="1">  1        1 0.35688258E+00 0.14520025E+04</pdfrwt>
<pdfrwt beam="2">  1       -2 0.34956075E-01 0.14520025E+04</pdfrwt>
<totfact> 0.11835946E+01</totfact>
</mgrwt>
</event>
<event>
12    4  0.4424320E-008  0.1293596E+04  0.7818608E-02  0.9034659E-01
         -2   -1    0    0    0  501 -0.00000000000E+00  0.00000000000E+00  0.26246977173E+03  0.26246977173E+03  0.00000000000E+00 0.  1.
          1   -1    0    0  501    0  0.00000000000E+00 -0.00000000000E+00 -0.15938877142E+04  0.15938877142E+04  0.00000000000E+00 0. -1.
        -24    2    1    2    0    0  0.17410019845E+03 -0.18403838132E+02 -0.73916750813E+03  0.76400500863E+03  0.81764709837E+02 0.  0.
        254    2    1    2    0    0 -0.17410019845E+03  0.18403838132E+02 -0.59225043434E+03  0.10923524773E+04  0.90101263994E+03 0.  0.
         23    2    4    4    0    0  0.15019190388E+03  0.12596370002E+03 -0.69164610250E+03  0.72485227492E+03  0.92801010975E+02 0.  0.
         23    2    4    4    0    0 -0.32429210233E+03 -0.10755986189E+03  0.99395668158E+02  0.36750020238E+03  0.91882579319E+02 0.  0.
          3    1    3    3  502    0  0.75756417779E+02  0.30836565237E+02 -0.26988044331E+03  0.28200245083E+03  0.00000000000E+00 0. -1.
         -4    1    3    3    0  502  0.98343780674E+02 -0.49240403369E+02 -0.46928706482E+03  0.48200255780E+03  0.00000000000E+00 0.  1.
         11    1    5    5    0    0  0.37631095596E+02  0.42728405161E+02 -0.36582504334E+03  0.37022935905E+03  0.00000000000E+00 0.  1.
        -11    1    5    5    0    0  0.11256080828E+03  0.83235294858E+02 -0.32582105916E+03  0.35462291587E+03  0.00000000000E+00 0. -1.
          1    1    6    6  503    0 -0.45390373317E+02  0.97956839706E+01 -0.65655613467E+01  0.46897206847E+02  0.00000000000E+00 0. -1.
         -1    1    6    6    0  503 -0.27890172901E+03 -0.11735554586E+03  0.10596122950E+03  0.32060299554E+03  0.00000000000E+00 0.  1.
<mgrwt>
<rscale>  0 0.12935955E+04</rscale>
<asrwt>0</asrwt>
<pdfrwt beam="1">  1        1 0.24521349E+00 0.12935955E+04</pdfrwt>
<pdfrwt beam="2">  1       -2 0.40379965E-01 0.12935955E+04</pdfrwt>
<totfact> 0.28218574E+01</totfact>
</mgrwt>
</event>
<event>
12    4  0.4424320E-008  0.2509065E+04  0.7818608E-02  0.8399763E-01
          1   -1    0    0  501    0  0.00000000000E+00  0.00000000000E+00  0.10342398984E+04  0.10342398984E+04  0.00000000000E+00 0. -1.
         -2   -1    0    0    0  501 -0.00000000000E+00 -0.00000000000E+00 -0.15217468420E+04  0.15217468420E+04  0.00000000000E+00 0.  1.
        -24    2    1    2    0    0 -0.66663630126E+02  0.66338149556E+03 -0.10997474964E+04  0.12885526190E+04  0.80026543769E+02 0.  0.
        254    2    1    2    0    0  0.66663630126E+02 -0.66338149556E+03  0.61224055279E+03  0.12674341214E+04  0.88714807638E+03 0.  0.
         23    2    4    4    0    0 -0.29203701422E+03 -0.45996396404E+03  0.38275423870E+02  0.55479077742E+03  0.97341320813E+02 0.  0.
         23    2    4    4    0    0  0.35870064435E+03 -0.20341753151E+03  0.57396512892E+03  0.71264334400E+03  0.91540822334E+02 0.  0.
          3    1    3    3  502    0 -0.21256162473E+02  0.66008476347E+02 -0.80273496252E+02  0.10607911007E+03  0.00000000000E+00 0. -1.
         -4    1    3    3    0  502 -0.45407467653E+02  0.59737301921E+03 -0.10194740002E+04  0.11824735089E+04  0.00000000000E+00 0.  1.
         11    1    5    5    0    0 -0.13669783307E+02 -0.12605571209E+02 -0.16755543179E+02  0.25030214310E+02  0.00000000000E+00 0.  1.
        -11    1    5    5    0    0 -0.27836723092E+03 -0.44735839284E+03  0.55030967049E+02  0.52976056311E+03  0.00000000000E+00 0. -1.
          2    1    6    6  503    0  0.22072110598E+03 -0.16900385311E+03  0.34433284082E+03  0.44254402522E+03  0.00000000000E+00 0. -1.
         -2    1    6    6    0  503  0.13797953837E+03 -0.34413678405E+02  0.22963228809E+03  0.27009931878E+03  0.00000000000E+00 0.  1.
<mgrwt>
<rscale>  0 0.25090646E+04</rscale>
<asrwt>0</asrwt>
<pdfrwt beam="1">  1        1 0.15911383E+00 0.25090646E+04</pdfrwt>
<pdfrwt beam="2">  1       -2 0.23411490E+00 0.25090646E+04</pdfrwt>
<totfact> 0.89287347E-01</totfact>
</mgrwt>
</event>
<event>
12    4  0.4424320E-008  0.1952846E+04  0.7818608E-02  0.8628990E-01
          1   -1    0    0  501    0  0.00000000000E+00  0.00000000000E+00  0.13179820458E+04  0.13179820458E+04  0.00000000000E+00 0. -1.
         -2   -1    0    0    0  501 -0.00000000000E+00 -0.00000000000E+00 -0.72338003064E+03  0.72338003064E+03  0.00000000000E+00 0.  1.
        -24    2    1    2    0    0 -0.39231555663E+03  0.43334588219E+03 -0.28086851997E+03  0.65327990092E+03  0.78659734553E+02 0.  0.
        254    2    1    2    0    0  0.39231555663E+03 -0.43334588219E+03  0.87547053509E+03  0.13880821755E+04  0.90477804930E+03 0.  0.
         23    2    4    4    0    0 -0.84132511549E+02 -0.55369891668E+03  0.55992808305E+03  0.79717344584E+03  0.91133280062E+02 0.  0.
         23    2    4    4    0    0  0.47644806818E+03  0.12035303448E+03  0.31554245204E+03  0.59090872964E+03  0.90102570148E+02 0.  0.
          3    1    3    3  502    0 -0.35035578393E+03  0.39872944860E+03 -0.22886654899E+03  0.57802616356E+03  0.00000000000E+00 0. -1.
         -4    1    3    3    0  502 -0.41959772702E+02  0.34616433594E+02 -0.52001970983E+02  0.75253737356E+02  0.00000000000E+00 0.  1.
         11    1    5    5    0    0 -0.98669226467E+02 -0.43537425768E+03  0.46674918135E+03  0.64586465981E+03  0.00000000000E+00 0.  1.
        -11    1    5    5    0    0  0.14536714917E+02 -0.11832465900E+03  0.93178901702E+02  0.15130878603E+03  0.00000000000E+00 0. -1.
          2    1    6    6  503    0  0.18472109393E+03  0.89037528351E+02  0.11027706482E+03  0.23283168818E+03  0.00000000000E+00 0. -1.
         -2    1    6    6    0  503  0.29172697425E+03  0.31315506132E+02  0.20526538722E+03  0.35807704146E+03  0.00000000000E+00 0.  1.
<mgrwt>
<rscale>  0 0.19528460E+04</rscale>
<asrwt>0</asrwt>
<pdfrwt beam="1">  1        1 0.20276647E+00 0.19528460E+04</pdfrwt>
<pdfrwt beam="2">  1       -2 0.11128924E+00 0.19528460E+04</pdfrwt>
<totfact> 0.45840139E+00</totfact>
</mgrwt>
</event>
<event>
12    4  0.4424320E-008  0.1631830E+04  0.7818608E-02  0.8801229E-01
          1   -1    0    0  501    0  0.00000000000E+00  0.00000000000E+00  0.86050782604E+03  0.86050782604E+03  0.00000000000E+00 0. -1.
         -2   -1    0    0    0  501 -0.00000000000E+00 -0.00000000000E+00 -0.77363270946E+03  0.77363270946E+03  0.00000000000E+00 0.  1.
        -24    2    1    2    0    0  0.36749717997E+02 -0.29833741219E+03 -0.44430226964E+03  0.54212002703E+03  0.78318986264E+02 0.  0.
        254    2    1    2    0    0 -0.36749717997E+02  0.29833741219E+03  0.53117738623E+03  0.10920205085E+04  0.90554051373E+03 0.  0.
         23    2    4    4    0    0 -0.85267871467E+02 -0.25849719251E+03 -0.38022751661E+02  0.28924610172E+03  0.90145267644E+02 0.  0.
         23    2    4    4    0    0  0.48518153471E+02  0.55683460470E+03  0.56920013789E+03  0.80277440676E+03  0.89661379444E+02 0.  0.
          3    1    3    3  502    0 -0.73802763491E+01 -0.80185281079E+02 -0.70262695502E+02  0.10686905146E+03  0.00000000000E+00 0. -1.
         -4    1    3    3    0  502  0.44129994346E+02 -0.21815213111E+03 -0.37403957414E+03  0.43525097557E+03  0.00000000000E+00 0.  1.
         11    1    5    5    0    0 -0.67204538918E+02 -0.16443508199E+03  0.17562953213E+02  0.17850435167E+03  0.00000000000E+00 0.  1.
        -11    1    5    5    0    0 -0.18063332550E+02 -0.94062110513E+02 -0.55585704874E+02  0.11074175005E+03  0.00000000000E+00 0. -1.
          3    1    6    6  503    0 -0.18676208877E+02  0.32640356951E+02  0.37456562259E+02  0.53077186589E+02  0.00000000000E+00 0. -1.
         -3    1    6    6    0  503  0.67194362348E+02  0.52419424775E+03  0.53174357563E+03  0.74969722017E+03  0.00000000000E+00 0.  1.
<mgrwt>
<rscale>  0 0.16318296E+04</rscale>
<asrwt>0</asrwt>
<pdfrwt beam="1">  1        1 0.13238582E+00 0.16318296E+04</pdfrwt>
<pdfrwt beam="2">  1       -2 0.11902042E+00 0.16318296E+04</pdfrwt>
<totfact> 0.89167391E+00</totfact>
</mgrwt>
</event>
<event>
12    4  0.4424320E-008  0.1800313E+04  0.7818608E-02  0.8706133E-01
         -2   -1    0    0    0  501 -0.00000000000E+00  0.00000000000E+00  0.93251127663E+03  0.93251127663E+03  0.00000000000E+00 0.  1.
          1   -1    0    0  501    0  0.00000000000E+00 -0.00000000000E+00 -0.86892428683E+03  0.86892428683E+03  0.00000000000E+00 0. -1.
        -24    2    1    2    0    0 -0.52100799812E+02 -0.50926200959E+03  0.42586140605E+03  0.67055776313E+03  0.78914439638E+02 0.  0.
        254    2    1    2    0    0  0.52100799812E+02  0.50926200959E+03 -0.36227441625E+03  0.11308778003E+04  0.94105236775E+03 0.  0.
         23    2    4    4    0    0 -0.91316202748E+02  0.20465976682E+03  0.29772727777E+03  0.38433301566E+03  0.94053527099E+02 0.  0.
         23    2    4    4    0    0  0.14341700256E+03  0.30460224276E+03 -0.66000169402E+03  0.74654478466E+03  0.91520033225E+02 0.  0.
          1    1    3    3  502    0 -0.16063963056E+02 -0.17502214945E+03  0.19626355270E+03  0.26345812917E+03  0.00000000000E+00 0. -1.
         -2    1    3    3    0  502 -0.36036836756E+02 -0.33423986014E+03  0.22959785334E+03  0.40709963396E+03  0.00000000000E+00 0.  1.
         11    1    5    5    0    0 -0.81549792559E+02  0.18606819229E+03  0.20258815092E+03  0.28690364191E+03  0.00000000000E+00 0. -1.
        -11    1    5    5    0    0 -0.97664101895E+01  0.18591574528E+02  0.95139126849E+02  0.97429373748E+02  0.00000000000E+00 0.  1.
          3    1    6    6  503    0  0.44669057796E+02  0.88401289973E+02 -0.29309715253E+03  0.30938011186E+03  0.00000000000E+00 0. -1.
         -3    1    6    6    0  503  0.98747944765E+02  0.21620095279E+03 -0.36690454149E+03  0.43716467280E+03  0.00000000000E+00 0.  1.
<mgrwt>
<rscale>  0 0.18003130E+04</rscale>
<asrwt>0</asrwt>
<pdfrwt beam="1">  1        1 0.13368066E+00 0.18003130E+04</pdfrwt>
<pdfrwt beam="2">  1       -2 0.14346327E+00 0.18003130E+04</pdfrwt>
<totfact> 0.53779778E+00</totfact>
</mgrwt>
</event>
<event>
12    4  0.4424320E-008  0.2257821E+04  0.7818608E-02  0.8494740E-01
          1   -1    0    0  501    0  0.00000000000E+00  0.00000000000E+00  0.20399184410E+04  0.20399184410E+04  0.00000000000E+00 0. -1.
         -2   -1    0    0    0  501 -0.00000000000E+00 -0.00000000000E+00 -0.62475008919E+03  0.62475008919E+03  0.00000000000E+00 0.  1.
        -24    2    1    2    0    0  0.81307395317E+03 -0.23361504113E+03  0.11034527291E+04  0.13927167365E+04  0.79917094322E+02 0.  0.
        254    2    1    2    0    0 -0.81307395317E+03  0.23361504113E+03  0.31171562273E+03  0.12719517937E+04  0.89723435920E+03 0.  0.
         23    2    4    4    0    0 -0.84789324758E+03  0.39066459735E+02 -0.43529934831E+02  0.85484614056E+03  0.91749230174E+02 0.  0.
         23    2    4    4    0    0  0.34819294410E+02  0.19454858140E+03  0.35524555756E+03  0.41710565316E+03  0.93360515968E+02 0.  0.
          1    1    3    3  502    0  0.39872197266E+03 -0.73197310389E+02  0.52059592061E+03  0.65981601246E+03  0.00000000000E+00 0. -1.
         -2    1    3    3    0  502  0.41435198051E+03 -0.16041773074E+03  0.58285680849E+03  0.73290072404E+03  0.00000000000E+00 0.  1.
         11    1    5    5    0    0 -0.11853123148E+03 -0.22693495568E+02 -0.21210308053E+02  0.12253376981E+03  0.00000000000E+00 0.  1.
        -11    1    5    5    0    0 -0.72936201610E+03  0.61759955303E+02 -0.22319626778E+02  0.73231237075E+03  0.00000000000E+00 0. -1.
          1    1    6    6  503    0  0.10843079505E+02  0.43632138106E+02  0.21074065358E+02  0.49653318918E+02  0.00000000000E+00 0. -1.
         -1    1    6    6    0  503  0.23976214905E+02  0.15091644329E+03  0.33417149220E+03  0.36745233424E+03  0.00000000000E+00 0.  1.
<mgrwt>
<rscale>  0 0.22578213E+04</rscale>
<asrwt>0</asrwt>
<pdfrwt beam="1">  1        1 0.31383360E+00 0.22578213E+04</pdfrwt>
<pdfrwt beam="2">  1       -2 0.96115399E-01 0.22578213E+04</pdfrwt>
<totfact> 0.20233543E+00</totfact>
</mgrwt>
</event>
<event>
12    4  0.4424320E-008  0.1513411E+04  0.7818608E-02  0.8875584E-01
          1   -1    0    0  501    0  0.00000000000E+00  0.00000000000E+00  0.30796643698E+04  0.30796643698E+04  0.00000000000E+00 0. -1.
         -2   -1    0    0    0  501 -0.00000000000E+00 -0.00000000000E+00 -0.18593035741E+03  0.18593035741E+03  0.00000000000E+00 0.  1.
        -24    2    1    2    0    0  0.43982322280E+03  0.27593474243E+01  0.49512134989E+03  0.66728152846E+03  0.81654184174E+02 0.  0.
        254    2    1    2    0    0 -0.43982322280E+03 -0.27593474243E+01  0.23986126625E+04  0.25983131988E+04  0.89690394850E+03 0.  0.
         23    2    4    4    0    0  0.22940862299E+03 -0.17341814437E+03  0.72637280141E+03  0.78672663227E+03  0.92839529253E+02 0.  0.
         23    2    4    4    0    0 -0.66923184579E+03  0.17065879694E+03  0.16722398611E+04  0.18115865665E+04  0.92000252681E+02 0.  0.
          1    1    3    3  502    0  0.64176397280E+02 -0.24553403546E+02  0.10075105981E+03  0.12195185791E+03  0.00000000000E+00 0. -1.
         -2    1    3    3    0  502  0.37564682552E+03  0.27312750971E+02  0.39437029008E+03  0.54532967055E+03  0.00000000000E+00 0.  1.
         11    1    5    5    0    0  0.10281826183E+03 -0.88766185773E+02  0.46280452960E+03  0.48232671844E+03  0.00000000000E+00 0. -1.
        -11    1    5    5    0    0  0.12659036116E+03 -0.84651958594E+02  0.26356827181E+03  0.30439991382E+03  0.00000000000E+00 0.  1.
          1    1    6    6  503    0 -0.30662645914E+03  0.56085317145E+02  0.85958957669E+03  0.91436294140E+03  0.00000000000E+00 0. -1.
         -1    1    6    6    0  503 -0.36260538665E+03  0.11457347980E+03  0.81265028441E+03  0.89722362511E+03  0.00000000000E+00 0.  1.
<mgrwt>
<rscale>  0 0.15134108E+04</rscale>
<asrwt>0</asrwt>
<pdfrwt beam="1">  1        1 0.47379448E+00 0.15134108E+04</pdfrwt>
<pdfrwt beam="2">  1       -2 0.28604673E-01 0.15134108E+04</pdfrwt>
<totfact> 0.50010796E+00</totfact>
</mgrwt>
</event>
<event>
12    4  0.4424320E-008  0.1143328E+04  0.7818608E-02  0.9163961E-01
          1   -1    0    0  501    0  0.00000000000E+00  0.00000000000E+00  0.11924957941E+04  0.11924957941E+04  0.00000000000E+00 0. -1.
         -2   -1    0    0    0  501 -0.00000000000E+00 -0.00000000000E+00 -0.27404672588E+03  0.27404672588E+03  0.00000000000E+00 0.  1.
        -24    2    1    2    0    0 -0.10915085267E+03 -0.29212714771E+02  0.40797655471E+03  0.43079659741E+03  0.79834502617E+02 0.  0.
        254    2    1    2    0    0  0.10915085267E+03  0.29212714771E+02  0.51047251348E+03  0.10357459225E+04  0.89410297936E+03 0.  0.
         23    2    4    4    0    0 -0.25986605569E+03 -0.13937679061E+03  0.53615853294E+03  0.61861254496E+03  0.90880425185E+02 0.  0.
         23    2    4    4    0    0  0.36901690836E+03  0.16858950538E+03 -0.25686019458E+02  0.41713337758E+03  0.93512475699E+02 0.  0.
          1    1    3    3  502    0 -0.12100841204E+03 -0.21320441838E+02  0.34494671265E+03  0.36617732261E+03  0.00000000000E+00 0. -1.
         -2    1    3    3    0  502  0.11857559372E+02 -0.78922729329E+01  0.63029842054E+02  0.64619274800E+02  0.00000000000E+00 0.  1.
         11    1    5    5    0    0 -0.39659958466E+02 -0.24599760262E+02  0.16927795727E+03  0.17559352872E+03  0.00000000000E+00 0. -1.
        -11    1    5    5    0    0 -0.22020609723E+03 -0.11477703035E+03  0.36688057567E+03  0.44301901624E+03  0.00000000000E+00 0.  1.
          3    1    6    6  503    0  0.79543910693E+02  0.73897217422E+02 -0.29620384255E+02  0.11254065770E+03  0.00000000000E+00 0. -1.
         -3    1    6    6    0  503  0.28947299767E+03  0.94692287958E+02  0.39343647969E+01  0.30459271988E+03  0.00000000000E+00 0.  1.
<mgrwt>
<rscale>  0 0.11433277E+04</rscale>
<asrwt>0</asrwt>
<pdfrwt beam="1">  1        1 0.18346089E+00 0.11433277E+04</pdfrwt>
<pdfrwt beam="2">  1       -2 0.42161035E-01 0.11433277E+04</pdfrwt>
<totfact> 0.50267294E+01</totfact>
</mgrwt>
</event>
<event>
12    4  0.4424320E-008  0.1210104E+04  0.7818608E-02  0.9104058E-01
         -2   -1    0    0    0  501 -0.00000000000E+00  0.00000000000E+00  0.13290766530E+03  0.13290766530E+03  0.00000000000E+00 0.  1.
          1   -1    0    0  501    0  0.00000000000E+00 -0.00000000000E+00 -0.27544531350E+04  0.27544531350E+04  0.00000000000E+00 0. -1.
        -24    2    1    2    0    0  0.21818989999E+03 -0.13016232613E+03 -0.83893179104E+03  0.88245484038E+03  0.10183777141E+03 0.  0.
        254    2    1    2    0    0 -0.21818989999E+03  0.13016232613E+03 -0.17826136786E+04  0.20049059599E+04  0.88169570555E+03 0.  0.
         23    2    4    4    0    0  0.11295039030E+03 -0.28152023768E+03 -0.33659177101E+03  0.46280424275E+03  0.94246017996E+02 0.  0.
         23    2    4    4    0    0 -0.33114029029E+03  0.41168256381E+03 -0.14460219076E+04  0.15421017171E+04  0.89229611069E+02 0.  0.
          1    1    3    3  502    0 -0.81318289943E+01 -0.19162661986E+02 -0.84408209469E+02  0.86937219205E+02  0.00000000000E+00 0. -1.
         -2    1    3    3    0  502  0.22632172898E+03 -0.11099966414E+03 -0.75452358157E+03  0.79551762118E+03  0.00000000000E+00 0.  1.
         11    1    5    5    0    0  0.10304257513E+03 -0.26884803180E+03 -0.27144579671E+03  0.39570172737E+03  0.00000000000E+00 0.  1.
        -11    1    5    5    0    0  0.99078151741E+01 -0.12672205877E+02 -0.65145974300E+02  0.67102515384E+02  0.00000000000E+00 0. -1.
          4    1    6    6  503    0 -0.31127915709E+03  0.36395036440E+03 -0.13585913326E+04  0.14405294132E+04  0.00000000000E+00 0.  1.
         -4    1    6    6    0  503 -0.19861133203E+02  0.47732199406E+02 -0.87430575047E+02  0.10157230393E+03  0.00000000000E+00 0. -1.
<mgrwt>
<rscale>  0 0.12101040E+04</rscale>
<asrwt>0</asrwt>
<pdfrwt beam="1">  1        1 0.42376199E+00 0.12101040E+04</pdfrwt>
<pdfrwt beam="2">  1       -2 0.20447335E-01 0.12101040E+04</pdfrwt>
<totfact> 0.16178909E+01</totfact>
</mgrwt>
</event>
<event>
12    4  0.4424320E-008  0.2153394E+04  0.7818608E-02  0.8538081E-01
          1   -1    0    0  501    0  0.00000000000E+00  0.00000000000E+00  0.14335381765E+04  0.14335381765E+04  0.00000000000E+00 0. -1.
         -2   -1    0    0    0  501 -0.00000000000E+00 -0.00000000000E+00 -0.80868209172E+03  0.80868209172E+03  0.00000000000E+00 0.  1.
        -24    2    1    2    0    0  0.67001834474E+03  0.56291525073E+03  0.11496161009E+03  0.88678929671E+03  0.85912299295E+02 0.  0.
        254    2    1    2    0    0 -0.67001834474E+03 -0.56291525073E+03  0.50989447472E+03  0.13554309715E+04  0.90077887491E+03 0.  0.
         23    2    4    4    0    0 -0.28145204610E+03 -0.15550178673E+03 -0.24115033995E+03  0.41232663378E+03  0.91998405079E+02 0.  0.
         23    2    4    4    0    0 -0.38856629863E+03 -0.40741346400E+03  0.75104481467E+03  0.94310433776E+03  0.91695033616E+02 0.  0.
          1    1    3    3  502    0  0.45498335057E+03  0.39068202494E+03  0.38835274712E+02  0.60095796231E+03  0.00000000000E+00 0. -1.
         -2    1    3    3    0  502  0.21503499417E+03  0.17223322579E+03  0.76126335377E+02  0.28583133440E+03  0.00000000000E+00 0.  1.
         11    1    5    5    0    0 -0.11014787470E+03 -0.44959189098E+02 -0.38944504199E+02  0.12518209693E+03  0.00000000000E+00 0.  1.
        -11    1    5    5    0    0 -0.17130417141E+03 -0.11054259763E+03 -0.20220583575E+03  0.28714453685E+03  0.00000000000E+00 0. -1.
          2    1    6    6  503    0 -0.28016988706E+03 -0.28594973959E+03  0.59823131710E+03  0.71982159453E+03  0.00000000000E+00 0. -1.
         -2    1    6    6    0  503 -0.10839641158E+03 -0.12146372441E+03  0.15281349757E+03  0.22328274324E+03  0.00000000000E+00 0.  1.
<mgrwt>
<rscale>  0 0.21533942E+04</rscale>
<asrwt>0</asrwt>
<pdfrwt beam="1">  1        1 0.22054433E+00 0.21533942E+04</pdfrwt>
<pdfrwt beam="2">  1       -2 0.12441263E+00 0.21533942E+04</pdfrwt>
<totfact> 0.28373301E+00</totfact>
</mgrwt>
</event>
<event>
12    4  0.4424320E-008  0.1713546E+04  0.7818608E-02  0.8753676E-01
         -2   -1    0    0    0  501 -0.00000000000E+00  0.00000000000E+00  0.80132538494E+03  0.80132538494E+03  0.00000000000E+00 0.  1.
          1   -1    0    0  501    0  0.00000000000E+00 -0.00000000000E+00 -0.91605685467E+03  0.91605685467E+03  0.00000000000E+00 0. -1.
        -24    2    1    2    0    0 -0.20493772675E+03 -0.32134510682E+03  0.44807002030E+03  0.59221101550E+03  0.68447017909E+02 0.  0.
        254    2    1    2    0    0  0.20493772675E+03  0.32134510682E+03 -0.56280149003E+03  0.11251712241E+04  0.89666193009E+03 0.  0.
         23    2    4    4    0    0 -0.81343405705E+02  0.44161092222E+03  0.19842197736E+02  0.45861287981E+03  0.91077463953E+02 0.  0.
         23    2    4    4    0    0  0.28628113246E+03 -0.12026581540E+03 -0.58264368777E+03  0.66655834431E+03  0.91682093783E+02 0.  0.
          1    1    3    3  502    0 -0.33192148427E+02 -0.52895276013E+02  0.38883446715E+02  0.73563247414E+02  0.00000000000E+00 0. -1.
         -2    1    3    3    0  502 -0.17174557833E+03 -0.26844983080E+03  0.40918657359E+03  0.51864776808E+03  0.00000000000E+00 0.  1.
         11    1    5    5    0    0 -0.71545093363E+02  0.15264550515E+03 -0.27207578848E+01  0.16860235215E+03  0.00000000000E+00 0.  1.
        -11    1    5    5    0    0 -0.97983123416E+01  0.28896541707E+03  0.22562955620E+02  0.29001052766E+03  0.00000000000E+00 0. -1.
          4    1    6    6  503    0  0.26615168548E+03 -0.11632723881E+03 -0.47340493084E+03  0.55541063612E+03  0.00000000000E+00 0. -1.
         -4    1    6    6    0  503  0.20129446982E+02 -0.39385765918E+01 -0.10923875693E+03  0.11114770819E+03  0.00000000000E+00 0.  1.
<mgrwt>
<rscale>  0 0.17135456E+04</rscale>
<asrwt>0</asrwt>
<pdfrwt beam="1">  1        1 0.14093182E+00 0.17135456E+04</pdfrwt>
<pdfrwt beam="2">  1       -2 0.12328083E+00 0.17135456E+04</pdfrwt>
<totfact> 0.73001431E+00</totfact>
</mgrwt>
</event>
<event>
12    4  0.4424320E-008  0.1957199E+04  0.7818608E-02  0.8626897E-01
         -2   -1    0    0    0  501 -0.00000000000E+00  0.00000000000E+00  0.23314042758E+04  0.23314042758E+04  0.00000000000E+00 0.  1.
          1   -1    0    0  501    0  0.00000000000E+00 -0.00000000000E+00 -0.41076389239E+03  0.41076389239E+03  0.00000000000E+00 0. -1.
        -24    2    1    2    0    0 -0.94240220467E+02 -0.75879927163E+03  0.89635373325E+03  0.11810178766E+04  0.81826988276E+02 0.  0.
        254    2    1    2    0    0  0.94240220467E+02  0.75879927163E+03  0.10242866502E+04  0.15611502916E+04  0.89630884040E+03 0.  0.
         23    2    4    4    0    0  0.12576956051E+02  0.92762020709E+03  0.96706528769E+03  0.13437199358E+04  0.98643634930E+02 0.  0.
         23    2    4    4    0    0  0.81663264416E+02 -0.16882093546E+03  0.57221362464E+02  0.21743035579E+03  0.93980201600E+02 0.  0.
          3    1    3    3  502    0 -0.35329589711E+02 -0.20471143448E+03  0.19168206582E+03  0.28266051311E+03  0.00000000000E+00 0. -1.
         -4    1    3    3    0  502 -0.58910630756E+02 -0.55408783715E+03  0.70467166743E+03  0.89835736351E+03  0.00000000000E+00 0.  1.
         11    1    5    5    0    0  0.60729345251E+01  0.75316550130E+01  0.25292416545E+02  0.27079746965E+02  0.00000000000E+00 0.  1.
        -11    1    5    5    0    0  0.65040215259E+01  0.92008855208E+03  0.94177287115E+03  0.13166401888E+04  0.00000000000E+00 0. -1.
          3    1    6    6  503    0  0.59769308497E+02 -0.17171240442E+03  0.66334130527E+02  0.19354001380E+03  0.00000000000E+00 0. -1.
         -3    1    6    6    0  503  0.21893955919E+02  0.28914689614E+01 -0.91127680634E+01  0.23890341988E+02  0.00000000000E+00 0.  1.
<mgrwt>
<rscale>  0 0.19571987E+04</rscale>
<asrwt>0</asrwt>
<pdfrwt beam="1">  1        1 0.63194446E-01 0.19571987E+04</pdfrwt>
<pdfrwt beam="2">  1       -2 0.35867757E+00 0.19571987E+04</pdfrwt>
<totfact> 0.64853197E-01</totfact>
</mgrwt>
</event>
<event>
12    4  0.4424320E-008  0.1428900E+04  0.7818608E-02  0.8933161E-01
          1   -1    0    0  501    0  0.00000000000E+00  0.00000000000E+00  0.40673231257E+03  0.40673231257E+03  0.00000000000E+00 0. -1.
         -2   -1    0    0    0  501 -0.00000000000E+00 -0.00000000000E+00 -0.12549752969E+04  0.12549752969E+04  0.00000000000E+00 0.  1.
        -24    2    1    2    0    0 -0.10473784322E+03 -0.33549072486E+03 -0.53965007586E+03  0.64901152517E+03  0.80434527164E+02 0.  0.
        254    2    1    2    0    0  0.10473784322E+03  0.33549072486E+03 -0.30859290844E+03  0.10126960843E+04  0.89822031466E+03 0.  0.
         23    2    4    4    0    0  0.39469594407E+03  0.14465365108E+03 -0.45428807732E+03  0.62545052246E+03  0.90006287692E+02 0.  0.
         23    2    4    4    0    0 -0.28995810085E+03  0.19083707378E+03  0.14569516888E+03  0.38724556179E+03  0.90760971338E+02 0.  0.
          1    1    3    3  502    0 -0.37962552016E+02 -0.12127816615E+03 -0.26855238977E+03  0.29710256645E+03  0.00000000000E+00 0. -1.
         -2    1    3    3    0  502 -0.66775291205E+02 -0.21421255871E+03 -0.27109768609E+03  0.35190895872E+03  0.00000000000E+00 0.  1.
         11    1    5    5    0    0  0.67561614551E+02  0.25771289149E+02 -0.13487987423E+03  0.15304022862E+03  0.00000000000E+00 0.  1.
        -11    1    5    5    0    0  0.32713432952E+03  0.11888236193E+03 -0.31940820309E+03  0.47241029384E+03  0.00000000000E+00 0. -1.
          2    1    6    6  503    0 -0.16526972481E+03  0.66637341982E+02  0.42373955285E+02  0.18316705319E+03  0.00000000000E+00 0. -1.
         -2    1    6    6    0  503 -0.12468837603E+03  0.12419973180E+03  0.10332121360E+03  0.20407850861E+03  0.00000000000E+00 0.  1.
<mgrwt>
<rscale>  0 0.14289003E+04</rscale>
<asrwt>0</asrwt>
<pdfrwt beam="1">  1        1 0.62574202E-01 0.14289003E+04</pdfrwt>
<pdfrwt beam="2">  1       -2 0.19307312E+00 0.14289003E+04</pdfrwt>
<totfact> 0.73669928E+00</totfact>
</mgrwt>
</event>
<event>
12    4  0.4424320E-008  0.1222081E+04  0.7818608E-02  0.9093745E-01
          1   -1    0    0  501    0  0.00000000000E+00  0.00000000000E+00  0.29353347443E+04  0.29353347443E+04  0.00000000000E+00 0. -1.
         -2   -1    0    0    0  501 -0.00000000000E+00 -0.00000000000E+00 -0.12719870653E+03  0.12719870653E+03  0.00000000000E+00 0.  1.
        -24    2    1    2    0    0  0.11958168474E+03  0.21410653559E+03  0.41415206778E+03  0.48790229822E+03  0.79908256474E+02 0.  0.
        254    2    1    2    0    0 -0.11958168474E+03 -0.21410653559E+03  0.23939839700E+04  0.25746311526E+04  0.91510924784E+03 0.  0.
         23    2    4    4    0    0  0.33121822907E+03 -0.32730106973E+03  0.12556459446E+04  0.13416073578E+04  0.80200117755E+02 0.  0.
         23    2    4    4    0    0 -0.45079991381E+03  0.11319453414E+03  0.11383380254E+04  0.12330237947E+04  0.92198988988E+02 0.  0.
          3    1    3    3  502    0 -0.11165327601E+02  0.17398656809E+02  0.46880704835E+02  0.51236493683E+02  0.00000000000E+00 0. -1.
         -4    1    3    3    0  502  0.13074701234E+03  0.19670787878E+03  0.36727136295E+03  0.43666580454E+03  0.00000000000E+00 0.  1.
         11    1    5    5    0    0  0.21231840038E+03 -0.22720560919E+03  0.93340732318E+03  0.98384486732E+03  0.00000000000E+00 0.  1.
        -11    1    5    5    0    0  0.11889982869E+03 -0.10009546054E+03  0.32223862142E+03  0.35776249052E+03  0.00000000000E+00 0. -1.
          1    1    6    6  503    0 -0.23878619716E+03  0.22665695337E+02  0.65462457934E+03  0.69718428093E+03  0.00000000000E+00 0. -1.
         -1    1    6    6    0  503 -0.21201371665E+03  0.90528838804E+02  0.48371344603E+03  0.53583951382E+03  0.00000000000E+00 0.  1.
<mgrwt>
<rscale>  0 0.12220815E+04</rscale>
<asrwt>0</asrwt>
<pdfrwt beam="1">  1        1 0.45158991E+00 0.12220815E+04</pdfrwt>
<pdfrwt beam="2">  1       -2 0.19569034E-01 0.12220815E+04</pdfrwt>
<totfact> 0.12982415E+01</totfact>
</mgrwt>
</event>
<event>
12    4  0.4424320E-008  0.1362892E+04  0.7818608E-02  0.8981126E-01
         -2   -1    0    0    0  501 -0.00000000000E+00  0.00000000000E+00  0.12900876264E+04  0.12900876264E+04  0.00000000000E+00 0.  1.
          1   -1    0    0  501    0  0.00000000000E+00 -0.00000000000E+00 -0.35995112659E+03  0.35995112659E+03  0.00000000000E+00 0. -1.
        -24    2    1    2    0    0 -0.17429643258E+03 -0.26130526394E+03  0.51142187620E+03  0.60543710455E+03  0.79637081404E+02 0.  0.
        254    2    1    2    0    0  0.17429643258E+03  0.26130526394E+03  0.41871462359E+03  0.10446016484E+04  0.90399722372E+03 0.  0.
         23    2    4    4    0    0 -0.26175343540E+03 -0.16316239024E+03  0.24678838373E+03  0.40592928139E+03  0.93473250763E+02 0.  0.
         23    2    4    4    0    0  0.43604986798E+03  0.42446765418E+03  0.17192623985E+03  0.63867236703E+03  0.89618545218E+02 0.  0.
          3    1    3    3  502    0 -0.16529292287E+03 -0.22175769702E+03  0.48056730073E+03  0.55447556940E+03  0.00000000000E+00 0. -1.
         -4    1    3    3    0  502 -0.90035097140E+01 -0.39547566924E+02  0.30854575471E+02  0.50961535144E+02  0.00000000000E+00 0.  1.
         11    1    5    5    0    0 -0.37090491717E+02  0.85160238666E+01  0.17454236940E+02  0.41867381402E+02  0.00000000000E+00 0. -1.
        -11    1    5    5    0    0 -0.22466294369E+03 -0.17167841411E+03  0.22933414679E+03  0.36406189999E+03  0.00000000000E+00 0.  1.
          2    1    6    6  503    0  0.61915343902E+02  0.69096293783E+02 -0.56831327128E+01  0.92952168466E+02  0.00000000000E+00 0. -1.
         -2    1    6    6    0  503  0.37413452408E+03  0.35537136040E+03  0.17760937257E+03  0.54572019857E+03  0.00000000000E+00 0.  1.
<mgrwt>
<rscale>  0 0.13628918E+04</rscale>
<asrwt>0</asrwt>
<pdfrwt beam="1">  1        1 0.55377097E-01 0.13628918E+04</pdfrwt>
<pdfrwt beam="2">  1       -2 0.19847502E+00 0.13628918E+04</pdfrwt>
<totfact> 0.80169576E+00</totfact>
</mgrwt>
</event>
<event>
12    4  0.4424320E-008  0.1668358E+04  0.7818608E-02  0.8779619E-01
          1   -1    0    0  501    0  0.00000000000E+00  0.00000000000E+00  0.83901385005E+03  0.83901385005E+03  0.00000000000E+00 0. -1.
         -2   -1    0    0    0  501 -0.00000000000E+00 -0.00000000000E+00 -0.82937229368E+03  0.82937229368E+03  0.00000000000E+00 0.  1.
        -24    2    1    2    0    0 -0.26532705990E+03 -0.14701297798E+03 -0.51898872105E+03  0.60631388424E+03  0.79094685251E+02 0.  0.
        254    2    1    2    0    0  0.26532705990E+03  0.14701297798E+03  0.52863027742E+03  0.10620722595E+04  0.86979092303E+03 0.  0.
         23    2    4    4    0    0  0.53388657224E+03 -0.10284169970E+02  0.14705706754E+03  0.56123102337E+03  0.90630261595E+02 0.  0.
         23    2    4    4    0    0 -0.26855951233E+03  0.15729714795E+03  0.38157320988E+03  0.50084123613E+03  0.91527181154E+02 0.  0.
          1    1    3    3  502    0 -0.75355747501E+02 -0.38832253767E+02 -0.83277633489E+02  0.11883432523E+03  0.00000000000E+00 0. -1.
         -2    1    3    3    0  502 -0.18997131240E+03 -0.10818072421E+03 -0.43571108756E+03  0.48747955900E+03  0.00000000000E+00 0.  1.
         11    1    5    5    0    0  0.26346744611E+02 -0.20723514004E+02  0.14773479758E+02  0.36631553181E+02  0.00000000000E+00 0. -1.
        -11    1    5    5    0    0  0.50753982763E+03  0.10439344033E+02  0.13228358778E+03  0.52459947019E+03  0.00000000000E+00 0.  1.
          3    1    6    6  503    0 -0.51885700303E+02  0.77282166979E+02  0.12035005628E+03  0.15214728153E+03  0.00000000000E+00 0. -1.
         -3    1    6    6    0  503 -0.21667381203E+03  0.80014980969E+02  0.26122315360E+03  0.34869395460E+03  0.00000000000E+00 0.  1.
<mgrwt>
<rscale>  0 0.16683583E+04</rscale>
<asrwt>0</asrwt>
<pdfrwt beam="1">  1        1 0.12907905E+00 0.16683583E+04</pdfrwt>
<pdfrwt beam="2">  1       -2 0.12759574E+00 0.16683583E+04</pdfrwt>
<totfact> 0.77865093E+00</totfact>
</mgrwt>
</event>
<event>
12    4  0.4424320E-008  0.1799019E+04  0.7818608E-02  0.8706821E-01
          1   -1    0    0  501    0  0.00000000000E+00  0.00000000000E+00  0.97377113636E+03  0.97377113636E+03  0.00000000000E+00 0. -1.
         -2   -1    0    0    0  501 -0.00000000000E+00 -0.00000000000E+00 -0.83091136667E+03  0.83091136667E+03  0.00000000000E+00 0.  1.
        -24    2    1    2    0    0  0.50061422083E+03 -0.23138814666E+03  0.41913836232E+03  0.69807527019E+03  0.86469899760E+02 0.  0.
        254    2    1    2    0    0 -0.50061422083E+03  0.23138814666E+03 -0.27627859263E+03  0.11066072328E+04  0.91874622966E+03 0.  0.
         23    2    4    4    0    0 -0.94653232102E+02 -0.33806210494E+03 -0.36332830777E+02  0.36186147956E+03  0.79865102867E+02 0.  0.
         23    2    4    4    0    0 -0.40596098873E+03  0.56945025160E+03 -0.23994576185E+03  0.74474575328E+03  0.89411156878E+02 0.  0.
          1    1    3    3  502    0  0.46777972067E+03 -0.19042305055E+03  0.38938867472E+03  0.63773218929E+03  0.00000000000E+00 0. -1.
         -2    1    3    3    0  502  0.32834500163E+02 -0.40965096114E+02  0.29749687599E+02  0.60343080902E+02  0.00000000000E+00 0.  1.
         11    1    5    5    0    0 -0.93336406052E+02 -0.33656978276E+03 -0.45732635663E+02  0.35225328576E+03  0.00000000000E+00 0. -1.
        -11    1    5    5    0    0 -0.13168260501E+01 -0.14923221800E+01  0.93998048861E+01  0.96081938069E+01  0.00000000000E+00 0.  1.
          4    1    6    6  503    0 -0.27636303828E+03  0.45372963312E+03 -0.18325353154E+03  0.56198662415E+03  0.00000000000E+00 0. -1.
         -4    1    6    6    0  503 -0.12959795045E+03  0.11572061848E+03 -0.56692230305E+02  0.18275912913E+03  0.00000000000E+00 0.  1.
<mgrwt>
<rscale>  0 0.17990192E+04</rscale>
<asrwt>0</asrwt>
<pdfrwt beam="1">  1        1 0.14981094E+00 0.17990192E+04</pdfrwt>
<pdfrwt beam="2">  1       -2 0.12783252E+00 0.17990192E+04</pdfrwt>
<totfact> 0.59478549E+00</totfact>
</mgrwt>
</event>
<event>
12    4  0.4424320E-008  0.2630969E+04  0.7818608E-02  0.8357757E-01
          1   -1    0    0  501    0  0.00000000000E+00  0.00000000000E+00  0.32939084877E+04  0.32939084877E+04  0.00000000000E+00 0. -1.
         -2   -1    0    0    0  501 -0.00000000000E+00 -0.00000000000E+00 -0.52536366841E+03  0.52536366841E+03  0.00000000000E+00 0.  1.
        -24    2    1    2    0    0  0.92082253533E+03  0.66667456335E+02  0.19244959447E+03  0.94649527039E+03  0.80360183916E+02 0.  0.
        254    2    1    2    0    0 -0.92082253533E+03 -0.66667456335E+02  0.25760952248E+04  0.28727768857E+04  0.87419776734E+03 0.  0.
         23    2    4    4    0    0  0.99139509705E+02  0.16546933186E+03  0.53044421192E+03  0.57328908075E+03  0.10040202176E+03 0.  0.
         23    2    4    4    0    0 -0.10199620450E+04 -0.23213678819E+03  0.20456510129E+04  0.22994878049E+04  0.93520248312E+02 0.  0.
          1    1    3    3  502    0  0.84983521539E+02  0.28563723702E+02  0.26502513250E+02  0.93490472528E+02  0.00000000000E+00 0. -1.
         -2    1    3    3    0  502  0.83583901379E+03  0.38103732633E+02  0.16594708122E+03  0.85300479787E+03  0.00000000000E+00 0.  1.
         11    1    5    5    0    0  0.15530596067E+02  0.11973815603E+03  0.26355377540E+03  0.28989483947E+03  0.00000000000E+00 0. -1.
        -11    1    5    5    0    0  0.83608913638E+02  0.45731175825E+02  0.26689043652E+03  0.28339424128E+03  0.00000000000E+00 0.  1.
          3    1    6    6  503    0 -0.10268266694E+03  0.48090002102E+01  0.19482435248E+03  0.22028024173E+03  0.00000000000E+00 0. -1.
         -3    1    6    6    0  503 -0.91727937809E+03 -0.23694578840E+03  0.18508266604E+04  0.20792075632E+04  0.00000000000E+00 0.  1.
<mgrwt>
<rscale>  0 0.26309693E+04</rscale>
<asrwt>0</asrwt>
<pdfrwt beam="1">  1        1 0.50675514E+00 0.26309693E+04</pdfrwt>
<pdfrwt beam="2">  1       -2 0.80825182E-01 0.26309693E+04</pdfrwt>
<totfact> 0.37666912E-01</totfact>
</mgrwt>
</event>
<event>
12    4  0.4424320E-008  0.1215375E+04  0.7818608E-02  0.9099505E-01
          1   -1    0    0  501    0  0.00000000000E+00  0.00000000000E+00  0.12479811020E+04  0.12479811020E+04  0.00000000000E+00 0. -1.
         -2   -1    0    0    0  501 -0.00000000000E+00 -0.00000000000E+00 -0.29590497667E+03  0.29590497667E+03  0.00000000000E+00 0.  1.
        -24    2    1    2    0    0 -0.18172362081E+03 -0.10617942002E+01  0.44904882654E+03  0.49074069376E+03  0.78466414034E+02 0.  0.
        254    2    1    2    0    0  0.18172362081E+03  0.10617942002E+01  0.50302729883E+03  0.10531453849E+04  0.90722331137E+03 0.  0.
         23    2    4    4    0    0 -0.26604092378E+03  0.83937527454E+02  0.50760754623E+03  0.58638074898E+03  0.91398469024E+02 0.  0.
         23    2    4    4    0    0  0.44776454459E+03 -0.82875733253E+02 -0.45802474025E+01  0.46676463597E+03  0.10240494210E+03 0.  0.
          1    1    3    3  502    0 -0.72524825786E+02 -0.90818069757E+01  0.27958946515E+03  0.28898546433E+03  0.00000000000E+00 0. -1.
         -2    1    3    3    0  502 -0.10919879502E+03  0.80200127755E+01  0.16945936139E+03  0.20175522943E+03  0.00000000000E+00 0.  1.
         11    1    5    5    0    0 -0.61244813295E+02 -0.18153219761E+02  0.93171613485E+02  0.11296643795E+03  0.00000000000E+00 0.  1.
        -11    1    5    5    0    0 -0.20479611049E+03  0.10209074721E+03  0.41443593275E+03  0.47341431103E+03  0.00000000000E+00 0. -1.
          4    1    6    6  503    0  0.27917356877E+03 -0.65467181751E+01  0.20529832767E+02  0.28000395542E+03  0.00000000000E+00 0.  1.
         -4    1    6    6    0  503  0.16859097583E+03 -0.76329015078E+02 -0.25110080169E+02  0.18676068055E+03  0.00000000000E+00 0. -1.
<mgrwt>
<rscale>  0 0.12153745E+04</rscale>
<asrwt>0</asrwt>
<pdfrwt beam="1">  1        1 0.19199709E+00 0.12153745E+04</pdfrwt>
<pdfrwt beam="2">  1       -2 0.45523843E-01 0.12153745E+04</pdfrwt>
<totfact> 0.39114909E+01</totfact>
</mgrwt>
</event>
<event>
12    4  0.4424320E-008  0.1956200E+04  0.7818608E-02  0.8627377E-01
          1   -1    0    0  501    0  0.00000000000E+00  0.00000000000E+00  0.32625821969E+04  0.32625821969E+04  0.00000000000E+00 0. -1.
         -2   -1    0    0    0  501 -0.00000000000E+00 -0.00000000000E+00 -0.29322777957E+03  0.29322777957E+03  0.00000000000E+00 0.  1.
        -24    2    1    2    0    0  0.55108413716E+02  0.10897997897E+03 -0.20431561112E+03  0.25123185924E+03  0.80367935576E+02 0.  0.
        254    2    1    2    0    0 -0.55108413716E+02 -0.10897997897E+03  0.31736700285E+04  0.33045781172E+04  0.91276585733E+03 0.  0.
         23    2    4    4    0    0 -0.28483818833E+03 -0.72598343420E+02  0.33768596050E+03  0.45770630286E+03  0.95183710561E+02 0.  0.
         23    2    4    4    0    0  0.22972977461E+03 -0.36381635553E+02  0.28359840679E+04  0.28468718144E+04  0.88170863006E+02 0.  0.
          3    1    3    3  502    0  0.72818894543E+01 -0.54541153199E+01 -0.61113186627E+02  0.61786688434E+02  0.00000000000E+00 0. -1.
         -4    1    3    3    0  502  0.47826524261E+02  0.11443409429E+03 -0.14320242449E+03  0.18944517080E+03  0.00000000000E+00 0.  1.
         11    1    5    5    0    0 -0.11065096125E+03 -0.11739769530E+02  0.19478672100E+03  0.22432860738E+03  0.00000000000E+00 0. -1.
        -11    1    5    5    0    0 -0.17418722707E+03 -0.60858573889E+02  0.14289923951E+03  0.23337769547E+03  0.00000000000E+00 0.  1.
          1    1    6    6  503    0  0.36883249684E+01 -0.18710073423E+02  0.36837227707E+03  0.36886556508E+03  0.00000000000E+00 0. -1.
         -1    1    6    6    0  503  0.22604144964E+03 -0.17671562130E+02  0.24676117909E+04  0.24780062493E+04  0.00000000000E+00 0.  1.
<mgrwt>
<rscale>  0 0.19562001E+04</rscale>
<asrwt>0</asrwt>
<pdfrwt beam="1">  1        1 0.50193570E+00 0.19562001E+04</pdfrwt>
<pdfrwt beam="2">  1       -2 0.45111968E-01 0.19562001E+04</pdfrwt>
<totfact> 0.14584571E+00</totfact>
</mgrwt>
</event>
<event>
12    4  0.4424320E-008  0.2016293E+04  0.7818608E-02  0.8599041E-01
         -2   -1    0    0    0  501 -0.00000000000E+00  0.00000000000E+00  0.61410117937E+03  0.61410117937E+03  0.00000000000E+00 0.  1.
          1   -1    0    0  501    0  0.00000000000E+00 -0.00000000000E+00 -0.16550358809E+04  0.16550358809E+04  0.00000000000E+00 0. -1.
        -24    2    1    2    0    0  0.19859387090E+02  0.50708327539E+03  0.28956996748E+03  0.58990182302E+03  0.81274542796E+02 0.  0.
        254    2    1    2    0    0 -0.19859387090E+02 -0.50708327539E+03 -0.13305046690E+04  0.16792352372E+04  0.88997778866E+03 0.  0.
         23    2    4    4    0    0 -0.17093230696E+03  0.11033491779E+03 -0.24168056567E+02  0.22361988577E+03  0.89610884978E+02 0.  0.
         23    2    4    4    0    0  0.15107291987E+03 -0.61741819318E+03 -0.13063366124E+04  0.14556153515E+04  0.90953032008E+02 0.  0.
          3    1    3    3  502    0 -0.91049906354E+01  0.15619526809E+03  0.50829661572E+02  0.16450993017E+03  0.00000000000E+00 0. -1.
         -4    1    3    3    0  502  0.28964377726E+02  0.35088800730E+03  0.23874030591E+03  0.42539189286E+03  0.00000000000E+00 0.  1.
         11    1    5    5    0    0 -0.23151615566E+02  0.39829561909E+01 -0.33951240838E+02  0.41286171992E+02  0.00000000000E+00 0.  1.
        -11    1    5    5    0    0 -0.14778069140E+03  0.10635196160E+03  0.97831842712E+01  0.18233371378E+03  0.00000000000E+00 0. -1.
          3    1    6    6  503    0  0.74030202528E+02 -0.29826419699E+03 -0.73502599503E+03  0.79668388679E+03  0.00000000000E+00 0. -1.
         -3    1    6    6    0  503  0.77042717346E+02 -0.31915399619E+03 -0.57131061740E+03  0.65893146467E+03  0.00000000000E+00 0.  1.
<mgrwt>
<rscale>  0 0.20162931E+04</rscale>
<asrwt>0</asrwt>
<pdfrwt beam="1">  1        1 0.25462090E+00 0.20162931E+04</pdfrwt>
<pdfrwt beam="2">  1       -2 0.94477105E-01 0.20162931E+04</pdfrwt>
<totfact> 0.39277512E+00</totfact>
</mgrwt>
</event>
<event>
12    4  0.4424320E-008  0.3300679E+04  0.7818608E-02  0.8162723E-01
         -2   -1    0    0    0  501 -0.00000000000E+00  0.00000000000E+00  0.80553785271E+03  0.80553785271E+03  0.00000000000E+00 0.  1.
          1   -1    0    0  501    0  0.00000000000E+00 -0.00000000000E+00 -0.33811198606E+04  0.33811198606E+04  0.00000000000E+00 0. -1.
        -24    2    1    2    0    0  0.12420083583E+04  0.55528162860E+03 -0.20646342185E+04  0.24736584733E+04  0.73139162901E+02 0.  0.
        254    2    1    2    0    0 -0.12420083583E+04 -0.55528162860E+03 -0.51094778945E+03  0.17129992400E+04  0.90684965876E+03 0.  0.
         23    2    4    4    0    0 -0.75238816508E+03 -0.51000907859E+03  0.10455745666E+03  0.91989414662E+03  0.95266825522E+02 0.  0.
         23    2    4    4    0    0 -0.48962019327E+03 -0.45272550011E+02 -0.61550524611E+03  0.79310509343E+03  0.91604824080E+02 0.  0.
          3    1    3    3  502    0  0.12008395179E+03  0.72803720861E+02 -0.23882899513E+03  0.27705563730E+03  0.00000000000E+00 0. -1.
         -4    1    3    3    0  502  0.11219244066E+04  0.48247790774E+03 -0.18258052233E+04  0.21966028360E+04  0.00000000000E+00 0.  1.
         11    1    5    5    0    0 -0.68229064392E+03 -0.48581714742E+03  0.78312849496E+02  0.84123226633E+03  0.00000000000E+00 0.  1.
        -11    1    5    5    0    0 -0.70097521156E+02 -0.24191931170E+02  0.26244607164E+02  0.78661880292E+02  0.00000000000E+00 0. -1.
          3    1    6    6  503    0 -0.67345242947E+02  0.59628098854E+01 -0.43971013439E+02  0.80649779121E+02  0.00000000000E+00 0. -1.
         -3    1    6    6    0  503 -0.42227495032E+03 -0.51235359897E+02 -0.57153423267E+03  0.71245531431E+03  0.00000000000E+00 0.  1.
<mgrwt>
<rscale>  0 0.33006787E+04</rscale>
<asrwt>0</asrwt>
<pdfrwt beam="1">  1        1 0.52017228E+00 0.33006787E+04</pdfrwt>
<pdfrwt beam="2">  1       -2 0.12392890E+00 0.33006787E+04</pdfrwt>
<totfact> 0.11062197E-01</totfact>
</mgrwt>
</event>
<event>
12    4  0.4424320E-008  0.2222666E+04  0.7818608E-02  0.8509053E-01
          1   -1    0    0  501    0  0.00000000000E+00  0.00000000000E+00  0.13571665950E+04  0.13571665950E+04  0.00000000000E+00 0. -1.
         -2   -1    0    0    0  501 -0.00000000000E+00 -0.00000000000E+00 -0.91002870165E+03  0.91002870165E+03  0.00000000000E+00 0.  1.
        -24    2    1    2    0    0  0.15908646024E+03 -0.21807521407E+03 -0.72194437158E+03  0.77478241816E+03  0.78859489019E+02 0.  0.
        254    2    1    2    0    0 -0.15908646024E+03  0.21807521407E+03  0.11690822649E+04  0.14924128785E+04  0.88751200379E+03 0.  0.
         23    2    4    4    0    0 -0.10426066543E+03 -0.68504868336E+02  0.11760876500E+04  0.11865281602E+04  0.95413369590E+02 0.  0.
         23    2    4    4    0    0 -0.54825794807E+02  0.28658008241E+03 -0.70053850856E+01  0.30588471829E+03  0.91555305981E+02 0.  0.
          3    1    3    3  502    0  0.12388019703E+02 -0.30210728101E+01 -0.84918567907E+01  0.15319972090E+02  0.00000000000E+00 0. -1.
         -4    1    3    3    0  502  0.14669844054E+03 -0.21505414126E+03 -0.71345251479E+03  0.75946244607E+03  0.00000000000E+00 0.  1.
         11    1    5    5    0    0 -0.10287895440E+03 -0.89151929563E+02  0.99782218100E+03  0.10070656635E+04  0.00000000000E+00 0.  1.
        -11    1    5    5    0    0 -0.13817110375E+01  0.20647061227E+02  0.17826546899E+03  0.17946249663E+03  0.00000000000E+00 0. -1.
          4    1    6    6  503    0 -0.39518494499E+02  0.32930480305E+02 -0.58400699445E+01  0.51770979878E+02  0.00000000000E+00 0. -1.
         -4    1    6    6    0  503 -0.15307300308E+02  0.25364960210E+03 -0.11653151411E+01  0.25411373841E+03  0.00000000000E+00 0.  1.
<mgrwt>
<rscale>  0 0.22226656E+04</rscale>
<asrwt>0</asrwt>
<pdfrwt beam="1">  1        1 0.20879486E+00 0.22226656E+04</pdfrwt>
<pdfrwt beam="2">  1       -2 0.14000441E+00 0.22226656E+04</pdfrwt>
<totfact> 0.23623317E+00</totfact>
</mgrwt>
</event>
<event>
12    4  0.4424320E-008  0.1714694E+04  0.7818608E-02  0.8753028E-01
         -2   -1    0    0    0  501 -0.00000000000E+00  0.00000000000E+00  0.35970032541E+03  0.35970032541E+03  0.00000000000E+00 0.  1.
          1   -1    0    0  501    0  0.00000000000E+00 -0.00000000000E+00 -0.20434906591E+04  0.20434906591E+04  0.00000000000E+00 0. -1.
        -24    2    1    2    0    0 -0.42162319776E+03 -0.72169543345E+02 -0.11587937167E+04  0.12378043188E+04  0.79887983199E+02 0.  0.
        254    2    1    2    0    0  0.42162319776E+03  0.72169543345E+02 -0.52499661703E+03  0.11653866658E+04  0.94843559032E+03 0.  0.
         23    2    4    4    0    0 -0.17597586347E+03  0.29592515758E+03 -0.34632234206E+03  0.49609406683E+03  0.87355338244E+02 0.  0.
         23    2    4    4    0    0  0.59759906123E+03 -0.22375561423E+03 -0.17867427497E+03  0.66929259894E+03  0.94004646581E+02 0.  0.
          3    1    3    3  502    0 -0.15237712662E+03 -0.17802710848E+02 -0.52716674822E+03  0.54903597848E+03  0.00000000000E+00 0. -1.
         -4    1    3    3    0  502 -0.26924607114E+03 -0.54366832498E+02 -0.63162696845E+03  0.68876834028E+03  0.00000000000E+00 0.  1.
         11    1    5    5    0    0 -0.15154945767E+03  0.18645976999E+03 -0.26395343331E+03  0.35693962921E+03  0.00000000000E+00 0.  1.
        -11    1    5    5    0    0 -0.24426405805E+02  0.10946538759E+03 -0.82368908752E+02  0.13915443762E+03  0.00000000000E+00 0. -1.
          3    1    6    6  503    0  0.35997580595E+03 -0.14105177638E+03 -0.15514271831E+03  0.41659026337E+03  0.00000000000E+00 0. -1.
         -3    1    6    6    0  503  0.23762325528E+03 -0.82703837850E+02 -0.23531556663E+02  0.25270233557E+03  0.00000000000E+00 0.  1.
<mgrwt>
<rscale>  0 0.17146944E+04</rscale>
<asrwt>0</asrwt>
<pdfrwt beam="1">  1        1 0.31438318E+00 0.17146944E+04</pdfrwt>
<pdfrwt beam="2">  1       -2 0.55338511E-01 0.17146944E+04</pdfrwt>
<totfact> 0.71337573E+00</totfact>
</mgrwt>
</event>
<event>
12    4  0.4424320E-008  0.1378682E+04  0.7818608E-02  0.8969396E-01
         -4   -1    0    0    0  501 -0.00000000000E+00  0.00000000000E+00  0.39653034981E+03  0.39653034981E+03  0.00000000000E+00 0.  1.
          3   -1    0    0  501    0  0.00000000000E+00 -0.00000000000E+00 -0.11983722782E+04  0.11983722782E+04  0.00000000000E+00 0. -1.
        -24    2    1    2    0    0  0.24514289396E+03 -0.31248530943E+03 -0.18515942733E+03  0.44563569672E+03  0.81025018344E+02 0.  0.
        254    2    1    2    0    0 -0.24514289396E+03  0.31248530943E+03 -0.61668250106E+03  0.11492669313E+04  0.88474576300E+03 0.  0.
         23    2    4    4    0    0 -0.44532596281E+03  0.28899875134E+03 -0.50525886025E+02  0.54117572149E+03  0.92102144053E+02 0.  0.
         23    2    4    4    0    0  0.20018306886E+03  0.23486558091E+02 -0.56615661503E+03  0.60809120979E+03  0.92826328207E+02 0.  0.
          1    1    3    3  502    0  0.14891058272E+03 -0.21050295053E+03 -0.78728050144E+02  0.26959962853E+03  0.00000000000E+00 0. -1.
         -4    1    3    3    0  502  0.96232311240E+02 -0.10198235890E+03 -0.10643137719E+03  0.17603606819E+03  0.00000000000E+00 0.  1.
         11    1    5    5    0    0 -0.39198601841E+03  0.24657343192E+03 -0.74262745457E+02  0.46900581161E+03  0.00000000000E+00 0. -1.
        -11    1    5    5    0    0 -0.53339944406E+02  0.42425319418E+02  0.23736859432E+02  0.72169909884E+02  0.00000000000E+00 0.  1.
          4    1    6    6  503    0  0.18619593762E+03  0.15809075058E+02 -0.56103027342E+03  0.59133224311E+03  0.00000000000E+00 0.  1.
         -4    1    6    6    0  503  0.13987131235E+02  0.76774830333E+01 -0.51263416098E+01  0.16758966681E+02  0.00000000000E+00 0. -1.
<mgrwt>
<rscale>  0 0.13786819E+04</rscale>
<asrwt>0</asrwt>
<pdfrwt beam="1">  1        3 0.18436497E+00 0.13786819E+04</pdfrwt>
<pdfrwt beam="2">  1       -4 0.61004669E-01 0.13786819E+04</pdfrwt>
<totfact> 0.10498168E+00</totfact>
</mgrwt>
</event>
<event>
12    4  0.4424320E-008  0.1518876E+04  0.7818608E-02  0.8871997E-01
         -2   -1    0    0    0  501 -0.00000000000E+00  0.00000000000E+00  0.78175930861E+03  0.78175930861E+03  0.00000000000E+00 0.  1.
          1   -1    0    0  501    0  0.00000000000E+00 -0.00000000000E+00 -0.73775415495E+03  0.73775415495E+03  0.00000000000E+00 0. -1.
        -24    2    1    2    0    0  0.53853891045E+02 -0.34974954284E+03 -0.32445110946E+03  0.48701909525E+03  0.81817433388E+02 0.  0.
        254    2    1    2    0    0 -0.53853891045E+02  0.34974954284E+03  0.36845626313E+03  0.10324943683E+04  0.89725114570E+03 0.  0.
         23    2    4    4    0    0  0.11202982989E+02  0.53212419744E+03  0.53705107583E+03  0.76136905979E+03  0.89315837470E+02 0.  0.
         23    2    4    4    0    0 -0.65056874034E+02 -0.18237465460E+03 -0.16859481270E+03  0.27112530853E+03  0.87130996535E+02 0.  0.
          3    1    3    3  502    0  0.28934126427E+02 -0.31919668745E+03 -0.26597482527E+03  0.41649287705E+03  0.00000000000E+00 0. -1.
         -4    1    3    3    0  502  0.24919764618E+02 -0.30552855390E+02 -0.58476284189E+02  0.70526218200E+02  0.00000000000E+00 0.  1.
         11    1    5    5    0    0  0.49508690881E+01  0.27330935508E+03  0.33859210624E+03  0.43516333610E+03  0.00000000000E+00 0. -1.
        -11    1    5    5    0    0  0.62521139011E+01  0.25881484236E+03  0.19845896959E+03  0.32620572369E+03  0.00000000000E+00 0.  1.
          2    1    6    6  503    0 -0.56915303675E+02 -0.12759098624E+03 -0.16415987099E+03  0.21556269345E+03  0.00000000000E+00 0. -1.
         -2    1    6    6    0  503 -0.81415703593E+01 -0.54783668359E+02 -0.44349417063E+01  0.55562615081E+02  0.00000000000E+00 0.  1.
<mgrwt>
<rscale>  0 0.15188761E+04</rscale>
<asrwt>0</asrwt>
<pdfrwt beam="1">  1        1 0.11350064E+00 0.15188761E+04</pdfrwt>
<pdfrwt beam="2">  1       -2 0.12027066E+00 0.15188761E+04</pdfrwt>
<totfact> 0.11221816E+01</totfact>
</mgrwt>
</event>
<event>
12    4  0.4424320E-008  0.2885627E+04  0.7818608E-02  0.8277167E-01
          1   -1    0    0  501    0  0.00000000000E+00  0.00000000000E+00  0.14498994591E+04  0.14498994591E+04  0.00000000000E+00 0. -1.
         -2   -1    0    0    0  501 -0.00000000000E+00 -0.00000000000E+00 -0.14357622140E+04  0.14357622140E+04  0.00000000000E+00 0.  1.
        -24    2    1    2    0    0 -0.31162510343E+03 -0.38793105348E+03 -0.11904258491E+04  0.12928582269E+04  0.82267765122E+02 0.  0.
        254    2    1    2    0    0  0.31162510343E+03  0.38793105348E+03  0.12045630942E+04  0.15928034462E+04  0.91566907947E+03 0.  0.
         23    2    4    4    0    0  0.10847818949E+03  0.47018514140E+03  0.12570034918E+04  0.13494093575E+04  0.89477655270E+02 0.  0.
         23    2    4    4    0    0  0.20314691394E+03 -0.82254087921E+02 -0.52440397642E+02  0.24339408875E+03  0.91958052988E+02 0.  0.
          1    1    3    3  502    0 -0.17139518146E+03 -0.20158729026E+03 -0.52824896945E+03  0.59081360643E+03  0.00000000000E+00 0. -1.
         -2    1    3    3    0  502 -0.14022992196E+03 -0.18634376323E+03 -0.66217687969E+03  0.70204462045E+03  0.00000000000E+00 0.  1.
         11    1    5    5    0    0  0.17348632617E+02  0.13215541227E+03  0.45955743622E+03  0.47849667212E+03  0.00000000000E+00 0.  1.
        -11    1    5    5    0    0  0.91129556869E+02  0.33802972913E+03  0.79744605563E+03  0.87091268538E+03  0.00000000000E+00 0. -1.
          3    1    6    6  503    0  0.49031647733E+02 -0.58303294433E+02  0.69668089115E+01  0.76497797665E+02  0.00000000000E+00 0. -1.
         -3    1    6    6    0  503  0.15411526621E+03 -0.23950793488E+02 -0.59407206553E+02  0.16689629108E+03  0.00000000000E+00 0.  1.
<mgrwt>
<rscale>  0 0.28856270E+04</rscale>
<asrwt>0</asrwt>
<pdfrwt beam="1">  1        1 0.22306146E+00 0.28856270E+04</pdfrwt>
<pdfrwt beam="2">  1       -2 0.22088649E+00 0.28856270E+04</pdfrwt>
<totfact> 0.52195775E-01</totfact>
</mgrwt>
</event>
<event>
12    4  0.4424320E-008  0.1684835E+04  0.7818608E-02  0.8770061E-01
         -2   -1    0    0    0  501 -0.00000000000E+00  0.00000000000E+00  0.48508651992E+03  0.48508651992E+03  0.00000000000E+00 0.  1.
          1   -1    0    0  501    0  0.00000000000E+00 -0.00000000000E+00 -0.14629704938E+04  0.14629704938E+04  0.00000000000E+00 0. -1.
        -24    2    1    2    0    0 -0.54335935807E+02  0.35461596190E+03 -0.87363344243E+03  0.94780752916E+03  0.79992788642E+02 0.  0.
        254    2    1    2    0    0  0.54335935807E+02 -0.35461596190E+03 -0.10425053142E+03  0.10002494845E+04  0.92786097216E+03 0.  0.
         23    2    4    4    0    0 -0.33713742033E+02  0.23069080612E+03  0.20760122023E+03  0.32498079998E+03  0.90329337893E+02 0.  0.
         23    2    4    4    0    0  0.88049677840E+02 -0.58530676803E+03 -0.31185175165E+03  0.67526868455E+03  0.91648910882E+02 0.  0.
          3    1    3    3  502    0 -0.73288454917E+02  0.28053639892E+03 -0.72019291494E+03  0.77636956629E+03  0.00000000000E+00 0. -1.
         -4    1    3    3    0  502  0.18952519110E+02  0.74079562986E+02 -0.15344052750E+03  0.17143796286E+03  0.00000000000E+00 0.  1.
         11    1    5    5    0    0 -0.46934681776E+02  0.62277664644E+02  0.42699059508E+02  0.88907713668E+02  0.00000000000E+00 0.  1.
        -11    1    5    5    0    0  0.13220939743E+02  0.16841314148E+03  0.16490216073E+03  0.23607308631E+03  0.00000000000E+00 0. -1.
          2    1    6    6  503    0  0.27778856875E+02 -0.76603168569E+02 -0.13909764140E+02  0.82663122749E+02  0.00000000000E+00 0.  1.
         -2    1    6    6    0  503  0.60270820965E+02 -0.50870359946E+03 -0.29794198751E+03  0.59260556180E+03  0.00000000000E+00 0. -1.
<mgrwt>
<rscale>  0 0.16848350E+04</rscale>
<asrwt>0</asrwt>
<pdfrwt beam="1">  1        1 0.22507238E+00 0.16848350E+04</pdfrwt>
<pdfrwt beam="2">  1       -2 0.74628696E-01 0.16848350E+04</pdfrwt>
<totfact> 0.93694500E+00</totfact>
</mgrwt>
</event>
<event>
12    4  0.4424320E-008  0.1268440E+04  0.7818608E-02  0.9054974E-01
         -2   -1    0    0    0  501 -0.00000000000E+00  0.00000000000E+00  0.15779878762E+03  0.15779878762E+03  0.00000000000E+00 0.  1.
          1   -1    0    0  501    0  0.00000000000E+00 -0.00000000000E+00 -0.25490385331E+04  0.25490385331E+04  0.00000000000E+00 0. -1.
        -24    2    1    2    0    0  0.10837639459E+03  0.30081249723E+02  0.14713945488E+02  0.13853791910E+03  0.79535717427E+02 0.  0.
        254    2    1    2    0    0 -0.10837639459E+03 -0.30081249723E+02 -0.24059536910E+04  0.25682994016E+04  0.89157070884E+03 0.  0.
         23    2    4    4    0    0 -0.73329129235E+02  0.31965539295E+03 -0.37340011874E+03  0.50360441859E+03  0.81443417823E+02 0.  0.
         23    2    4    4    0    0 -0.35047265354E+02 -0.34973664268E+03 -0.20325535722E+04  0.20646949831E+04  0.90262500530E+02 0.  0.
          1    1    3    3  502    0  0.79473709670E+02  0.38092066817E+02 -0.22289581083E+02  0.90906003696E+02  0.00000000000E+00 0. -1.
         -2    1    3    3    0  502  0.28902684919E+02 -0.80108170935E+01  0.37003526571E+02  0.47631915400E+02  0.00000000000E+00 0.  1.
         11    1    5    5    0    0 -0.11070081142E+02  0.11103039135E+03 -0.18321428554E+03  0.21451752591E+03  0.00000000000E+00 0. -1.
        -11    1    5    5    0    0 -0.62259048093E+02  0.20862500161E+03 -0.19018583321E+03  0.28908689268E+03  0.00000000000E+00 0.  1.
          2    1    6    6  503    0  0.19832236037E+02 -0.19114953456E+02 -0.17364991641E+03  0.17582091030E+03  0.00000000000E+00 0. -1.
         -2    1    6    6    0  503 -0.54879501392E+02 -0.33062168922E+03 -0.18589036558E+04  0.18888740728E+04  0.00000000000E+00 0.  1.
<mgrwt>
<rscale>  0 0.12684403E+04</rscale>
<asrwt>0</asrwt>
<pdfrwt beam="1">  1        1 0.39215980E+00 0.12684403E+04</pdfrwt>
<pdfrwt beam="2">  1       -2 0.24276735E-01 0.12684403E+04</pdfrwt>
<totfact> 0.16475515E+01</totfact>
</mgrwt>
</event>
<event>
12    4  0.4424320E-008  0.2469704E+04  0.7818608E-02  0.8413859E-01
         -2   -1    0    0    0  501 -0.00000000000E+00  0.00000000000E+00  0.10267825128E+04  0.10267825128E+04  0.00000000000E+00 0.  1.
          1   -1    0    0  501    0  0.00000000000E+00 -0.00000000000E+00 -0.14850852882E+04  0.14850852882E+04  0.00000000000E+00 0. -1.
        -24    2    1    2    0    0 -0.54913092572E+03  0.74713921914E+03 -0.73810544925E+03  0.11878650445E+04  0.80386089253E+02 0.  0.
        254    2    1    2    0    0  0.54913092572E+03 -0.74713921914E+03  0.27980267386E+03  0.13240027565E+04  0.90273582878E+03 0.  0.
         23    2    4    4    0    0 -0.23561354474E+02  0.12304766346E+03 -0.12862312043E+03  0.20119646570E+03  0.90775799607E+02 0.  0.
         23    2    4    4    0    0  0.57269228019E+03 -0.87018688259E+03  0.40842579429E+03  0.11228062908E+04  0.93170160329E+02 0.  0.
          1    1    3    3  502    0 -0.42691638422E+03  0.53671863892E+03 -0.51385231135E+03  0.85695314595E+03  0.00000000000E+00 0. -1.
         -2    1    3    3    0  502 -0.12221454150E+03  0.21042058022E+03 -0.22425313790E+03  0.33091189853E+03  0.00000000000E+00 0.  1.
         11    1    5    5    0    0  0.18018328010E+02  0.95824051420E+02 -0.53770507668E+02  0.11134709906E+03  0.00000000000E+00 0.  1.
        -11    1    5    5    0    0 -0.41579682484E+02  0.27223612039E+02 -0.74852612766E+02  0.89849366641E+02  0.00000000000E+00 0. -1.
          4    1    6    6  503    0  0.22336943757E+03 -0.25994298316E+03  0.13542976101E+03  0.36851795113E+03  0.00000000000E+00 0. -1.
         -4    1    6    6    0  503  0.34932284262E+03 -0.61024389944E+03  0.27299603328E+03  0.75428833967E+03  0.00000000000E+00 0.  1.
<mgrwt>
<rscale>  0 0.24697041E+04</rscale>
<asrwt>0</asrwt>
<pdfrwt beam="1">  1        1 0.22847466E+00 0.24697041E+04</pdfrwt>
<pdfrwt beam="2">  1       -2 0.15796654E+00 0.24697041E+04</pdfrwt>
<totfact> 0.13666100E+00</totfact>
</mgrwt>
</event>
<event>
12    4  0.4424320E-008  0.1964668E+04  0.7818608E-02  0.8623320E-01
          1   -1    0    0  501    0  0.00000000000E+00  0.00000000000E+00  0.14950069558E+04  0.14950069558E+04  0.00000000000E+00 0. -1.
         -2   -1    0    0    0  501 -0.00000000000E+00 -0.00000000000E+00 -0.64546845594E+03  0.64546845594E+03  0.00000000000E+00 0.  1.
        -24    2    1    2    0    0  0.43853604380E+02 -0.43914306501E+02  0.11830779142E+04  0.11874009833E+04  0.79975865839E+02 0.  0.
        254    2    1    2    0    0 -0.43853604380E+02  0.43914306501E+02 -0.33353941429E+03  0.95307442850E+03  0.89064623754E+03 0.  0.
         23    2    4    4    0    0 -0.32813464263E+03 -0.10103209313E+02  0.15848237102E+03  0.37547350435E+03  0.89940380339E+02 0.  0.
         23    2    4    4    0    0  0.28428103825E+03  0.54017515814E+02 -0.49202178531E+03  0.57760092414E+03  0.88339060593E+02 0.  0.
          3    1    3    3  502    0  0.41437995374E+02 -0.66303292598E+02  0.86470782181E+03  0.86823548141E+03  0.00000000000E+00 0. -1.
         -4    1    3    3    0  502  0.24156090058E+01  0.22388986096E+02  0.31837009238E+03  0.31916550187E+03  0.00000000000E+00 0.  1.
         11    1    5    5    0    0 -0.26712918693E+03  0.27790886759E+02  0.12509289323E+03  0.29627448056E+03  0.00000000000E+00 0. -1.
        -11    1    5    5    0    0 -0.61005455699E+02 -0.37894096072E+02  0.33389477795E+02  0.79199023792E+02  0.00000000000E+00 0.  1.
          1    1    6    6  503    0  0.24169139137E+03  0.11672348921E+02 -0.38014948969E+03  0.45062690433E+03  0.00000000000E+00 0. -1.
         -1    1    6    6    0  503  0.42589646879E+02  0.42345166893E+02 -0.11187229562E+03  0.12697401982E+03  0.00000000000E+00 0.  1.
<mgrwt>
<rscale>  0 0.19646677E+04</rscale>
<asrwt>0</asrwt>
<pdfrwt beam="1">  1        1 0.23000107E+00 0.19646677E+04</pdfrwt>
<pdfrwt beam="2">  1       -2 0.99302840E-01 0.19646677E+04</pdfrwt>
<totfact> 0.45225060E+00</totfact>
</mgrwt>
</event>
<event>
12    4  0.4424320E-008  0.3048839E+04  0.7818608E-02  0.8229921E-01
         -2   -1    0    0    0  501 -0.00000000000E+00  0.00000000000E+00  0.14301625651E+04  0.14301625651E+04  0.00000000000E+00 0.  1.
          1   -1    0    0  501    0  0.00000000000E+00 -0.00000000000E+00 -0.16248882346E+04  0.16248882346E+04  0.00000000000E+00 0. -1.
        -24    2    1    2    0    0  0.44447166328E+03  0.86632118734E+03  0.90610450538E+03  0.13324490993E+04  0.79547272441E+02 0.  0.
        254    2    1    2    0    0 -0.44447166328E+03 -0.86632118734E+03 -0.11008301749E+04  0.17226017004E+04  0.89858894103E+03 0.  0.
         23    2    4    4    0    0  0.45379055149E+02  0.10533819124E+03  0.31906651753E+02  0.14895580911E+03  0.89523211846E+02 0.  0.
         23    2    4    4    0    0 -0.48985071843E+03 -0.97165937859E+03 -0.11327368267E+04  0.15736458913E+04  0.95880124076E+02 0.  0.
          1    1    3    3  502    0 -0.11024671180E+01  0.14694222450E+01  0.86548607082E+01  0.88476691483E+01  0.00000000000E+00 0. -1.
         -2    1    3    3    0  502  0.44557413040E+03  0.86485176510E+03  0.89744964468E+03  0.13236014302E+04  0.00000000000E+00 0.  1.
         11    1    5    5    0    0  0.62990317781E+02  0.10737687606E+03  0.16711014443E+02  0.12560585834E+03  0.00000000000E+00 0.  1.
        -11    1    5    5    0    0 -0.17611262632E+02 -0.20386848162E+01  0.15195637310E+02  0.23349950761E+02  0.00000000000E+00 0. -1.
          4    1    6    6  503    0 -0.46053094593E+02 -0.15684853084E+03 -0.19527993598E+03  0.25466959485E+03  0.00000000000E+00 0. -1.
         -4    1    6    6    0  503 -0.44379762384E+03 -0.81481084775E+03 -0.93745689070E+03  0.13189762964E+04  0.00000000000E+00 0.  1.
<mgrwt>
<rscale>  0 0.30488387E+04</rscale>
<asrwt>0</asrwt>
<pdfrwt beam="1">  1        1 0.24998281E+00 0.30488387E+04</pdfrwt>
<pdfrwt beam="2">  1       -2 0.22002501E+00 0.30488387E+04</pdfrwt>
<totfact> 0.39466326E-01</totfact>
</mgrwt>
</event>
<event>
12    4  0.4424320E-008  0.1481827E+04  0.7818608E-02  0.8896628E-01
         -2   -1    0    0    0  501 -0.00000000000E+00  0.00000000000E+00  0.68338163177E+03  0.68338163177E+03  0.00000000000E+00 0.  1.
          1   -1    0    0  501    0  0.00000000000E+00 -0.00000000000E+00 -0.80328898505E+03  0.80328898505E+03  0.00000000000E+00 0. -1.
        -24    2    1    2    0    0  0.97160020215E+02 -0.43185792614E+03  0.85162080966E+02  0.45804662263E+03  0.81319066468E+02 0.  0.
        254    2    1    2    0    0 -0.97160020215E+02  0.43185792614E+03 -0.20506943424E+03  0.10286239942E+04  0.90557855025E+03 0.  0.
         23    2    4    4    0    0 -0.46559154287E+03  0.88888675158E+02 -0.12609240381E+02  0.48282225910E+03  0.91003623965E+02 0.  0.
         23    2    4    4    0    0  0.36843152266E+03  0.34296925098E+03 -0.19246019386E+03  0.54580173510E+03  0.86538510547E+02 0.  0.
          3    1    3    3  502    0  0.23990115620E+02 -0.20126489203E+02  0.11876635555E+02  0.33491128485E+02  0.00000000000E+00 0. -1.
         -4    1    3    3    0  502  0.73169904595E+02 -0.41173143694E+03  0.73285445412E+02  0.42455549415E+03  0.00000000000E+00 0.  1.
         11    1    5    5    0    0 -0.40833638077E+03  0.45787638728E+02 -0.72882369194E+01  0.41096012716E+03  0.00000000000E+00 0. -1.
        -11    1    5    5    0    0 -0.57255162099E+02  0.43101036430E+02 -0.53210034612E+01  0.71862131935E+02  0.00000000000E+00 0.  1.
          4    1    6    6  503    0  0.27976373034E+03  0.21240917231E+03 -0.15289404982E+03  0.38309527766E+03  0.00000000000E+00 0. -1.
         -4    1    6    6    0  503  0.88667792314E+02  0.13056007868E+03 -0.39566144047E+02  0.16270645744E+03  0.00000000000E+00 0.  1.
<mgrwt>
<rscale>  0 0.14818272E+04</rscale>
<asrwt>0</asrwt>
<pdfrwt beam="1">  1        1 0.12358292E+00 0.14818272E+04</pdfrwt>
<pdfrwt beam="2">  1       -2 0.10513564E+00 0.14818272E+04</pdfrwt>
<totfact> 0.13659610E+01</totfact>
</mgrwt>
</event>
<event>
12    4  0.4424320E-008  0.1786767E+04  0.7818608E-02  0.8713369E-01
          1   -1    0    0  501    0  0.00000000000E+00  0.00000000000E+00  0.11794781882E+04  0.11794781882E+04  0.00000000000E+00 0. -1.
         -2   -1    0    0    0  501 -0.00000000000E+00 -0.00000000000E+00 -0.67668384562E+03  0.67668384562E+03  0.00000000000E+00 0.  1.
        -24    2    1    2    0    0  0.28489589106E+02 -0.63329226330E+03 -0.31878228968E+02  0.63986390059E+03  0.80863108711E+02 0.  0.
        254    2    1    2    0    0 -0.28489589106E+02  0.63329226330E+03  0.53467257152E+03  0.12162981332E+04  0.88973908683E+03 0.  0.
         23    2    4    4    0    0  0.33698765915E+03  0.54547817420E+03  0.13980384945E+03  0.66353329222E+03  0.98102969448E+02 0.  0.
         23    2    4    4    0    0 -0.36547724825E+03  0.87814089104E+02  0.39486872207E+03  0.55276484098E+03  0.91338538006E+02 0.  0.
          1    1    3    3  502    0 -0.32050119766E+01 -0.20787689578E+02 -0.15839098407E+02  0.26330157199E+02  0.00000000000E+00 0. -1.
         -2    1    3    3    0  502  0.31694601082E+02 -0.61250457372E+03 -0.16039130561E+02  0.61353374339E+03  0.00000000000E+00 0.  1.
         11    1    5    5    0    0  0.19029068508E+03  0.29202794274E+03  0.12508615498E+03  0.37032068581E+03  0.00000000000E+00 0.  1.
        -11    1    5    5    0    0  0.14669697406E+03  0.25345023146E+03  0.14717694470E+02  0.29321260641E+03  0.00000000000E+00 0. -1.
          3    1    6    6  503    0 -0.89579808686E+02  0.42189501108E+02  0.15710556301E+03  0.18570582666E+03  0.00000000000E+00 0. -1.
         -3    1    6    6    0  503 -0.27589743956E+03  0.45624587996E+02  0.23776315906E+03  0.36705901432E+03  0.00000000000E+00 0.  1.
<mgrwt>
<rscale>  0 0.17867667E+04</rscale>
<asrwt>0</asrwt>
<pdfrwt beam="1">  1        1 0.18145818E+00 0.17867667E+04</pdfrwt>
<pdfrwt beam="2">  1       -2 0.10410521E+00 0.17867667E+04</pdfrwt>
<totfact> 0.68780013E+00</totfact>
</mgrwt>
</event>
<event>
12    4  0.4424320E-008  0.1385081E+04  0.7818608E-02  0.8964689E-01
          1   -1    0    0  501    0  0.00000000000E+00  0.00000000000E+00  0.72203121873E+03  0.72203121873E+03  0.00000000000E+00 0. -1.
         -2   -1    0    0    0  501 -0.00000000000E+00 -0.00000000000E+00 -0.66425473937E+03  0.66425473937E+03  0.00000000000E+00 0.  1.
        -24    2    1    2    0    0 -0.32058580481E+03  0.17804543745E+03  0.14945790202E+03  0.40418761490E+03  0.80960036567E+02 0.  0.
        254    2    1    2    0    0  0.32058580481E+03 -0.17804543745E+03 -0.91681422656E+02  0.98209834320E+03  0.90644152399E+03 0.  0.
         23    2    4    4    0    0  0.27854402872E+03 -0.23256366204E+03 -0.46187467890E+03  0.59441326499E+03  0.91248439714E+02 0.  0.
         23    2    4    4    0    0  0.42041776087E+02  0.54518224587E+02  0.37019325625E+03  0.38768507820E+03  0.92287188386E+02 0.  0.
          1    1    3    3  502    0 -0.15237156751E+03  0.10882437178E+03  0.38635558401E+02  0.19118719845E+03  0.00000000000E+00 0. -1.
         -2    1    3    3    0  502 -0.16821423731E+03  0.69221065674E+02  0.11082234362E+03  0.21300041646E+03  0.00000000000E+00 0.  1.
         11    1    5    5    0    0  0.60575251971E+02 -0.33117505956E+02 -0.14828360779E+03  0.16356698533E+03  0.00000000000E+00 0.  1.
        -11    1    5    5    0    0  0.21796877675E+03 -0.19944615608E+03 -0.31359107112E+03  0.43084627966E+03  0.00000000000E+00 0. -1.
          2    1    6    6  503    0  0.69387346636E+02  0.38650069167E+02  0.21260551040E+03  0.22695712100E+03  0.00000000000E+00 0.  1.
         -2    1    6    6    0  503 -0.27345570549E+02  0.15868155421E+02  0.15758774585E+03  0.16072795720E+03  0.00000000000E+00 0. -1.
<mgrwt>
<rscale>  0 0.13850815E+04</rscale>
<asrwt>0</asrwt>
<pdfrwt beam="1">  1        1 0.11108173E+00 0.13850815E+04</pdfrwt>
<pdfrwt beam="2">  1       -2 0.10219304E+00 0.13850815E+04</pdfrwt>
<totfact> 0.17422216E+01</totfact>
</mgrwt>
</event>
<event>
12    4  0.4424320E-008  0.1620314E+04  0.7818608E-02  0.8808165E-01
         -2   -1    0    0    0  501 -0.00000000000E+00  0.00000000000E+00  0.59792762763E+03  0.59792762763E+03  0.00000000000E+00 0.  1.
          1   -1    0    0  501    0  0.00000000000E+00 -0.00000000000E+00 -0.10977147780E+04  0.10977147780E+04  0.00000000000E+00 0. -1.
        -24    2    1    2    0    0  0.60728648758E+02  0.13974384361E+03 -0.74387079581E+03  0.76369020448E+03  0.81625100032E+02 0.  0.
        254    2    1    2    0    0 -0.60728648758E+02 -0.13974384361E+03  0.24408364547E+03  0.93195220113E+03  0.88642076273E+03 0.  0.
         23    2    4    4    0    0 -0.22595561878E+02  0.32083200449E+03  0.31063733584E+03  0.45626666517E+03  0.90774340045E+02 0.  0.
         23    2    4    4    0    0 -0.38133086880E+02 -0.46057584810E+03 -0.66553690372E+02  0.47568553596E+03  0.90901547019E+02 0.  0.
          3    1    3    3  502    0  0.92159291420E+01 -0.43977286484E+01 -0.15212370684E+03  0.15246604721E+03  0.00000000000E+00 0. -1.
         -4    1    3    3    0  502  0.51512719616E+02  0.14414157226E+03 -0.59174708897E+03  0.61122415728E+03  0.00000000000E+00 0.  1.
         11    1    5    5    0    0  0.12125669227E+02  0.10334720399E+03  0.51251939057E+02  0.11599326568E+03  0.00000000000E+00 0.  1.
        -11    1    5    5    0    0 -0.34721231105E+02  0.21748480050E+03  0.25938539678E+03  0.34027339949E+03  0.00000000000E+00 0. -1.
          1    1    6    6  503    0  0.32654999400E+00 -0.29702237500E+03 -0.78579523169E+02  0.30724117457E+03  0.00000000000E+00 0. -1.
         -1    1    6    6    0  503 -0.38459636874E+02 -0.16355347309E+03  0.12025832797E+02  0.16844436139E+03  0.00000000000E+00 0.  1.
<mgrwt>
<rscale>  0 0.16203135E+04</rscale>
<asrwt>0</asrwt>
<pdfrwt beam="1">  1        1 0.16887920E+00 0.16203135E+04</pdfrwt>
<pdfrwt beam="2">  1       -2 0.91988866E-01 0.16203135E+04</pdfrwt>
<totfact> 0.10742415E+01</totfact>
</mgrwt>
</event>
<event>
12    4  0.4424320E-008  0.1303825E+04  0.7818608E-02  0.9026537E-01
          1   -1    0    0  501    0  0.00000000000E+00  0.00000000000E+00  0.53092188115E+03  0.53092188115E+03  0.00000000000E+00 0. -1.
         -2   -1    0    0    0  501 -0.00000000000E+00 -0.00000000000E+00 -0.80047560520E+03  0.80047560520E+03  0.00000000000E+00 0.  1.
        -24    2    1    2    0    0 -0.22375697187E+03 -0.21576606893E+03 -0.20999025331E+03  0.38340034853E+03  0.79232201844E+02 0.  0.
        254    2    1    2    0    0  0.22375697187E+03  0.21576606893E+03 -0.59563470749E+02  0.94799713783E+03  0.89360426774E+03 0.  0.
         23    2    4    4    0    0  0.22235572298E+03  0.32888791131E+03 -0.40412415349E+03  0.57369375045E+03  0.90547568301E+02 0.  0.
         23    2    4    4    0    0  0.14012488899E+01 -0.11312184238E+03  0.34456068274E+03  0.37430338738E+03  0.92641497119E+02 0.  0.
          1    1    3    3  502    0 -0.14814965591E+02  0.46875482300E+01 -0.29654507500E+01  0.15819298721E+02  0.00000000000E+00 0. -1.
         -2    1    3    3    0  502 -0.20894200628E+03 -0.22045361716E+03 -0.20702480256E+03  0.36758104981E+03  0.00000000000E+00 0.  1.
         11    1    5    5    0    0  0.38698776974E+02  0.18257691647E+02 -0.22019763267E+02  0.48122849229E+02  0.00000000000E+00 0. -1.
        -11    1    5    5    0    0  0.18365694600E+03  0.31063021966E+03 -0.38210439023E+03  0.52557090122E+03  0.00000000000E+00 0.  1.
          4    1    6    6  503    0  0.15639669754E+01  0.59842873675E+01 -0.30190028453E+01  0.68827368231E+01  0.00000000000E+00 0. -1.
         -4    1    6    6    0  503 -0.16271808546E+00 -0.11910612975E+03  0.34757968559E+03  0.36742065055E+03  0.00000000000E+00 0.  1.
<mgrwt>
<rscale>  0 0.13038252E+04</rscale>
<asrwt>0</asrwt>
<pdfrwt beam="1">  1        1 0.81680290E-01 0.13038252E+04</pdfrwt>
<pdfrwt beam="2">  1       -2 0.12315009E+00 0.13038252E+04</pdfrwt>
<totfact> 0.17428140E+01</totfact>
</mgrwt>
</event>
<event>
12    4  0.4424320E-008  0.1546102E+04  0.7818608E-02  0.8854362E-01
         -2   -1    0    0    0  501 -0.00000000000E+00  0.00000000000E+00  0.10658373391E+04  0.10658373391E+04  0.00000000000E+00 0.  1.
          1   -1    0    0  501    0  0.00000000000E+00 -0.00000000000E+00 -0.56069296483E+03  0.56069296483E+03  0.00000000000E+00 0. -1.
        -24    2    1    2    0    0 -0.36381888170E+02 -0.45398780241E+03  0.78115911802E+02  0.47001748086E+03  0.85940503365E+02 0.  0.
        254    2    1    2    0    0  0.36381888170E+02  0.45398780241E+03  0.42702846246E+03  0.11565128231E+04  0.97351940691E+03 0.  0.
         23    2    4    4    0    0 -0.27790900382E+03  0.44412053951E+03 -0.95560173948E+02  0.54039717662E+03  0.91765427200E+02 0.  0.
         23    2    4    4    0    0  0.31429089199E+03  0.98672628924E+01  0.52258863641E+03  0.61611564644E+03  0.87312537558E+02 0.  0.
          1    1    3    3  502    0  0.80044857808E+00 -0.10311726464E+03  0.53887296851E+02  0.11635141489E+03  0.00000000000E+00 0. -1.
         -2    1    3    3    0  502 -0.37182336748E+02 -0.35087053776E+03  0.24228614951E+02  0.35366606597E+03  0.00000000000E+00 0.  1.
         11    1    5    5    0    0 -0.13720138931E+03  0.18702345474E+03 -0.85283892454E+02  0.24713424725E+03  0.00000000000E+00 0.  1.
        -11    1    5    5    0    0 -0.14070761452E+03  0.25709708478E+03 -0.10276281494E+02  0.29326292937E+03  0.00000000000E+00 0. -1.
          4    1    6    6  503    0  0.50873512654E+02 -0.36523647602E+01  0.35326845569E+02  0.62043856069E+02  0.00000000000E+00 0. -1.
         -4    1    6    6    0  503  0.26341737934E+03  0.13519627653E+02  0.48726179084E+03  0.55407179037E+03  0.00000000000E+00 0.  1.
<mgrwt>
<rscale>  0 0.15461015E+04</rscale>
<asrwt>0</asrwt>
<pdfrwt beam="1">  1        1 0.86260456E-01 0.15461015E+04</pdfrwt>
<pdfrwt beam="2">  1       -2 0.16397498E+00 0.15461015E+04</pdfrwt>
<totfact> 0.74899355E+00</totfact>
</mgrwt>
</event>
<event>
12    4  0.4424320E-008  0.1799479E+04  0.7818608E-02  0.8706576E-01
         -2   -1    0    0    0  501 -0.00000000000E+00  0.00000000000E+00  0.22454807905E+03  0.22454807905E+03  0.00000000000E+00 0.  1.
          1   -1    0    0  501    0  0.00000000000E+00 -0.00000000000E+00 -0.36051580967E+04  0.36051580967E+04  0.00000000000E+00 0. -1.
        -24    2    1    2    0    0 -0.59601850411E+03 -0.47060873781E+02 -0.18590860937E+04  0.19543540659E+04  0.76458669645E+02 0.  0.
        254    2    1    2    0    0  0.59601850411E+03  0.47060873781E+02 -0.15215239239E+04  0.18753521098E+04  0.91894379673E+03 0.  0.
         23    2    4    4    0    0 -0.68451647381E+02  0.33929478356E+02 -0.10475501273E+04  0.10540378546E+04  0.88304541981E+02 0.  0.
         23    2    4    4    0    0  0.66447015149E+03  0.13131395425E+02 -0.47397379656E+03  0.82131425517E+03  0.90625218056E+02 0.  0.
          1    1    3    3  502    0 -0.25890438737E+02 -0.47094330389E+00 -0.14621501780E+03  0.14849029610E+03  0.00000000000E+00 0. -1.
         -2    1    3    3    0  502 -0.57012806537E+03 -0.46589930477E+02 -0.17128710759E+04  0.18058637698E+04  0.00000000000E+00 0.  1.
         11    1    5    5    0    0 -0.35647100354E+02  0.18734948436E+02 -0.13764995371E+03  0.14341974694E+03  0.00000000000E+00 0. -1.
        -11    1    5    5    0    0 -0.32804547027E+02  0.15194529920E+02 -0.90990017361E+03  0.91061810765E+03  0.00000000000E+00 0.  1.
          1    1    6    6  503    0  0.22211310762E+03 -0.22179149002E+02 -0.11844956071E+03  0.25269832935E+03  0.00000000000E+00 0. -1.
         -1    1    6    6    0  503  0.44235704387E+03  0.35310544427E+02 -0.35552423585E+03  0.56861592581E+03  0.00000000000E+00 0.  1.
<mgrwt>
<rscale>  0 0.17994792E+04</rscale>
<asrwt>0</asrwt>
<pdfrwt beam="1">  1        1 0.55463970E+00 0.17994792E+04</pdfrwt>
<pdfrwt beam="2">  1       -2 0.34545859E-01 0.17994792E+04</pdfrwt>
<totfact> 0.13515855E+00</totfact>
</mgrwt>
</event>
<event>
12    4  0.4424320E-008  0.2028218E+04  0.7818608E-02  0.8593540E-01
          1   -1    0    0  501    0  0.00000000000E+00  0.00000000000E+00  0.17774729888E+04  0.17774729888E+04  0.00000000000E+00 0. -1.
         -2   -1    0    0    0  501 -0.00000000000E+00 -0.00000000000E+00 -0.57858400678E+03  0.57858400678E+03  0.00000000000E+00 0.  1.
        -24    2    1    2    0    0  0.39362870941E+03 -0.38497106135E+03  0.11694546291E+04  0.12953021164E+04  0.83887806976E+02 0.  0.
        254    2    1    2    0    0 -0.39362870941E+03  0.38497106135E+03  0.29434352871E+02  0.10607548792E+04  0.90619437961E+03 0.  0.
         23    2    4    4    0    0 -0.26798254015E+03  0.46293781894E+03  0.38469902613E+03  0.66510483824E+03  0.90802197700E+02 0.  0.
         23    2    4    4    0    0 -0.12564616926E+03 -0.77966757595E+02 -0.35526467326E+03  0.39565004095E+03  0.91979300378E+02 0.  0.
          1    1    3    3  502    0  0.27014457384E+03 -0.30896882662E+03  0.90476854287E+03  0.99350185847E+03  0.00000000000E+00 0. -1.
         -2    1    3    3    0  502  0.12348413557E+03 -0.76002234727E+02  0.26468608627E+03  0.30180025793E+03  0.00000000000E+00 0.  1.
         11    1    5    5    0    0 -0.55373318667E-01  0.51893570986E+02  0.38056644584E+02  0.64352575495E+02  0.00000000000E+00 0. -1.
        -11    1    5    5    0    0 -0.26792716683E+03  0.41104424796E+03  0.34664238155E+03  0.60075226274E+03  0.00000000000E+00 0.  1.
          4    1    6    6  503    0 -0.10279580675E+02 -0.35733768976E+02 -0.29418362095E+02  0.47413205465E+02  0.00000000000E+00 0. -1.
         -4    1    6    6    0  503 -0.11536658858E+03 -0.42232988619E+02 -0.32584631116E+03  0.34823683548E+03  0.00000000000E+00 0.  1.
<mgrwt>
<rscale>  0 0.20282184E+04</rscale>
<asrwt>0</asrwt>
<pdfrwt beam="1">  1        1 0.27345738E+00 0.20282184E+04</pdfrwt>
<pdfrwt beam="2">  1       -2 0.89012925E-01 0.20282184E+04</pdfrwt>
<totfact> 0.37173509E+00</totfact>
</mgrwt>
</event>
<event>
12    4  0.4424320E-008  0.1652880E+04  0.7818608E-02  0.8788704E-01
          1   -1    0    0  501    0  0.00000000000E+00  0.00000000000E+00  0.12288582452E+04  0.12288582452E+04  0.00000000000E+00 0. -1.
         -2   -1    0    0    0  501 -0.00000000000E+00 -0.00000000000E+00 -0.55580310271E+03  0.55580310271E+03  0.00000000000E+00 0.  1.
        -24    2    1    2    0    0  0.36928250530E+03  0.88841796637E+02 -0.23275492963E+03  0.45260253461E+03  0.80073488225E+02 0.  0.
        254    2    1    2    0    0 -0.36928250530E+03 -0.88841796637E+02  0.90581007213E+03  0.13320588133E+04  0.89979239929E+03 0.  0.
         23    2    4    4    0    0 -0.56374227557E+03 -0.31911403947E+03  0.53275639587E+03  0.84364678477E+03  0.90947219093E+02 0.  0.
         23    2    4    4    0    0  0.19445977027E+03  0.23027224283E+03  0.37305367626E+03  0.48841202855E+03  0.92397814854E+02 0.  0.
          3    1    3    3  502    0  0.19610802718E+03  0.49418475570E+02 -0.77085132052E+02  0.21643165580E+03  0.00000000000E+00 0. -1.
         -4    1    3    3    0  502  0.17317447813E+03  0.39423321067E+02 -0.15566979758E+03  0.23617087880E+03  0.00000000000E+00 0.  1.
         11    1    5    5    0    0 -0.41798731968E+03 -0.25662704844E+03  0.44570976335E+03  0.66274281177E+03  0.00000000000E+00 0.  1.
        -11    1    5    5    0    0 -0.14575495589E+03 -0.62486991028E+02  0.87046632513E+02  0.18090397300E+03  0.00000000000E+00 0. -1.
          3    1    6    6  503    0  0.16298300286E+03  0.22974994273E+03  0.31659690577E+03  0.42377127810E+03  0.00000000000E+00 0. -1.
         -3    1    6    6    0  503  0.31476767404E+02  0.52230010647E+00  0.56456770498E+02  0.64640750449E+02  0.00000000000E+00 0.  1.
<mgrwt>
<rscale>  0 0.16528802E+04</rscale>
<asrwt>0</asrwt>
<pdfrwt beam="1">  1        1 0.18905511E+00 0.16528802E+04</pdfrwt>
<pdfrwt beam="2">  1       -2 0.85508170E-01 0.16528802E+04</pdfrwt>
<totfact> 0.10139856E+01</totfact>
</mgrwt>
</event>
<event>
12    4  0.4424320E-008  0.1264669E+04  0.7818608E-02  0.9058062E-01
          1   -1    0    0  501    0  0.00000000000E+00  0.00000000000E+00  0.17816403400E+04  0.17816403400E+04  0.00000000000E+00 0. -1.
         -2   -1    0    0    0  501 -0.00000000000E+00 -0.00000000000E+00 -0.22442637431E+03  0.22442637431E+03  0.00000000000E+00 0.  1.
        -24    2    1    2    0    0 -0.16663932097E+03  0.16391307406E+02  0.76782972465E+03  0.78989778013E+03  0.79615819667E+02 0.  0.
        254    2    1    2    0    0  0.16663932097E+03 -0.16391307406E+02  0.78938424105E+03  0.12161689342E+04  0.90989123427E+03 0.  0.
         23    2    4    4    0    0 -0.66559219866E+02  0.41028363096E+03  0.42788044778E+03  0.60342362187E+03  0.90970337195E+02 0.  0.
         23    2    4    4    0    0  0.23319854084E+03 -0.42667493837E+03  0.36150379327E+03  0.61274531232E+03  0.91316826180E+02 0.  0.
          1    1    3    3  502    0 -0.14587744533E+03  0.32128667846E+02  0.72098490265E+03  0.73629593928E+03  0.00000000000E+00 0. -1.
         -2    1    3    3    0  502 -0.20761875644E+02 -0.15737360440E+02  0.46844822001E+02  0.53601840847E+02  0.00000000000E+00 0.  1.
         11    1    5    5    0    0 -0.32352613746E+02  0.13016031756E+03  0.82706799825E+02  0.15757161743E+03  0.00000000000E+00 0.  1.
        -11    1    5    5    0    0 -0.34206606120E+02  0.28012331340E+03  0.34517364796E+03  0.44585200444E+03  0.00000000000E+00 0. -1.
          3    1    6    6  503    0  0.23913703302E+03 -0.41488860100E+03  0.33922156916E+03  0.58684780377E+03  0.00000000000E+00 0. -1.
         -3    1    6    6    0  503 -0.59384921850E+01 -0.11786337364E+02  0.22282224112E+02  0.25897508554E+02  0.00000000000E+00 0.  1.
<mgrwt>
<rscale>  0 0.12646693E+04</rscale>
<asrwt>0</asrwt>
<pdfrwt beam="1">  1        1 0.27409850E+00 0.12646693E+04</pdfrwt>
<pdfrwt beam="2">  1       -2 0.34527136E-01 0.12646693E+04</pdfrwt>
<totfact> 0.28520205E+01</totfact>
</mgrwt>
</event>
<event>
12    4  0.4424320E-008  0.1389162E+04  0.7818608E-02  0.8961701E-01
          1   -1    0    0  501    0  0.00000000000E+00  0.00000000000E+00  0.25170974172E+04  0.25170974172E+04  0.00000000000E+00 0. -1.
         -2   -1    0    0    0  501 -0.00000000000E+00 -0.00000000000E+00 -0.19166630495E+03  0.19166630495E+03  0.00000000000E+00 0.  1.
        -24    2    1    2    0    0  0.18593942739E+03  0.32342277472E+02  0.22094090060E+01  0.20301104067E+03  0.74760334226E+02 0.  0.
        254    2    1    2    0    0 -0.18593942739E+03 -0.32342277472E+02  0.23232217032E+04  0.25057526814E+04  0.91968360037E+03 0.  0.
         23    2    4    4    0    0  0.14587143786E+03  0.36943933163E+03  0.11274871337E+04  0.11981321929E+04  0.80806056711E+02 0.  0.
         23    2    4    4    0    0 -0.33181086525E+03 -0.40178160911E+03  0.11957345695E+04  0.13076204886E+04  0.92537936676E+02 0.  0.
          3    1    3    3  502    0  0.45531784344E+02  0.32099508861E+02  0.24475306346E+02  0.60848685075E+02  0.00000000000E+00 0. -1.
         -2    1    3    3    0  502  0.14040764305E+03  0.24276861096E+00 -0.22265897340E+02  0.14216235559E+03  0.00000000000E+00 0.  1.
         11    1    5    5    0    0  0.80866732141E+02  0.10249518002E+03  0.35628236744E+03  0.37944935848E+03  0.00000000000E+00 0. -1.
        -11    1    5    5    0    0  0.65004705716E+02  0.26694415161E+03  0.77120476626E+03  0.81868283441E+03  0.00000000000E+00 0.  1.
          4    1    6    6  503    0 -0.12579817635E+03 -0.11498521815E+03  0.30400736591E+03  0.34852153461E+03  0.00000000000E+00 0. -1.
         -4    1    6    6    0  503 -0.20601268891E+03 -0.28679639096E+03  0.89172720359E+03  0.95909895395E+03  0.00000000000E+00 0.  1.
<mgrwt>
<rscale>  0 0.13891620E+04</rscale>
<asrwt>0</asrwt>
<pdfrwt beam="1">  1        1 0.38724573E+00 0.13891620E+04</pdfrwt>
<pdfrwt beam="2">  1       -2 0.29487126E-01 0.13891620E+04</pdfrwt>
<totfact> 0.12005973E+01</totfact>
</mgrwt>
</event>
<event>
12    4  0.4424320E-008  0.1985581E+04  0.7818608E-02  0.8613392E-01
          1   -1    0    0  501    0  0.00000000000E+00  0.00000000000E+00  0.11242609234E+04  0.11242609234E+04  0.00000000000E+00 0. -1.
         -2   -1    0    0    0  501 -0.00000000000E+00 -0.00000000000E+00 -0.87669426029E+03  0.87669426029E+03  0.00000000000E+00 0.  1.
        -24    2    1    2    0    0 -0.31783019956E+03  0.43148722350E+02 -0.62322926968E+03  0.70545703925E+03  0.79856519097E+02 0.  0.
        254    2    1    2    0    0  0.31783019956E+03 -0.43148722350E+02  0.87079593276E+03  0.12954981444E+04  0.90396462192E+03 0.  0.
         23    2    4    4    0    0  0.45940471877E+03 -0.32144228619E+03  0.30940187877E+03  0.64675427694E+03  0.90463988226E+02 0.  0.
         23    2    4    4    0    0 -0.14157451922E+03  0.27829356384E+03  0.56139405399E+03  0.64874386748E+03  0.90634814318E+02 0.  0.
          1    1    3    3  502    0 -0.19517232901E+03  0.65380257542E+02 -0.38224490679E+03  0.43414051280E+03  0.00000000000E+00 0. -1.
         -2    1    3    3    0  502 -0.12265787055E+03 -0.22231535192E+02 -0.24098436290E+03  0.27131652645E+03  0.00000000000E+00 0.  1.
         11    1    5    5    0    0  0.33706591121E+03 -0.27385106867E+03  0.26193411856E+03  0.50716596768E+03  0.00000000000E+00 0. -1.
        -11    1    5    5    0    0  0.12233880756E+03 -0.47591217526E+02  0.47467760220E+02  0.13958830926E+03  0.00000000000E+00 0.  1.
          2    1    6    6  503    0 -0.42477699142E+02  0.15740581609E+03  0.22555563750E+03  0.27830970423E+03  0.00000000000E+00 0. -1.
         -2    1    6    6    0  503 -0.99096820075E+02  0.12088774775E+03  0.33583841649E+03  0.37043416324E+03  0.00000000000E+00 0.  1.
<mgrwt>
<rscale>  0 0.19855811E+04</rscale>
<asrwt>0</asrwt>
<pdfrwt beam="1">  1        1 0.17296322E+00 0.19855811E+04</pdfrwt>
<pdfrwt beam="2">  1       -2 0.13487604E+00 0.19855811E+04</pdfrwt>
<totfact> 0.39160641E+00</totfact>
</mgrwt>
</event>
<event>
12    4  0.4424320E-008  0.1601583E+04  0.7818608E-02  0.8819576E-01
         -2   -1    0    0    0  501 -0.00000000000E+00  0.00000000000E+00  0.42803125229E+03  0.42803125229E+03  0.00000000000E+00 0.  1.
          1   -1    0    0  501    0  0.00000000000E+00 -0.00000000000E+00 -0.14981788085E+04  0.14981788085E+04  0.00000000000E+00 0. -1.
        -24    2    1    2    0    0 -0.13874901532E+03 -0.23873155108E+03  0.20274034018E+03  0.35159165265E+03  0.79177029137E+02 0.  0.
        254    2    1    2    0    0  0.13874901532E+03  0.23873155108E+03 -0.12728878964E+04  0.15746184082E+04  0.88483642088E+03 0.  0.
         23    2    4    4    0    0  0.31584422218E+03 -0.20590306781E+03 -0.31447366359E+03  0.49940606510E+03  0.91428041369E+02 0.  0.
         23    2    4    4    0    0 -0.17709520685E+03  0.44463461889E+03 -0.95841423282E+03  0.10752123431E+04  0.91984152849E+02 0.  0.
          3    1    3    3  502    0 -0.27818616539E+00 -0.11035417584E+02 -0.64625458573E+01  0.12791494352E+02  0.00000000000E+00 0. -1.
         -4    1    3    3    0  502 -0.13847082916E+03 -0.22769613350E+03  0.20920288604E+03  0.33880015830E+03  0.00000000000E+00 0.  1.
         11    1    5    5    0    0  0.27595075678E+03 -0.20452371533E+03 -0.30259681339E+03  0.45775932735E+03  0.00000000000E+00 0. -1.
        -11    1    5    5    0    0  0.39893465391E+02 -0.13793524794E+01 -0.11876850197E+02  0.41646737744E+02  0.00000000000E+00 0.  1.
          4    1    6    6  503    0 -0.14988808251E+03  0.43073897233E+03 -0.91141857398E+03  0.10191596129E+04  0.00000000000E+00 0. -1.
         -4    1    6    6    0  503 -0.27207124342E+02  0.13895646564E+02 -0.46995658839E+02  0.56052730158E+02  0.00000000000E+00 0.  1.
<mgrwt>
<rscale>  0 0.16015834E+04</rscale>
<asrwt>0</asrwt>
<pdfrwt beam="1">  1        1 0.23048904E+00 0.16015834E+04</pdfrwt>
<pdfrwt beam="2">  1       -2 0.65850963E-01 0.16015834E+04</pdfrwt>
<totfact> 0.11724520E+01</totfact>
</mgrwt>
</event>
<event>
12    4  0.4424320E-008  0.1512841E+04  0.7818608E-02  0.8875958E-01
         -2   -1    0    0    0  501 -0.00000000000E+00  0.00000000000E+00  0.18731603283E+03  0.18731603283E+03  0.00000000000E+00 0.  1.
          1   -1    0    0  501    0  0.00000000000E+00 -0.00000000000E+00 -0.30545822948E+04  0.30545822948E+04  0.00000000000E+00 0. -1.
        -24    2    1    2    0    0  0.45088724721E+03 -0.19057857929E+03 -0.94444578400E+03  0.10665581648E+04  0.77129601219E+02 0.  0.
        254    2    1    2    0    0 -0.45088724721E+03  0.19057857929E+03 -0.19228204780E+04  0.21753401628E+04  0.89176607299E+03 0.  0.
         23    2    4    4    0    0 -0.63520202470E+03 -0.74979698449E+02 -0.15024425358E+04  0.16356160206E+04  0.93822312056E+02 0.  0.
         23    2    4    4    0    0  0.18431477749E+03  0.26555827774E+03 -0.42037794220E+03  0.53972414222E+03  0.10045595715E+03 0.  0.
          3    1    3    3  502    0  0.32099903270E+03 -0.10582315309E+03 -0.69498216203E+03  0.77281247678E+03  0.00000000000E+00 0. -1.
         -4    1    3    3    0  502  0.12988821451E+03 -0.84755426201E+02 -0.24946362197E+03  0.29374568801E+03  0.00000000000E+00 0.  1.
         11    1    5    5    0    0 -0.87864775505E+02  0.30415282991E+01 -0.14057375795E+03  0.16580244598E+03  0.00000000000E+00 0. -1.
        -11    1    5    5    0    0 -0.54733724920E+03 -0.78021226748E+02 -0.13618687778E+04  0.14698135746E+04  0.00000000000E+00 0.  1.
          3    1    6    6  503    0 -0.34636175026E+01  0.24966420886E+02 -0.75124782681E+01  0.26301257533E+02  0.00000000000E+00 0. -1.
         -3    1    6    6    0  503  0.18777839499E+03  0.24059185685E+03 -0.41286546394E+03  0.51342288468E+03  0.00000000000E+00 0.  1.
<mgrwt>
<rscale>  0 0.15128413E+04</rscale>
<asrwt>0</asrwt>
<pdfrwt beam="1">  1        1 0.46993577E+00 0.15128413E+04</pdfrwt>
<pdfrwt beam="2">  1       -2 0.28817849E-01 0.15128413E+04</pdfrwt>
<totfact> 0.51461619E+00</totfact>
</mgrwt>
</event>
<event>
12    4  0.4424320E-008  0.4154539E+04  0.7818608E-02  0.7974077E-01
          1   -1    0    0  501    0  0.00000000000E+00  0.00000000000E+00  0.28446626170E+04  0.28446626170E+04  0.00000000000E+00 0. -1.
         -2   -1    0    0    0  501 -0.00000000000E+00 -0.00000000000E+00 -0.15168929308E+04  0.15168929308E+04  0.00000000000E+00 0.  1.
        -24    2    1    2    0    0  0.82175798306E+03  0.37120406563E+03 -0.12155711810E+04  0.15156971543E+04  0.81522551605E+02 0.  0.
        254    2    1    2    0    0 -0.82175798306E+03 -0.37120406563E+03  0.25433408672E+04  0.28458583935E+04  0.90401802404E+03 0.  0.
         23    2    4    4    0    0 -0.44852585011E+03  0.56047778413E+01  0.31980434434E+03  0.55845957394E+03  0.91626553539E+02 0.  0.
         23    2    4    4    0    0 -0.37323213295E+03 -0.37680884347E+03  0.22235365229E+04  0.22873988195E+04  0.82410930487E+02 0.  0.
          3    1    3    3  502    0  0.49512751102E+02  0.35771797352E+02 -0.11259937983E+03  0.12810056341E+03  0.00000000000E+00 0. -1.
         -4    1    3    3    0  502  0.77224523196E+03  0.33543226828E+03 -0.11029718012E+04  0.13875965909E+04  0.00000000000E+00 0.  1.
         11    1    5    5    0    0 -0.15990844010E+03  0.32554655309E+02  0.15471597276E+03  0.22487229047E+03  0.00000000000E+00 0. -1.
        -11    1    5    5    0    0 -0.28861741001E+03 -0.26949877467E+02  0.16508837158E+03  0.33358728347E+03  0.00000000000E+00 0.  1.
          3    1    6    6  503    0 -0.16063553180E+03 -0.22071922914E+03  0.11308069630E+04  0.11632906515E+04  0.00000000000E+00 0. -1.
         -3    1    6    6    0  503 -0.21259660115E+03 -0.15608961433E+03  0.10927295598E+04  0.11241081680E+04  0.00000000000E+00 0.  1.
<mgrwt>
<rscale>  0 0.41545390E+04</rscale>
<asrwt>0</asrwt>
<pdfrwt beam="1">  1        1 0.43764040E+00 0.41545390E+04</pdfrwt>
<pdfrwt beam="2">  1       -2 0.23336814E+00 0.41545390E+04</pdfrwt>
<totfact> 0.42895294E-02</totfact>
</mgrwt>
</event>
<event>
12    4  0.4424320E-008  0.2805658E+04  0.7818608E-02  0.8301514E-01
          1   -1    0    0  501    0  0.00000000000E+00  0.00000000000E+00  0.20127206648E+04  0.20127206648E+04  0.00000000000E+00 0. -1.
         -2   -1    0    0    0  501 -0.00000000000E+00 -0.00000000000E+00 -0.97774571691E+03  0.97774571691E+03  0.00000000000E+00 0.  1.
        -24    2    1    2    0    0 -0.89543468972E+03 -0.46598760455E+03  0.12569092220E+04  0.16140180865E+04  0.79283415072E+02 0.  0.
        254    2    1    2    0    0  0.89543468972E+03  0.46598760455E+03 -0.22193427417E+03  0.13764482952E+04  0.90906950021E+03 0.  0.
         23    2    4    4    0    0  0.71829599239E+03 -0.11112270269E+03 -0.17604150877E+02  0.73276960075E+03  0.91345464707E+02 0.  0.
         23    2    4    4    0    0  0.17713869733E+03  0.57711030723E+03 -0.20433012329E+03  0.64367869446E+03  0.90205529847E+02 0.  0.
          3    1    3    3  502    0 -0.87124036995E+03 -0.44015275853E+03  0.11982662000E+04  0.15455213098E+04  0.00000000000E+00 0. -1.
         -4    1    3    3    0  502 -0.24194319770E+02 -0.25834846019E+02  0.58643022076E+02  0.68496776685E+02  0.00000000000E+00 0.  1.
         11    1    5    5    0    0  0.10806863311E+03 -0.17243777597E+02 -0.35660231546E+02  0.11509921564E+03  0.00000000000E+00 0.  1.
        -11    1    5    5    0    0  0.61022735928E+03 -0.93878925089E+02  0.18056080669E+02  0.61767038511E+03  0.00000000000E+00 0. -1.
          3    1    6    6  503    0  0.84882911987E+02  0.41255475190E+03 -0.12856782042E+03  0.44038189848E+03  0.00000000000E+00 0. -1.
         -3    1    6    6    0  503  0.92255785339E+02  0.16455555533E+03 -0.75762302871E+02  0.20329679598E+03  0.00000000000E+00 0.  1.
<mgrwt>
<rscale>  0 0.28056579E+04</rscale>
<asrwt>0</asrwt>
<pdfrwt beam="1">  1        1 0.30964933E+00 0.28056579E+04</pdfrwt>
<pdfrwt beam="2">  1       -2 0.15042242E+00 0.28056579E+04</pdfrwt>
<totfact> 0.66081095E-01</totfact>
</mgrwt>
</event>
<event>
12    4  0.4424320E-008  0.1648208E+04  0.7818608E-02  0.8791467E-01
          1   -1    0    0  501    0  0.00000000000E+00  0.00000000000E+00  0.33224203804E+04  0.33224203804E+04  0.00000000000E+00 0. -1.
         -2   -1    0    0    0  501 -0.00000000000E+00 -0.00000000000E+00 -0.20441341941E+03  0.20441341941E+03  0.00000000000E+00 0.  1.
        -24    2    1    2    0    0  0.30989804172E+03 -0.47485881586E+03  0.97507990047E+03  0.11307593322E+04  0.79423950449E+02 0.  0.
        254    2    1    2    0    0 -0.30989804172E+03  0.47485881586E+03  0.21429270605E+04  0.23960744675E+04  0.90967509371E+03 0.  0.
         23    2    4    4    0    0 -0.37398751457E+03  0.60996276308E+03  0.20928972960E+04  0.22137308046E+04  0.91998642038E+02 0.  0.
         23    2    4    4    0    0  0.64089472854E+02 -0.13510394722E+03  0.50029764467E+02  0.18234366293E+03  0.91573451354E+02 0.  0.
          1    1    3    3  502    0  0.30537212072E+02 -0.41353234302E+02  0.50435698907E+02  0.72016463623E+02  0.00000000000E+00 0. -1.
         -2    1    3    3    0  502  0.27936082965E+03 -0.43350558155E+03  0.92464420156E+03  0.10587428686E+04  0.00000000000E+00 0.  1.
         11    1    5    5    0    0 -0.13350677665E+03  0.26396396694E+03  0.74780179488E+03  0.80418191952E+03  0.00000000000E+00 0.  1.
        -11    1    5    5    0    0 -0.24048073793E+03  0.34599879614E+03  0.13450955012E+04  0.14095488851E+04  0.00000000000E+00 0. -1.
          1    1    6    6  503    0  0.57417244874E+02 -0.38999085886E+02 -0.80172482249E+01  0.69870916539E+02  0.00000000000E+00 0. -1.
         -1    1    6    6    0  503  0.66722279801E+01 -0.96104861336E+02  0.58047012692E+02  0.11247274639E+03  0.00000000000E+00 0.  1.
<mgrwt>
<rscale>  0 0.16482079E+04</rscale>
<asrwt>0</asrwt>
<pdfrwt beam="1">  1        1 0.51114156E+00 0.16482079E+04</pdfrwt>
<pdfrwt beam="2">  1       -2 0.31448221E-01 0.16482079E+04</pdfrwt>
<totfact> 0.27243201E+00</totfact>
</mgrwt>
</event>
<event>
12    4  0.4424320E-008  0.1587973E+04  0.7818608E-02  0.8827971E-01
          1   -1    0    0  501    0  0.00000000000E+00  0.00000000000E+00  0.29913284134E+04  0.29913284134E+04  0.00000000000E+00 0. -1.
         -2   -1    0    0    0  501 -0.00000000000E+00 -0.00000000000E+00 -0.21074728551E+03  0.21074728551E+03  0.00000000000E+00 0.  1.
        -24    2    1    2    0    0  0.12405198969E+03 -0.34887664116E+03  0.17042504106E+03  0.41499185207E+03  0.77908508949E+02 0.  0.
        254    2    1    2    0    0 -0.12405198969E+03  0.34887664116E+03  0.26101560868E+04  0.27870838468E+04  0.90433277326E+03 0.  0.
         23    2    4    4    0    0 -0.49118836992E+03  0.32513012306E+03  0.17120133108E+04  0.18128055421E+04  0.91097451082E+02 0.  0.
         23    2    4    4    0    0  0.36713638023E+03  0.23746518104E+02  0.89814277598E+03  0.97427830465E+03  0.84880799140E+02 0.  0.
          1    1    3    3  502    0  0.18445148017E+02 -0.30628415461E+02  0.43863325880E+02  0.56588997838E+02  0.00000000000E+00 0. -1.
         -2    1    3    3    0  502  0.10560684167E+03 -0.31824822570E+03  0.12656171518E+03  0.35840285423E+03  0.00000000000E+00 0.  1.
         11    1    5    5    0    0 -0.77406311871E+02  0.75017895218E+02  0.23203234091E+03  0.25584844919E+03  0.00000000000E+00 0. -1.
        -11    1    5    5    0    0 -0.41378205805E+03  0.25011222784E+03  0.14799809699E+04  0.15569570930E+04  0.00000000000E+00 0.  1.
          1    1    6    6  503    0  0.38004942956E+02 -0.23624027612E+02  0.94575403238E+02  0.10462780351E+03  0.00000000000E+00 0. -1.
         -1    1    6    6    0  503  0.32913143727E+03  0.47370545716E+02  0.80356737274E+03  0.86965050114E+03  0.00000000000E+00 0.  1.
<mgrwt>
<rscale>  0 0.15879727E+04</rscale>
<asrwt>0</asrwt>
<pdfrwt beam="1">  1        1 0.46020434E+00 0.15879727E+04</pdfrwt>
<pdfrwt beam="2">  1       -2 0.32422661E-01 0.15879727E+04</pdfrwt>
<totfact> 0.45565392E+00</totfact>
</mgrwt>
</event>
<event>
12    4  0.4424320E-008  0.1595338E+04  0.7818608E-02  0.8823417E-01
          1   -1    0    0  501    0  0.00000000000E+00  0.00000000000E+00  0.11615974617E+04  0.11615974617E+04  0.00000000000E+00 0. -1.
         -2   -1    0    0    0  501 -0.00000000000E+00 -0.00000000000E+00 -0.54775916234E+03  0.54775916234E+03  0.00000000000E+00 0.  1.
        -24    2    1    2    0    0 -0.40246006503E+03 -0.32628458418E+03  0.37011073010E+03  0.64166459366E+03  0.79471783739E+02 0.  0.
        254    2    1    2    0    0  0.40246006503E+03  0.32628458418E+03  0.24372756928E+03  0.10676920304E+04  0.90118111939E+03 0.  0.
         23    2    4    4    0    0  0.27588037559E+03 -0.14770878768E+03  0.42535683119E+03  0.53626459343E+03  0.93399211673E+02 0.  0.
         23    2    4    4    0    0  0.12657968944E+03  0.47399337186E+03 -0.18162926191E+03  0.53142743697E+03  0.93454789258E+02 0.  0.
          1    1    3    3  502    0 -0.32399960712E+03 -0.25839685384E+03  0.25451709030E+03  0.48633694980E+03  0.00000000000E+00 0. -1.
         -2    1    3    3    0  502 -0.78460457910E+02 -0.67887730342E+02  0.11559363979E+03  0.15532764386E+03  0.00000000000E+00 0.  1.
         11    1    5    5    0    0  0.58016701334E+02 -0.76651073625E+02  0.10468971668E+03  0.14213114191E+03  0.00000000000E+00 0. -1.
        -11    1    5    5    0    0  0.21786367425E+03 -0.71057714056E+02  0.32066711450E+03  0.39413345152E+03  0.00000000000E+00 0.  1.
          4    1    6    6  503    0  0.45287336398E+02  0.20572083697E+03 -0.12658490654E+03  0.24575545602E+03  0.00000000000E+00 0. -1.
         -4    1    6    6    0  503  0.81292353042E+02  0.26827253489E+03 -0.55044355371E+02  0.28567198095E+03  0.00000000000E+00 0.  1.
<mgrwt>
<rscale>  0 0.15953378E+04</rscale>
<asrwt>0</asrwt>
<pdfrwt beam="1">  1        1 0.17870730E+00 0.15953378E+04</pdfrwt>
<pdfrwt beam="2">  1       -2 0.84270641E-01 0.15953378E+04</pdfrwt>
<totfact> 0.11797294E+01</totfact>
</mgrwt>
</event>
<event>
12    4  0.4424320E-008  0.2169872E+04  0.7818608E-02  0.8531074E-01
          1   -1    0    0  501    0  0.00000000000E+00  0.00000000000E+00  0.66217831995E+03  0.66217831995E+03  0.00000000000E+00 0. -1.
         -2   -1    0    0    0  501 -0.00000000000E+00 -0.00000000000E+00 -0.17775976125E+04  0.17775976125E+04  0.00000000000E+00 0.  1.
        -24    2    1    2    0    0 -0.24865605054E+02 -0.82201729572E+03 -0.93218720134E+03  0.12457504973E+04  0.81182451787E+02 0.  0.
        254    2    1    2    0    0  0.24865605054E+02  0.82201729572E+03 -0.18323209126E+03  0.11940254352E+04  0.84604492067E+03 0.  0.
         23    2    4    4    0    0 -0.47160805803E+02  0.40693730501E+03  0.32300394244E+03  0.52913389862E+03  0.88481772297E+02 0.  0.
         23    2    4    4    0    0  0.72026410857E+02  0.41507999071E+03 -0.50623603370E+03  0.66489153655E+03  0.91250375411E+02 0.  0.
          3    1    3    3  502    0 -0.44205137265E+02 -0.23907629374E+03 -0.27395427748E+03  0.36628201503E+03  0.00000000000E+00 0. -1.
         -4    1    3    3    0  502  0.19339532210E+02 -0.58294100198E+03 -0.65823292386E+03  0.87946848229E+03  0.00000000000E+00 0.  1.
         11    1    5    5    0    0 -0.68007512240E+02  0.20464130696E+03  0.17184825789E+03  0.27574428367E+03  0.00000000000E+00 0. -1.
        -11    1    5    5    0    0  0.20846706438E+02  0.20229599804E+03  0.15115568455E+03  0.25338961495E+03  0.00000000000E+00 0.  1.
          3    1    6    6  503    0  0.61442338559E+02  0.12022791298E+03 -0.18029527114E+03  0.22524719049E+03  0.00000000000E+00 0. -1.
         -3    1    6    6    0  503  0.10584072298E+02  0.29485207773E+03 -0.32594076256E+03  0.43964434606E+03  0.00000000000E+00 0.  1.
<mgrwt>
<rscale>  0 0.21698724E+04</rscale>
<asrwt>0</asrwt>
<pdfrwt beam="1">  1        1 0.10187359E+00 0.21698724E+04</pdfrwt>
<pdfrwt beam="2">  1       -2 0.27347655E+00 0.21698724E+04</pdfrwt>
<totfact> 0.10951986E+00</totfact>
</mgrwt>
</event>
<event>
12    4  0.4424320E-008  0.1719576E+04  0.7818608E-02  0.8750278E-01
          1   -1    0    0  501    0  0.00000000000E+00  0.00000000000E+00  0.34091008485E+04  0.34091008485E+04  0.00000000000E+00 0. -1.
         -2   -1    0    0    0  501 -0.00000000000E+00 -0.00000000000E+00 -0.21684176043E+03  0.21684176043E+03  0.00000000000E+00 0.  1.
        -24    2    1    2    0    0 -0.46881374844E+03  0.21445037370E+03  0.18936704741E+04  0.19641048847E+04  0.77102790491E+02 0.  0.
        254    2    1    2    0    0  0.46881374844E+03 -0.21445037370E+03  0.12985886140E+04  0.16618377242E+04  0.89977604976E+03 0.  0.
         23    2    4    4    0    0  0.50024396696E+03  0.21249157966E+03  0.96700068690E+03  0.11129939537E+04  0.90931373068E+02 0.  0.
         23    2    4    4    0    0 -0.31430218517E+02 -0.42694195336E+03  0.33158792711E+03  0.54884377052E+03  0.89507769843E+02 0.  0.
          3    1    3    3  502    0 -0.36406711204E+03  0.12974063673E+03  0.13909695522E+04  0.14436667864E+04  0.00000000000E+00 0. -1.
         -4    1    3    3    0  502 -0.10474663640E+03  0.84709736973E+02  0.50270092187E+03  0.52043809836E+03  0.00000000000E+00 0.  1.
         11    1    5    5    0    0  0.29069242900E+02 -0.77418669924E+01  0.39921969524E+02  0.49987208743E+02  0.00000000000E+00 0.  1.
        -11    1    5    5    0    0  0.47117472406E+03  0.22023344665E+03  0.92707871738E+03  0.10630067450E+04  0.00000000000E+00 0. -1.
          2    1    6    6  503    0 -0.11889137244E+02 -0.28996976750E+03  0.17089066297E+03  0.33678989940E+03  0.00000000000E+00 0. -1.
         -2    1    6    6    0  503 -0.19541081272E+02 -0.13697218586E+03  0.16069726413E+03  0.21205387112E+03  0.00000000000E+00 0.  1.
<mgrwt>
<rscale>  0 0.17195760E+04</rscale>
<asrwt>0</asrwt>
<pdfrwt beam="1">  1        1 0.52447702E+00 0.17195760E+04</pdfrwt>
<pdfrwt beam="2">  1       -2 0.33360273E-01 0.17195760E+04</pdfrwt>
<totfact> 0.20764703E+00</totfact>
</mgrwt>
</event>
<event>
12    4  0.4424320E-008  0.1311457E+04  0.7818608E-02  0.9020529E-01
         -2   -1    0    0    0  501 -0.00000000000E+00  0.00000000000E+00  0.32771363214E+03  0.32771363214E+03  0.00000000000E+00 0.  1.
          1   -1    0    0  501    0  0.00000000000E+00 -0.00000000000E+00 -0.13120592207E+04  0.13120592207E+04  0.00000000000E+00 0. -1.
        -24    2    1    2    0    0  0.12360011420E+03  0.19901788446E+03  0.44535285823E+02  0.25155895751E+03  0.80083773985E+02 0.  0.
        254    2    1    2    0    0 -0.12360011420E+03 -0.19901788446E+03 -0.10288808744E+04  0.13882138953E+04  0.90202930049E+03 0.  0.
         23    2    4    4    0    0 -0.54422243988E+02 -0.50808933901E+03 -0.89055352335E+03  0.10309069854E+04  0.92558508794E+02 0.  0.
         23    2    4    4    0    0 -0.69177870211E+02  0.30907145455E+03 -0.13832735102E+03  0.35730690991E+03  0.90680924601E+02 0.  0.
          1    1    3    3  502    0  0.24577712126E+02  0.98089342713E+02 -0.62684671953E+01  0.10131572814E+03  0.00000000000E+00 0. -1.
         -2    1    3    3    0  502  0.99022402073E+02  0.10092854174E+03  0.50803753018E+02  0.15024322937E+03  0.00000000000E+00 0.  1.
         11    1    5    5    0    0 -0.56461463299E+02 -0.45285600111E+03 -0.84019475448E+03  0.95613476039E+03  0.00000000000E+00 0.  1.
        -11    1    5    5    0    0  0.20392193111E+01 -0.55233337901E+02 -0.50358768873E+02  0.74772225014E+02  0.00000000000E+00 0. -1.
          1    1    6    6  503    0 -0.15532097069E+02  0.48771428700E+00 -0.11763485372E+02  0.19490087036E+02  0.00000000000E+00 0. -1.
         -1    1    6    6    0  503 -0.53645773143E+02  0.30858374026E+03 -0.12656386565E+03  0.33781682288E+03  0.00000000000E+00 0.  1.
<mgrwt>
<rscale>  0 0.13114567E+04</rscale>
<asrwt>0</asrwt>
<pdfrwt beam="1">  1        1 0.20185526E+00 0.13114567E+04</pdfrwt>
<pdfrwt beam="2">  1       -2 0.50417483E-01 0.13114567E+04</pdfrwt>
<totfact> 0.28408441E+01</totfact>
</mgrwt>
</event>
<event>
12    4  0.4918455E-008  0.1793006E+04  0.7818608E-02  0.8710028E-01
          1   -1    0    0  501    0  0.00000000000E+00  0.00000000000E+00  0.65212399206E+03  0.65212399206E+03  0.00000000000E+00 0. -1.
         -2   -1    0    0    0  501 -0.00000000000E+00 -0.00000000000E+00 -0.12324607430E+04  0.12324607430E+04  0.00000000000E+00 0.  1.
        -24    2    1    2    0    0  0.55078726755E+03  0.38628408669E+03 -0.18602263939E+03  0.70252765028E+03  0.79741252305E+02 0.  0.
        254    2    1    2    0    0 -0.55078726755E+03 -0.38628408669E+03 -0.39431411157E+03  0.11820570848E+04  0.88836553481E+03 0.  0.
         23    2    4    4    0    0 -0.14410899731E+03 -0.31084156131E+03  0.23398317264E+03  0.42448027802E+03  0.89696722377E+02 0.  0.
         23    2    4    4    0    0 -0.40667827024E+03 -0.75442525374E+02 -0.62829728421E+03  0.75757680679E+03  0.89924138669E+02 0.  0.
          3    1    3    3  502    0  0.58275200791E+02  0.47180754123E+02 -0.47403646977E+02  0.88708107485E+02  0.00000000000E+00 0. -1.
         -4    1    3    3    0  502  0.49251206676E+03  0.33910333257E+03 -0.13861899241E+03  0.61381954280E+03  0.00000000000E+00 0.  1.
         11    1    5    5    0    0 -0.13655570085E+03 -0.31006451421E+03  0.23966033277E+03  0.41499944278E+03  0.00000000000E+00 0. -1.
        -11    1    5    5    0    0 -0.75532964625E+01 -0.77704710592E+00 -0.56771601333E+01  0.94808352393E+01  0.00000000000E+00 0.  1.
          3    1    6    6  503    0 -0.38078797339E+03 -0.63171376461E+02 -0.61475048278E+03  0.72588446709E+03  0.00000000000E+00 0. -1.
         -3    1    6    6    0  503 -0.25890296852E+02 -0.12271148913E+02 -0.13546801435E+02  0.31692339703E+02  0.00000000000E+00 0.  1.
<mgrwt>
<rscale>  0 0.17930055E+04</rscale>
<asrwt>0</asrwt>
<pdfrwt beam="1">  1        1 0.10032677E+00 0.17930055E+04</pdfrwt>
<pdfrwt beam="2">  1       -2 0.18960934E+00 0.17930055E+04</pdfrwt>
<totfact> 0.39043416E+00</totfact>
</mgrwt>
</event>
<event>
12    4  0.4424320E-008  0.1639965E+04  0.7818608E-02  0.8796365E-01
         -2   -1    0    0    0  501 -0.00000000000E+00  0.00000000000E+00  0.35075846298E+03  0.35075846298E+03  0.00000000000E+00 0.  1.
          1   -1    0    0  501    0  0.00000000000E+00 -0.00000000000E+00 -0.19169078706E+04  0.19169078706E+04  0.00000000000E+00 0. -1.
        -24    2    1    2    0    0  0.17844666992E+03 -0.15557821459E+03  0.16285309216E+03  0.29856866776E+03  0.81082210653E+02 0.  0.
        254    2    1    2    0    0 -0.17844666992E+03  0.15557821459E+03 -0.17290024997E+04  0.19690976658E+04  0.91205711355E+03 0.  0.
         23    2    4    4    0    0 -0.44397185797E+03 -0.33998767236E+02 -0.14799041599E+04  0.15485505694E+04  0.98110227804E+02 0.  0.
         23    2    4    4    0    0  0.26552518806E+03  0.18957698183E+03 -0.24909833987E+03  0.42054709635E+03  0.91470321929E+02 0.  0.
          1    1    3    3  502    0  0.11840295926E+03 -0.13460921252E+03  0.86064000254E+02  0.19886154228E+03  0.00000000000E+00 0. -1.
         -2    1    3    3    0  502  0.60043710652E+02 -0.20969002072E+02  0.76789091908E+02  0.99707125486E+02  0.00000000000E+00 0.  1.
         11    1    5    5    0    0 -0.30555851728E+03 -0.39743908940E+02 -0.11539082804E+04  0.11943407828E+04  0.00000000000E+00 0. -1.
        -11    1    5    5    0    0 -0.13841334069E+03  0.57451417040E+01 -0.32599587945E+03  0.35420978665E+03  0.00000000000E+00 0.  1.
          4    1    6    6  503    0  0.26114649445E+03  0.19754351550E+03 -0.23240256988E+03  0.40153690561E+03  0.00000000000E+00 0. -1.
         -4    1    6    6    0  503  0.43786936117E+01 -0.79665336773E+01 -0.16695769991E+02  0.19010190745E+02  0.00000000000E+00 0.  1.
<mgrwt>
<rscale>  0 0.16399654E+04</rscale>
<asrwt>0</asrwt>
<pdfrwt beam="1">  1        1 0.29490890E+00 0.16399654E+04</pdfrwt>
<pdfrwt beam="2">  1       -2 0.53962841E-01 0.16399654E+04</pdfrwt>
<totfact> 0.92169649E+00</totfact>
</mgrwt>
</event>
<event>
12    4  0.4424320E-008  0.1651584E+04  0.7818608E-02  0.8789470E-01
          1   -1    0    0  501    0  0.00000000000E+00  0.00000000000E+00  0.22095313603E+04  0.22095313603E+04  0.00000000000E+00 0. -1.
         -2   -1    0    0    0  501 -0.00000000000E+00 -0.00000000000E+00 -0.30863228688E+03  0.30863228688E+03  0.00000000000E+00 0.  1.
        -24    2    1    2    0    0  0.14579674197E+03 -0.47655716509E+03  0.23611911361E+03  0.55753714423E+03  0.82048825825E+02 0.  0.
        254    2    1    2    0    0 -0.14579674197E+03  0.47655716509E+03  0.16647799599E+04  0.19606265030E+04  0.90785491570E+03 0.  0.
         23    2    4    4    0    0 -0.32099612117E+03  0.36714950235E+03  0.30555997849E+03  0.58285889630E+03  0.92305610100E+02 0.  0.
         23    2    4    4    0    0  0.17519937921E+03  0.10940766274E+03  0.13592199814E+04  0.13777676067E+04  0.89998673197E+02 0.  0.
          1    1    3    3  502    0  0.47929798962E+01 -0.66001074509E+01  0.19606469079E+02  0.21235529294E+02  0.00000000000E+00 0. -1.
         -2    1    3    3    0  502  0.14100376207E+03 -0.46995705764E+03  0.21651264453E+03  0.53630161494E+03  0.00000000000E+00 0.  1.
         11    1    5    5    0    0 -0.24558251643E+03  0.23730546334E+03  0.24798279104E+03  0.42204279399E+03  0.00000000000E+00 0. -1.
        -11    1    5    5    0    0 -0.75413604741E+02  0.12984403901E+03  0.57577187449E+02  0.16081610231E+03  0.00000000000E+00 0.  1.
          2    1    6    6  503    0  0.11126663660E+03  0.18786245073E+02  0.60436610927E+03  0.61481019954E+03  0.00000000000E+00 0. -1.
         -2    1    6    6    0  503  0.63932742609E+02  0.90621417665E+02  0.75485387211E+03  0.76295740717E+03  0.00000000000E+00 0.  1.
<mgrwt>
<rscale>  0 0.16515844E+04</rscale>
<asrwt>0</asrwt>
<pdfrwt beam="1">  1        1 0.33992789E+00 0.16515844E+04</pdfrwt>
<pdfrwt beam="2">  1       -2 0.47481892E-01 0.16515844E+04</pdfrwt>
<totfact> 0.75744828E+00</totfact>
</mgrwt>
</event>
<event>
12    4  0.4424320E-008  0.1916344E+04  0.7818608E-02  0.8646764E-01
          1   -1    0    0  501    0  0.00000000000E+00  0.00000000000E+00  0.12852077108E+04  0.12852077108E+04  0.00000000000E+00 0. -1.
         -2   -1    0    0    0  501 -0.00000000000E+00 -0.00000000000E+00 -0.71435411858E+03  0.71435411858E+03  0.00000000000E+00 0.  1.
        -24    2    1    2    0    0 -0.56777658672E+03  0.45153101783E+03  0.79208514896E+02  0.73410887107E+03  0.79945814546E+02 0.  0.
        254    2    1    2    0    0  0.56777658672E+03 -0.45153101783E+03  0.49164507737E+03  0.12654529584E+04  0.91291061733E+03 0.  0.
         23    2    4    4    0    0  0.15332177601E+03  0.25578239473E+03  0.26781607364E+03  0.41086492634E+03  0.90290298141E+02 0.  0.
         23    2    4    4    0    0  0.41445481070E+03 -0.70731341256E+03  0.22382900373E+03  0.85458803202E+03  0.90311836771E+02 0.  0.
          1    1    3    3  502    0 -0.37137372218E+03  0.32675447655E+03  0.25566155453E+02  0.49531864267E+03  0.00000000000E+00 0. -1.
         -2    1    3    3    0  502 -0.19640286454E+03  0.12477654128E+03  0.53642359443E+02  0.23879022840E+03  0.00000000000E+00 0.  1.
         11    1    5    5    0    0  0.12625827420E+03  0.20057489346E+03  0.25486052317E+03  0.34803063940E+03  0.00000000000E+00 0.  1.
        -11    1    5    5    0    0  0.27063501816E+02  0.55207501271E+02  0.12955550475E+02  0.62834286940E+02  0.00000000000E+00 0. -1.
          3    1    6    6  503    0  0.41757559965E+03 -0.68780784349E+03  0.21449842435E+03  0.83274160760E+03  0.00000000000E+00 0.  1.
         -3    1    6    6    0  503 -0.31207889406E+01 -0.19505569073E+02  0.93305793721E+01  0.21846424419E+02  0.00000000000E+00 0. -1.
<mgrwt>
<rscale>  0 0.19163438E+04</rscale>
<asrwt>0</asrwt>
<pdfrwt beam="1">  1        1 0.19772426E+00 0.19163438E+04</pdfrwt>
<pdfrwt beam="2">  1       -2 0.10990063E+00 0.19163438E+04</pdfrwt>
<totfact> 0.50031328E+00</totfact>
</mgrwt>
</event>
<event>
12    4  0.4424320E-008  0.2300963E+04  0.7818608E-02  0.8477542E-01
         -2   -1    0    0    0  501 -0.00000000000E+00  0.00000000000E+00  0.93100432738E+03  0.93100432738E+03  0.00000000000E+00 0.  1.
          1   -1    0    0  501    0  0.00000000000E+00 -0.00000000000E+00 -0.14216985215E+04  0.14216985215E+04  0.00000000000E+00 0. -1.
        -24    2    1    2    0    0  0.33757691648E+03  0.65794035540E+03 -0.85105579699E+03  0.11300556568E+04  0.76721132238E+02 0.  0.
        254    2    1    2    0    0 -0.33757691648E+03 -0.65794035540E+03  0.36036160287E+03  0.12226471921E+04  0.90452307081E+03 0.  0.
         23    2    4    4    0    0 -0.83583967033E+02 -0.82794287013E+03  0.17891653307E+03  0.85601120196E+03  0.90930612703E+02 0.  0.
         23    2    4    4    0    0 -0.25399294945E+03  0.17000251474E+03  0.18144506980E+03  0.36663599010E+03  0.89924204157E+02 0.  0.
          3    1    3    3  502    0  0.18138560152E+03  0.31588669493E+03 -0.36669645076E+03  0.51686693400E+03  0.00000000000E+00 0. -1.
         -4    1    3    3    0  502  0.15619131497E+03  0.34205366047E+03 -0.48435934624E+03  0.61318872282E+03  0.00000000000E+00 0.  1.
         11    1    5    5    0    0 -0.38628313085E+02 -0.15972922652E+03  0.64729311564E+02  0.17662235462E+03  0.00000000000E+00 0.  1.
        -11    1    5    5    0    0 -0.44955653948E+02 -0.66821364362E+03  0.11418722151E+03  0.67938884734E+03  0.00000000000E+00 0. -1.
          3    1    6    6  503    0 -0.14412291347E+03  0.53226641599E+02  0.57758849587E+02  0.16413584091E+03  0.00000000000E+00 0. -1.
         -3    1    6    6    0  503 -0.10987003598E+03  0.11677587314E+03  0.12368622021E+03  0.20250014919E+03  0.00000000000E+00 0.  1.
<mgrwt>
<rscale>  0 0.23009628E+04</rscale>
<asrwt>0</asrwt>
<pdfrwt beam="1">  1        1 0.21872285E+00 0.23009628E+04</pdfrwt>
<pdfrwt beam="2">  1       -2 0.14323143E+00 0.23009628E+04</pdfrwt>
<totfact> 0.19916477E+00</totfact>
</mgrwt>
</event>
<event>
12    4  0.4424320E-008  0.3786558E+04  0.7818608E-02  0.8049046E-01
         -2   -1    0    0    0  501 -0.00000000000E+00  0.00000000000E+00  0.13146747962E+04  0.13146747962E+04  0.00000000000E+00 0.  1.
          1   -1    0    0  501    0  0.00000000000E+00 -0.00000000000E+00 -0.27265342428E+04  0.27265342428E+04  0.00000000000E+00 0. -1.
        -24    2    1    2    0    0  0.10393575593E+04 -0.14494643184E+04 -0.73085414256E+03  0.19291925044E+04  0.80156066078E+02 0.  0.
        254    2    1    2    0    0 -0.10393575593E+04  0.14494643184E+04 -0.68100530404E+03  0.21120165346E+04  0.90312494806E+03 0.  0.
         23    2    4    4    0    0 -0.79605006058E+03  0.61358169059E+03 -0.71347534286E+03  0.12359488610E+04  0.91347316071E+02 0.  0.
         23    2    4    4    0    0 -0.24330749872E+03  0.83588262781E+03  0.32470038817E+02  0.87606767358E+03  0.92422718325E+02 0.  0.
          3    1    3    3  502    0  0.26826722826E+03 -0.35315353977E+03 -0.21706855502E+03  0.49376460585E+03  0.00000000000E+00 0. -1.
         -2    1    3    3    0  502  0.77109033104E+03 -0.10963107786E+04 -0.51378558754E+03  0.14354278985E+04  0.00000000000E+00 0.  1.
         11    1    5    5    0    0 -0.72250377092E+03  0.52893919911E+03 -0.65550896989E+03  0.11097208590E+04  0.00000000000E+00 0.  1.
        -11    1    5    5    0    0 -0.73546289661E+02  0.84642491478E+02 -0.57966372973E+02  0.12622800197E+03  0.00000000000E+00 0. -1.
          1    1    6    6  503    0 -0.15525425711E+03  0.37156162240E+03  0.61843109918E+01  0.40274082148E+03  0.00000000000E+00 0. -1.
         -1    1    6    6    0  503 -0.88053241611E+02  0.46432100541E+03  0.26285727825E+02  0.47332685209E+03  0.00000000000E+00 0.  1.
<mgrwt>
<rscale>  0 0.37865583E+04</rscale>
<asrwt>0</asrwt>
<pdfrwt beam="1">  1        1 0.41946681E+00 0.37865583E+04</pdfrwt>
<pdfrwt beam="2">  1       -2 0.20225766E+00 0.37865583E+04</pdfrwt>
<totfact> 0.84690788E-02</totfact>
</mgrwt>
</event>
<event>
12    4  0.4424320E-008  0.4375644E+04  0.7818608E-02  0.7932777E-01
          1   -1    0    0  501    0  0.00000000000E+00  0.00000000000E+00  0.32960281017E+04  0.32960281017E+04  0.00000000000E+00 0. -1.
         -2   -1    0    0    0  501 -0.00000000000E+00 -0.00000000000E+00 -0.14522223637E+04  0.14522223637E+04  0.00000000000E+00 0.  1.
        -24    2    1    2    0    0 -0.58509616476E+03 -0.41866454343E+03 -0.12511049602E+04  0.14451459583E+04  0.74603602682E+02 0.  0.
        254    2    1    2    0    0  0.58509616476E+03  0.41866454343E+03  0.30949106982E+04  0.33031045070E+04  0.90244647053E+03 0.  0.
         23    2    4    4    0    0  0.44150226455E+03  0.59881265155E+03  0.28791906468E+04  0.29751773577E+04  0.91873215594E+02 0.  0.
         23    2    4    4    0    0  0.14359390020E+03 -0.18014810812E+03  0.21572005145E+03  0.32792714934E+03  0.89042268853E+02 0.  0.
          3    1    3    3  502    0 -0.37657596671E+02 -0.10403299838E+02 -0.49756614817E+02  0.63261710004E+02  0.00000000000E+00 0. -1.
         -4    1    3    3    0  502 -0.54743856808E+03 -0.40826124359E+03 -0.12013483454E+04  0.13818842483E+04  0.00000000000E+00 0.  1.
         11    1    5    5    0    0  0.43760051304E+03  0.58297280520E+03  0.27503411265E+04  0.28452992483E+04  0.00000000000E+00 0. -1.
        -11    1    5    5    0    0  0.39017515180E+01  0.15839846346E+02  0.12884952030E+03  0.12987810931E+03  0.00000000000E+00 0.  1.
          3    1    6    6  503    0  0.93732745410E+02 -0.15752807370E+03  0.19926999326E+03  0.27075718232E+03  0.00000000000E+00 0. -1.
         -3    1    6    6    0  503  0.49861154792E+02 -0.22620034417E+02  0.16450058192E+02  0.57169967017E+02  0.00000000000E+00 0.  1.
<mgrwt>
<rscale>  0 0.43756443E+04</rscale>
<asrwt>0</asrwt>
<pdfrwt beam="1">  1        1 0.50708125E+00 0.43756443E+04</pdfrwt>
<pdfrwt beam="2">  1       -2 0.22341883E+00 0.43756443E+04</pdfrwt>
<totfact> 0.22588817E-02</totfact>
</mgrwt>
</event>
<event>
12    4  0.4424320E-008  0.1034292E+04  0.7818608E-02  0.9271714E-01
          1   -1    0    0  501    0  0.00000000000E+00  0.00000000000E+00  0.15466926493E+03  0.15466926493E+03  0.00000000000E+00 0. -1.
         -2   -1    0    0    0  501 -0.00000000000E+00 -0.00000000000E+00 -0.17291085649E+04  0.17291085649E+04  0.00000000000E+00 0.  1.
        -24    2    1    2    0    0 -0.77039355963E+02  0.26162723870E+02 -0.14606573920E+03  0.19339041560E+03  0.97185915593E+02 0.  0.
        254    2    1    2    0    0  0.77039355963E+02 -0.26162723870E+02 -0.14283735607E+04  0.16903874142E+04  0.90029941164E+03 0.  0.
         23    2    4    4    0    0  0.34432746436E+03 -0.31243989445E+03 -0.97672228390E+03  0.10856418831E+04  0.91933606558E+02 0.  0.
         23    2    4    4    0    0 -0.26728810839E+03  0.28627717058E+03 -0.45165127683E+03  0.60474553115E+03  0.91272834390E+02 0.  0.
          3    1    3    3  502    0 -0.54780801107E+02  0.30595800909E+02 -0.20827322044E+02  0.66112151279E+02  0.00000000000E+00 0. -1.
         -4    1    3    3    0  502 -0.22258554856E+02 -0.44330770393E+01 -0.12523841716E+03  0.12727826432E+03  0.00000000000E+00 0.  1.
         11    1    5    5    0    0  0.61193780102E+01 -0.79104319602E+01 -0.74141866586E+02  0.74813355104E+02  0.00000000000E+00 0.  1.
        -11    1    5    5    0    0  0.33820808635E+03 -0.30452946249E+03 -0.90258041732E+03  0.10108285280E+04  0.00000000000E+00 0. -1.
          4    1    6    6  503    0 -0.98040052969E+02  0.86636498620E+02 -0.21615002153E+03  0.25266295076E+03  0.00000000000E+00 0. -1.
         -4    1    6    6    0  503 -0.16924805543E+03  0.19964067196E+03 -0.23550125531E+03  0.35208258039E+03  0.00000000000E+00 0.  1.
<mgrwt>
<rscale>  0 0.10342919E+04</rscale>
<asrwt>0</asrwt>
<pdfrwt beam="1">  1        1 0.23795272E-01 0.10342919E+04</pdfrwt>
<pdfrwt beam="2">  1       -2 0.26601670E+00 0.10342919E+04</pdfrwt>
<totfact> 0.93826700E+00</totfact>
</mgrwt>
</event>
<event>
12    4  0.4424320E-008  0.1300058E+04  0.7818608E-02  0.9029519E-01
          1   -1    0    0  501    0  0.00000000000E+00  0.00000000000E+00  0.55830282358E+03  0.55830282358E+03  0.00000000000E+00 0. -1.
         -4   -1    0    0    0  501 -0.00000000000E+00 -0.00000000000E+00 -0.75682554077E+03  0.75682554077E+03  0.00000000000E+00 0.  1.
        -24    2    1    2    0    0 -0.21367491361E+03 -0.22412260280E+03 -0.15181194468E+03  0.35382307082E+03  0.79094810886E+02 0.  0.
        254    2    1    2    0    0  0.21367491361E+03  0.22412260280E+03 -0.46710772518E+02  0.96130529352E+03  0.90886636052E+03 0.  0.
         23    2    4    4    0    0  0.41957482656E+03  0.46300318991E+03 -0.16193000100E+02  0.63149617758E+03  0.90056760428E+02 0.  0.
         23    2    4    4    0    0 -0.20589991295E+03 -0.23888058711E+03 -0.30517772418E+02  0.32980911594E+03  0.91564236856E+02 0.  0.
          1    1    3    3  502    0 -0.57170801112E+02 -0.32902311510E+02 -0.44379630187E+01  0.66111709388E+02  0.00000000000E+00 0. -1.
         -2    1    3    3    0  502 -0.15650411250E+03 -0.19122029129E+03 -0.14737398166E+03  0.28771136144E+03  0.00000000000E+00 0.  1.
         11    1    5    5    0    0  0.27840164725E+03  0.32062026305E+03 -0.52075354730E+02  0.42780447969E+03  0.00000000000E+00 0. -1.
        -11    1    5    5    0    0  0.14117317931E+03  0.14238292686E+03  0.35882354630E+02  0.20369169789E+03  0.00000000000E+00 0.  1.
          2    1    6    6  503    0 -0.54313016994E+02 -0.12339288008E+03  0.92577674965E+01  0.13513479540E+03  0.00000000000E+00 0. -1.
         -2    1    6    6    0  503 -0.15158689595E+03 -0.11548770704E+03 -0.39775539915E+02  0.19467432054E+03  0.00000000000E+00 0.  1.
<mgrwt>
<rscale>  0 0.13000582E+04</rscale>
<asrwt>0</asrwt>
<pdfrwt beam="1">  1        1 0.85892742E-01 0.13000582E+04</pdfrwt>
<pdfrwt beam="2">  1       -4 0.11643470E+00 0.13000582E+04</pdfrwt>
<totfact> 0.10233629E+01</totfact>
</mgrwt>
</event>
<event>
12    4  0.4424320E-008  0.1278262E+04  0.7818608E-02  0.9046983E-01
          1   -1    0    0  501    0  0.00000000000E+00  0.00000000000E+00  0.14638649746E+04  0.14638649746E+04  0.00000000000E+00 0. -1.
         -2   -1    0    0    0  501 -0.00000000000E+00 -0.00000000000E+00 -0.27904798340E+03  0.27904798340E+03  0.00000000000E+00 0.  1.
        -24    2    1    2    0    0  0.20705944324E+03  0.23564158871E+03  0.34749581560E+03  0.47507806830E+03  0.80902767295E+02 0.  0.
        254    2    1    2    0    0 -0.20705944324E+03 -0.23564158871E+03  0.83732117560E+03  0.12678348897E+04  0.89883145531E+03 0.  0.
         23    2    4    4    0    0 -0.24220238017E+03 -0.48948390861E+03  0.82755632045E+03  0.99480459133E+03  0.80809786937E+02 0.  0.
         23    2    4    4    0    0  0.35142936932E+02  0.25384231990E+03  0.97648551541E+01  0.27303029837E+03  0.93697609586E+02 0.  0.
          3    1    3    3  502    0  0.73344049717E+02  0.56452445736E+02  0.57729956145E+02  0.10908242798E+03  0.00000000000E+00 0. -1.
         -4    1    3    3    0  502  0.13371539353E+03  0.17918914298E+03  0.28976585946E+03  0.36599564032E+03  0.00000000000E+00 0.  1.
         11    1    5    5    0    0 -0.23777698432E+03 -0.44600888012E+03  0.78611670233E+03  0.93458080715E+03  0.00000000000E+00 0. -1.
        -11    1    5    5    0    0 -0.44253958585E+01 -0.43475028491E+02  0.41439618120E+02  0.60223784178E+02  0.00000000000E+00 0.  1.
          4    1    6    6  503    0 -0.26158813214E+02  0.25939516560E+02  0.41349840849E+00  0.36841729181E+02  0.00000000000E+00 0.  1.
         -4    1    6    6    0  503  0.61301750146E+02  0.22790280334E+03  0.93513567456E+01  0.23618856919E+03  0.00000000000E+00 0. -1.
<mgrwt>
<rscale>  0 0.12782622E+04</rscale>
<asrwt>0</asrwt>
<pdfrwt beam="1">  1        1 0.22520999E+00 0.12782622E+04</pdfrwt>
<pdfrwt beam="2">  1       -2 0.42930460E-01 0.12782622E+04</pdfrwt>
<totfact> 0.30784855E+01</totfact>
</mgrwt>
</event>
<event>
12    4  0.4424320E-008  0.1017423E+04  0.7818608E-02  0.9289640E-01
          1   -1    0    0  501    0  0.00000000000E+00  0.00000000000E+00  0.87438671516E+03  0.87438671516E+03  0.00000000000E+00 0. -1.
         -2   -1    0    0    0  501 -0.00000000000E+00 -0.00000000000E+00 -0.29596426897E+03  0.29596426897E+03  0.00000000000E+00 0.  1.
        -24    2    1    2    0    0  0.69010554421E+02  0.38158312141E+02  0.77326915403E+02  0.13623075947E+03  0.79754965823E+02 0.  0.
        254    2    1    2    0    0 -0.69010554421E+02 -0.38158312141E+02  0.50109553079E+03  0.10341202247E+04  0.90116002723E+03 0.  0.
         23    2    4    4    0    0 -0.19870541564E+03 -0.17822498985E+03 -0.17098134899E+03  0.32953971635E+03  0.90076710293E+02 0.  0.
         23    2    4    4    0    0  0.12969486122E+03  0.14006667771E+03  0.67207687978E+03  0.70458050831E+03  0.91142356361E+02 0.  0.
          1    1    3    3  502    0  0.10382480155E+02 -0.19035887732E+02  0.41519787200E+02  0.46840726350E+02  0.00000000000E+00 0. -1.
         -2    1    3    3    0  502  0.58628074266E+02  0.57194199873E+02  0.35807128204E+02  0.89390033122E+02  0.00000000000E+00 0.  1.
         11    1    5    5    0    0 -0.13210282200E+03 -0.15301328551E+03 -0.15930132751E+03  0.25737353024E+03  0.00000000000E+00 0. -1.
        -11    1    5    5    0    0 -0.66602593645E+02 -0.25211704341E+02 -0.11680021482E+02  0.72166186111E+02  0.00000000000E+00 0.  1.
          1    1    6    6  503    0  0.45443703544E+01  0.54849788148E+02  0.25498911932E+03  0.26086126875E+03  0.00000000000E+00 0. -1.
         -1    1    6    6    0  503  0.12515049087E+03  0.85216889558E+02  0.41708776047E+03  0.44371923957E+03  0.00000000000E+00 0.  1.
<mgrwt>
<rscale>  0 0.10174227E+04</rscale>
<asrwt>0</asrwt>
<pdfrwt beam="1">  1        1 0.13452103E+00 0.10174227E+04</pdfrwt>
<pdfrwt beam="2">  1       -2 0.45532965E-01 0.10174227E+04</pdfrwt>
<totfact> 0.76694899E+01</totfact>
</mgrwt>
</event>
<event>
12    4  0.4424320E-008  0.1584482E+04  0.7818608E-02  0.8830139E-01
         -2   -1    0    0    0  501 -0.00000000000E+00  0.00000000000E+00  0.40595485539E+03  0.40595485539E+03  0.00000000000E+00 0.  1.
          1   -1    0    0  501    0  0.00000000000E+00 -0.00000000000E+00 -0.15460972077E+04  0.15460972077E+04  0.00000000000E+00 0. -1.
        -24    2    1    2    0    0 -0.42584683730E+03  0.31879590757E+03 -0.45380688634E+03  0.70379492579E+03  0.80064024146E+02 0.  0.
        254    2    1    2    0    0  0.42584683730E+03 -0.31879590757E+03 -0.68633546599E+03  0.12482571373E+04  0.89672356357E+03 0.  0.
         23    2    4    4    0    0 -0.17650346464E+03 -0.26359106891E+03 -0.51842565261E+03  0.61455713480E+03  0.91003241796E+02 0.  0.
         23    2    4    4    0    0  0.60235030194E+03 -0.55204838661E+02 -0.16790981338E+03  0.63370000251E+03  0.86651758753E+02 0.  0.
          3    1    3    3  502    0 -0.19636127502E+03  0.19091221782E+03 -0.25662993383E+03  0.37531872879E+03  0.00000000000E+00 0. -1.
         -4    1    3    3    0  502 -0.22948556228E+03  0.12788368974E+03 -0.19717695251E+03  0.32847619701E+03  0.00000000000E+00 0.  1.
         11    1    5    5    0    0 -0.11056218894E+03 -0.84654813431E+02 -0.22522953545E+03  0.26479950660E+03  0.00000000000E+00 0. -1.
        -11    1    5    5    0    0 -0.65941275699E+02 -0.17893625548E+03 -0.29319611716E+03  0.34975762820E+03  0.00000000000E+00 0.  1.
          3    1    6    6  503    0  0.12595415030E+03 -0.38793306088E+02 -0.12767439753E+02  0.13240987913E+03  0.00000000000E+00 0. -1.
         -3    1    6    6    0  503  0.47639615164E+03 -0.16411532572E+02 -0.15514237363E+03  0.50129012338E+03  0.00000000000E+00 0.  1.
<mgrwt>
<rscale>  0 0.15844818E+04</rscale>
<asrwt>0</asrwt>
<pdfrwt beam="1">  1        1 0.23786111E+00 0.15844818E+04</pdfrwt>
<pdfrwt beam="2">  1       -2 0.62454593E-01 0.15844818E+04</pdfrwt>
<totfact> 0.12187654E+01</totfact>
</mgrwt>
</event>
<event>
12    4  0.4424320E-008  0.1511756E+04  0.7818608E-02  0.8876672E-01
          1   -1    0    0  501    0  0.00000000000E+00  0.00000000000E+00  0.24210593341E+04  0.24210593341E+04  0.00000000000E+00 0. -1.
         -2   -1    0    0    0  501 -0.00000000000E+00 -0.00000000000E+00 -0.23599252441E+03  0.23599252441E+03  0.00000000000E+00 0.  1.
        -24    2    1    2    0    0 -0.48731341317E+03  0.52155617200E+02  0.70091957192E+03  0.85782471350E+03  0.66184754583E+02 0.  0.
        254    2    1    2    0    0  0.48731341317E+03 -0.52155617200E+02  0.14841472378E+04  0.17992271450E+04  0.89125233516E+03 0.  0.
         23    2    4    4    0    0  0.55946477600E+02 -0.42470422582E+03  0.68973878434E+03  0.81727601807E+03  0.93256695754E+02 0.  0.
         23    2    4    4    0    0  0.43136693557E+03  0.37254860862E+03  0.79440845346E+03  0.98195112698E+03  0.90957825127E+02 0.  0.
          1    1    3    3  502    0 -0.44519786425E+03  0.65705400166E+02  0.64614816985E+03  0.78741716729E+03  0.00000000000E+00 0. -1.
         -4    1    3    3    0  502 -0.42115548915E+02 -0.13549782966E+02  0.54771402068E+02  0.70407546210E+02  0.00000000000E+00 0.  1.
         11    1    5    5    0    0 -0.14444309198E+02 -0.12685298591E+03  0.26042913703E+03  0.29004077906E+03  0.00000000000E+00 0.  1.
        -11    1    5    5    0    0  0.70390786798E+02 -0.29785123990E+03  0.42930964730E+03  0.52723523900E+03  0.00000000000E+00 0. -1.
          4    1    6    6  503    0  0.38430394774E+03  0.33941072416E+03  0.75323532624E+03  0.91118199094E+03  0.00000000000E+00 0. -1.
         -4    1    6    6    0  503  0.47062987829E+02  0.33137884460E+02  0.41173127228E+02  0.70769136038E+02  0.00000000000E+00 0.  1.
<mgrwt>
<rscale>  0 0.15117565E+04</rscale>
<asrwt>0</asrwt>
<pdfrwt beam="1">  1        1 0.37247065E+00 0.15117565E+04</pdfrwt>
<pdfrwt beam="2">  1       -2 0.36306544E-01 0.15117565E+04</pdfrwt>
<totfact> 0.93288303E+00</totfact>
</mgrwt>
</event>
<event>
12    4  0.4424320E-008  0.1780881E+04  0.7818608E-02  0.8716533E-01
          1   -1    0    0  501    0  0.00000000000E+00  0.00000000000E+00  0.15800409203E+04  0.15800409203E+04  0.00000000000E+00 0. -1.
         -2   -1    0    0    0  501 -0.00000000000E+00 -0.00000000000E+00 -0.50181264678E+03  0.50181264678E+03  0.00000000000E+00 0.  1.
        -24    2    1    2    0    0 -0.39438309055E+03 -0.27082444828E+02 -0.21421080751E+03  0.45765085176E+03  0.85361297618E+02 0.  0.
        254    2    1    2    0    0  0.39438309055E+03  0.27082444828E+02  0.12924390810E+04  0.16242027153E+04  0.90075757079E+03 0.  0.
         23    2    4    4    0    0 -0.27871251622E+02 -0.37778395597E+03  0.56404266651E+03  0.68547782997E+03  0.90764539779E+02 0.  0.
         23    2    4    4    0    0  0.42225434217E+03  0.40486640080E+03  0.72839641452E+03  0.93872488534E+03  0.91801643210E+02 0.  0.
          3    1    3    3  502    0 -0.19357065825E+03 -0.54979367346E+02 -0.95852131891E+02  0.22289002166E+03  0.00000000000E+00 0. -1.
         -4    1    3    3    0  502 -0.20081243230E+03  0.27896922518E+02 -0.11835867562E+03  0.23476083009E+03  0.00000000000E+00 0.  1.
         11    1    5    5    0    0  0.12132781948E+02 -0.13141239674E+03  0.13287154291E+03  0.18727324776E+03  0.00000000000E+00 0. -1.
        -11    1    5    5    0    0 -0.40004033571E+02 -0.24637155923E+03  0.43117112360E+03  0.49820458221E+03  0.00000000000E+00 0.  1.
          2    1    6    6  503    0  0.15126352677E+03  0.87264998826E+02  0.21835961651E+03  0.27960106701E+03  0.00000000000E+00 0. -1.
         -2    1    6    6    0  503  0.27099081540E+03  0.31760140197E+03  0.51003679801E+03  0.65912381833E+03  0.00000000000E+00 0.  1.
<mgrwt>
<rscale>  0 0.17808813E+04</rscale>
<asrwt>0</asrwt>
<pdfrwt beam="1">  1        1 0.24308322E+00 0.17808813E+04</pdfrwt>
<pdfrwt beam="2">  1       -2 0.77201946E-01 0.17808813E+04</pdfrwt>
<totfact> 0.71525573E+00</totfact>
</mgrwt>
</event>
<event>
12    4  0.4424320E-008  0.2233671E+04  0.7818608E-02  0.8504543E-01
         -2   -1    0    0    0  501 -0.00000000000E+00  0.00000000000E+00  0.19446433404E+04  0.19446433404E+04  0.00000000000E+00 0.  1.
          1   -1    0    0  501    0  0.00000000000E+00 -0.00000000000E+00 -0.64141428050E+03  0.64141428050E+03  0.00000000000E+00 0. -1.
        -24    2    1    2    0    0 -0.38746810836E+03  0.70929258561E+03  0.11005812556E+04  0.13678680380E+04  0.80971365562E+02 0.  0.
        254    2    1    2    0    0  0.38746810836E+03 -0.70929258561E+03  0.20264780428E+03  0.12181895829E+04  0.88864628532E+03 0.  0.
         23    2    4    4    0    0  0.18010962994E+03 -0.62581332719E+03 -0.25117345615E+03  0.70395948764E+03  0.91591789385E+02 0.  0.
         23    2    4    4    0    0  0.20735847841E+03 -0.83479258420E+02  0.45382126043E+03  0.51423009530E+03  0.92263369452E+02 0.  0.
          1    1    3    3  502    0 -0.15767382361E+03  0.22806443456E+03  0.33487692151E+03  0.43476082335E+03  0.00000000000E+00 0. -1.
         -2    1    3    3    0  502 -0.22979428475E+03  0.48122815104E+03  0.76570433413E+03  0.93310721462E+03  0.00000000000E+00 0.  1.
         11    1    5    5    0    0 -0.46845138309E+01 -0.33993842052E+02 -0.30343595263E+02  0.45806765230E+02  0.00000000000E+00 0.  1.
        -11    1    5    5    0    0  0.18479414378E+03 -0.59181948513E+03 -0.22082986088E+03  0.65815272241E+03  0.00000000000E+00 0. -1.
          4    1    6    6  503    0  0.21368204681E+03 -0.77191655522E+02  0.45079771873E+03  0.50481397764E+03  0.00000000000E+00 0. -1.
         -4    1    6    6    0  503 -0.63235683941E+01 -0.62876028981E+01  0.30235416999E+01  0.94161176633E+01  0.00000000000E+00 0.  1.
<mgrwt>
<rscale>  0 0.22336714E+04</rscale>
<asrwt>0</asrwt>
<pdfrwt beam="1">  1        1 0.98679121E-01 0.22336714E+04</pdfrwt>
<pdfrwt beam="2">  1       -2 0.29917590E+00 0.22336714E+04</pdfrwt>
<totfact> 0.79589886E-01</totfact>
</mgrwt>
</event>
<event>
12    4  0.4424320E-008  0.1636174E+04  0.7818608E-02  0.8798628E-01
         -4   -1    0    0    0  501 -0.00000000000E+00  0.00000000000E+00  0.11809791078E+04  0.11809791078E+04  0.00000000000E+00 0.  1.
          3   -1    0    0  501    0  0.00000000000E+00 -0.00000000000E+00 -0.56670473916E+03  0.56670473916E+03  0.00000000000E+00 0. -1.
        -24    2    1    2    0    0 -0.38393181258E+03 -0.32928283000E+03 -0.50699048977E+02  0.51567413304E+03  0.86709855709E+02 0.  0.
        254    2    1    2    0    0  0.38393181258E+03  0.32928283000E+03  0.66497341759E+03  0.12320097139E+04  0.90544324513E+03 0.  0.
         23    2    4    4    0    0  0.46411784503E+03  0.11608378615E+01  0.73642171183E+03  0.87530996876E+03  0.91890598712E+02 0.  0.
         23    2    4    4    0    0 -0.80186032453E+02  0.32812199214E+03 -0.71448294239E+02  0.35669974513E+03  0.89643783383E+02 0.  0.
          3    1    3    3  502    0 -0.38078225133E+03 -0.31281239752E+03 -0.37290699978E+02  0.49420371839E+03  0.00000000000E+00 0. -1.
         -2    1    3    3    0  502 -0.31495612467E+01 -0.16470432481E+02 -0.13408348999E+02  0.21470414645E+02  0.00000000000E+00 0.  1.
         11    1    5    5    0    0  0.51200893238E+02  0.29442502416E+02  0.84158346162E+02  0.10281546404E+03  0.00000000000E+00 0.  1.
        -11    1    5    5    0    0  0.41291695180E+03 -0.28281664555E+02  0.65226336566E+03  0.77249450472E+03  0.00000000000E+00 0. -1.
          1    1    6    6  503    0 -0.77491812255E+02  0.30824653592E+03 -0.41329596026E+02  0.32051371793E+03  0.00000000000E+00 0. -1.
         -1    1    6    6    0  503 -0.26942201976E+01  0.19875456218E+02 -0.30118698213E+02  0.36186027198E+02  0.00000000000E+00 0.  1.
<mgrwt>
<rscale>  0 0.16361741E+04</rscale>
<asrwt>0</asrwt>
<pdfrwt beam="1">  1        3 0.87185345E-01 0.16361741E+04</pdfrwt>
<pdfrwt beam="2">  1       -4 0.18168909E+00 0.16361741E+04</pdfrwt>
<totfact> 0.45897083E-01</totfact>
</mgrwt>
</event>
<event>
12    4  0.4424320E-008  0.2281618E+04  0.7818608E-02  0.8485204E-01
         -4   -1    0    0    0  501 -0.00000000000E+00  0.00000000000E+00  0.73448824524E+03  0.73448824524E+03  0.00000000000E+00 0.  1.
          1   -1    0    0  501    0  0.00000000000E+00 -0.00000000000E+00 -0.17719074952E+04  0.17719074952E+04  0.00000000000E+00 0. -1.
        -24    2    1    2    0    0 -0.48636233998E+03  0.44362382111E+03  0.33264275103E+03  0.74187769913E+03  0.79880537315E+02 0.  0.
        254    2    1    2    0    0  0.48636233998E+03 -0.44362382111E+03 -0.13700620010E+04  0.17645180414E+04  0.89616048292E+03 0.  0.
         23    2    4    4    0    0  0.62842816613E+03 -0.57718074132E+03 -0.87905545398E+03  0.12284477562E+04  0.91026536757E+02 0.  0.
         23    2    4    4    0    0 -0.14206582615E+03  0.13355692021E+03 -0.49100654706E+03  0.53607028515E+03  0.90905288477E+02 0.  0.
          3    1    3    3  502    0 -0.28050207181E+03  0.23289140818E+03  0.14359449817E+03  0.39184078425E+03  0.00000000000E+00 0. -1.
         -4    1    3    3    0  502 -0.20586026817E+03  0.21073241293E+03  0.18904825286E+03  0.35003691488E+03  0.00000000000E+00 0.  1.
         11    1    5    5    0    0  0.57102393815E+03 -0.53912445207E+03 -0.83707668360E+03  0.11477895656E+04  0.00000000000E+00 0.  1.
        -11    1    5    5    0    0  0.57404227985E+02 -0.38056289255E+02 -0.41978770385E+02  0.80658190566E+02  0.00000000000E+00 0. -1.
          2    1    6    6  503    0  0.43820917629E+01 -0.84866656533E+01 -0.39018890433E+02  0.40170885387E+02  0.00000000000E+00 0. -1.
         -2    1    6    6    0  503 -0.14644791791E+03  0.14204358586E+03 -0.45198765662E+03  0.49589939976E+03  0.00000000000E+00 0.  1.
<mgrwt>
<rscale>  0 0.22816180E+04</rscale>
<asrwt>0</asrwt>
<pdfrwt beam="1">  1        1 0.27260115E+00 0.22816180E+04</pdfrwt>
<pdfrwt beam="2">  1       -4 0.11299819E+00 0.22816180E+04</pdfrwt>
<totfact> 0.11604291E+00</totfact>
</mgrwt>
</event>
<event>
12    4  0.4424320E-008  0.1428983E+04  0.7818608E-02  0.8933102E-01
         -2   -1    0    0    0  501 -0.00000000000E+00  0.00000000000E+00  0.39899012927E+03  0.39899012927E+03  0.00000000000E+00 0.  1.
          1   -1    0    0  501    0  0.00000000000E+00 -0.00000000000E+00 -0.12794756759E+04  0.12794756759E+04  0.00000000000E+00 0. -1.
        -24    2    1    2    0    0 -0.35240472171E+03 -0.18034050325E+02 -0.55643775749E+03  0.66374888060E+03  0.80157867278E+02 0.  0.
        254    2    1    2    0    0  0.35240472171E+03  0.18034050325E+02 -0.32404778915E+03  0.10147169246E+04  0.89449938654E+03 0.  0.
         23    2    4    4    0    0 -0.16620879393E+03  0.29569576267E+03 -0.37969302970E+02  0.35358470705E+03  0.92299132447E+02 0.  0.
         23    2    4    4    0    0  0.51861351564E+03 -0.27766171234E+03 -0.28607848618E+03  0.66113221754E+03  0.95910915456E+02 0.  0.
          1    1    3    3  502    0 -0.22912167465E+03  0.43440163962E+01 -0.42038915509E+03  0.47879291347E+03  0.00000000000E+00 0. -1.
         -2    1    3    3    0  502 -0.12328304706E+03 -0.22378066721E+02 -0.13604860240E+03  0.18495596714E+03  0.00000000000E+00 0.  1.
         11    1    5    5    0    0 -0.58138665964E+01  0.80675693021E+02 -0.26389452923E+02  0.85080971520E+02  0.00000000000E+00 0.  1.
        -11    1    5    5    0    0 -0.16039492733E+03  0.21502006965E+03 -0.11579850047E+02  0.26850373553E+03  0.00000000000E+00 0. -1.
          3    1    6    6  503    0  0.38877906919E+03 -0.21681330722E+03 -0.25962233931E+03  0.51532604620E+03  0.00000000000E+00 0. -1.
         -3    1    6    6    0  503  0.12983444645E+03 -0.60848405125E+02 -0.26456146870E+02  0.14580617133E+03  0.00000000000E+00 0.  1.
<mgrwt>
<rscale>  0 0.14289831E+04</rscale>
<asrwt>0</asrwt>
<pdfrwt beam="1">  1        1 0.19684240E+00 0.14289831E+04</pdfrwt>
<pdfrwt beam="2">  1       -2 0.61383099E-01 0.14289831E+04</pdfrwt>
<totfact> 0.19704478E+01</totfact>
</mgrwt>
</event>
<event>
12    4  0.4424320E-008  0.1688413E+04  0.7818608E-02  0.8768000E-01
         -2   -1    0    0    0  501 -0.00000000000E+00  0.00000000000E+00  0.38775254575E+03  0.38775254575E+03  0.00000000000E+00 0.  1.
          1   -1    0    0  501    0  0.00000000000E+00 -0.00000000000E+00 -0.18379884962E+04  0.18379884962E+04  0.00000000000E+00 0. -1.
        -24    2    1    2    0    0  0.27481492792E+03 -0.54083431485E+03 -0.66809186704E+03  0.90587299534E+03  0.78956571320E+02 0.  0.
        254    2    1    2    0    0 -0.27481492792E+03  0.54083431485E+03 -0.78214408337E+03  0.13198680466E+04  0.87308492856E+03 0.  0.
         23    2    4    4    0    0 -0.38800119340E+03  0.20239155008E+03  0.84844569605E+01  0.44778925536E+03  0.94530236377E+02 0.  0.
         23    2    4    4    0    0  0.11318626547E+03  0.33844276477E+03 -0.79062854033E+03  0.87207879121E+03  0.89851508469E+02 0.  0.
          3    1    3    3  502    0  0.22526264243E+03 -0.43721771290E+03 -0.49232652990E+03  0.69590803889E+03  0.00000000000E+00 0. -1.
         -4    1    3    3    0  502  0.49552285492E+02 -0.10361660195E+03 -0.17576533714E+03  0.20996495645E+03  0.00000000000E+00 0.  1.
         11    1    5    5    0    0 -0.16725007350E+03  0.10617249885E+03  0.47806038278E+02  0.20379058833E+03  0.00000000000E+00 0.  1.
        -11    1    5    5    0    0 -0.22075111990E+03  0.96219051228E+02 -0.39321581318E+02  0.24399866703E+03  0.00000000000E+00 0. -1.
          3    1    6    6  503    0  0.75435506076E+02  0.14516376712E+03 -0.27312319623E+03  0.31836977743E+03  0.00000000000E+00 0. -1.
         -3    1    6    6    0  503  0.37750759397E+02  0.19327899765E+03 -0.51750534410E+03  0.55370901378E+03  0.00000000000E+00 0.  1.
<mgrwt>
<rscale>  0 0.16884131E+04</rscale>
<asrwt>0</asrwt>
<pdfrwt beam="1">  1        1 0.28276747E+00 0.16884131E+04</pdfrwt>
<pdfrwt beam="2">  1       -2 0.59654236E-01 0.16884131E+04</pdfrwt>
<totfact> 0.84169292E+00</totfact>
</mgrwt>
</event>
<event>
12    4  0.4424320E-008  0.2072659E+04  0.7818608E-02  0.8573384E-01
          1   -1    0    0  501    0  0.00000000000E+00  0.00000000000E+00  0.83568136419E+03  0.83568136419E+03  0.00000000000E+00 0. -1.
         -2   -1    0    0    0  501 -0.00000000000E+00 -0.00000000000E+00 -0.12851530590E+04  0.12851530590E+04  0.00000000000E+00 0.  1.
        -24    2    1    2    0    0  0.57023507368E+03  0.48238978392E+03 -0.56323577458E+03  0.93886139402E+03  0.79738551049E+02 0.  0.
        254    2    1    2    0    0 -0.57023507368E+03 -0.48238978392E+03  0.11376407974E+03  0.11819730292E+04  0.90898296629E+03 0.  0.
         23    2    4    4    0    0 -0.96097064164E+02  0.16420760437E+03 -0.22334867118E+03  0.30732750426E+03  0.91470120158E+02 0.  0.
         23    2    4    4    0    0 -0.47413800952E+03 -0.64659738829E+03  0.33711275092E+03  0.87464552493E+03  0.92004091372E+02 0.  0.
          3    1    3    3  502    0  0.26607988956E+03  0.25369215754E+03 -0.23511438787E+03  0.43639087274E+03  0.00000000000E+00 0. -1.
         -4    1    3    3    0  502  0.30415518412E+03  0.22869762638E+03 -0.32812138670E+03  0.50247052128E+03  0.00000000000E+00 0.  1.
         11    1    5    5    0    0 -0.14204500243E+02  0.11402765742E+03 -0.11582545962E+03  0.16315517638E+03  0.00000000000E+00 0. -1.
        -11    1    5    5    0    0 -0.81892563921E+02  0.50179946955E+02 -0.10752321156E+03  0.14417232788E+03  0.00000000000E+00 0.  1.
          3    1    6    6  503    0 -0.87777566762E+02 -0.67907418875E+02  0.38571673454E+02  0.11749081989E+03  0.00000000000E+00 0. -1.
         -3    1    6    6    0  503 -0.38636044276E+03 -0.57868996942E+03  0.29854107747E+03  0.75715470504E+03  0.00000000000E+00 0.  1.
<mgrwt>
<rscale>  0 0.20726586E+04</rscale>
<asrwt>0</asrwt>
<pdfrwt beam="1">  1        1 0.12856636E+00 0.20726586E+04</pdfrwt>
<pdfrwt beam="2">  1       -2 0.19771585E+00 0.20726586E+04</pdfrwt>
<totfact> 0.22900748E+00</totfact>
</mgrwt>
</event>
<event>
12    4  0.4424320E-008  0.1737963E+04  0.7818608E-02  0.8740004E-01
         -2   -1    0    0    0  501 -0.00000000000E+00  0.00000000000E+00  0.46762332747E+03  0.46762332747E+03  0.00000000000E+00 0.  1.
          1   -1    0    0  501    0  0.00000000000E+00 -0.00000000000E+00 -0.16148237405E+04  0.16148237405E+04  0.00000000000E+00 0. -1.
        -24    2    1    2    0    0 -0.48229548360E+03  0.34460239869E+03 -0.60080705124E+03  0.84794199480E+03  0.81711486585E+02 0.  0.
        254    2    1    2    0    0  0.48229548360E+03 -0.34460239869E+03 -0.54639336174E+03  0.12345050731E+04  0.93493172111E+03 0.  0.
         23    2    4    4    0    0  0.58283087095E+03 -0.57526007314E+03 -0.49593239597E+03  0.96175071957E+03  0.91648946203E+02 0.  0.
         23    2    4    4    0    0 -0.10053538735E+03  0.23065767446E+03 -0.50460965764E+02  0.27275435355E+03  0.92402929708E+02 0.  0.
          1    1    3    3  502    0 -0.14999772483E+03  0.14401743574E+03 -0.24549120179E+03  0.32172390244E+03  0.00000000000E+00 0. -1.
         -2    1    3    3    0  502 -0.33229775877E+03  0.20058496295E+03 -0.35531584946E+03  0.52621809236E+03  0.00000000000E+00 0.  1.
         11    1    5    5    0    0  0.51146000919E+03 -0.46745137279E+03 -0.39377261517E+03  0.79696863136E+03  0.00000000000E+00 0. -1.
        -11    1    5    5    0    0  0.71370861759E+02 -0.10780870036E+03 -0.10215978080E+03  0.16478208821E+03  0.00000000000E+00 0.  1.
          2    1    6    6  503    0 -0.11157830840E+03  0.17398369514E+03 -0.57627213374E+02  0.21457152841E+03  0.00000000000E+00 0. -1.
         -2    1    6    6    0  503  0.11042921054E+02  0.56673979314E+02  0.71662476096E+01  0.58182825141E+02  0.00000000000E+00 0.  1.
<mgrwt>
<rscale>  0 0.17379635E+04</rscale>
<asrwt>0</asrwt>
<pdfrwt beam="1">  1        1 0.24843443E+00 0.17379635E+04</pdfrwt>
<pdfrwt beam="2">  1       -2 0.71942049E-01 0.17379635E+04</pdfrwt>
<totfact> 0.79443525E+00</totfact>
</mgrwt>
</event>
<event>
12    4  0.4424320E-008  0.1923877E+04  0.7818608E-02  0.8643062E-01
         -2   -1    0    0    0  501 -0.00000000000E+00  0.00000000000E+00  0.71351170198E+03  0.71351170198E+03  0.00000000000E+00 0.  1.
          1   -1    0    0  501    0  0.00000000000E+00 -0.00000000000E+00 -0.12968611615E+04  0.12968611615E+04  0.00000000000E+00 0. -1.
        -24    2    1    2    0    0 -0.54159093596E+02 -0.55416883357E+02  0.54835652005E+03  0.55941262128E+03  0.79014994682E+02 0.  0.
        254    2    1    2    0    0  0.54159093596E+02  0.55416883357E+02 -0.11317059796E+04  0.14509602422E+04  0.90472258835E+03 0.  0.
         23    2    4    4    0    0  0.80073281089E+02 -0.11085337866E+03 -0.12260718995E+04  0.12369667824E+04  0.90190444126E+02 0.  0.
         23    2    4    4    0    0 -0.25914187493E+02  0.16627026201E+03  0.94365919924E+02  0.21399345977E+03  0.92579311062E+02 0.  0.
          1    1    3    3  502    0 -0.32556238456E+02  0.15840467049E+02  0.17731178886E+03  0.18097043827E+03  0.00000000000E+00 0. -1.
         -2    1    3    3    0  502 -0.21602855140E+02 -0.71257350406E+02  0.37104473119E+03  0.37844218301E+03  0.00000000000E+00 0.  1.
         11    1    5    5    0    0  0.27803588003E+02 -0.18064550820E+02 -0.66810330707E+03  0.66892555372E+03  0.00000000000E+00 0. -1.
        -11    1    5    5    0    0  0.52269693086E+02 -0.92788827836E+02 -0.55796859242E+03  0.56804122871E+03  0.00000000000E+00 0.  1.
          1    1    6    6  503    0 -0.29505122616E+02  0.14679269168E+03  0.11238776246E+03  0.18721553286E+03  0.00000000000E+00 0. -1.
         -1    1    6    6    0  503  0.35909351230E+01  0.19477570331E+02 -0.18021842539E+02  0.26777926909E+02  0.00000000000E+00 0.  1.
<mgrwt>
<rscale>  0 0.19238769E+04</rscale>
<asrwt>0</asrwt>
<pdfrwt beam="1">  1        1 0.19951710E+00 0.19238769E+04</pdfrwt>
<pdfrwt beam="2">  1       -2 0.10977103E+00 0.19238769E+04</pdfrwt>
<totfact> 0.49188238E+00</totfact>
</mgrwt>
</event>
<event>
12    4  0.4424320E-008  0.1629156E+04  0.7818608E-02  0.8802834E-01
          1   -1    0    0  501    0  0.00000000000E+00  0.00000000000E+00  0.59861708410E+03  0.59861708410E+03  0.00000000000E+00 0. -1.
         -2   -1    0    0    0  501 -0.00000000000E+00 -0.00000000000E+00 -0.11084502618E+04  0.11084502618E+04  0.00000000000E+00 0.  1.
        -24    2    1    2    0    0  0.53926287818E+03 -0.58749498948E+02 -0.33288543578E+03  0.64170703946E+03  0.81971066371E+02 0.  0.
        254    2    1    2    0    0 -0.53926287818E+03  0.58749498948E+02 -0.17694774195E+03  0.10653603065E+04  0.89968112340E+03 0.  0.
         23    2    4    4    0    0 -0.76455762755E+03  0.80395089740E+02 -0.24343894773E+03  0.81153799653E+03  0.91212182498E+02 0.  0.
         23    2    4    4    0    0  0.22529474937E+03 -0.21645590791E+02  0.66491205776E+02  0.25382230993E+03  0.93693270199E+02 0.  0.
          1    1    3    3  502    0  0.62280894532E+02  0.10763897664E+02 -0.17169139835E+02  0.65494661457E+02  0.00000000000E+00 0. -1.
         -2    1    3    3    0  502  0.47698198365E+03 -0.69513396612E+02 -0.31571629595E+03  0.57621237800E+03  0.00000000000E+00 0.  1.
         11    1    5    5    0    0 -0.70309726266E+03  0.73787125625E+02 -0.24887258739E+03  0.74948506684E+03  0.00000000000E+00 0. -1.
        -11    1    5    5    0    0 -0.61460364895E+02  0.66079641152E+01  0.54336396621E+01  0.62052929687E+02  0.00000000000E+00 0.  1.
          1    1    6    6  503    0  0.20247226155E+03 -0.28110601842E+01  0.84241508079E+02  0.21931609708E+03  0.00000000000E+00 0. -1.
         -1    1    6    6    0  503  0.22822487819E+02 -0.18834530607E+02 -0.17750302302E+02  0.34506212850E+02  0.00000000000E+00 0.  1.
<mgrwt>
<rscale>  0 0.16291559E+04</rscale>
<asrwt>0</asrwt>
<pdfrwt beam="1">  1        1 0.92094937E-01 0.16291559E+04</pdfrwt>
<pdfrwt beam="2">  1       -2 0.17053081E+00 0.16291559E+04</pdfrwt>
<totfact> 0.60775419E+00</totfact>
</mgrwt>
</event>
<event>
12    4  0.4424320E-008  0.3283335E+04  0.7818608E-02  0.8167149E-01
         -2   -1    0    0    0  501 -0.00000000000E+00  0.00000000000E+00  0.15548554810E+04  0.15548554810E+04  0.00000000000E+00 0.  1.
          1   -1    0    0  501    0  0.00000000000E+00 -0.00000000000E+00 -0.17333265811E+04  0.17333265811E+04  0.00000000000E+00 0. -1.
        -24    2    1    2    0    0 -0.13971011031E+04 -0.11402057496E+03 -0.59282617662E+03  0.15241458762E+04  0.81765473407E+02 0.  0.
        254    2    1    2    0    0  0.13971011031E+04  0.11402057496E+03  0.41435507654E+03  0.17640361858E+04  0.98754308849E+03 0.  0.
         23    2    4    4    0    0  0.12970035536E+04  0.38758727764E+02 -0.21830195248E+02  0.13010902203E+04  0.92944859189E+02 0.  0.
         23    2    4    4    0    0  0.10009754948E+03  0.75261847197E+02  0.43618527178E+03  0.46294596553E+03  0.91528742051E+02 0.  0.
          1    1    3    3  502    0 -0.13843791033E+04 -0.11608228559E+03 -0.57849254547E+03  0.15048701685E+04  0.00000000000E+00 0. -1.
         -2    1    3    3    0  502 -0.12721999740E+02  0.20617106329E+01 -0.14333631151E+02  0.19275707771E+02  0.00000000000E+00 0.  1.
         11    1    5    5    0    0  0.32777438851E+03  0.49771244346E+02  0.86769126362E+00  0.33153277276E+03  0.00000000000E+00 0.  1.
        -11    1    5    5    0    0  0.96922916508E+03 -0.11012516583E+02 -0.22697886512E+02  0.96955744751E+03  0.00000000000E+00 0. -1.
          3    1    6    6  503    0  0.91036286727E+02  0.86735481749E+02  0.29071146002E+03  0.31673932860E+03  0.00000000000E+00 0. -1.
         -3    1    6    6    0  503  0.90612627574E+01 -0.11473634553E+02  0.14547381176E+03  0.14620663693E+03  0.00000000000E+00 0.  1.
<mgrwt>
<rscale>  0 0.32833351E+04</rscale>
<asrwt>0</asrwt>
<pdfrwt beam="1">  1        1 0.26666563E+00 0.32833351E+04</pdfrwt>
<pdfrwt beam="2">  1       -2 0.23920854E+00 0.32833351E+04</pdfrwt>
<totfact> 0.24738124E-01</totfact>
</mgrwt>
</event>
<event>
12    4  0.4424320E-008  0.1758566E+04  0.7818608E-02  0.8728650E-01
          1   -1    0    0  501    0  0.00000000000E+00  0.00000000000E+00  0.41267000822E+03  0.41267000822E+03  0.00000000000E+00 0. -1.
         -2   -1    0    0    0  501 -0.00000000000E+00 -0.00000000000E+00 -0.18735022447E+04  0.18735022447E+04  0.00000000000E+00 0.  1.
        -24    2    1    2    0    0 -0.55916220446E+03 -0.19590036642E+03 -0.86102428707E+03  0.10482963110E+04  0.80765142517E+02 0.  0.
        254    2    1    2    0    0  0.55916220446E+03  0.19590036642E+03 -0.59980794938E+03  0.12378759419E+04  0.90638178873E+03 0.  0.
         23    2    4    4    0    0  0.62816031791E+03  0.35383787953E+03 -0.14224500785E+03  0.74058466008E+03  0.91898675168E+02 0.  0.
         23    2    4    4    0    0 -0.68998113451E+02 -0.15793751311E+03 -0.45756294153E+03  0.49729128182E+03  0.90718111772E+02 0.  0.
          3    1    3    3  502    0 -0.10675758429E+03 -0.44018255439E+02 -0.11707998711E+03  0.16444607626E+03  0.00000000000E+00 0. -1.
         -4    1    3    3    0  502 -0.45240462017E+03 -0.15188211098E+03 -0.74394429996E+03  0.88385023473E+03  0.00000000000E+00 0.  1.
         11    1    5    5    0    0  0.59241049685E+03  0.35570605642E+03 -0.13522648255E+03  0.70410453552E+03  0.00000000000E+00 0.  1.
        -11    1    5    5    0    0  0.35749821062E+02 -0.18681768877E+01 -0.70185252996E+01  0.36480124565E+02  0.00000000000E+00 0. -1.
          1    1    6    6  503    0 -0.23645013521E+02 -0.47909027009E+02 -0.51721278199E+02  0.74360286120E+02  0.00000000000E+00 0. -1.
         -1    1    6    6    0  503 -0.45353099930E+02 -0.11002848610E+03 -0.40584166333E+03  0.42293099570E+03  0.00000000000E+00 0.  1.
<mgrwt>
<rscale>  0 0.17585655E+04</rscale>
<asrwt>0</asrwt>
<pdfrwt beam="1">  1        1 0.63487694E-01 0.17585655E+04</pdfrwt>
<pdfrwt beam="2">  1       -2 0.28823111E+00 0.17585655E+04</pdfrwt>
<totfact> 0.17902544E+00</totfact>
</mgrwt>
</event>
<event>
12    4  0.4424320E-008  0.1197353E+04  0.7818608E-02  0.9115177E-01
         -2   -1    0    0    0  501 -0.00000000000E+00  0.00000000000E+00  0.71663404777E+03  0.71663404777E+03  0.00000000000E+00 0.  1.
          1   -1    0    0  501    0  0.00000000000E+00 -0.00000000000E+00 -0.50013469805E+03  0.50013469805E+03  0.00000000000E+00 0. -1.
        -24    2    1    2    0    0  0.19847921584E+03 -0.12713998956E+03 -0.22726939693E+02  0.25069472345E+03  0.82296746665E+02 0.  0.
        254    2    1    2    0    0 -0.19847921584E+03  0.12713998956E+03  0.23922628941E+03  0.96607402237E+03  0.90582074556E+03 0.  0.
         23    2    4    4    0    0 -0.56554601870E+02  0.49586511142E+03  0.23562297302E+03  0.55964638906E+03  0.92764560331E+02 0.  0.
         23    2    4    4    0    0 -0.14192461398E+03 -0.36872512187E+03  0.36033163946E+01  0.40642763331E+03  0.95234582377E+02 0.  0.
          1    1    3    3  502    0  0.16717225401E+03 -0.85803450365E+02 -0.46616313659E+02  0.19360236389E+03  0.00000000000E+00 0. -1.
         -2    1    3    3    0  502  0.31306961838E+02 -0.41336539190E+02  0.23889373966E+02  0.57092359561E+02  0.00000000000E+00 0.  1.
         11    1    5    5    0    0  0.11989607359E+02  0.14702643359E+02 -0.11770380301E+01  0.19007993710E+02  0.00000000000E+00 0. -1.
        -11    1    5    5    0    0 -0.68544209229E+02  0.48116246806E+03  0.23680001105E+03  0.54063839535E+03  0.00000000000E+00 0.  1.
          1    1    6    6  503    0  0.39776788982E+01 -0.95330670867E+02 -0.11882264707E+02  0.96150647174E+02  0.00000000000E+00 0. -1.
         -1    1    6    6    0  503 -0.14590229287E+03 -0.27339445100E+03  0.15485581101E+02  0.31027698614E+03  0.00000000000E+00 0.  1.
<mgrwt>
<rscale>  0 0.11973530E+04</rscale>
<asrwt>0</asrwt>
<pdfrwt beam="1">  1        1 0.76943800E-01 0.11973530E+04</pdfrwt>
<pdfrwt beam="2">  1       -2 0.11025139E+00 0.11973530E+04</pdfrwt>
<totfact> 0.25057709E+01</totfact>
</mgrwt>
</event>
<event>
12    4  0.4424320E-008  0.1625322E+04  0.7818608E-02  0.8805141E-01
          3   -1    0    0  501    0  0.00000000000E+00  0.00000000000E+00  0.56566959006E+03  0.56566959006E+03  0.00000000000E+00 0. -1.
         -4   -1    0    0    0  501 -0.00000000000E+00 -0.00000000000E+00 -0.11674975739E+04  0.11674975739E+04  0.00000000000E+00 0.  1.
        -24    2    1    2    0    0  0.29301233804E+03 -0.28865178644E+03  0.19122297340E+03  0.46061609196E+03  0.80155315257E+02 0.  0.
        254    2    1    2    0    0 -0.29301233804E+03  0.28865178644E+03 -0.79305095728E+03  0.12725510720E+04  0.90624517986E+03 0.  0.
         23    2    4    4    0    0 -0.84494029612E+02  0.90615094928E+01 -0.88940009645E+03  0.89862879182E+03  0.96331832397E+02 0.  0.
         23    2    4    4    0    0 -0.20851830842E+03  0.27959027695E+03  0.96349139169E+02  0.37392228020E+03  0.94255541494E+02 0.  0.
          1    1    3    3  502    0  0.26766267058E+03 -0.22644459074E+03  0.14686678632E+03  0.38011881145E+03  0.00000000000E+00 0. -1.
         -2    1    3    3    0  502  0.25349667456E+02 -0.62207195703E+02  0.44356187084E+02  0.80497280513E+02  0.00000000000E+00 0.  1.
         11    1    5    5    0    0 -0.77241759827E+02  0.28956232864E+01 -0.88459501388E+03  0.88796565963E+03  0.00000000000E+00 0. -1.
        -11    1    5    5    0    0 -0.72522697844E+01  0.61658862064E+01 -0.48050825717E+01  0.10663132197E+02  0.00000000000E+00 0.  1.
          1    1    6    6  503    0 -0.14158006516E+03  0.19714482824E+03  0.11068284756E+03  0.26676148691E+03  0.00000000000E+00 0. -1.
         -1    1    6    6    0  503 -0.66938243260E+02  0.82445448711E+02 -0.14333708391E+02  0.10716079330E+03  0.00000000000E+00 0.  1.
<mgrwt>
<rscale>  0 0.16253220E+04</rscale>
<asrwt>0</asrwt>
<pdfrwt beam="1">  1        3 0.87026091E-01 0.16253220E+04</pdfrwt>
<pdfrwt beam="2">  1       -4 0.17961501E+00 0.16253220E+04</pdfrwt>
<totfact> 0.47683126E-01</totfact>
</mgrwt>
</event>
<event>
12    4  0.4424320E-008  0.1613480E+04  0.7818608E-02  0.8812309E-01
         -2   -1    0    0    0  501 -0.00000000000E+00  0.00000000000E+00  0.37249495385E+03  0.37249495385E+03  0.00000000000E+00 0.  1.
          1   -1    0    0  501    0  0.00000000000E+00 -0.00000000000E+00 -0.17472164696E+04  0.17472164696E+04  0.00000000000E+00 0. -1.
        -24    2    1    2    0    0 -0.42043999714E+03  0.14601613155E+03 -0.42277260171E+02  0.45252075106E+03  0.69979722366E+02 0.  0.
        254    2    1    2    0    0  0.42043999714E+03 -0.14601613155E+03 -0.13324442556E+04  0.16671906724E+04  0.89778980947E+03 0.  0.
         23    2    4    4    0    0 -0.26901375495E+03  0.73236667843E+01 -0.30347261178E+03  0.41586065036E+03  0.91773732476E+02 0.  0.
         23    2    4    4    0    0  0.68945375209E+03 -0.15333979834E+03 -0.10289716438E+04  0.12513300220E+04  0.90468835809E+02 0.  0.
          1    1    3    3  502    0 -0.12413926973E+03  0.45856263378E+02 -0.44871400793E+02  0.13973831898E+03  0.00000000000E+00 0. -1.
         -2    1    3    3    0  502 -0.29630072741E+03  0.10015986817E+03  0.25941406211E+01  0.31278243209E+03  0.00000000000E+00 0.  1.
         11    1    5    5    0    0 -0.28246546314E+01  0.26790684019E+01 -0.43766556633E+02  0.43939362317E+02  0.00000000000E+00 0. -1.
        -11    1    5    5    0    0 -0.26618910032E+03  0.46445983824E+01 -0.25970605515E+03  0.37192128805E+03  0.00000000000E+00 0.  1.
          4    1    6    6  503    0  0.36999693118E+02 -0.20478987758E+02 -0.34719136970E+02  0.54715488688E+02  0.00000000000E+00 0. -1.
         -4    1    6    6    0  503  0.65245405897E+03 -0.13286081058E+03 -0.99425250686E+03  0.11966145334E+04  0.00000000000E+00 0.  1.
<mgrwt>
<rscale>  0 0.16134799E+04</rscale>
<asrwt>0</asrwt>
<pdfrwt beam="1">  1        1 0.26880253E+00 0.16134799E+04</pdfrwt>
<pdfrwt beam="2">  1       -2 0.57306917E-01 0.16134799E+04</pdfrwt>
<totfact> 0.10623147E+01</totfact>
</mgrwt>
</event>
<event>
12    4  0.4424320E-008  0.1353440E+04  0.7818608E-02  0.8988228E-01
         -2   -1    0    0    0  501 -0.00000000000E+00  0.00000000000E+00  0.45391414655E+03  0.45391414655E+03  0.00000000000E+00 0.  1.
          1   -1    0    0  501    0  0.00000000000E+00 -0.00000000000E+00 -0.10088909409E+04  0.10088909409E+04  0.00000000000E+00 0. -1.
        -24    2    1    2    0    0 -0.69924245069E+02 -0.35491139437E+03 -0.29314220409E+03  0.47257045833E+03  0.80864011549E+02 0.  0.
        254    2    1    2    0    0  0.69924245069E+02  0.35491139437E+03 -0.26183459025E+03  0.99023462910E+03  0.88383017040E+03 0.  0.
         23    2    4    4    0    0  0.38731921328E+03  0.27188392495E+03  0.10060980717E+03  0.49243338167E+03  0.91821895337E+02 0.  0.
         23    2    4    4    0    0 -0.31739496821E+03  0.83027469420E+02 -0.36244439742E+03  0.49780124743E+03  0.93845693531E+02 0.  0.
          1    1    3    3  502    0 -0.45310466287E+02 -0.22222550439E+03 -0.23192096828E+03  0.32438333602E+03  0.00000000000E+00 0. -1.
         -2    1    3    3    0  502 -0.24613778782E+02 -0.13268588998E+03 -0.61221235813E+02  0.14818712231E+03  0.00000000000E+00 0.  1.
         11    1    5    5    0    0  0.39416998851E+02  0.47027553730E+02 -0.13359503993E+02  0.62799418431E+02  0.00000000000E+00 0. -1.
        -11    1    5    5    0    0  0.34790221443E+03  0.22485637122E+03  0.11396931117E+03  0.42963396324E+03  0.00000000000E+00 0.  1.
          2    1    6    6  503    0 -0.75808282723E+02  0.60090795079E+02 -0.12736697672E+03  0.15993794466E+03  0.00000000000E+00 0.  1.
         -2    1    6    6    0  503 -0.24158668549E+03  0.22936674341E+02 -0.23507742071E+03  0.33786330277E+03  0.00000000000E+00 0. -1.
<mgrwt>
<rscale>  0 0.13534399E+04</rscale>
<asrwt>0</asrwt>
<pdfrwt beam="1">  1        1 0.15521399E+00 0.13534399E+04</pdfrwt>
<pdfrwt beam="2">  1       -2 0.69832946E-01 0.13534399E+04</pdfrwt>
<totfact> 0.23873600E+01</totfact>
</mgrwt>
</event>
<event>
12    4  0.4424320E-008  0.5021829E+04  0.7818608E-02  0.7825149E-01
         -2   -1    0    0    0  501 -0.00000000000E+00  0.00000000000E+00  0.18940896708E+04  0.18940896708E+04  0.00000000000E+00 0.  1.
          1   -1    0    0  501    0  0.00000000000E+00 -0.00000000000E+00 -0.33286134399E+04  0.33286134399E+04  0.00000000000E+00 0. -1.
        -24    2    1    2    0    0 -0.12851340558E+04  0.11900567341E+04  0.10564548631E+04  0.20470172961E+04  0.79864639908E+02 0.  0.
        254    2    1    2    0    0  0.12851340558E+04 -0.11900567341E+04 -0.24909786323E+04  0.31756858146E+04  0.90122210072E+03 0.  0.
         23    2    4    4    0    0  0.32377403259E+03 -0.72784094375E+03 -0.59540150043E+03  0.99864359010E+03  0.90575988841E+02 0.  0.
         23    2    4    4    0    0  0.96136002325E+03 -0.46221579036E+03 -0.18955771319E+04  0.21770422245E+04  0.91889354097E+02 0.  0.
          1    1    3    3  502    0 -0.19430881803E+03  0.20769154555E+03  0.14701611206E+03  0.32016469522E+03  0.00000000000E+00 0. -1.
         -2    1    3    3    0  502 -0.10908252378E+04  0.98236518856E+03  0.90943875105E+03  0.17268526009E+04  0.00000000000E+00 0.  1.
         11    1    5    5    0    0  0.27439083542E+03 -0.54675502491E+03 -0.48675461296E+03  0.78176815046E+03  0.00000000000E+00 0. -1.
        -11    1    5    5    0    0  0.49383197176E+02 -0.18108591884E+03 -0.10864688747E+03  0.21687543964E+03  0.00000000000E+00 0.  1.
          1    1    6    6  503    0  0.84247425455E+03 -0.37175045401E+03 -0.16514518237E+04  0.18908343120E+04  0.00000000000E+00 0. -1.
         -1    1    6    6    0  503  0.11888576869E+03 -0.90465336355E+02 -0.24412530820E+03  0.28620791251E+03  0.00000000000E+00 0.  1.
<mgrwt>
<rscale>  0 0.50218293E+04</rscale>
<asrwt>0</asrwt>
<pdfrwt beam="1">  1        1 0.51209438E+00 0.50218293E+04</pdfrwt>
<pdfrwt beam="2">  1       -2 0.29139841E+00 0.50218293E+04</pdfrwt>
<totfact> 0.77239563E-03</totfact>
</mgrwt>
</event>
<event>
12    4  0.4424320E-008  0.3711149E+04  0.7818608E-02  0.8065496E-01
          1   -1    0    0  501    0  0.00000000000E+00  0.00000000000E+00  0.12977715064E+04  0.12977715064E+04  0.00000000000E+00 0. -1.
         -2   -1    0    0    0  501 -0.00000000000E+00 -0.00000000000E+00 -0.26531303023E+04  0.26531303023E+04  0.00000000000E+00 0.  1.
        -24    2    1    2    0    0 -0.35365344399E+03 -0.11086506065E+04 -0.20214766979E+04  0.23338716948E+04  0.80075726582E+02 0.  0.
        254    2    1    2    0    0  0.35365344399E+03  0.11086506065E+04  0.66611790203E+03  0.16170301139E+04  0.90382321500E+03 0.  0.
         23    2    4    4    0    0  0.38112858987E+03  0.16801041694E+03  0.50053541469E+03  0.65763811772E+03  0.92009185918E+02 0.  0.
         23    2    4    4    0    0 -0.27475145878E+02  0.94064018958E+03  0.16558248734E+03  0.95939199616E+03  0.86351562127E+02 0.  0.
          1    1    3    3  502    0 -0.11061512539E+03 -0.26936184569E+03 -0.45559556231E+03  0.54070216041E+03  0.00000000000E+00 0. -1.
         -2    1    3    3    0  502 -0.24303831861E+03 -0.83928876084E+03 -0.15658811356E+04  0.17931695344E+04  0.00000000000E+00 0.  1.
         11    1    5    5    0    0  0.10664045603E+03  0.55116124296E+02  0.85406373078E+02  0.14732353030E+03  0.00000000000E+00 0.  1.
        -11    1    5    5    0    0  0.27448813385E+03  0.11289429265E+03  0.41512904161E+03  0.51031458741E+03  0.00000000000E+00 0. -1.
          1    1    6    6  503    0  0.22370145460E+02  0.42125177733E+03  0.48327533339E+02  0.42460456167E+03  0.00000000000E+00 0. -1.
         -1    1    6    6    0  503 -0.49845291338E+02  0.51938841225E+03  0.11725495400E+03  0.53478743448E+03  0.00000000000E+00 0.  1.
<mgrwt>
<rscale>  0 0.37111491E+04</rscale>
<asrwt>0</asrwt>
<pdfrwt beam="1">  1        1 0.19965716E+00 0.37111491E+04</pdfrwt>
<pdfrwt beam="2">  1       -2 0.40817389E+00 0.37111491E+04</pdfrwt>
<totfact> 0.41881597E-02</totfact>
</mgrwt>
</event>
<event>
12    4  0.4424320E-008  0.1842010E+04  0.7818608E-02  0.8684273E-01
         -2   -1    0    0    0  501 -0.00000000000E+00  0.00000000000E+00  0.10146231839E+04  0.10146231839E+04  0.00000000000E+00 0.  1.
          1   -1    0    0  501    0  0.00000000000E+00 -0.00000000000E+00 -0.83602498142E+03  0.83602498142E+03  0.00000000000E+00 0. -1.
        -24    2    1    2    0    0 -0.96820790651E+02 -0.43623439275E+03  0.60869914998E+03  0.75917303264E+03  0.78449521276E+02 0.  0.
        254    2    1    2    0    0  0.96820790651E+02  0.43623439275E+03 -0.43010094751E+03  0.10914751327E+04  0.89814053982E+03 0.  0.
         23    2    4    4    0    0 -0.14035165143E+03  0.12393720981E+03 -0.61410358269E+03  0.64858995888E+03  0.92123321959E+02 0.  0.
         23    2    4    4    0    0  0.23717244208E+03  0.31229718294E+03  0.18400263518E+03  0.44288517379E+03  0.92249713607E+02 0.  0.
          3    1    3    3  502    0 -0.17618091780E+02 -0.28708722713E+02  0.81143441725E+02  0.87856963599E+02  0.00000000000E+00 0. -1.
         -4    1    3    3    0  502 -0.79202698871E+02 -0.40752567003E+03  0.52755570825E+03  0.67131606904E+03  0.00000000000E+00 0.  1.
         11    1    5    5    0    0 -0.56645874848E+02 -0.14110548971E+01 -0.13741997282E+03  0.14864385337E+03  0.00000000000E+00 0.  1.
        -11    1    5    5    0    0 -0.83705776577E+02  0.12534826471E+03 -0.47668360987E+03  0.49994610551E+03  0.00000000000E+00 0. -1.
          3    1    6    6  503    0  0.60542525655E+02  0.11187422990E+03  0.10314845287E+03  0.16377070574E+03  0.00000000000E+00 0. -1.
         -3    1    6    6    0  503  0.17662991642E+03  0.20042295304E+03  0.80854182305E+02  0.27911446805E+03  0.00000000000E+00 0.  1.
<mgrwt>
<rscale>  0 0.18420101E+04</rscale>
<asrwt>0</asrwt>
<pdfrwt beam="1">  1        1 0.12861923E+00 0.18420101E+04</pdfrwt>
<pdfrwt beam="2">  1       -2 0.15609587E+00 0.18420101E+04</pdfrwt>
<totfact> 0.45655573E+00</totfact>
</mgrwt>
</event>
<event>
12    4  0.4424320E-008  0.2917134E+04  0.7818608E-02  0.8267798E-01
         -2   -1    0    0    0  501 -0.00000000000E+00  0.00000000000E+00  0.17908942339E+04  0.17908942339E+04  0.00000000000E+00 0.  1.
          1   -1    0    0  501    0  0.00000000000E+00 -0.00000000000E+00 -0.11879082967E+04  0.11879082967E+04  0.00000000000E+00 0. -1.
        -24    2    1    2    0    0 -0.32540862986E+03  0.99190278966E+03  0.10861828808E+04  0.15086425263E+04  0.80293841651E+02 0.  0.
        254    2    1    2    0    0  0.32540862986E+03 -0.99190278966E+03 -0.48319694359E+03  0.14701600043E+04  0.91549398215E+03 0.  0.
         23    2    4    4    0    0  0.54516471450E+03 -0.25451148966E+03 -0.15435087766E+03  0.62785184424E+03  0.91613757510E+02 0.  0.
         23    2    4    4    0    0 -0.21975608464E+03 -0.73739130000E+03 -0.32884606593E+03  0.84230816004E+03  0.96460537776E+02 0.  0.
          1    1    3    3  502    0 -0.13238701105E+03  0.31016627071E+03  0.38485550895E+03  0.51170616466E+03  0.00000000000E+00 0. -1.
         -2    1    3    3    0  502 -0.19302161881E+03  0.68173651895E+03  0.70132737185E+03  0.99693636161E+03  0.00000000000E+00 0.  1.
         11    1    5    5    0    0  0.86246592026E+01 -0.20145750464E+02  0.15155931888E+01  0.21966634491E+02  0.00000000000E+00 0.  1.
        -11    1    5    5    0    0  0.53654005530E+03 -0.23436573920E+03 -0.15586647085E+03  0.60588520975E+03  0.00000000000E+00 0. -1.
          4    1    6    6  503    0 -0.19351588954E+03 -0.71487142267E+03 -0.31877895767E+03  0.80629372706E+03  0.00000000000E+00 0. -1.
         -4    1    6    6    0  503 -0.26240195105E+02 -0.22519877334E+02 -0.10067108257E+02  0.36014432981E+02  0.00000000000E+00 0.  1.
<mgrwt>
<rscale>  0 0.29171343E+04</rscale>
<asrwt>0</asrwt>
<pdfrwt beam="1">  1        1 0.18275512E+00 0.29171343E+04</pdfrwt>
<pdfrwt beam="2">  1       -2 0.27552219E+00 0.29171343E+04</pdfrwt>
<totfact> 0.36792878E-01</totfact>
</mgrwt>
</event>
<event>
12    4  0.4424320E-008  0.2355482E+04  0.7818608E-02  0.8456361E-01
         -2   -1    0    0    0  501 -0.00000000000E+00  0.00000000000E+00  0.30715126234E+04  0.30715126234E+04  0.00000000000E+00 0.  1.
          1   -1    0    0  501    0  0.00000000000E+00 -0.00000000000E+00 -0.45159321423E+03  0.45159321423E+03  0.00000000000E+00 0. -1.
        -24    2    1    2    0    0 -0.39989420758E+03 -0.63762381279E+03  0.21135920003E+04  0.22450369774E+04  0.80251992778E+02 0.  0.
        254    2    1    2    0    0  0.39989420758E+03  0.63762381279E+03  0.50632740890E+03  0.12780688602E+04  0.90034052593E+03 0.  0.
         23    2    4    4    0    0 -0.39028633713E+02  0.51111359118E+03  0.60891969792E+03  0.80114454799E+03  0.91044225050E+02 0.  0.
         23    2    4    4    0    0  0.43892284129E+03  0.12651022161E+03 -0.10259228902E+03  0.47692431226E+03  0.90958919731E+02 0.  0.
          1    1    3    3  502    0 -0.26166275196E+02 -0.91391595098E+02  0.26772377189E+03  0.28410053792E+03  0.00000000000E+00 0. -1.
         -2    1    3    3    0  502 -0.37372793238E+03 -0.54623221769E+03  0.18458682284E+04  0.19609364395E+04  0.00000000000E+00 0.  1.
         11    1    5    5    0    0 -0.19174371581E+02  0.48248061334E+03  0.54341235772E+03  0.72694717091E+03  0.00000000000E+00 0.  1.
        -11    1    5    5    0    0 -0.19854262132E+02  0.28632977844E+02  0.65507340198E+02  0.74197377075E+02  0.00000000000E+00 0. -1.
          4    1    6    6  503    0  0.33368298820E+03  0.60580095966E+02 -0.96451437406E+02  0.35258639285E+03  0.00000000000E+00 0. -1.
         -4    1    6    6    0  503  0.10523985309E+03  0.65930125640E+02 -0.61408516165E+01  0.12433791941E+03  0.00000000000E+00 0.  1.
<mgrwt>
<rscale>  0 0.23554823E+04</rscale>
<asrwt>0</asrwt>
<pdfrwt beam="1">  1        1 0.69475881E-01 0.23554823E+04</pdfrwt>
<pdfrwt beam="2">  1       -2 0.47254039E+00 0.23554823E+04</pdfrwt>
<totfact> 0.98922717E-02</totfact>
</mgrwt>
</event>
<event>
12    4  0.4424320E-008  0.2302354E+04  0.7818608E-02  0.8476994E-01
          1   -1    0    0  501    0  0.00000000000E+00  0.00000000000E+00  0.10194187570E+04  0.10194187570E+04  0.00000000000E+00 0. -1.
         -2   -1    0    0    0  501 -0.00000000000E+00 -0.00000000000E+00 -0.12999642968E+04  0.12999642968E+04  0.00000000000E+00 0.  1.
        -24    2    1    2    0    0  0.59566252589E+03 -0.80873801088E+02 -0.88935618905E+03  0.10764637814E+04  0.80407867366E+02 0.  0.
        254    2    1    2    0    0 -0.59566252589E+03  0.80873801088E+02  0.60881064923E+03  0.12429192724E+04  0.90157833533E+03 0.  0.
         23    2    4    4    0    0 -0.59401133404E+03 -0.10454736404E+03  0.76756511760E+03  0.98038588572E+03  0.90667849134E+02 0.  0.
         23    2    4    4    0    0 -0.16511918508E+01  0.18542116512E+03 -0.15875446837E+03  0.26253338672E+03  0.96628479282E+02 0.  0.
          1    1    3    3  502    0  0.28127842446E+03 -0.77553947994E+02 -0.41101986077E+03  0.50405306553E+03  0.00000000000E+00 0. -1.
         -2    1    3    3    0  502  0.31438410143E+03 -0.33198530943E+01 -0.47833632828E+03  0.57241071584E+03  0.00000000000E+00 0.  1.
         11    1    5    5    0    0 -0.40747154707E+03 -0.67186526983E+02  0.58984815808E+03  0.72004717948E+03  0.00000000000E+00 0.  1.
        -11    1    5    5    0    0 -0.18653978697E+03 -0.37360837053E+02  0.17771695952E+03  0.26033870624E+03  0.00000000000E+00 0. -1.
          3    1    6    6  503    0  0.52662991305E+01  0.12416471976E+03 -0.43212517102E+02  0.13157481968E+03  0.00000000000E+00 0. -1.
         -3    1    6    6    0  503 -0.69174909812E+01  0.61256445362E+02 -0.11554195126E+03  0.13095856704E+03  0.00000000000E+00 0.  1.
<mgrwt>
<rscale>  0 0.23023536E+04</rscale>
<asrwt>0</asrwt>
<pdfrwt beam="1">  1        1 0.15683366E+00 0.23023536E+04</pdfrwt>
<pdfrwt beam="2">  1       -2 0.19999451E+00 0.23023536E+04</pdfrwt>
<totfact> 0.15400541E+00</totfact>
</mgrwt>
</event>
<event>
12    4  0.4424320E-008  0.1099523E+04  0.7818608E-02  0.9205657E-01
          1   -1    0    0  501    0  0.00000000000E+00  0.00000000000E+00  0.39048788989E+03  0.39048788989E+03  0.00000000000E+00 0. -1.
         -2   -1    0    0    0  501 -0.00000000000E+00 -0.00000000000E+00 -0.77399957692E+03  0.77399957692E+03  0.00000000000E+00 0.  1.
        -24    2    1    2    0    0 -0.14762604614E+03 -0.14332854102E+02 -0.14587280153E+03  0.22265189185E+03  0.79348034064E+02 0.  0.
        254    2    1    2    0    0  0.14762604614E+03  0.14332854102E+02 -0.23763888549E+03  0.94183557496E+03  0.89921250556E+03 0.  0.
         23    2    4    4    0    0  0.20942329013E+03 -0.38077506792E+03  0.40805932086E+02  0.44600332715E+03  0.91684660317E+02 0.  0.
         23    2    4    4    0    0 -0.61797243984E+02  0.39510792202E+03 -0.27844481757E+03  0.49583224782E+03  0.91591113844E+02 0.  0.
          1    1    3    3  502    0 -0.94184240457E+02  0.23392313376E+02 -0.57839298074E+02  0.11297458067E+03  0.00000000000E+00 0. -1.
         -2    1    3    3    0  502 -0.53441805686E+02 -0.37725167478E+02 -0.88033503460E+02  0.10967731118E+03  0.00000000000E+00 0.  1.
         11    1    5    5    0    0  0.13756868491E+03 -0.29820141275E+03 -0.21640372859E+01  0.32841118844E+03  0.00000000000E+00 0.  1.
        -11    1    5    5    0    0  0.71854605213E+02 -0.82573655171E+02  0.42969969372E+02  0.11759213871E+03  0.00000000000E+00 0. -1.
          2    1    6    6  503    0  0.30870817565E+01  0.37929855734E+01  0.59903811225E+01  0.77331416206E+01  0.00000000000E+00 0. -1.
         -2    1    6    6    0  503 -0.64884325740E+02  0.39131493644E+03 -0.28443519870E+03  0.48809910620E+03  0.00000000000E+00 0.  1.
<mgrwt>
<rscale>  0 0.10995226E+04</rscale>
<asrwt>0</asrwt>
<pdfrwt beam="1">  1        1 0.60075060E-01 0.10995226E+04</pdfrwt>
<pdfrwt beam="2">  1       -2 0.11907686E+00 0.10995226E+04</pdfrwt>
<totfact> 0.29181123E+01</totfact>
</mgrwt>
</event>
<event>
12    4  0.4424320E-008  0.1374595E+04  0.7818608E-02  0.8972416E-01
          1   -1    0    0  501    0  0.00000000000E+00  0.00000000000E+00  0.12075996711E+04  0.12075996711E+04  0.00000000000E+00 0. -1.
         -2   -1    0    0    0  501 -0.00000000000E+00 -0.00000000000E+00 -0.39117064003E+03  0.39117064003E+03  0.00000000000E+00 0.  1.
        -24    2    1    2    0    0  0.12780797306E+03  0.49864114810E+02  0.64161718399E+03  0.66110720997E+03  0.81048284146E+02 0.  0.
        254    2    1    2    0    0 -0.12780797306E+03 -0.49864114810E+02  0.17481184704E+03  0.93766310110E+03  0.91095093248E+03 0.  0.
         23    2    4    4    0    0 -0.24138787224E+03 -0.74468260091E+02 -0.32230832605E+03  0.42012904245E+03  0.93872938839E+02 0.  0.
         23    2    4    4    0    0  0.11357989918E+03  0.24604145281E+02  0.49712017309E+03  0.51753405865E+03  0.84895688398E+02 0.  0.
          3    1    3    3  502    0  0.11737271745E+03  0.63369044826E+02  0.61633582171E+03  0.63060434170E+03  0.00000000000E+00 0. -1.
         -4    1    3    3    0  502  0.10435255604E+02 -0.13504930016E+02  0.25281362280E+02  0.30502868275E+02  0.00000000000E+00 0.  1.
         11    1    5    5    0    0 -0.22173114631E+03 -0.94217048592E+02 -0.29755195548E+03  0.38285600386E+03  0.00000000000E+00 0.  1.
        -11    1    5    5    0    0 -0.19656725928E+02  0.19748788500E+02 -0.24756370578E+02  0.37273038589E+02  0.00000000000E+00 0. -1.
          1    1    6    6  503    0 -0.83161967798E+01  0.78332914330E+01  0.10224740445E+02  0.15331826399E+02  0.00000000000E+00 0. -1.
         -1    1    6    6    0  503  0.12189609596E+03  0.16770853848E+02  0.48689543264E+03  0.50220223225E+03  0.00000000000E+00 0.  1.
<mgrwt>
<rscale>  0 0.13745945E+04</rscale>
<asrwt>0</asrwt>
<pdfrwt beam="1">  1        1 0.18578456E+00 0.13745945E+04</pdfrwt>
<pdfrwt beam="2">  1       -2 0.60180099E-01 0.13745945E+04</pdfrwt>
<totfact> 0.23263875E+01</totfact>
</mgrwt>
</event>
<event>
12    4  0.4424320E-008  0.1540584E+04  0.7818608E-02  0.8857905E-01
         -2   -1    0    0    0  501 -0.00000000000E+00  0.00000000000E+00  0.28402171157E+03  0.28402171157E+03  0.00000000000E+00 0.  1.
          1   -1    0    0  501    0  0.00000000000E+00 -0.00000000000E+00 -0.20890996967E+04  0.20890996967E+04  0.00000000000E+00 0. -1.
        -24    2    1    2    0    0  0.25745327862E+03 -0.39733202869E+03 -0.35232325754E+03  0.59553399645E+03  0.79838157700E+02 0.  0.
        254    2    1    2    0    0 -0.25745327862E+03  0.39733202869E+03 -0.14527547276E+04  0.17775874118E+04  0.90838635856E+03 0.  0.
         23    2    4    4    0    0  0.25503804626E+03  0.56553463009E+02 -0.91250425139E+03  0.95350529353E+03  0.90915547412E+02 0.  0.
         23    2    4    4    0    0 -0.51249132487E+03  0.34077856568E+03 -0.54025047620E+03  0.82408211829E+03  0.91996585541E+02 0.  0.
          1    1    3    3  502    0  0.26298980383E+03 -0.38515192038E+03 -0.33830857103E+03  0.57615824904E+03  0.00000000000E+00 0. -1.
         -2    1    3    3    0  502 -0.55365252175E+01 -0.12180108305E+02 -0.14014686507E+02  0.19375747410E+02  0.00000000000E+00 0.  1.
         11    1    5    5    0    0  0.98269954879E+02  0.67665273705E+02 -0.37953600769E+03  0.39784815499E+03  0.00000000000E+00 0. -1.
        -11    1    5    5    0    0  0.15676809138E+03 -0.11111810696E+02 -0.53296824370E+03  0.55565713854E+03  0.00000000000E+00 0.  1.
          2    1    6    6  503    0 -0.25463241401E+03  0.18889104209E+03 -0.33470326688E+03  0.46102469446E+03  0.00000000000E+00 0. -1.
         -2    1    6    6    0  503 -0.25785891087E+03  0.15188752359E+03 -0.20554720932E+03  0.36305742383E+03  0.00000000000E+00 0.  1.
<mgrwt>
<rscale>  0 0.15405839E+04</rscale>
<asrwt>0</asrwt>
<pdfrwt beam="1">  1        1 0.32139995E+00 0.15405839E+04</pdfrwt>
<pdfrwt beam="2">  1       -2 0.43695649E-01 0.15405839E+04</pdfrwt>
<totfact> 0.10907055E+01</totfact>
</mgrwt>
</event>
<event>
12    4  0.4424320E-008  0.3123602E+04  0.7818608E-02  0.8209290E-01
          1   -1    0    0  501    0  0.00000000000E+00  0.00000000000E+00  0.15058104903E+04  0.15058104903E+04  0.00000000000E+00 0. -1.
         -2   -1    0    0    0  501 -0.00000000000E+00 -0.00000000000E+00 -0.16198735148E+04  0.16198735148E+04  0.00000000000E+00 0.  1.
        -24    2    1    2    0    0 -0.11254937441E+04 -0.68768448085E+03 -0.60795271511E+03  0.14545916274E+04  0.81142993462E+02 0.  0.
        254    2    1    2    0    0  0.11254937441E+04  0.68768448085E+03  0.49388969064E+03  0.16710923777E+04  0.89943126208E+03 0.  0.
         23    2    4    4    0    0  0.12184337834E+04  0.43324812653E+03  0.31551493300E+03  0.13342440751E+04  0.91502761849E+02 0.  0.
         23    2    4    4    0    0 -0.92940039254E+02  0.25443635433E+03  0.17837475763E+03  0.33684830264E+03  0.90958867241E+02 0.  0.
          3    1    3    3  502    0 -0.93835734930E+03 -0.55406851263E+03 -0.47282738608E+03  0.11878855874E+04  0.00000000000E+00 0. -1.
         -4    1    3    3    0  502 -0.18713639482E+03 -0.13361596823E+03 -0.13512532903E+03  0.26670604001E+03  0.00000000000E+00 0.  1.
         11    1    5    5    0    0  0.20911956528E+03  0.92186465287E+02  0.24600482431E+02  0.22985760962E+03  0.00000000000E+00 0. -1.
        -11    1    5    5    0    0  0.10093142181E+04  0.34106166124E+03  0.29091445057E+03  0.11043864655E+04  0.00000000000E+00 0.  1.
          3    1    6    6  503    0 -0.64428680122E+02  0.59695176682E+02  0.68908196264E+02  0.11163739720E+03  0.00000000000E+00 0. -1.
         -3    1    6    6    0  503 -0.28511359133E+02  0.19474117764E+03  0.10946656137E+03  0.22521090544E+03  0.00000000000E+00 0.  1.
<mgrwt>
<rscale>  0 0.31236021E+04</rscale>
<asrwt>0</asrwt>
<pdfrwt beam="1">  1        1 0.23166315E+00 0.31236021E+04</pdfrwt>
<pdfrwt beam="2">  1       -2 0.24921131E+00 0.31236021E+04</pdfrwt>
<totfact> 0.31153064E-01</totfact>
</mgrwt>
</event>
<event>
12    4  0.4424320E-008  0.1486188E+04  0.7818608E-02  0.8893690E-01
          1   -1    0    0  501    0  0.00000000000E+00  0.00000000000E+00  0.19311047593E+04  0.19311047593E+04  0.00000000000E+00 0. -1.
         -2   -1    0    0    0  501 -0.00000000000E+00 -0.00000000000E+00 -0.28594433655E+03  0.28594433655E+03  0.00000000000E+00 0.  1.
        -24    2    1    2    0    0  0.18654938033E+03  0.91129065233E+02  0.11502023670E+04  0.11717693014E+04  0.83502292661E+02 0.  0.
        254    2    1    2    0    0 -0.18654938033E+03 -0.91129065233E+02  0.49495805571E+03  0.10452797944E+04  0.89695105430E+03 0.  0.
         23    2    4    4    0    0 -0.21172212925E+03 -0.39579822397E+03  0.55569112919E+03  0.72020847214E+03  0.91788442482E+02 0.  0.
         23    2    4    4    0    0  0.25172748921E+02  0.30466915873E+03 -0.60733073479E+02  0.32507132225E+03  0.92335771848E+02 0.  0.
          1    1    3    3  502    0  0.14084339131E+03  0.45587215231E+02  0.94893055151E+03  0.96040837494E+03  0.00000000000E+00 0. -1.
         -2    1    3    3    0  502  0.45705989018E+02  0.45541850002E+02  0.20127181549E+03  0.21136092649E+03  0.00000000000E+00 0.  1.
         11    1    5    5    0    0 -0.12428197006E+03 -0.25683895594E+03  0.41708234577E+03  0.50534140987E+03  0.00000000000E+00 0. -1.
        -11    1    5    5    0    0 -0.87440159191E+02 -0.13895926802E+03  0.13860878341E+03  0.21486706227E+03  0.00000000000E+00 0.  1.
          3    1    6    6  503    0 -0.78653416496E+01  0.58903918461E+02  0.22434407915E+02  0.63520373644E+02  0.00000000000E+00 0. -1.
         -3    1    6    6    0  503  0.33038090570E+02  0.24576524027E+03 -0.83167481395E+02  0.26155094861E+03  0.00000000000E+00 0.  1.
<mgrwt>
<rscale>  0 0.14861877E+04</rscale>
<asrwt>0</asrwt>
<pdfrwt beam="1">  1        1 0.29709303E+00 0.14861877E+04</pdfrwt>
<pdfrwt beam="2">  1       -2 0.43991438E-01 0.14861877E+04</pdfrwt>
<totfact> 0.13832410E+01</totfact>
</mgrwt>
</event>
<event>
12    4  0.4424320E-008  0.1257845E+04  0.7818608E-02  0.9063679E-01
         -2   -1    0    0    0  501 -0.00000000000E+00  0.00000000000E+00  0.10980944892E+04  0.10980944892E+04  0.00000000000E+00 0.  1.
          1   -1    0    0  501    0  0.00000000000E+00 -0.00000000000E+00 -0.36020875820E+03  0.36020875820E+03  0.00000000000E+00 0. -1.
        -24    2    1    2    0    0 -0.59676260775E+02 -0.50902366921E+02  0.51169209630E+03  0.52369249599E+03  0.79200516926E+02 0.  0.
        254    2    1    2    0    0  0.59676260775E+02  0.50902366921E+02  0.22619363473E+03  0.93461075145E+03  0.90342757832E+03 0.  0.
         23    2    4    4    0    0  0.36240257901E+03  0.31842783088E+03  0.15233926456E+03  0.51404337674E+03  0.91112177504E+02 0.  0.
         23    2    4    4    0    0 -0.30272631824E+03 -0.26752546396E+03  0.73854370170E+02  0.42056737471E+03  0.90605469277E+02 0.  0.
          3    1    3    3  502    0 -0.27155592451E-01 -0.30078197107E+02  0.55323152878E+02  0.62971024471E+02  0.00000000000E+00 0. -1.
         -4    1    3    3    0  502 -0.59649105182E+02 -0.20824169814E+02  0.45636894343E+03  0.46072147152E+03  0.00000000000E+00 0.  1.
         11    1    5    5    0    0  0.36297374123E+03  0.32225487604E+03  0.15478367983E+03  0.50946651460E+03  0.00000000000E+00 0. -1.
        -11    1    5    5    0    0 -0.57116221935E+00 -0.38270451681E+01 -0.24444152704E+01  0.45768621362E+01  0.00000000000E+00 0.  1.
          2    1    6    6  503    0 -0.22401745636E+03 -0.19667855699E+03  0.12908029003E+02  0.29838380108E+03  0.00000000000E+00 0. -1.
         -2    1    6    6    0  503 -0.78708861876E+02 -0.70846906962E+02  0.60946341167E+02  0.12218357363E+03  0.00000000000E+00 0.  1.
<mgrwt>
<rscale>  0 0.12578446E+04</rscale>
<asrwt>0</asrwt>
<pdfrwt beam="1">  1        1 0.55416732E-01 0.12578446E+04</pdfrwt>
<pdfrwt beam="2">  1       -2 0.16893761E+00 0.12578446E+04</pdfrwt>
<totfact> 0.12858177E+01</totfact>
</mgrwt>
</event>
<event>
12    4  0.4424320E-008  0.1493528E+04  0.7818608E-02  0.8888768E-01
          1   -1    0    0  501    0  0.00000000000E+00  0.00000000000E+00  0.74596178055E+03  0.74596178055E+03  0.00000000000E+00 0. -1.
         -2   -1    0    0    0  501 -0.00000000000E+00 -0.00000000000E+00 -0.74756691240E+03  0.74756691240E+03  0.00000000000E+00 0.  1.
        -24    2    1    2    0    0 -0.51044097956E+02 -0.78993638054E+02  0.46127254991E+03  0.47811893356E+03  0.83545523793E+02 0.  0.
        254    2    1    2    0    0  0.51044097956E+02  0.78993638054E+02 -0.46287768176E+03  0.10154097594E+04  0.89886358053E+03 0.  0.
         23    2    4    4    0    0  0.42838279244E+03  0.11174351656E+03 -0.61691416526E+02  0.45627956690E+03  0.91579375096E+02 0.  0.
         23    2    4    4    0    0 -0.37733869449E+03 -0.32749878510E+02 -0.40118626523E+03  0.55913019249E+03  0.90659295374E+02 0.  0.
          3    1    3    3  502    0 -0.68449747840E+01 -0.14491150438E+02  0.28298205181E+03  0.28343551078E+03  0.00000000000E+00 0. -1.
         -4    1    3    3    0  502 -0.44199123172E+02 -0.64502487616E+02  0.17829049809E+03  0.19468342279E+03  0.00000000000E+00 0.  1.
         11    1    5    5    0    0  0.35127667762E+03  0.81898347236E+02 -0.14302032426E+02  0.36098087436E+03  0.00000000000E+00 0.  1.
        -11    1    5    5    0    0  0.77106114822E+02  0.29845169328E+02 -0.47389384099E+02  0.95298692543E+02  0.00000000000E+00 0. -1.
          3    1    6    6  503    0 -0.63439521713E+02 -0.93544143056E+01 -0.12448900105E+03  0.14003424355E+03  0.00000000000E+00 0. -1.
         -3    1    6    6    0  503 -0.31389917277E+03 -0.23395464204E+02 -0.27669726418E+03  0.41909594894E+03  0.00000000000E+00 0.  1.
<mgrwt>
<rscale>  0 0.14935278E+04</rscale>
<asrwt>0</asrwt>
<pdfrwt beam="1">  1        1 0.11476335E+00 0.14935278E+04</pdfrwt>
<pdfrwt beam="2">  1       -2 0.11501029E+00 0.14935278E+04</pdfrwt>
<totfact> 0.12341225E+01</totfact>
</mgrwt>
</event>
<event>
12    4  0.4424320E-008  0.1397675E+04  0.7818608E-02  0.8955503E-01
          1   -1    0    0  501    0  0.00000000000E+00  0.00000000000E+00  0.80682412510E+03  0.80682412510E+03  0.00000000000E+00 0. -1.
         -2   -1    0    0    0  501 -0.00000000000E+00 -0.00000000000E+00 -0.60530414076E+03  0.60530414076E+03  0.00000000000E+00 0.  1.
        -24    2    1    2    0    0 -0.31819188064E+02  0.16059624771E+03  0.40087174593E+03  0.44047052771E+03  0.80700146124E+02 0.  0.
        254    2    1    2    0    0  0.31819188064E+02 -0.16059624771E+03 -0.19935176159E+03  0.97165773816E+03  0.93678920776E+03 0.  0.
         23    2    4    4    0    0  0.33897857425E+03  0.23935646179E+03 -0.17193105647E+03  0.45845578194E+03  0.91779225396E+02 0.  0.
         23    2    4    4    0    0 -0.30715938618E+03 -0.39995270950E+03 -0.27420705122E+02  0.51320195622E+03  0.91188236357E+02 0.  0.
          3    1    3    3  502    0 -0.35150035422E+02  0.65373588671E+02  0.26011118881E+03  0.27049410646E+03  0.00000000000E+00 0. -1.
         -4    1    3    3    0  502  0.33308473573E+01  0.95222659037E+02  0.14076055712E+03  0.16997642125E+03  0.00000000000E+00 0.  1.
         11    1    5    5    0    0  0.30958122003E+03  0.18689627576E+03 -0.16638926295E+03  0.39806549274E+03  0.00000000000E+00 0. -1.
        -11    1    5    5    0    0  0.29397354217E+02  0.52460186031E+02 -0.55417935143E+01  0.60390289192E+02  0.00000000000E+00 0.  1.
          1    1    6    6  503    0 -0.29051288285E+03 -0.35775907779E+03 -0.12982832850E+01  0.46085895715E+03  0.00000000000E+00 0. -1.
         -1    1    6    6    0  503 -0.16646503331E+02 -0.42193631705E+02 -0.26122421837E+02  0.52342999076E+02  0.00000000000E+00 0.  1.
<mgrwt>
<rscale>  0 0.13976752E+04</rscale>
<asrwt>0</asrwt>
<pdfrwt beam="1">  1        1 0.12412679E+00 0.13976752E+04</pdfrwt>
<pdfrwt beam="2">  1       -2 0.93123714E-01 0.13976752E+04</pdfrwt>
<totfact> 0.18195366E+01</totfact>
</mgrwt>
</event>
<event>
12    4  0.4424320E-008  0.1245499E+04  0.7818608E-02  0.9073938E-01
         -4   -1    0    0    0  501 -0.00000000000E+00  0.00000000000E+00  0.49967562258E+03  0.49967562258E+03  0.00000000000E+00 0.  1.
          3   -1    0    0  501    0  0.00000000000E+00 -0.00000000000E+00 -0.77613762492E+03  0.77613762492E+03  0.00000000000E+00 0. -1.
        -24    2    1    2    0    0 -0.70936229447E+02 -0.25123582359E+03  0.36415398114E+02  0.27495217601E+03  0.78238290943E+02 0.  0.
        254    2    1    2    0    0  0.70936229447E+02  0.25123582359E+03 -0.31287740045E+03  0.10008610715E+04  0.91415492615E+03 0.  0.
         23    2    4    4    0    0 -0.25260827533E+03  0.34608169268E+03 -0.44800609482E+03  0.62682986395E+03  0.92858702189E+02 0.  0.
         23    2    4    4    0    0  0.32354450478E+03 -0.94845869094E+02  0.13512869437E+03  0.37403120753E+03  0.89234492828E+02 0.  0.
          1    1    3    3  502    0  0.29998536940E+01 -0.65204735571E+02 -0.17605265708E+02  0.67606227848E+02  0.00000000000E+00 0. -1.
         -2    1    3    3    0  502 -0.73936083141E+02 -0.18603108801E+03  0.54020663822E+02  0.20734594816E+03  0.00000000000E+00 0.  1.
         11    1    5    5    0    0 -0.25813495657E+03  0.34552468709E+03 -0.44705978801E+03  0.62119515391E+03  0.00000000000E+00 0. -1.
        -11    1    5    5    0    0  0.55266812322E+01  0.55700558829E+00 -0.94630681436E+00  0.56347100418E+01  0.00000000000E+00 0.  1.
          3    1    6    6  503    0  0.31308405099E+03 -0.68652165568E+02  0.12574819412E+03  0.34430705939E+03  0.00000000000E+00 0. -1.
         -3    1    6    6    0  503  0.10460453788E+02 -0.26193703526E+02  0.93805002437E+01  0.29724148140E+02  0.00000000000E+00 0.  1.
<mgrwt>
<rscale>  0 0.12454992E+04</rscale>
<asrwt>0</asrwt>
<pdfrwt beam="1">  1        3 0.11940579E+00 0.12454992E+04</pdfrwt>
<pdfrwt beam="2">  1       -4 0.76873173E-01 0.12454992E+04</pdfrwt>
<totfact> 0.19607550E+00</totfact>
</mgrwt>
</event>
<event>
12    4  0.4424320E-008  0.1699753E+04  0.7818608E-02  0.8761505E-01
         -2   -1    0    0    0  501 -0.00000000000E+00  0.00000000000E+00  0.51721477518E+03  0.51721477518E+03  0.00000000000E+00 0.  1.
          1   -1    0    0  501    0  0.00000000000E+00 -0.00000000000E+00 -0.13964994914E+04  0.13964994914E+04  0.00000000000E+00 0. -1.
        -24    2    1    2    0    0  0.51305678038E+02 -0.17986786575E+03  0.33649728274E+03  0.39263518619E+03  0.77118392212E+02 0.  0.
        254    2    1    2    0    0 -0.51305678038E+02  0.17986786575E+03 -0.12157819989E+04  0.15210790803E+04  0.89474632050E+03 0.  0.
         23    2    4    4    0    0  0.32048089306E+03  0.21779596934E+03 -0.22288421029E+03  0.45627491015E+03  0.91467673855E+02 0.  0.
         23    2    4    4    0    0 -0.37178657109E+03 -0.37928103586E+02 -0.99289778862E+03  0.10648041702E+04  0.91093944502E+02 0.  0.
          3    1    3    3  502    0 -0.13206923184E+01 -0.33514517193E+01  0.61767071644E+02  0.61872025960E+02  0.00000000000E+00 0. -1.
         -4    1    3    3    0  502  0.52626370357E+02 -0.17651641403E+03  0.27473021109E+03  0.33076316023E+03  0.00000000000E+00 0.  1.
         11    1    5    5    0    0  0.21016784813E+03  0.12717024677E+03 -0.18793637867E+03  0.30929416172E+03  0.00000000000E+00 0.  1.
        -11    1    5    5    0    0  0.11031304493E+03  0.90625722568E+02 -0.34947831624E+02  0.14698074842E+03  0.00000000000E+00 0. -1.
          3    1    6    6  503    0 -0.49494577606E+02  0.16713017570E+01 -0.23689402434E+03  0.24201505166E+03  0.00000000000E+00 0. -1.
         -3    1    6    6    0  503 -0.32229199349E+03 -0.39599405343E+02 -0.75600376429E+03  0.82278911854E+03  0.00000000000E+00 0.  1.
<mgrwt>
<rscale>  0 0.16997531E+04</rscale>
<asrwt>0</asrwt>
<pdfrwt beam="1">  1        1 0.21484607E+00 0.16997531E+04</pdfrwt>
<pdfrwt beam="2">  1       -2 0.79571505E-01 0.16997531E+04</pdfrwt>
<totfact> 0.90260224E+00</totfact>
</mgrwt>
</event>
<event>
12    4  0.4424320E-008  0.1257304E+04  0.7818608E-02  0.9064126E-01
          1   -1    0    0  501    0  0.00000000000E+00  0.00000000000E+00  0.17718317765E+04  0.17718317765E+04  0.00000000000E+00 0. -1.
         -2   -1    0    0    0  501 -0.00000000000E+00 -0.00000000000E+00 -0.22304785503E+03  0.22304785503E+03  0.00000000000E+00 0.  1.
        -24    2    1    2    0    0  0.26293069918E+03  0.93929111581E+02  0.55010582365E+03  0.62274195291E+03  0.85064047152E+02 0.  0.
        254    2    1    2    0    0 -0.26293069918E+03 -0.93929111581E+02  0.99867809784E+03  0.13721376786E+04  0.89858145733E+03 0.  0.
         23    2    4    4    0    0 -0.29207362040E+03  0.11510373892E+03  0.10803796683E+04  0.11287799636E+04  0.91477363835E+02 0.  0.
         23    2    4    4    0    0  0.29142921214E+02 -0.20903285050E+03 -0.81701570466E+02  0.24335771504E+03  0.89463894418E+02 0.  0.
          1    1    3    3  502    0  0.13864758831E+03  0.90622361897E+02  0.34894334948E+03  0.38626031037E+03  0.00000000000E+00 0. -1.
         -2    1    3    3    0  502  0.12428311088E+03  0.33067496839E+01  0.20116247417E+03  0.23648164254E+03  0.00000000000E+00 0.  1.
         11    1    5    5    0    0 -0.69922147006E+02  0.39166361738E+01  0.36056519811E+03  0.36730329261E+03  0.00000000000E+00 0.  1.
        -11    1    5    5    0    0 -0.22215147339E+03  0.11118710275E+03  0.71981447020E+03  0.76147667099E+03  0.00000000000E+00 0. -1.
          4    1    6    6  503    0  0.58639908010E+02 -0.16223771543E+03 -0.50038120964E+02  0.17962051294E+03  0.00000000000E+00 0. -1.
         -4    1    6    6    0  503 -0.29496986796E+02 -0.46795135071E+02 -0.31663449502E+02  0.63737202094E+02  0.00000000000E+00 0.  1.
<mgrwt>
<rscale>  0 0.12573039E+04</rscale>
<asrwt>0</asrwt>
<pdfrwt beam="1">  1        1 0.27258950E+00 0.12573039E+04</pdfrwt>
<pdfrwt beam="2">  1       -2 0.34315056E-01 0.12573039E+04</pdfrwt>
<totfact> 0.29320172E+01</totfact>
</mgrwt>
</event>
<event>
12    4  0.4424320E-008  0.1539283E+04  0.7818608E-02  0.8858743E-01
          1   -1    0    0  501    0  0.00000000000E+00  0.00000000000E+00  0.10492679765E+04  0.10492679765E+04  0.00000000000E+00 0. -1.
         -2   -1    0    0    0  501 -0.00000000000E+00 -0.00000000000E+00 -0.56453439443E+03  0.56453439443E+03  0.00000000000E+00 0.  1.
        -24    2    1    2    0    0 -0.63433208400E+02 -0.23948866730E+03 -0.29665732685E+03  0.39467185346E+03  0.79885597232E+02 0.  0.
        254    2    1    2    0    0  0.63433208400E+02  0.23948866730E+03  0.78139090895E+03  0.12191305175E+04  0.90240172450E+03 0.  0.
         23    2    4    4    0    0  0.22915534330E+03  0.50480585773E+03  0.67111603879E+03  0.87560885023E+03  0.94620271143E+02 0.  0.
         23    2    4    4    0    0 -0.16572213490E+03 -0.26531719043E+03  0.11027487015E+03  0.34352166725E+03  0.89384290275E+02 0.  0.
          1    1    3    3  502    0 -0.95548920419E+01 -0.47449094132E+02 -0.17261285078E+02  0.51387395910E+02  0.00000000000E+00 0. -1.
         -2    1    3    3    0  502 -0.53878316358E+02 -0.19203957317E+03 -0.27939604178E+03  0.34328445755E+03  0.00000000000E+00 0.  1.
         11    1    5    5    0    0  0.44657674781E+02  0.32552644828E+02  0.71558595998E+02  0.90413578977E+02  0.00000000000E+00 0. -1.
        -11    1    5    5    0    0  0.18449766852E+03  0.47225321290E+03  0.59955744280E+03  0.78519527125E+03  0.00000000000E+00 0.  1.
          2    1    6    6  503    0 -0.32102866162E+02 -0.48194197631E+02  0.60532433409E+02  0.83770222607E+02  0.00000000000E+00 0. -1.
         -2    1    6    6    0  503 -0.13361926874E+03 -0.21712299280E+03  0.49742436745E+02  0.25975144464E+03  0.00000000000E+00 0.  1.
<mgrwt>
<rscale>  0 0.15392828E+04</rscale>
<asrwt>0</asrwt>
<pdfrwt beam="1">  1        1 0.16142584E+00 0.15392828E+04</pdfrwt>
<pdfrwt beam="2">  1       -2 0.86851445E-01 0.15392828E+04</pdfrwt>
<totfact> 0.13438516E+01</totfact>
</mgrwt>
</event>
<event>
12    4  0.4424320E-008  0.2091527E+04  0.7818608E-02  0.8564985E-01
          1   -1    0    0  501    0  0.00000000000E+00  0.00000000000E+00  0.23200842829E+04  0.23200842829E+04  0.00000000000E+00 0. -1.
         -2   -1    0    0    0  501 -0.00000000000E+00 -0.00000000000E+00 -0.47137118174E+03  0.47137118174E+03  0.00000000000E+00 0.  1.
        -24    2    1    2    0    0 -0.85086437647E+03 -0.27245950222E+02  0.78094434889E+03  0.11580577899E+04  0.80692252738E+02 0.  0.
        254    2    1    2    0    0  0.85086437647E+03  0.27245950222E+02  0.10677687523E+04  0.16333976748E+04  0.89618375720E+03 0.  0.
         23    2    4    4    0    0  0.23373008573E+01  0.15628903215E+03 -0.79714311731E+02  0.19758898950E+03  0.90858751541E+02 0.  0.
         23    2    4    4    0    0  0.84852707561E+03 -0.12904308193E+03  0.11474830640E+04  0.14358086853E+04  0.90437179764E+02 0.  0.
          3    1    3    3  502    0 -0.58913987983E+03 -0.77946470649E+01  0.49085195771E+03  0.76686517649E+03  0.00000000000E+00 0. -1.
         -4    1    3    3    0  502 -0.26172449664E+03 -0.19451303157E+02  0.29009239118E+03  0.39119261338E+03  0.00000000000E+00 0.  1.
         11    1    5    5    0    0  0.44868622358E+01  0.16838612001E+03 -0.72955905775E+02  0.18356628648E+03  0.00000000000E+00 0.  1.
        -11    1    5    5    0    0 -0.21495613785E+01 -0.12097087862E+02 -0.67584059564E+01  0.14022703018E+02  0.00000000000E+00 0. -1.
          1    1    6    6  503    0  0.46506381398E+03 -0.25270759932E+02  0.61346510087E+03  0.77023528377E+03  0.00000000000E+00 0. -1.
         -1    1    6    6    0  503  0.38346326163E+03 -0.10377232200E+03  0.53401796314E+03  0.66557340151E+03  0.00000000000E+00 0.  1.
<mgrwt>
<rscale>  0 0.20915266E+04</rscale>
<asrwt>0</asrwt>
<pdfrwt beam="1">  1        1 0.35693604E+00 0.20915266E+04</pdfrwt>
<pdfrwt beam="2">  1       -2 0.72518644E-01 0.20915266E+04</pdfrwt>
<totfact> 0.25079084E+00</totfact>
</mgrwt>
</event>
<event>
12    4  0.4424320E-008  0.1940685E+04  0.7818608E-02  0.8634866E-01
          1   -1    0    0  501    0  0.00000000000E+00  0.00000000000E+00  0.20951731347E+04  0.20951731347E+04  0.00000000000E+00 0. -1.
         -2   -1    0    0    0  501 -0.00000000000E+00 -0.00000000000E+00 -0.44939716411E+03  0.44939716411E+03  0.00000000000E+00 0.  1.
        -24    2    1    2    0    0 -0.19320499682E+03  0.73449962110E+03  0.63519958692E+03  0.99314634640E+03  0.77738574423E+02 0.  0.
        254    2    1    2    0    0  0.19320499682E+03 -0.73449962110E+03  0.10105763837E+04  0.15514239524E+04  0.89935187147E+03 0.  0.
         23    2    4    4    0    0 -0.65086954335E+01 -0.85459470770E+03  0.52738343805E+03  0.10084583485E+04  0.92089480300E+02 0.  0.
         23    2    4    4    0    0  0.19971369225E+03  0.12009508661E+03  0.48319294562E+03  0.54296560392E+03  0.83832187370E+02 0.  0.
          1    1    3    3  502    0 -0.18379452170E+03  0.67509695225E+03  0.60883320099E+03  0.92747732467E+03  0.00000000000E+00 0. -1.
         -2    1    3    3    0  502 -0.94104751213E+01  0.59402668845E+02  0.26366385929E+02  0.65669021729E+02  0.00000000000E+00 0.  1.
         11    1    5    5    0    0  0.10245156967E+02 -0.65922602959E+03  0.44691906061E+03  0.79650522162E+03  0.00000000000E+00 0.  1.
        -11    1    5    5    0    0 -0.16753852400E+02 -0.19536867812E+03  0.80464377438E+02  0.21195312688E+03  0.00000000000E+00 0. -1.
          3    1    6    6  503    0  0.88336200487E+02  0.73984722368E+01  0.19130676216E+03  0.21084662425E+03  0.00000000000E+00 0. -1.
         -3    1    6    6    0  503  0.11137749176E+03  0.11269661437E+03  0.29188618346E+03  0.33211897967E+03  0.00000000000E+00 0.  1.
<mgrwt>
<rscale>  0 0.19406853E+04</rscale>
<asrwt>0</asrwt>
<pdfrwt beam="1">  1        1 0.32233432E+00 0.19406853E+04</pdfrwt>
<pdfrwt beam="2">  1       -2 0.69138026E-01 0.19406853E+04</pdfrwt>
<totfact> 0.40160856E+00</totfact>
</mgrwt>
</event>
<event>
12    4  0.4424320E-008  0.2277731E+04  0.7818608E-02  0.8486754E-01
          1   -1    0    0  501    0  0.00000000000E+00  0.00000000000E+00  0.81208675563E+03  0.81208675563E+03  0.00000000000E+00 0. -1.
         -2   -1    0    0    0  501 -0.00000000000E+00 -0.00000000000E+00 -0.15971374502E+04  0.15971374502E+04  0.00000000000E+00 0.  1.
        -24    2    1    2    0    0 -0.72651427618E+03  0.55765848768E+03 -0.64258361712E+03  0.11216929256E+04  0.80469446842E+02 0.  0.
        254    2    1    2    0    0  0.72651427618E+03 -0.55765848768E+03 -0.14246707743E+03  0.12875312803E+04  0.89366321797E+03 0.  0.
         23    2    4    4    0    0 -0.27915347261E+02 -0.31120515216E+03 -0.33382620572E+03  0.46594357599E+03  0.89641324338E+02 0.  0.
         23    2    4    4    0    0  0.75442962344E+03 -0.24645333552E+03  0.19135912830E+03  0.82158770428E+03  0.92112629618E+02 0.  0.
          1    1    3    3  502    0 -0.32730534398E+03  0.26398873558E+03 -0.24780362167E+03  0.48808347198E+03  0.00000000000E+00 0. -1.
         -2    1    3    3    0  502 -0.39920893220E+03  0.29366975210E+03 -0.39477999546E+03  0.63360945357E+03  0.00000000000E+00 0.  1.
         11    1    5    5    0    0  0.26378929701E+02 -0.54952711703E+02 -0.43314194240E+02  0.74778124330E+02  0.00000000000E+00 0.  1.
        -11    1    5    5    0    0 -0.54294276962E+02 -0.25625244046E+03 -0.29051201149E+03  0.39116545166E+03  0.00000000000E+00 0. -1.
          4    1    6    6  503    0  0.52397518064E+03 -0.18848362558E+03  0.93717725936E+02  0.56467608343E+03  0.00000000000E+00 0. -1.
         -4    1    6    6    0  503  0.23045444280E+03 -0.57969709935E+02  0.97641402360E+02  0.25691162086E+03  0.00000000000E+00 0.  1.
<mgrwt>
<rscale>  0 0.22777306E+04</rscale>
<asrwt>0</asrwt>
<pdfrwt beam="1">  1        1 0.12493642E+00 0.22777306E+04</pdfrwt>
<pdfrwt beam="2">  1       -2 0.24571345E+00 0.22777306E+04</pdfrwt>
<totfact> 0.11696728E+00</totfact>
</mgrwt>
</event>
<event>
12    4  0.4424320E-008  0.2161511E+04  0.7818608E-02  0.8534621E-01
         -2   -1    0    0    0  501 -0.00000000000E+00  0.00000000000E+00  0.39715139102E+03  0.39715139102E+03  0.00000000000E+00 0.  1.
          1   -1    0    0  501    0  0.00000000000E+00 -0.00000000000E+00 -0.29410254092E+04  0.29410254092E+04  0.00000000000E+00 0. -1.
        -24    2    1    2    0    0  0.55219213125E+03  0.29580273166E+03 -0.20318885130E+04  0.21276927159E+04  0.78038183231E+02 0.  0.
        254    2    1    2    0    0 -0.55219213125E+03 -0.29580273166E+03 -0.51198550515E+03  0.12104840843E+04  0.90040388439E+03 0.  0.
         23    2    4    4    0    0  0.16218019486E+03  0.15437609646E+03 -0.14463321803E+03  0.28501276226E+03  0.10089158604E+03 0.  0.
         23    2    4    4    0    0 -0.71437232610E+03 -0.45017882812E+03 -0.36735228713E+03  0.92547132205E+03  0.92523875304E+02 0.  0.
          3    1    3    3  502    0  0.40161978283E+03  0.19919650449E+03 -0.13376655138E+04  0.14107893975E+04  0.00000000000E+00 0. -1.
         -4    1    3    3    0  502  0.15057234842E+03  0.96606227170E+02 -0.69422299924E+03  0.71690331839E+03  0.00000000000E+00 0.  1.
         11    1    5    5    0    0  0.73654799978E+02  0.10419803200E+02 -0.27135030678E+02  0.79182774317E+02  0.00000000000E+00 0. -1.
        -11    1    5    5    0    0  0.88525394879E+02  0.14395629326E+03 -0.11749818735E+03  0.20582998794E+03  0.00000000000E+00 0.  1.
          3    1    6    6  503    0 -0.63876702300E+02 -0.47284012802E+02 -0.65267384297E+02  0.10283891489E+03  0.00000000000E+00 0. -1.
         -3    1    6    6    0  503 -0.65049562380E+03 -0.40289481531E+03 -0.30208490283E+03  0.82263240716E+03  0.00000000000E+00 0.  1.
<mgrwt>
<rscale>  0 0.21615109E+04</rscale>
<asrwt>0</asrwt>
<pdfrwt beam="1">  1        1 0.45246544E+00 0.21615109E+04</pdfrwt>
<pdfrwt beam="2">  1       -2 0.61100214E-01 0.21615109E+04</pdfrwt>
<totfact> 0.13230633E+00</totfact>
</mgrwt>
</event>
<event>
12    4  0.4424320E-008  0.1690840E+04  0.7818608E-02  0.8766606E-01
         -2   -1    0    0    0  501 -0.00000000000E+00  0.00000000000E+00  0.53200907001E+03  0.53200907001E+03  0.00000000000E+00 0.  1.
          1   -1    0    0  501    0  0.00000000000E+00 -0.00000000000E+00 -0.13434646021E+04  0.13434646021E+04  0.00000000000E+00 0. -1.
        -24    2    1    2    0    0  0.58524627670E+03 -0.70085281394E+02 -0.45766282065E+03  0.75043526773E+03  0.79200268904E+02 0.  0.
        254    2    1    2    0    0 -0.58524627670E+03  0.70085281394E+02 -0.35379271146E+03  0.11250384044E+04  0.89057115248E+03 0.  0.
         23    2    4    4    0    0 -0.64774101714E+03 -0.26341602176E+03 -0.15681910075E+03  0.72229862363E+03  0.90369494507E+02 0.  0.
         23    2    4    4    0    0  0.62494740444E+02  0.33350130315E+03 -0.19697361071E+03  0.40273978077E+03  0.90950623485E+02 0.  0.
          1    1    3    3  502    0  0.36430711520E+03 -0.98456888539E+01 -0.30479482111E+03  0.47509630050E+03  0.00000000000E+00 0. -1.
         -2    1    3    3    0  502  0.22093916149E+03 -0.60239592540E+02 -0.15286799954E+03  0.27533896723E+03  0.00000000000E+00 0.  1.
         11    1    5    5    0    0 -0.54861925963E+03 -0.22641115945E+03 -0.98923037248E+02  0.60169001359E+03  0.00000000000E+00 0.  1.
        -11    1    5    5    0    0 -0.99121757510E+02 -0.37004862304E+02 -0.57896063503E+02  0.12060861004E+03  0.00000000000E+00 0. -1.
          4    1    6    6  503    0  0.24512997885E+02  0.36172176926E+02 -0.57273070558E+02  0.72038309669E+02  0.00000000000E+00 0. -1.
         -4    1    6    6    0  503  0.37981742559E+02  0.29732912622E+03 -0.13970054015E+03  0.33070147110E+03  0.00000000000E+00 0.  1.
<mgrwt>
<rscale>  0 0.16908404E+04</rscale>
<asrwt>0</asrwt>
<pdfrwt beam="1">  1        1 0.20668686E+00 0.16908404E+04</pdfrwt>
<pdfrwt beam="2">  1       -2 0.81847550E-01 0.16908404E+04</pdfrwt>
<totfact> 0.92392385E+00</totfact>
</mgrwt>
</event>
<event>
12    4  0.4424320E-008  0.2733848E+04  0.7818608E-02  0.8324105E-01
          1   -1    0    0  501    0  0.00000000000E+00  0.00000000000E+00  0.13207260131E+04  0.13207260131E+04  0.00000000000E+00 0. -1.
         -2   -1    0    0    0  501 -0.00000000000E+00 -0.00000000000E+00 -0.14147382899E+04  0.14147382899E+04  0.00000000000E+00 0.  1.
        -24    2    1    2    0    0 -0.40002898277E+03 -0.18678453394E+03 -0.11784940916E+04  0.12609152703E+04  0.78405010645E+02 0.  0.
        254    2    1    2    0    0  0.40002898277E+03  0.18678453394E+03  0.10844818149E+04  0.14745490327E+04  0.89626022673E+03 0.  0.
         23    2    4    4    0    0  0.36328886441E+03  0.36999567997E+03  0.11419733058E+04  0.12583199659E+04  0.10193381810E+03 0.  0.
         23    2    4    4    0    0  0.36740118361E+02 -0.18321114604E+03 -0.57491490943E+02  0.21622906681E+03  0.92377364520E+02 0.  0.
          3    1    3    3  502    0 -0.27501457399E+03 -0.16353636132E+03 -0.79902128440E+03  0.86070446165E+03  0.00000000000E+00 0. -1.
         -4    1    3    3    0  502 -0.12501440878E+03 -0.23248172613E+02 -0.37947280720E+03  0.40021080862E+03  0.00000000000E+00 0.  1.
         11    1    5    5    0    0  0.29965174791E+03  0.27926499172E+03  0.97900500666E+03  0.10612402691E+04  0.00000000000E+00 0. -1.
        -11    1    5    5    0    0  0.63637116502E+02  0.90730688252E+02  0.16296829914E+03  0.19707969685E+03  0.00000000000E+00 0.  1.
          3    1    6    6  503    0  0.48746790642E+02 -0.16202606377E+03 -0.76154955927E+02  0.18554857113E+03  0.00000000000E+00 0. -1.
         -3    1    6    6    0  503 -0.12006672281E+02 -0.21185082270E+02  0.18663464984E+02  0.30680495681E+02  0.00000000000E+00 0.  1.
<mgrwt>
<rscale>  0 0.27338483E+04</rscale>
<asrwt>0</asrwt>
<pdfrwt beam="1">  1        1 0.20318862E+00 0.27338483E+04</pdfrwt>
<pdfrwt beam="2">  1       -2 0.21765204E+00 0.27338483E+04</pdfrwt>
<totfact> 0.68345613E-01</totfact>
</mgrwt>
</event>
<event>
12    4  0.4424320E-008  0.2356843E+04  0.7818608E-02  0.8455840E-01
          1   -1    0    0  501    0  0.00000000000E+00  0.00000000000E+00  0.14463393245E+04  0.14463393245E+04  0.00000000000E+00 0. -1.
         -2   -1    0    0    0  501 -0.00000000000E+00 -0.00000000000E+00 -0.96013243610E+03  0.96013243610E+03  0.00000000000E+00 0.  1.
        -24    2    1    2    0    0 -0.41654989165E+03 -0.75928712255E+03 -0.30646288540E+03  0.92217198776E+03  0.80317670429E+02 0.  0.
        254    2    1    2    0    0  0.41654989165E+03  0.75928712255E+03  0.79266977377E+03  0.14842997728E+04  0.90817933174E+03 0.  0.
         23    2    4    4    0    0  0.31815766375E+03  0.61694968439E+03  0.34030504267E+02  0.70100864621E+03  0.91672431913E+02 0.  0.
         23    2    4    4    0    0  0.98392227906E+02  0.14233743816E+03  0.75863926950E+03  0.78329112659E+03  0.89835799961E+02 0.  0.
          1    1    3    3  502    0 -0.33331351537E+03 -0.57189844759E+03 -0.20215212700E+03  0.69212081051E+03  0.00000000000E+00 0. -1.
         -2    1    3    3    0  502 -0.83236376280E+02 -0.18738867496E+03 -0.10431075840E+03  0.23005117726E+03  0.00000000000E+00 0.  1.
         11    1    5    5    0    0  0.10208402498E+03  0.14751610631E+03  0.41703150524E+02  0.18417736707E+03  0.00000000000E+00 0.  1.
        -11    1    5    5    0    0  0.21607363877E+03  0.46943357808E+03 -0.76726462566E+01  0.51683127915E+03  0.00000000000E+00 0. -1.
          3    1    6    6  503    0  0.11367455639E+03  0.12762510226E+03  0.62362890305E+03  0.64662437335E+03  0.00000000000E+00 0. -1.
         -3    1    6    6    0  503 -0.15282328480E+02  0.14712335902E+02  0.13501036645E+03  0.13666675324E+03  0.00000000000E+00 0.  1.
<mgrwt>
<rscale>  0 0.23568431E+04</rscale>
<asrwt>0</asrwt>
<pdfrwt beam="1">  1        1 0.22251374E+00 0.23568431E+04</pdfrwt>
<pdfrwt beam="2">  1       -2 0.14771268E+00 0.23568431E+04</pdfrwt>
<totfact> 0.17568240E+00</totfact>
</mgrwt>
</event>
<event>
12    4  0.4424320E-008  0.2250544E+04  0.7818608E-02  0.8497680E-01
          1   -1    0    0  501    0  0.00000000000E+00  0.00000000000E+00  0.10620724502E+04  0.10620724502E+04  0.00000000000E+00 0. -1.
         -2   -1    0    0    0  501 -0.00000000000E+00 -0.00000000000E+00 -0.11922324525E+04  0.11922324525E+04  0.00000000000E+00 0.  1.
        -24    2    1    2    0    0 -0.56646092044E+03 -0.56797630166E+03 -0.55350114978E+03  0.97763313578E+03  0.76993322755E+02 0.  0.
        254    2    1    2    0    0  0.56646092044E+03  0.56797630166E+03  0.42334114748E+03  0.12766717669E+04  0.89844199570E+03 0.  0.
         23    2    4    4    0    0  0.78830292545E+03  0.51736922404E+03  0.26850737082E+03  0.98461079090E+03  0.90938358922E+02 0.  0.
         23    2    4    4    0    0 -0.22184200501E+03  0.50607077619E+02  0.15483377667E+03  0.29206097601E+03  0.97730055851E+02 0.  0.
          3    1    3    3  502    0 -0.11322050640E+03 -0.14692041152E+03 -0.15531994180E+03  0.24192720953E+03  0.00000000000E+00 0. -1.
         -4    1    3    3    0  502 -0.45324041404E+03 -0.42105589014E+03 -0.39818120798E+03  0.73570592626E+03  0.00000000000E+00 0.  1.
         11    1    5    5    0    0  0.56445019303E+03  0.33024442102E+03  0.21165980383E+03  0.68736109185E+03  0.00000000000E+00 0. -1.
        -11    1    5    5    0    0  0.22385273242E+03  0.18712480302E+03  0.56847566985E+02  0.29724969905E+03  0.00000000000E+00 0.  1.
          2    1    6    6  503    0 -0.14796227536E+03 -0.10417172877E+02  0.11747052123E+03  0.18921066507E+03  0.00000000000E+00 0.  1.
         -2    1    6    6    0  503 -0.73879729656E+02  0.61024250495E+02  0.37363255437E+02  0.10285031093E+03  0.00000000000E+00 0. -1.
<mgrwt>
<rscale>  0 0.22505441E+04</rscale>
<asrwt>0</asrwt>
<pdfrwt beam="1">  1        1 0.16339576E+00 0.22505441E+04</pdfrwt>
<pdfrwt beam="2">  1       -2 0.18342038E+00 0.22505441E+04</pdfrwt>
<totfact> 0.18522891E+00</totfact>
</mgrwt>
</event>
<event>
12    4  0.4424320E-008  0.1847353E+04  0.7818608E-02  0.8681515E-01
          1   -1    0    0  501    0  0.00000000000E+00  0.00000000000E+00  0.12632482051E+04  0.12632482051E+04  0.00000000000E+00 0. -1.
         -2   -1    0    0    0  501 -0.00000000000E+00 -0.00000000000E+00 -0.67538421190E+03  0.67538421190E+03  0.00000000000E+00 0.  1.
        -24    2    1    2    0    0 -0.49146321351E+03 -0.23875567017E+03  0.68837185374E+03  0.88357909604E+03  0.91191280703E+02 0.  0.
        254    2    1    2    0    0  0.49146321351E+03  0.23875567017E+03 -0.10050786057E+03  0.10550533209E+04  0.89693663082E+03 0.  0.
         23    2    4    4    0    0  0.52446470144E+03  0.15468149482E+03 -0.42986200038E+03  0.70168043913E+03  0.92652638335E+02 0.  0.
         23    2    4    4    0    0 -0.33001487930E+02  0.84074175344E+02  0.32935413981E+03  0.35337288181E+03  0.90778185827E+02 0.  0.
          1    1    3    3  502    0 -0.43442294176E+03 -0.18992381783E+03  0.62997699379E+03  0.78845758389E+03  0.00000000000E+00 0. -1.
         -2    1    3    3    0  502 -0.57040271751E+02 -0.48831852339E+02  0.58394859952E+02  0.95121512147E+02  0.00000000000E+00 0.  1.
         11    1    5    5    0    0  0.32965928547E+03  0.14326888046E+03 -0.28046108713E+03  0.45591626205E+03  0.00000000000E+00 0.  1.
        -11    1    5    5    0    0  0.19480541597E+03  0.11412614365E+02 -0.14940091324E+03  0.24576417708E+03  0.00000000000E+00 0. -1.
          3    1    6    6  503    0 -0.29782859718E+02  0.41555057517E+02  0.52598166806E+02  0.73351269175E+02  0.00000000000E+00 0. -1.
         -3    1    6    6    0  503 -0.32186282120E+01  0.42519117827E+02  0.27675597300E+03  0.28002161263E+03  0.00000000000E+00 0.  1.
<mgrwt>
<rscale>  0 0.18473526E+04</rscale>
<asrwt>0</asrwt>
<pdfrwt beam="1">  1        1 0.19434588E+00 0.18473526E+04</pdfrwt>
<pdfrwt beam="2">  1       -2 0.10390526E+00 0.18473526E+04</pdfrwt>
<totfact> 0.59742922E+00</totfact>
</mgrwt>
</event>
<event>
12    4  0.4424320E-008  0.1294124E+04  0.7818608E-02  0.9034238E-01
          1   -1    0    0  501    0  0.00000000000E+00  0.00000000000E+00  0.25295210026E+04  0.25295210026E+04  0.00000000000E+00 0. -1.
         -2   -1    0    0    0  501 -0.00000000000E+00 -0.00000000000E+00 -0.16552120456E+03  0.16552120456E+03  0.00000000000E+00 0.  1.
        -24    2    1    2    0    0 -0.15260273691E+03 -0.35028194451E+02  0.11805365625E+04  0.11935835496E+04  0.80377514480E+02 0.  0.
        254    2    1    2    0    0  0.15260273691E+03  0.35028194451E+02  0.11834632355E+04  0.15014586575E+04  0.91064718782E+03 0.  0.
         23    2    4    4    0    0 -0.15253388928E+02 -0.30581849528E+02  0.12750672069E+04  0.12788922735E+04  0.92742383550E+02 0.  0.
         23    2    4    4    0    0  0.16785612584E+03  0.65610043979E+02 -0.91603971420E+02  0.22256638398E+03  0.93081420506E+02 0.  0.
          3    1    3    3  502    0 -0.11108175201E+03  0.29683598051E+01  0.59017376614E+03  0.60054395429E+03  0.00000000000E+00 0. -1.
         -4    1    3    3    0  502 -0.41520984900E+02 -0.37996554256E+02  0.59036279632E+03  0.59303959530E+03  0.00000000000E+00 0.  1.
         11    1    5    5    0    0  0.34215462654E+02 -0.35278482390E+02  0.63005888030E+03  0.63197267492E+03  0.00000000000E+00 0.  1.
        -11    1    5    5    0    0 -0.49468851582E+02  0.46966328619E+01  0.64500832665E+03  0.64691959863E+03  0.00000000000E+00 0. -1.
          3    1    6    6  503    0  0.13590391008E+03  0.70605495260E+01 -0.59071446242E+02  0.14835484453E+03  0.00000000000E+00 0. -1.
         -3    1    6    6    0  503  0.31952215764E+02  0.58549494453E+02 -0.32532525177E+02  0.74211539449E+02  0.00000000000E+00 0.  1.
<mgrwt>
<rscale>  0 0.12941242E+04</rscale>
<asrwt>0</asrwt>
<pdfrwt beam="1">  1        1 0.38915705E+00 0.12941242E+04</pdfrwt>
<pdfrwt beam="2">  1       -2 0.25464803E-01 0.12941242E+04</pdfrwt>
<totfact> 0.15549591E+01</totfact>
</mgrwt>
</event>
<event>
12    4  0.4424320E-008  0.2031130E+04  0.7818608E-02  0.8592203E-01
         -2   -1    0    0    0  501 -0.00000000000E+00  0.00000000000E+00  0.89964263999E+03  0.89964263999E+03  0.00000000000E+00 0.  1.
          1   -1    0    0  501    0  0.00000000000E+00 -0.00000000000E+00 -0.11464248171E+04  0.11464248171E+04  0.00000000000E+00 0. -1.
        -24    2    1    2    0    0 -0.59553053028E+03  0.45095325351E+02  0.45802480996E+03  0.75696378410E+03  0.80729443356E+02 0.  0.
        254    2    1    2    0    0  0.59553053028E+03 -0.45095325351E+02 -0.70480698705E+03  0.12891036730E+04  0.89908019097E+03 0.  0.
         23    2    4    4    0    0  0.98925269729E+02 -0.36759326328E+03 -0.53943132248E+03  0.66629089738E+03  0.89701683733E+02 0.  0.
         23    2    4    4    0    0  0.49660526055E+03  0.32249793793E+03 -0.16537566458E+03  0.62281277559E+03  0.99623984201E+02 0.  0.
          1    1    3    3  502    0 -0.13069272379E+03  0.33672546824E+02  0.13427230783E+03  0.19037720744E+03  0.00000000000E+00 0. -1.
         -2    1    3    3    0  502 -0.46483780649E+03  0.11422778527E+02  0.32375250213E+03  0.56658657666E+03  0.00000000000E+00 0.  1.
         11    1    5    5    0    0  0.69401195293E+02 -0.15880469777E+03 -0.30639688782E+03  0.35201492981E+03  0.00000000000E+00 0. -1.
        -11    1    5    5    0    0  0.29524074436E+02 -0.20878856550E+03 -0.23303443466E+03  0.31427596757E+03  0.00000000000E+00 0.  1.
          3    1    6    6  503    0  0.47233268512E+03  0.27588254657E+03 -0.16033934221E+03  0.57001583276E+03  0.00000000000E+00 0. -1.
         -3    1    6    6    0  503  0.24272575428E+02  0.46615391351E+02 -0.50363223701E+01  0.52796942826E+02  0.00000000000E+00 0.  1.
<mgrwt>
<rscale>  0 0.20311304E+04</rscale>
<asrwt>0</asrwt>
<pdfrwt beam="1">  1        1 0.17637305E+00 0.20311304E+04</pdfrwt>
<pdfrwt beam="2">  1       -2 0.13840656E+00 0.20311304E+04</pdfrwt>
<totfact> 0.35137566E+00</totfact>
</mgrwt>
</event>
<event>
12    4  0.4424320E-008  0.2159875E+04  0.7818608E-02  0.8535317E-01
         -2   -1    0    0    0  501 -0.00000000000E+00  0.00000000000E+00  0.16145874475E+04  0.16145874475E+04  0.00000000000E+00 0.  1.
          1   -1    0    0  501    0  0.00000000000E+00 -0.00000000000E+00 -0.72232974389E+03  0.72232974389E+03  0.00000000000E+00 0. -1.
        -24    2    1    2    0    0  0.79784845747E+03 -0.37902512352E+03  0.47919524801E+03  0.10081248524E+04  0.80407878326E+02 0.  0.
        254    2    1    2    0    0 -0.79784845747E+03  0.37902512352E+03  0.41306245561E+03  0.13287923390E+04  0.90268836410E+03 0.  0.
         23    2    4    4    0    0 -0.46325456386E+03  0.58532395211E+03  0.51595583569E+03  0.91217047892E+03  0.92928135596E+02 0.  0.
         23    2    4    4    0    0 -0.33459389361E+03 -0.20629882859E+03 -0.10289338007E+03  0.41662186011E+03  0.92056756076E+02 0.  0.
          1    1    3    3  502    0  0.72161178800E+03 -0.32224151710E+03  0.44586370680E+03  0.90739055150E+03  0.00000000000E+00 0. -1.
         -2    1    3    3    0  502  0.76236669475E+02 -0.56783606426E+02  0.33331541211E+02  0.10073430087E+03  0.00000000000E+00 0.  1.
         11    1    5    5    0    0 -0.16541066986E+02  0.10251093583E+02  0.33227829842E+02  0.38506888899E+02  0.00000000000E+00 0. -1.
        -11    1    5    5    0    0 -0.44671349687E+03  0.57507285853E+03  0.48272800584E+03  0.87366359002E+03  0.00000000000E+00 0.  1.
          1    1    6    6  503    0 -0.54610604067E+02 -0.68563133273E+02  0.12793398680E+01  0.87663322041E+02  0.00000000000E+00 0. -1.
         -1    1    6    6    0  503 -0.27998328955E+03 -0.13773569532E+03 -0.10417271994E+03  0.32895853807E+03  0.00000000000E+00 0.  1.
<mgrwt>
<rscale>  0 0.21598746E+04</rscale>
<asrwt>0</asrwt>
<pdfrwt beam="1">  1        1 0.11112765E+00 0.21598746E+04</pdfrwt>
<pdfrwt beam="2">  1       -2 0.24839807E+00 0.21598746E+04</pdfrwt>
<totfact> 0.13680266E+00</totfact>
</mgrwt>
</event>
<event>
12    4  0.4424320E-008  0.1348042E+04  0.7818608E-02  0.8992312E-01
          1   -1    0    0  501    0  0.00000000000E+00  0.00000000000E+00  0.10392411640E+04  0.10392411640E+04  0.00000000000E+00 0. -1.
         -4   -1    0    0    0  501 -0.00000000000E+00 -0.00000000000E+00 -0.43715005169E+03  0.43715005169E+03  0.00000000000E+00 0.  1.
        -24    2    1    2    0    0  0.12293821786E+03 -0.10467313976E+03 -0.17326652738E+03  0.25047895088E+03  0.81536149784E+02 0.  0.
        254    2    1    2    0    0 -0.12293821786E+03  0.10467313976E+03  0.77535763967E+03  0.12259122648E+04  0.93574095773E+03 0.  0.
         23    2    4    4    0    0 -0.26664860185E+03 -0.35212228107E+03  0.46545664650E+03  0.64817056895E+03  0.91562104525E+02 0.  0.
         23    2    4    4    0    0  0.14371038398E+03  0.45679542083E+03  0.30990099317E+03  0.57774169585E+03  0.91826524467E+02 0.  0.
          3    1    3    3  502    0  0.88534951193E+02 -0.22659642581E+02 -0.77987723166E+02  0.12014150802E+03  0.00000000000E+00 0. -1.
         -4    1    3    3    0  502  0.34403266671E+02 -0.82013497179E+02 -0.95278804218E+02  0.13033744286E+03  0.00000000000E+00 0.  1.
         11    1    5    5    0    0 -0.10217011042E+03 -0.71265602514E+02  0.14899086624E+03  0.19420555035E+03  0.00000000000E+00 0. -1.
        -11    1    5    5    0    0 -0.16447849143E+03 -0.28085667856E+03  0.31646578026E+03  0.45396501859E+03  0.00000000000E+00 0.  1.
          4    1    6    6  503    0 -0.12680761571E+02  0.22311865698E+02  0.13132661309E+02  0.28828594451E+02  0.00000000000E+00 0. -1.
         -4    1    6    6    0  503  0.15639114555E+03  0.43448355513E+03  0.29676833186E+03  0.54891310140E+03  0.00000000000E+00 0.  1.
<mgrwt>
<rscale>  0 0.13480420E+04</rscale>
<asrwt>0</asrwt>
<pdfrwt beam="1">  1        1 0.15988326E+00 0.13480420E+04</pdfrwt>
<pdfrwt beam="2">  1       -4 0.67253854E-01 0.13480420E+04</pdfrwt>
<totfact> 0.13767124E+01</totfact>
</mgrwt>
</event>
<event>
12    4  0.4424320E-008  0.1143863E+04  0.7818608E-02  0.9163464E-01
          1   -1    0    0  501    0  0.00000000000E+00  0.00000000000E+00  0.11611028824E+04  0.11611028824E+04  0.00000000000E+00 0. -1.
         -2   -1    0    0    0  501 -0.00000000000E+00 -0.00000000000E+00 -0.28171984620E+03  0.28171984620E+03  0.00000000000E+00 0.  1.
        -24    2    1    2    0    0 -0.17909024218E+03  0.87550322355E+02  0.12399232421E+03  0.24801200365E+03  0.79984271601E+02 0.  0.
        254    2    1    2    0    0  0.17909024218E+03 -0.87550322355E+02  0.75539071202E+03  0.11948107250E+04  0.90400175161E+03 0.  0.
         23    2    4    4    0    0 -0.71446494188E+02 -0.45431727546E+03  0.43572070948E+03  0.64090652389E+03  0.96952810123E+02 0.  0.
         23    2    4    4    0    0  0.25053673637E+03  0.36676695310E+03  0.31967000254E+03  0.55390420108E+03  0.85640523662E+02 0.  0.
          3    1    3    3  502    0 -0.76318582486E+02  0.81375520371E+02  0.58246864034E+02  0.12585387764E+03  0.00000000000E+00 0. -1.
         -4    1    3    3    0  502 -0.10277165969E+03  0.61748019845E+01  0.65745460175E+02  0.12215812601E+03  0.00000000000E+00 0.  1.
         11    1    5    5    0    0 -0.62822535493E+02 -0.23052405892E+03  0.16916064339E+03  0.29275132106E+03  0.00000000000E+00 0.  1.
        -11    1    5    5    0    0 -0.86239586942E+01 -0.22379321653E+03  0.26656006608E+03  0.34815520283E+03  0.00000000000E+00 0. -1.
          1    1    6    6  503    0  0.24072621088E+03  0.35552972693E+03  0.28278915255E+03  0.51412080305E+03  0.00000000000E+00 0. -1.
         -1    1    6    6    0  503  0.98105254918E+01  0.11237226175E+02  0.36880849994E+02  0.39783398030E+02  0.00000000000E+00 0.  1.
<mgrwt>
<rscale>  0 0.11438631E+04</rscale>
<asrwt>0</asrwt>
<pdfrwt beam="1">  1        1 0.17863121E+00 0.11438631E+04</pdfrwt>
<pdfrwt beam="2">  1       -2 0.43341515E-01 0.11438631E+04</pdfrwt>
<totfact> 0.50187041E+01</totfact>
</mgrwt>
</event>
<event>
12    4  0.4424320E-008  0.2800668E+04  0.7818608E-02  0.8303061E-01
         -2   -1    0    0    0  501 -0.00000000000E+00  0.00000000000E+00  0.12447642440E+04  0.12447642440E+04  0.00000000000E+00 0.  1.
          1   -1    0    0  501    0  0.00000000000E+00 -0.00000000000E+00 -0.15753470938E+04  0.15753470938E+04  0.00000000000E+00 0. -1.
        -24    2    1    2    0    0  0.15916244620E+03 -0.10740714368E+03 -0.14353827308E+04  0.14504534019E+04  0.81378797106E+02 0.  0.
        254    2    1    2    0    0 -0.15916244620E+03  0.10740714368E+03  0.11047998810E+04  0.13696579359E+04  0.78645477013E+03 0.  0.
         23    2    4    4    0    0  0.15366148260E+03 -0.23139979459E+03  0.66281330806E+03  0.72426578053E+03  0.89898405591E+02 0.  0.
         23    2    4    4    0    0 -0.31282392879E+03  0.33880693827E+03  0.44198657295E+03  0.64539215536E+03  0.92357737558E+02 0.  0.
          3    1    3    3  502    0  0.11830768450E+03 -0.11584637875E+03 -0.10776775268E+04  0.10903237792E+04  0.00000000000E+00 0. -1.
         -4    1    3    3    0  502  0.40854761699E+02  0.84392350656E+01 -0.35770520394E+03  0.36012962273E+03  0.00000000000E+00 0.  1.
         11    1    5    5    0    0  0.10104047175E+03 -0.14663210950E+03  0.30884020210E+03  0.35650024250E+03  0.00000000000E+00 0. -1.
        -11    1    5    5    0    0  0.52621010843E+02 -0.84767685098E+02  0.35397310596E+03  0.36776553803E+03  0.00000000000E+00 0.  1.
          4    1    6    6  503    0 -0.22550499366E+03  0.26434798756E+03  0.38021113118E+03  0.51506588410E+03  0.00000000000E+00 0. -1.
         -4    1    6    6    0  503 -0.87318935134E+02  0.74458950715E+02  0.61775441763E+02  0.13032627126E+03  0.00000000000E+00 0.  1.
<mgrwt>
<rscale>  0 0.28006683E+04</rscale>
<asrwt>0</asrwt>
<pdfrwt beam="1">  1        1 0.24236109E+00 0.28006683E+04</pdfrwt>
<pdfrwt beam="2">  1       -2 0.19150219E+00 0.28006683E+04</pdfrwt>
<totfact> 0.66821539E-01</totfact>
</mgrwt>
</event>
<event>
12    4  0.4424320E-008  0.2365536E+04  0.7818608E-02  0.8452520E-01
          1   -1    0    0  501    0  0.00000000000E+00  0.00000000000E+00  0.77856304905E+03  0.77856304905E+03  0.00000000000E+00 0. -1.
         -2   -1    0    0    0  501 -0.00000000000E+00 -0.00000000000E+00 -0.17968239004E+04  0.17968239004E+04  0.00000000000E+00 0.  1.
        -24    2    1    2    0    0 -0.91890470482E+03 -0.40760909960E+03 -0.36218053621E+03  0.10706405366E+04  0.67567618974E+02 0.  0.
        254    2    1    2    0    0  0.91890470482E+03  0.40760909960E+03 -0.65608031512E+03  0.15047464129E+04  0.90735293714E+03 0.  0.
         23    2    4    4    0    0  0.97927570448E+03  0.57607634876E+03 -0.47685378298E+03  0.12356291533E+04  0.92439218797E+02 0.  0.
         23    2    4    4    0    0 -0.60370999667E+02 -0.16846724916E+03 -0.17922653214E+03  0.26911725956E+03  0.90972951636E+02 0.  0.
          3    1    3    3  502    0 -0.86701424451E+03 -0.39979595685E+03 -0.34896152372E+03  0.10165257755E+04  0.00000000000E+00 0. -1.
         -4    1    3    3    0  502 -0.51890460310E+02 -0.78131427438E+01 -0.13219012491E+02  0.54114761036E+02  0.00000000000E+00 0.  1.
         11    1    5    5    0    0  0.92475888449E+03  0.51686561773E+03 -0.44123106041E+03  0.11476122646E+04  0.00000000000E+00 0. -1.
        -11    1    5    5    0    0  0.54516819991E+02  0.59210731026E+02 -0.35622722569E+02  0.88016888685E+02  0.00000000000E+00 0.  1.
          1    1    6    6  503    0 -0.80458301219E+02 -0.95691605829E+02 -0.10538964651E+03  0.16351574619E+03  0.00000000000E+00 0. -1.
         -1    1    6    6    0  503  0.20087301552E+02 -0.72775643330E+02 -0.73836885633E+02  0.10560151337E+03  0.00000000000E+00 0.  1.
<mgrwt>
<rscale>  0 0.23655365E+04</rscale>
<asrwt>0</asrwt>
<pdfrwt beam="1">  1        1 0.11977893E+00 0.23655365E+04</pdfrwt>
<pdfrwt beam="2">  1       -2 0.27643444E+00 0.23655365E+04</pdfrwt>
<totfact> 0.80553125E-01</totfact>
</mgrwt>
</event>
<event>
12    4  0.4424320E-008  0.2629735E+04  0.7818608E-02  0.8358171E-01
          1   -1    0    0  501    0  0.00000000000E+00  0.00000000000E+00  0.11550744536E+04  0.11550744536E+04  0.00000000000E+00 0. -1.
         -2   -1    0    0    0  501 -0.00000000000E+00 -0.00000000000E+00 -0.14967662493E+04  0.14967662493E+04  0.00000000000E+00 0.  1.
        -24    2    1    2    0    0 -0.10344080726E+04 -0.21981198900E+03  0.31441517811E+03  0.11061167736E+04  0.79498687494E+02 0.  0.
        254    2    1    2    0    0  0.10344080726E+04  0.21981198900E+03 -0.65610697387E+03  0.15457239293E+04  0.91677081824E+03 0.  0.
         23    2    4    4    0    0  0.25556954738E+03  0.37710132163E+03 -0.57997015561E+03  0.74328098994E+03  0.92628550056E+02 0.  0.
         23    2    4    4    0    0  0.77883852526E+03 -0.15728933262E+03 -0.76136818258E+02  0.80244293935E+03  0.82392191605E+02 0.  0.
          1    1    3    3  502    0 -0.64161959730E+03 -0.12939963784E+03  0.23403392696E+03  0.69512002767E+03  0.00000000000E+00 0. -1.
         -4    1    3    3    0  502 -0.39278847535E+03 -0.90412351164E+02  0.80381251146E+02  0.41099674590E+03  0.00000000000E+00 0.  1.
         11    1    5    5    0    0  0.14142673100E+03  0.14660162118E+03 -0.20884015987E+03  0.29173235670E+03  0.00000000000E+00 0.  1.
        -11    1    5    5    0    0  0.11414281638E+03  0.23049970045E+03 -0.37112999575E+03  0.45154863324E+03  0.00000000000E+00 0. -1.
          4    1    6    6  503    0  0.54082435013E+03 -0.14692477163E+03 -0.46151119511E+02  0.56232356526E+03  0.00000000000E+00 0. -1.
         -4    1    6    6    0  503  0.23801417512E+03 -0.10364560999E+02 -0.29985698747E+02  0.24011937409E+03  0.00000000000E+00 0.  1.
<mgrwt>
<rscale>  0 0.26297349E+04</rscale>
<asrwt>0</asrwt>
<pdfrwt beam="1">  1        1 0.17770376E+00 0.26297349E+04</pdfrwt>
<pdfrwt beam="2">  1       -2 0.23027173E+00 0.26297349E+04</pdfrwt>
<totfact> 0.75699854E-01</totfact>
</mgrwt>
</event>
<event>
12    4  0.4424320E-008  0.1925356E+04  0.7818608E-02  0.8642337E-01
          1   -1    0    0  501    0  0.00000000000E+00  0.00000000000E+00  0.17600040365E+04  0.17600040365E+04  0.00000000000E+00 0. -1.
         -2   -1    0    0    0  501 -0.00000000000E+00 -0.00000000000E+00 -0.52656077579E+03  0.52656077579E+03  0.00000000000E+00 0.  1.
        -24    2    1    2    0    0 -0.34767026201E+03 -0.64018700227E+03  0.68055027569E+03  0.10001436945E+04  0.80154369342E+02 0.  0.
        254    2    1    2    0    0  0.34767026201E+03  0.64018700227E+03  0.55289298505E+03  0.12864211178E+04  0.90469587736E+03 0.  0.
         23    2    4    4    0    0 -0.65734873326E+02  0.63735939672E+03  0.80470012953E+02  0.65198659734E+03  0.89794353780E+02 0.  0.
         23    2    4    4    0    0  0.41340513534E+03  0.28276055535E+01  0.47242297210E+03  0.63443452049E+03  0.91716383195E+02 0.  0.
          1    1    3    3  502    0 -0.27555498105E+02 -0.19257645226E+02  0.22703564645E+02  0.40566170919E+02  0.00000000000E+00 0. -1.
         -2    1    3    3    0  502 -0.32011476391E+03 -0.62092935705E+03  0.65784671104E+03  0.95957752357E+03  0.00000000000E+00 0.  1.
         11    1    5    5    0    0 -0.94052636839E+01  0.38980221937E+03  0.16989113658E+02  0.39028561233E+03  0.00000000000E+00 0. -1.
        -11    1    5    5    0    0 -0.56329609642E+02  0.24755717735E+03  0.63480899295E+02  0.26170098501E+03  0.00000000000E+00 0.  1.
          2    1    6    6  503    0  0.14713364025E+03  0.33942792549E+02  0.21533382625E+03  0.26300014826E+03  0.00000000000E+00 0. -1.
         -2    1    6    6    0  503  0.26627149509E+03 -0.31115186995E+02  0.25708914585E+03  0.37143437222E+03  0.00000000000E+00 0.  1.
<mgrwt>
<rscale>  0 0.19253562E+04</rscale>
<asrwt>0</asrwt>
<pdfrwt beam="1">  1        1 0.27076985E+00 0.19253562E+04</pdfrwt>
<pdfrwt beam="2">  1       -2 0.81009351E-01 0.19253562E+04</pdfrwt>
<totfact> 0.47773250E+00</totfact>
</mgrwt>
</event>
<event>
12    4  0.4424320E-008  0.2170257E+04  0.7818608E-02  0.8530911E-01
          1   -1    0    0  501    0  0.00000000000E+00  0.00000000000E+00  0.18896975842E+04  0.18896975842E+04  0.00000000000E+00 0. -1.
         -2   -1    0    0    0  501 -0.00000000000E+00 -0.00000000000E+00 -0.62311778066E+03  0.62311778066E+03  0.00000000000E+00 0.  1.
        -24    2    1    2    0    0 -0.35766668027E+03  0.75608893976E+03  0.15554394810E+03  0.85454337733E+03  0.80340058248E+02 0.  0.
        254    2    1    2    0    0  0.35766668027E+03 -0.75608893976E+03  0.11110358554E+04  0.16582719875E+04  0.90325487739E+03 0.  0.
         23    2    4    4    0    0  0.17811979128E+03 -0.93637574499E+03  0.82753005449E+03  0.12655228408E+04  0.90641455880E+02 0.  0.
         23    2    4    4    0    0  0.17954688899E+03  0.18028680524E+03  0.28350580091E+03  0.39274914674E+03  0.95582088421E+02 0.  0.
          3    1    3    3  502    0 -0.30902367056E+00  0.35011509780E+02  0.12379683215E+02  0.37137014813E+02  0.00000000000E+00 0. -1.
         -4    1    3    3    0  502 -0.35735765660E+03  0.72107742997E+03  0.14316426488E+03  0.81740636252E+03  0.00000000000E+00 0.  1.
         11    1    5    5    0    0  0.16891199904E+03 -0.69842111882E+03  0.59915822875E+03  0.93558212131E+03  0.00000000000E+00 0.  1.
        -11    1    5    5    0    0  0.92077922406E+01 -0.23795462617E+03  0.22837182574E+03  0.32994071945E+03  0.00000000000E+00 0. -1.
          1    1    6    6  503    0  0.16799198312E+02  0.14498080516E+02 -0.45818394569E+01  0.22658346263E+02  0.00000000000E+00 0. -1.
         -1    1    6    6    0  503  0.16274769068E+03  0.16578872472E+03  0.28808764036E+03  0.37009080047E+03  0.00000000000E+00 0.  1.
<mgrwt>
<rscale>  0 0.21702573E+04</rscale>
<asrwt>0</asrwt>
<pdfrwt beam="1">  1        1 0.29072270E+00 0.21702573E+04</pdfrwt>
<pdfrwt beam="2">  1       -2 0.95864275E-01 0.21702573E+04</pdfrwt>
<totfact> 0.25936446E+00</totfact>
</mgrwt>
</event>
<event>
12    4  0.4424320E-008  0.1294929E+04  0.7818608E-02  0.9033596E-01
          1   -1    0    0  501    0  0.00000000000E+00  0.00000000000E+00  0.15886595842E+04  0.15886595842E+04  0.00000000000E+00 0. -1.
         -2   -1    0    0    0  501 -0.00000000000E+00 -0.00000000000E+00 -0.26387677434E+03  0.26387677434E+03  0.00000000000E+00 0.  1.
        -24    2    1    2    0    0 -0.19703404124E+03 -0.10055305470E+03  0.68344731000E+03  0.72283993493E+03  0.80399102959E+02 0.  0.
        254    2    1    2    0    0  0.19703404124E+03  0.10055305470E+03  0.64133549988E+03  0.11296964236E+04  0.90331027668E+03 0.  0.
         23    2    4    4    0    0 -0.25276432121E+03  0.13982923478E+02  0.60356728491E+03  0.66038216110E+03  0.87896570243E+02 0.  0.
         23    2    4    4    0    0  0.44979836245E+03  0.86570131225E+02  0.37768214967E+02  0.46931426254E+03  0.94955170878E+02 0.  0.
          1    1    3    3  502    0 -0.17590555148E+03 -0.55706253713E+02  0.50578274999E+03  0.53838846563E+03  0.00000000000E+00 0. -1.
         -2    1    3    3    0  502 -0.21128489767E+02 -0.44846800990E+02  0.17766456002E+03  0.18445146929E+03  0.00000000000E+00 0.  1.
         11    1    5    5    0    0 -0.16837715217E+03  0.29023347611E+02  0.30324899585E+03  0.34807064450E+03  0.00000000000E+00 0. -1.
        -11    1    5    5    0    0 -0.84387169039E+02 -0.15040424133E+02  0.30031828906E+03  0.31231151660E+03  0.00000000000E+00 0.  1.
          4    1    6    6  503    0  0.36677907928E+03  0.51160989851E+02  0.62880569739E+02  0.37563054446E+03  0.00000000000E+00 0. -1.
         -4    1    6    6    0  503  0.83019283172E+02  0.35409141374E+02 -0.25112354771E+02  0.93683718081E+02  0.00000000000E+00 0.  1.
<mgrwt>
<rscale>  0 0.12949291E+04</rscale>
<asrwt>0</asrwt>
<pdfrwt beam="1">  1        1 0.24440916E+00 0.12949291E+04</pdfrwt>
<pdfrwt beam="2">  1       -2 0.40596428E-01 0.12949291E+04</pdfrwt>
<totfact> 0.28152693E+01</totfact>
</mgrwt>
</event>
<event>
12    4  0.4424320E-008  0.2402510E+04  0.7818608E-02  0.8438564E-01
          1   -1    0    0  501    0  0.00000000000E+00  0.00000000000E+00  0.70225721681E+03  0.70225721681E+03  0.00000000000E+00 0. -1.
         -2   -1    0    0    0  501 -0.00000000000E+00 -0.00000000000E+00 -0.20548226642E+04  0.20548226642E+04  0.00000000000E+00 0.  1.
        -24    2    1    2    0    0 -0.47437026027E+03  0.83597977399E+03 -0.10123563515E+04  0.13982066974E+04  0.78912990127E+02 0.  0.
        254    2    1    2    0    0  0.47437026027E+03 -0.83597977399E+03 -0.34020909592E+03  0.13588731836E+04  0.89827878402E+03 0.  0.
         23    2    4    4    0    0  0.44259606706E+03 -0.46137824621E+03  0.21650750282E+03  0.68123622281E+03  0.91902817364E+02 0.  0.
         23    2    4    4    0    0  0.31774193204E+02 -0.37460152778E+03 -0.55671659874E+03  0.67763696079E+03  0.89008849854E+02 0.  0.
          1    1    3    3  502    0 -0.33721269120E+03  0.55017497063E+03 -0.63454512591E+03  0.90501514586E+03  0.00000000000E+00 0. -1.
         -2    1    3    3    0  502 -0.13715756907E+03  0.28580480335E+03 -0.37781122558E+03  0.49319155158E+03  0.00000000000E+00 0.  1.
         11    1    5    5    0    0  0.38381003129E+03 -0.34810615585E+03  0.17933145665E+03  0.54831360297E+03  0.00000000000E+00 0.  1.
        -11    1    5    5    0    0  0.58786035771E+02 -0.11327209036E+03  0.37176046163E+02  0.13292261984E+03  0.00000000000E+00 0. -1.
          4    1    6    6  503    0  0.21929249130E+02 -0.15704082172E+02 -0.32105685970E+02  0.41931911903E+02  0.00000000000E+00 0. -1.
         -4    1    6    6    0  503  0.98449440743E+01 -0.35889744561E+03 -0.52461091277E+03  0.63570504889E+03  0.00000000000E+00 0.  1.
<mgrwt>
<rscale>  0 0.24025104E+04</rscale>
<asrwt>0</asrwt>
<pdfrwt beam="1">  1        1 0.10803957E+00 0.24025104E+04</pdfrwt>
<pdfrwt beam="2">  1       -2 0.31612656E+00 0.24025104E+04</pdfrwt>
<totfact> 0.53883616E-01</totfact>
</mgrwt>
</event>
<event>
12    4  0.4424320E-008  0.1626965E+04  0.7818608E-02  0.8804152E-01
         -2   -1    0    0    0  501 -0.00000000000E+00  0.00000000000E+00  0.60330321676E+03  0.60330321676E+03  0.00000000000E+00 0.  1.
          1   -1    0    0  501    0  0.00000000000E+00 -0.00000000000E+00 -0.10968835650E+04  0.10968835650E+04  0.00000000000E+00 0. -1.
        -24    2    1    2    0    0  0.38610937967E+03 -0.38978940600E+03 -0.29572845836E+03  0.62837482761E+03  0.79895987340E+02 0.  0.
        254    2    1    2    0    0 -0.38610937967E+03  0.38978940600E+03 -0.19785188990E+03  0.10718119542E+04  0.89923259543E+03 0.  0.
         23    2    4    4    0    0  0.78660424391E+02  0.12743643990E+03 -0.44372870269E+03  0.47769820682E+03  0.94196107248E+02 0.  0.
         23    2    4    4    0    0 -0.46476980406E+03  0.26235296610E+03  0.24587681280E+03  0.59411374736E+03  0.87611004702E+02 0.  0.
          3    1    3    3  502    0  0.14393647779E+03 -0.11589417955E+03 -0.13577286273E+03  0.22931079509E+03  0.00000000000E+00 0. -1.
         -4    1    3    3    0  502  0.24217290188E+03 -0.27389522645E+03 -0.15995559563E+03  0.39906403252E+03  0.00000000000E+00 0.  1.
         11    1    5    5    0    0  0.56931466084E+02  0.13375840779E+03 -0.42195510889E+03  0.44629431702E+03  0.00000000000E+00 0.  1.
        -11    1    5    5    0    0  0.21728958307E+02 -0.63219678932E+01 -0.21773593802E+02  0.31403889794E+02  0.00000000000E+00 0. -1.
          4    1    6    6  503    0 -0.12800181093E+03  0.36907594699E+02  0.37374650123E+02  0.13836003260E+03  0.00000000000E+00 0. -1.
         -4    1    6    6    0  503 -0.33676799312E+03  0.22544537140E+03  0.20850216268E+03  0.45575371476E+03  0.00000000000E+00 0.  1.
<mgrwt>
<rscale>  0 0.16269645E+04</rscale>
<asrwt>0</asrwt>
<pdfrwt beam="1">  1        1 0.16875132E+00 0.16269645E+04</pdfrwt>
<pdfrwt beam="2">  1       -2 0.92815881E-01 0.16269645E+04</pdfrwt>
<totfact> 0.10530704E+01</totfact>
</mgrwt>
</event>
<event>
12    4  0.4424320E-008  0.1251454E+04  0.7818608E-02  0.9068974E-01
          1   -1    0    0  501    0  0.00000000000E+00  0.00000000000E+00  0.16570305011E+04  0.16570305011E+04  0.00000000000E+00 0. -1.
         -2   -1    0    0    0  501 -0.00000000000E+00 -0.00000000000E+00 -0.23628683820E+03  0.23628683820E+03  0.00000000000E+00 0.  1.
        -24    2    1    2    0    0 -0.97678077571E+02 -0.78667649647E+02  0.90203289739E+03  0.91421894085E+03  0.80020734162E+02 0.  0.
        254    2    1    2    0    0  0.97678077571E+02  0.78667649647E+02  0.51871076548E+03  0.97909839841E+03  0.82087953417E+03 0.  0.
         23    2    4    4    0    0  0.26951239426E+03  0.11482885935E+03 -0.10521709596E+03  0.32431599934E+03  0.91036435249E+02 0.  0.
         23    2    4    4    0    0 -0.17183431669E+03 -0.36161209705E+02  0.62392786144E+03  0.65478239907E+03  0.92840445782E+02 0.  0.
          3    1    3    3  502    0 -0.99132612365E+02 -0.68025255449E+02  0.89002177868E+03  0.89810549310E+03  0.00000000000E+00 0. -1.
         -4    1    3    3    0  502  0.14545347938E+01 -0.10642394199E+02  0.12011118717E+02  0.16113447755E+02  0.00000000000E+00 0.  1.
         11    1    5    5    0    0  0.22525530551E+03  0.88069768839E+02 -0.46892025490E+02  0.24636375322E+03  0.00000000000E+00 0. -1.
        -11    1    5    5    0    0  0.44257088753E+02  0.26759090514E+02 -0.58325070474E+02  0.77952246124E+02  0.00000000000E+00 0.  1.
          3    1    6    6  503    0 -0.17427308389E+03 -0.34157624427E+02  0.62619895027E+03  0.65089398245E+03  0.00000000000E+00 0. -1.
         -3    1    6    6    0  503  0.24387671926E+01 -0.20035852787E+01 -0.22710888256E+01  0.38884166241E+01  0.00000000000E+00 0.  1.
<mgrwt>
<rscale>  0 0.12514544E+04</rscale>
<asrwt>0</asrwt>
<pdfrwt beam="1">  1        1 0.25492776E+00 0.12514544E+04</pdfrwt>
<pdfrwt beam="2">  1       -2 0.36351822E-01 0.12514544E+04</pdfrwt>
<totfact> 0.31438471E+01</totfact>
</mgrwt>
</event>
<event>
12    4  0.4424320E-008  0.1307020E+04  0.7818608E-02  0.9024017E-01
         -2   -1    0    0    0  501 -0.00000000000E+00  0.00000000000E+00  0.87564910064E+03  0.87564910064E+03  0.00000000000E+00 0.  1.
          1   -1    0    0  501    0  0.00000000000E+00 -0.00000000000E+00 -0.48772390729E+03  0.48772390729E+03  0.00000000000E+00 0. -1.
        -24    2    1    2    0    0  0.45001074583E+02 -0.27771448942E+03 -0.12247536228E+03  0.31649061264E+03  0.77560680587E+02 0.  0.
        254    2    1    2    0    0 -0.45001074583E+02  0.27771448942E+03  0.51040055563E+03  0.10468823953E+04  0.86965716696E+03 0.  0.
         23    2    4    4    0    0  0.32247355020E+03  0.39194396393E+03  0.31305572992E+03  0.60274796922E+03  0.87703836383E+02 0.  0.
         23    2    4    4    0    0 -0.36747462478E+03 -0.11422947451E+03  0.19734482570E+03  0.44413442608E+03  0.10111595073E+03 0.  0.
          3    1    3    3  502    0  0.66241420898E+02 -0.22581537258E+03 -0.92065848107E+02  0.25269869158E+03  0.00000000000E+00 0. -1.
         -4    1    3    3    0  502 -0.21240346315E+02 -0.51899116840E+02 -0.30409514173E+02  0.63791921060E+02  0.00000000000E+00 0.  1.
         11    1    5    5    0    0  0.76074785286E+02  0.41710561769E+02  0.57015658234E+02  0.10381680598E+03  0.00000000000E+00 0. -1.
        -11    1    5    5    0    0  0.24639876491E+03  0.35023340216E+03  0.25604007169E+03  0.49893116324E+03  0.00000000000E+00 0.  1.
          1    1    6    6  503    0 -0.36718740121E+03 -0.11823882032E+03  0.20398844078E+03  0.43636944234E+03  0.00000000000E+00 0.  1.
         -1    1    6    6    0  503 -0.28722357691E+00  0.40093458079E+01 -0.66436150796E+01  0.77649837422E+01  0.00000000000E+00 0. -1.
<mgrwt>
<rscale>  0 0.13070195E+04</rscale>
<asrwt>0</asrwt>
<pdfrwt beam="1">  1        1 0.75034447E-01 0.13070195E+04</pdfrwt>
<pdfrwt beam="2">  1       -2 0.13471525E+00 0.13070195E+04</pdfrwt>
<totfact> 0.15612789E+01</totfact>
</mgrwt>
</event>
<event>
12    4  0.4424320E-008  0.1660447E+04  0.7818608E-02  0.8784250E-01
          1   -1    0    0  501    0  0.00000000000E+00  0.00000000000E+00  0.11029240123E+04  0.11029240123E+04  0.00000000000E+00 0. -1.
         -2   -1    0    0    0  501 -0.00000000000E+00 -0.00000000000E+00 -0.62494845129E+03  0.62494845129E+03  0.00000000000E+00 0.  1.
        -24    2    1    2    0    0  0.33349272260E+03  0.47810080227E+03  0.21116869316E+03  0.62544287221E+03  0.82394151986E+02 0.  0.
        254    2    1    2    0    0 -0.33349272260E+03 -0.47810080227E+03  0.26680686791E+03  0.11024295914E+04  0.89686527758E+03 0.  0.
         23    2    4    4    0    0  0.11625414699E+02  0.23551748523E+03  0.15391678667E+03  0.29656479598E+03  0.93041199894E+02 0.  0.
         23    2    4    4    0    0 -0.34511813730E+03 -0.71361828749E+03  0.11289008123E+03  0.80586479545E+03  0.91193800033E+02 0.  0.
          3    1    3    3  502    0  0.28201193418E+02  0.11601075336E+02  0.43586072799E+01  0.30804053574E+02  0.00000000000E+00 0. -1.
         -4    1    3    3    0  502  0.30529152918E+03  0.46649972693E+03  0.20681008588E+03  0.59463881864E+03  0.00000000000E+00 0.  1.
         11    1    5    5    0    0  0.50970325388E+01  0.60624914347E+01  0.39117221127E+02  0.39911032708E+02  0.00000000000E+00 0. -1.
        -11    1    5    5    0    0  0.65283821604E+01  0.22945499379E+03  0.11479956555E+03  0.25665376327E+03  0.00000000000E+00 0.  1.
          4    1    6    6  503    0 -0.58755005942E+02 -0.67421551221E+02 -0.37039431299E+01  0.89507181203E+02  0.00000000000E+00 0. -1.
         -4    1    6    6    0  503 -0.28636313136E+03 -0.64619673627E+03  0.11659402436E+03  0.71635761424E+03  0.00000000000E+00 0.  1.
<mgrwt>
<rscale>  0 0.16604465E+04</rscale>
<asrwt>0</asrwt>
<pdfrwt beam="1">  1        1 0.16968062E+00 0.16604465E+04</pdfrwt>
<pdfrwt beam="2">  1       -2 0.96145916E-01 0.16604465E+04</pdfrwt>
<totfact> 0.95706919E+00</totfact>
</mgrwt>
</event>
<event>
12    4  0.4424320E-008  0.2206979E+04  0.7818608E-02  0.8515529E-01
         -2   -1    0    0    0  501 -0.00000000000E+00  0.00000000000E+00  0.11251895032E+04  0.11251895032E+04  0.00000000000E+00 0.  1.
          1   -1    0    0  501    0  0.00000000000E+00 -0.00000000000E+00 -0.10822081297E+04  0.10822081297E+04  0.00000000000E+00 0. -1.
        -24    2    1    2    0    0 -0.75284969921E+03  0.39969876827E+03 -0.32684790005E+03  0.91630660431E+03  0.79034602377E+02 0.  0.
        254    2    1    2    0    0  0.75284969921E+03 -0.39969876827E+03  0.36982927352E+03  0.12910910286E+04  0.89643771541E+03 0.  0.
         23    2    4    4    0    0 -0.17214417841E+03 -0.11364912940E+03  0.20303023743E+03  0.30428722404E+03  0.93913229251E+02 0.  0.
         23    2    4    4    0    0  0.92499387762E+03 -0.28604963887E+03  0.16679903610E+03  0.98680380456E+03  0.92313383164E+02 0.  0.
          3    1    3    3  502    0 -0.48514282278E+03  0.23557113265E+03 -0.24140661149E+03  0.59087601839E+03  0.00000000000E+00 0. -1.
         -4    1    3    3    0  502 -0.26770687643E+03  0.16412763562E+03 -0.85441288558E+02  0.32543058592E+03  0.00000000000E+00 0.  1.
         11    1    5    5    0    0 -0.18644682852E+02 -0.45270538999E+02  0.13082182835E+02  0.50677306633E+02  0.00000000000E+00 0. -1.
        -11    1    5    5    0    0 -0.15349949556E+03 -0.68378590401E+02  0.18994805459E+03  0.25360991740E+03  0.00000000000E+00 0.  1.
          3    1    6    6  503    0  0.51236381306E+03 -0.20623812790E+03  0.92217143835E+02  0.55995968065E+03  0.00000000000E+00 0. -1.
         -3    1    6    6    0  503  0.41263006456E+03 -0.79811510968E+02  0.74581892261E+02  0.42684412391E+03  0.00000000000E+00 0.  1.
<mgrwt>
<rscale>  0 0.22069791E+04</rscale>
<asrwt>0</asrwt>
<pdfrwt beam="1">  1        1 0.16649356E+00 0.22069791E+04</pdfrwt>
<pdfrwt beam="2">  1       -2 0.17310608E+00 0.22069791E+04</pdfrwt>
<totfact> 0.21171546E+00</totfact>
</mgrwt>
</event>
<event>
12    4  0.4424320E-008  0.1668003E+04  0.7818608E-02  0.8779827E-01
          1   -1    0    0  501    0  0.00000000000E+00  0.00000000000E+00  0.12700178772E+04  0.12700178772E+04  0.00000000000E+00 0. -1.
         -2   -1    0    0    0  501 -0.00000000000E+00 -0.00000000000E+00 -0.54767597846E+03  0.54767597846E+03  0.00000000000E+00 0.  1.
        -24    2    1    2    0    0  0.93445519500E+02  0.51345710901E+03  0.55004604011E+03  0.76266809283E+03  0.82107890470E+02 0.  0.
        254    2    1    2    0    0 -0.93445519500E+02 -0.51345710901E+03  0.17229585864E+03  0.10550257628E+04  0.90056828140E+03 0.  0.
         23    2    4    4    0    0  0.32471058328E+03 -0.31000473005E+02  0.22795245898E+03  0.40786754136E+03  0.89418205760E+02 0.  0.
         23    2    4    4    0    0 -0.41815610278E+03 -0.48245663600E+03 -0.55656600333E+02  0.64715822149E+03  0.89984301772E+02 0.  0.
          1    1    3    3  502    0  0.15603259273E+01  0.14049141253E+03  0.18902714798E+03  0.23552395692E+03  0.00000000000E+00 0. -1.
         -2    1    3    3    0  502  0.91885193573E+02  0.37296569648E+03  0.36101889213E+03  0.52714413590E+03  0.00000000000E+00 0.  1.
         11    1    5    5    0    0  0.10413805368E+03  0.18253809305E+02  0.37060236308E+02  0.11203301698E+03  0.00000000000E+00 0. -1.
        -11    1    5    5    0    0  0.22057252960E+03 -0.49254282309E+02  0.19089222267E+03  0.29583452438E+03  0.00000000000E+00 0.  1.
          4    1    6    6  503    0 -0.10487868869E+03 -0.14509441480E+03  0.21619097237E+02  0.18033112297E+03  0.00000000000E+00 0. -1.
         -4    1    6    6    0  503 -0.31327741409E+03 -0.33736222120E+03 -0.77275697569E+02  0.46682709851E+03  0.00000000000E+00 0.  1.
<mgrwt>
<rscale>  0 0.16680027E+04</rscale>
<asrwt>0</asrwt>
<pdfrwt beam="1">  1        1 0.19538736E+00 0.16680027E+04</pdfrwt>
<pdfrwt beam="2">  1       -2 0.84257844E-01 0.16680027E+04</pdfrwt>
<totfact> 0.97794843E+00</totfact>
</mgrwt>
</event>
<event>
12    4  0.4424320E-008  0.1515262E+04  0.7818608E-02  0.8874367E-01
         -2   -1    0    0    0  501 -0.00000000000E+00  0.00000000000E+00  0.49951024526E+03  0.49951024526E+03  0.00000000000E+00 0.  1.
          1   -1    0    0  501    0  0.00000000000E+00 -0.00000000000E+00 -0.11491351170E+04  0.11491351170E+04  0.00000000000E+00 0. -1.
        -24    2    1    2    0    0  0.46829646386E+03 -0.65862773201E+02 -0.32623929284E+03  0.58046351955E+03  0.82863371718E+02 0.  0.
        254    2    1    2    0    0 -0.46829646386E+03  0.65862773201E+02 -0.32338557886E+03  0.10681818427E+04  0.90155129275E+03 0.  0.
         23    2    4    4    0    0 -0.11835585232E+03 -0.34543228910E+03  0.83646907905E+02  0.38562497798E+03  0.91532749933E+02 0.  0.
         23    2    4    4    0    0 -0.34994061155E+03  0.41129506230E+03 -0.40703248677E+03  0.68255686471E+03  0.92662659113E+02 0.  0.
          1    1    3    3  502    0  0.27701058287E+03 -0.40679514100E+02 -0.24146914172E+03  0.36972561757E+03  0.00000000000E+00 0. -1.
         -2    1    3    3    0  502  0.19128588100E+03 -0.25183259101E+02 -0.84770151122E+02  0.21073790198E+03  0.00000000000E+00 0.  1.
         11    1    5    5    0    0 -0.11944780559E+03 -0.34949096210E+03  0.76266427524E+02  0.37713164653E+03  0.00000000000E+00 0.  1.
        -11    1    5    5    0    0  0.10919532707E+01  0.40586729987E+01  0.73804803809E+01  0.84933314494E+01  0.00000000000E+00 0. -1.
          1    1    6    6  503    0 -0.22691692015E+03  0.19670041682E+03 -0.21288012345E+03  0.36810363974E+03  0.00000000000E+00 0. -1.
         -1    1    6    6    0  503 -0.12302369140E+03  0.21459464547E+03 -0.19415236332E+03  0.31445322497E+03  0.00000000000E+00 0.  1.
<mgrwt>
<rscale>  0 0.15152620E+04</rscale>
<asrwt>0</asrwt>
<pdfrwt beam="1">  1        1 0.17679001E+00 0.15152620E+04</pdfrwt>
<pdfrwt beam="2">  1       -2 0.76847732E-01 0.15152620E+04</pdfrwt>
<totfact> 0.14930800E+01</totfact>
</mgrwt>
</event>
<event>
12    4  0.4424320E-008  0.1559951E+04  0.7818608E-02  0.8845536E-01
          1   -1    0    0  501    0  0.00000000000E+00  0.00000000000E+00  0.10267664451E+04  0.10267664451E+04  0.00000000000E+00 0. -1.
         -2   -1    0    0    0  501 -0.00000000000E+00 -0.00000000000E+00 -0.59250293722E+03  0.59250293722E+03  0.00000000000E+00 0.  1.
        -24    2    1    2    0    0 -0.32148887785E+03  0.42022809497E+02 -0.26830767008E+03  0.42817194941E+03  0.78874567141E+02 0.  0.
        254    2    1    2    0    0  0.32148887785E+03 -0.42022809497E+02  0.70257117795E+03  0.11910974329E+04  0.90553068388E+03 0.  0.
         23    2    4    4    0    0  0.41438639412E+03  0.23254693824E+03  0.69239677186E+02  0.48892804162E+03  0.91990949921E+02 0.  0.
         23    2    4    4    0    0 -0.92897516266E+02 -0.27456974774E+03  0.63333150076E+03  0.70216939127E+03  0.88963865007E+02 0.  0.
          1    1    3    3  502    0 -0.11317913084E+03 -0.37094010204E+01 -0.52691593882E+02  0.12489867645E+03  0.00000000000E+00 0. -1.
         -2    1    3    3    0  502 -0.20830974701E+03  0.45732210517E+02 -0.21561607620E+03  0.30327327296E+03  0.00000000000E+00 0.  1.
         11    1    5    5    0    0  0.35297628888E+03  0.17571840712E+03  0.86073579481E+02  0.40358131795E+03  0.00000000000E+00 0.  1.
        -11    1    5    5    0    0  0.61410105242E+02  0.56828531119E+02 -0.16833902295E+02  0.85346723671E+02  0.00000000000E+00 0. -1.
          2    1    6    6  503    0 -0.35600355346E+02 -0.40731200572E+02  0.62598181029E+02  0.82734202535E+02  0.00000000000E+00 0. -1.
         -2    1    6    6    0  503 -0.57297160920E+02 -0.23383854717E+03  0.57073331973E+03  0.61943518873E+03  0.00000000000E+00 0.  1.
<mgrwt>
<rscale>  0 0.15599515E+04</rscale>
<asrwt>0</asrwt>
<pdfrwt beam="1">  1        1 0.15796407E+00 0.15599515E+04</pdfrwt>
<pdfrwt beam="2">  1       -2 0.91154298E-01 0.15599515E+04</pdfrwt>
<totfact> 0.12490327E+01</totfact>
</mgrwt>
</event>
<event>
12    4  0.4424320E-008  0.4245668E+04  0.7818608E-02  0.7956742E-01
          1   -1    0    0  501    0  0.00000000000E+00  0.00000000000E+00  0.23905922015E+04  0.23905922015E+04  0.00000000000E+00 0. -1.
         -2   -1    0    0    0  501 -0.00000000000E+00 -0.00000000000E+00 -0.18850658662E+04  0.18850658662E+04  0.00000000000E+00 0.  1.
        -24    2    1    2    0    0  0.18948884709E+03 -0.88927025517E+03  0.20639481833E+04  0.22567490788E+04  0.79540501952E+02 0.  0.
        254    2    1    2    0    0 -0.18948884709E+03  0.88927025517E+03 -0.15584218480E+04  0.20189089888E+04  0.90587374343E+03 0.  0.
         23    2    4    4    0    0 -0.29368788841E+03  0.28244614098E+02 -0.82040383236E+03  0.87676131798E+03  0.92723387124E+02 0.  0.
         23    2    4    4    0    0  0.10419904132E+03  0.86102564107E+03 -0.73801801562E+03  0.11421476709E+04  0.87224514189E+02 0.  0.
          3    1    3    3  502    0  0.77495667017E+02 -0.54846140320E+03  0.12400399504E+04  0.13581290689E+04  0.00000000000E+00 0. -1.
         -4    1    3    3    0  502  0.11199318007E+03 -0.34080885197E+03  0.82390823293E+03  0.89862000993E+03  0.00000000000E+00 0.  1.
         11    1    5    5    0    0 -0.13773918088E+03  0.64585858477E+01 -0.25564760971E+03  0.29046427599E+03  0.00000000000E+00 0.  1.
        -11    1    5    5    0    0 -0.15594870753E+03  0.21786028250E+02 -0.56475622266E+03  0.58629704198E+03  0.00000000000E+00 0. -1.
          1    1    6    6  503    0  0.10445484210E+03  0.76492727945E+03 -0.62143510486E+03  0.99106313948E+03  0.00000000000E+00 0. -1.
         -1    1    6    6    0  503 -0.25580078270E+00  0.96098361620E+02 -0.11658291076E+03  0.15108453138E+03  0.00000000000E+00 0.  1.
<mgrwt>
<rscale>  0 0.42456678E+04</rscale>
<asrwt>0</asrwt>
<pdfrwt beam="1">  1        1 0.36778342E+00 0.42456678E+04</pdfrwt>
<pdfrwt beam="2">  1       -2 0.29001013E+00 0.42456678E+04</pdfrwt>
<totfact> 0.39804791E-02</totfact>
</mgrwt>
</event>
<event>
12    4  0.4424320E-008  0.1368227E+04  0.7818608E-02  0.8977144E-01
          1   -1    0    0  501    0  0.00000000000E+00  0.00000000000E+00  0.47765017673E+03  0.47765017673E+03  0.00000000000E+00 0. -1.
         -2   -1    0    0    0  501 -0.00000000000E+00 -0.00000000000E+00 -0.97982081199E+03  0.97982081199E+03  0.00000000000E+00 0.  1.
        -24    2    1    2    0    0 -0.10127543723E+03 -0.20910629229E+03 -0.48501057630E+03  0.54356113101E+03  0.79001825085E+02 0.  0.
        254    2    1    2    0    0  0.10127543723E+03  0.20910629229E+03 -0.17160058966E+02  0.91390985770E+03  0.88371635988E+03 0.  0.
         23    2    4    4    0    0 -0.10218172062E+03  0.41314261573E+03 -0.27638253398E+03  0.51584796729E+03  0.92649313599E+02 0.  0.
         23    2    4    4    0    0  0.20345715785E+03 -0.20403632343E+03  0.25922247501E+03  0.39806189041E+03  0.90726736321E+02 0.  0.
          3    1    3    3  502    0  0.49863279662E+01 -0.13743713239E+02 -0.67102167166E+01  0.16086644416E+02  0.00000000000E+00 0. -1.
         -4    1    3    3    0  502 -0.10626176519E+03 -0.19536257905E+03 -0.47830035958E+03  0.52747448660E+03  0.00000000000E+00 0.  1.
         11    1    5    5    0    0 -0.17633633139E+02  0.11963204320E+02 -0.32315404658E+02  0.38708508800E+02  0.00000000000E+00 0.  1.
        -11    1    5    5    0    0 -0.84548087485E+02  0.40117941141E+03 -0.24406712932E+03  0.47713945849E+03  0.00000000000E+00 0. -1.
          1    1    6    6  503    0  0.19997196474E+03 -0.20264290353E+03  0.22297984632E+03  0.36162542070E+03  0.00000000000E+00 0. -1.
         -1    1    6    6    0  503  0.34851931064E+01 -0.13934199065E+01  0.36242628695E+02  0.36436469708E+02  0.00000000000E+00 0.  1.
<mgrwt>
<rscale>  0 0.13682274E+04</rscale>
<asrwt>0</asrwt>
<pdfrwt beam="1">  1        1 0.73484643E-01 0.13682274E+04</pdfrwt>
<pdfrwt beam="2">  1       -2 0.15074166E+00 0.13682274E+04</pdfrwt>
<totfact> 0.11919546E+01</totfact>
</mgrwt>
</event>
<event>
12    4  0.4424320E-008  0.1655634E+04  0.7818608E-02  0.8787081E-01
          1   -1    0    0  501    0  0.00000000000E+00  0.00000000000E+00  0.10464605739E+04  0.10464605739E+04  0.00000000000E+00 0. -1.
         -2   -1    0    0    0  501 -0.00000000000E+00 -0.00000000000E+00 -0.65485586002E+03  0.65485586002E+03  0.00000000000E+00 0.  1.
        -24    2    1    2    0    0 -0.15710370217E+03  0.33082600939E+03 -0.32798928804E+03  0.49787913352E+03  0.78608121702E+02 0.  0.
        254    2    1    2    0    0  0.15710370217E+03 -0.33082600939E+03  0.71959400194E+03  0.12034373004E+04  0.89236673329E+03 0.  0.
         23    2    4    4    0    0 -0.26972557460E+02 -0.15570561172E+03  0.87363263508E+03  0.89241586975E+03  0.90555768020E+02 0.  0.
         23    2    4    4    0    0  0.18407625963E+03 -0.17512039767E+03 -0.15403863314E+03  0.31102143067E+03  0.91952198432E+02 0.  0.
          3    1    3    3  502    0  0.70772721652E+01  0.58803868748E+01 -0.25212247086E+01  0.95406134566E+01  0.00000000000E+00 0. -1.
         -4    1    3    3    0  502 -0.16418097434E+03  0.32494562252E+03 -0.32546806333E+03  0.48833852006E+03  0.00000000000E+00 0.  1.
         11    1    5    5    0    0  0.24087925708E+02 -0.11270273876E+03  0.53694219569E+03  0.54917124561E+03  0.00000000000E+00 0.  1.
        -11    1    5    5    0    0 -0.51060483167E+02 -0.43002872958E+02  0.33669043939E+03  0.34324462414E+03  0.00000000000E+00 0. -1.
          1    1    6    6  503    0  0.20607744426E+02  0.35740933659E+01  0.47169446181E+01  0.21440681898E+02  0.00000000000E+00 0. -1.
         -1    1    6    6    0  503  0.16346851520E+03 -0.17869449104E+03 -0.15875557776E+03  0.28958074877E+03  0.00000000000E+00 0.  1.
<mgrwt>
<rscale>  0 0.16556338E+04</rscale>
<asrwt>0</asrwt>
<pdfrwt beam="1">  1        1 0.16099393E+00 0.16556338E+04</pdfrwt>
<pdfrwt beam="2">  1       -2 0.10074706E+00 0.16556338E+04</pdfrwt>
<totfact> 0.94641860E+00</totfact>
</mgrwt>
</event>
<event>
12    4  0.4424320E-008  0.1898817E+04  0.7818608E-02  0.8655445E-01
          1   -1    0    0  501    0  0.00000000000E+00  0.00000000000E+00  0.14538017796E+04  0.14538017796E+04  0.00000000000E+00 0. -1.
         -2   -1    0    0    0  501 -0.00000000000E+00 -0.00000000000E+00 -0.62001335725E+03  0.62001335725E+03  0.00000000000E+00 0.  1.
        -24    2    1    2    0    0  0.65149773513E+03  0.12094866535E+03  0.68423148575E+03  0.95601809312E+03  0.81975543662E+02 0.  0.
        254    2    1    2    0    0 -0.65149773513E+03 -0.12094866535E+03  0.14955693665E+03  0.11177970438E+04  0.88770776455E+03 0.  0.
         23    2    4    4    0    0 -0.39685440644E+03  0.18558557138E+03 -0.27719310068E+03  0.52611549475E+03  0.89588361630E+02 0.  0.
         23    2    4    4    0    0 -0.25464332869E+03 -0.30653423673E+03  0.42675003732E+03  0.59168154902E+03  0.95733995847E+02 0.  0.
          3    1    3    3  502    0  0.37372179060E+03  0.11031976169E+03  0.39436243200E+03  0.55440071642E+03  0.00000000000E+00 0. -1.
         -4    1    3    3    0  502  0.27777594453E+03  0.10628903663E+02  0.28986905374E+03  0.40161737670E+03  0.00000000000E+00 0.  1.
         11    1    5    5    0    0 -0.37968899609E+03  0.18737635881E+03 -0.28135231841E+03  0.50836282384E+03  0.00000000000E+00 0. -1.
        -11    1    5    5    0    0 -0.17165410355E+02 -0.17907874304E+01  0.41592177341E+01  0.17752670910E+02  0.00000000000E+00 0.  1.
          3    1    6    6  503    0 -0.24927294447E+03 -0.25451192644E+03  0.35535256683E+03  0.50317866440E+03  0.00000000000E+00 0. -1.
         -3    1    6    6    0  503 -0.53703842154E+01 -0.52022310287E+02  0.71397470492E+02  0.88502884625E+02  0.00000000000E+00 0.  1.
<mgrwt>
<rscale>  0 0.18988170E+04</rscale>
<asrwt>0</asrwt>
<pdfrwt beam="1">  1        1 0.22366181E+00 0.18988170E+04</pdfrwt>
<pdfrwt beam="2">  1       -2 0.95386671E-01 0.18988170E+04</pdfrwt>
<totfact> 0.53402799E+00</totfact>
</mgrwt>
</event>
<event>
12    4  0.4424320E-008  0.1532813E+04  0.7818608E-02  0.8862921E-01
          1   -1    0    0  501    0  0.00000000000E+00  0.00000000000E+00  0.37397858711E+03  0.37397858711E+03  0.00000000000E+00 0. -1.
         -2   -1    0    0    0  501 -0.00000000000E+00 -0.00000000000E+00 -0.15706210129E+04  0.15706210129E+04  0.00000000000E+00 0.  1.
        -24    2    1    2    0    0 -0.24872001330E+03  0.36386905047E+03 -0.67168048492E+03  0.80717132707E+03  0.78157191082E+02 0.  0.
        254    2    1    2    0    0  0.24872001330E+03 -0.36386905047E+03 -0.52496194088E+03  0.11374282729E+04  0.90768700873E+03 0.  0.
         23    2    4    4    0    0 -0.11401812911E+02 -0.62293984841E+03 -0.33062503162E+03  0.71154082546E+03  0.93773016793E+02 0.  0.
         23    2    4    4    0    0  0.26012182621E+03  0.25907079795E+03 -0.19433690926E+03  0.42588744748E+03  0.93980002143E+02 0.  0.
          3    1    3    3  502    0 -0.11531017879E+03  0.15610040242E+03 -0.36557394663E+03  0.41389380694E+03  0.00000000000E+00 0. -1.
         -4    1    3    3    0  502 -0.13340983452E+03  0.20776864805E+03 -0.30610653829E+03  0.39327752013E+03  0.00000000000E+00 0.  1.
         11    1    5    5    0    0  0.39493465531E+02 -0.35025652930E+03 -0.19374984471E+03  0.40221682270E+03  0.00000000000E+00 0.  1.
        -11    1    5    5    0    0 -0.50895278442E+02 -0.27268331911E+03 -0.13687518691E+03  0.30932400276E+03  0.00000000000E+00 0. -1.
          3    1    6    6  503    0  0.25817365438E+03  0.22268183670E+03 -0.16335021917E+03  0.37805307870E+03  0.00000000000E+00 0. -1.
         -3    1    6    6    0  503  0.19481718328E+01  0.36388961246E+02 -0.30986690095E+02  0.47834368785E+02  0.00000000000E+00 0.  1.
<mgrwt>
<rscale>  0 0.15328126E+04</rscale>
<asrwt>0</asrwt>
<pdfrwt beam="1">  1        1 0.57535167E-01 0.15328126E+04</pdfrwt>
<pdfrwt beam="2">  1       -2 0.24163400E+00 0.15328126E+04</pdfrwt>
<totfact> 0.40042138E+00</totfact>
</mgrwt>
</event>
<event>
12    4  0.4424320E-008  0.1432700E+04  0.7818608E-02  0.8930483E-01
         -2   -1    0    0    0  501 -0.00000000000E+00  0.00000000000E+00  0.31579715603E+03  0.31579715603E+03  0.00000000000E+00 0.  1.
          1   -1    0    0  501    0  0.00000000000E+00 -0.00000000000E+00 -0.16249596650E+04  0.16249596650E+04  0.00000000000E+00 0. -1.
        -24    2    1    2    0    0 -0.38625867542E+03  0.86169497738E+02 -0.14565625779E+03  0.42963326173E+03  0.82146500057E+02 0.  0.
        254    2    1    2    0    0  0.38625867542E+03 -0.86169497738E+02 -0.11635062512E+04  0.15111235593E+04  0.87927621842E+03 0.  0.
         23    2    4    4    0    0  0.25959477489E+03 -0.10185725778E+03  0.41226798560E+02  0.29622288895E+03  0.91016497972E+02 0.  0.
         23    2    4    4    0    0  0.12666390053E+03  0.15687760046E+02 -0.12047330497E+04  0.12149006704E+04  0.91170544532E+02 0.  0.
          3    1    3    3  502    0 -0.74298603740E+01 -0.88257794438E+01 -0.12475932676E+02  0.16992530833E+02  0.00000000000E+00 0. -1.
         -4    1    3    3    0  502 -0.37882881505E+03  0.94995277182E+02 -0.13318032512E+03  0.41264073090E+03  0.00000000000E+00 0.  1.
         11    1    5    5    0    0  0.19258704412E+03 -0.85774190806E+02 -0.88948550713E+01  0.21101208453E+03  0.00000000000E+00 0.  1.
        -11    1    5    5    0    0  0.67007730767E+02 -0.16083066978E+02  0.50121653632E+02  0.85210804413E+02  0.00000000000E+00 0. -1.
          1    1    6    6  503    0  0.44679337391E+02 -0.38148446499E+02 -0.46061348825E+03  0.46434505781E+03  0.00000000000E+00 0. -1.
         -1    1    6    6    0  503  0.81984563139E+02  0.53836206546E+02 -0.74411956149E+03  0.75055561254E+03  0.00000000000E+00 0.  1.
<mgrwt>
<rscale>  0 0.14327004E+04</rscale>
<asrwt>0</asrwt>
<pdfrwt beam="1">  1        1 0.24999379E+00 0.14327004E+04</pdfrwt>
<pdfrwt beam="2">  1       -2 0.48584178E-01 0.14327004E+04</pdfrwt>
<totfact> 0.18371314E+01</totfact>
</mgrwt>
</event>
<event>
12    4  0.4424320E-008  0.2011545E+04  0.7818608E-02  0.8601242E-01
          1   -1    0    0  501    0  0.00000000000E+00  0.00000000000E+00  0.21178070170E+04  0.21178070170E+04  0.00000000000E+00 0. -1.
         -2   -1    0    0    0  501 -0.00000000000E+00 -0.00000000000E+00 -0.47765375656E+03  0.47765375656E+03  0.00000000000E+00 0.  1.
        -24    2    1    2    0    0  0.62317004334E+03  0.46214244371E+03  0.94354311698E+03  0.12242781061E+04  0.81650023583E+02 0.  0.
        254    2    1    2    0    0 -0.62317004334E+03 -0.46214244371E+03  0.69661014349E+03  0.13711826674E+04  0.89048283213E+03 0.  0.
         23    2    4    4    0    0 -0.69825118258E+03 -0.82031993498E+02  0.66442815832E+03  0.97167316840E+03  0.91651550367E+02 0.  0.
         23    2    4    4    0    0  0.75081139243E+02 -0.38011045022E+03  0.32181985162E+02  0.39950949905E+03  0.91929472026E+02 0.  0.
          3    1    3    3  502    0  0.36084980665E+03  0.28069791967E+03  0.61578330910E+03  0.76693740868E+03  0.00000000000E+00 0. -1.
         -4    1    3    3    0  502  0.26232023668E+03  0.18144452405E+03  0.32775980787E+03  0.45734069744E+03  0.00000000000E+00 0.  1.
         11    1    5    5    0    0 -0.58552783116E+03 -0.34261878966E+02  0.54552315251E+03  0.80100700829E+03  0.00000000000E+00 0.  1.
        -11    1    5    5    0    0 -0.11272335142E+03 -0.47770114532E+02  0.11890500581E+03  0.17066616011E+03  0.00000000000E+00 0. -1.
          3    1    6    6  503    0  0.58314006551E+02 -0.14275887261E+03 -0.21176878022E+02  0.15565692800E+03  0.00000000000E+00 0. -1.
         -3    1    6    6    0  503  0.16767132692E+02 -0.23735157760E+03  0.53358863184E+02  0.24385257105E+03  0.00000000000E+00 0.  1.
<mgrwt>
<rscale>  0 0.20115452E+04</rscale>
<asrwt>0</asrwt>
<pdfrwt beam="1">  1        1 0.32581646E+00 0.20115452E+04</pdfrwt>
<pdfrwt beam="2">  1       -2 0.73485194E-01 0.20115452E+04</pdfrwt>
<totfact> 0.33702029E+00</totfact>
</mgrwt>
</event>
<event>
12    4  0.4424320E-008  0.1570984E+04  0.7818608E-02  0.8838575E-01
          1   -1    0    0  501    0  0.00000000000E+00  0.00000000000E+00  0.25523570468E+03  0.25523570468E+03  0.00000000000E+00 0. -1.
         -4   -1    0    0    0  501 -0.00000000000E+00 -0.00000000000E+00 -0.24173628101E+04  0.24173628101E+04  0.00000000000E+00 0.  1.
        -24    2    1    2    0    0 -0.18999007083E+03  0.30288002369E+03 -0.13556348084E+04  0.14042750700E+04  0.80063741500E+02 0.  0.
        254    2    1    2    0    0  0.18999007083E+03 -0.30288002369E+03 -0.80649229702E+03  0.12683234448E+04  0.91125298334E+03 0.  0.
         23    2    4    4    0    0  0.52044938337E+03 -0.26273680979E+03 -0.31301878887E+03  0.66704581203E+03  0.84090197394E+02 0.  0.
         23    2    4    4    0    0 -0.33045931253E+03 -0.40143213900E+02 -0.49347350816E+03  0.60127763275E+03  0.84875517816E+02 0.  0.
          1    1    3    3  502    0 -0.19790806841E+02  0.18779459294E+02 -0.46627447832E+02  0.54022800910E+02  0.00000000000E+00 0. -1.
         -2    1    3    3    0  502 -0.17019926399E+03  0.28410056440E+03 -0.13090073606E+04  0.13502522691E+04  0.00000000000E+00 0.  1.
         11    1    5    5    0    0  0.45856935210E+03 -0.19955482299E+03 -0.25601085395E+03  0.56182696216E+03  0.00000000000E+00 0.  1.
        -11    1    5    5    0    0  0.61880031266E+02 -0.63181986802E+02 -0.57007934911E+02  0.10521884987E+03  0.00000000000E+00 0. -1.
          2    1    6    6  503    0 -0.90667946576E+02  0.22837465596E+02 -0.16625728173E+03  0.19074514436E+03  0.00000000000E+00 0. -1.
         -2    1    6    6    0  503 -0.23979136596E+03 -0.62980679496E+02 -0.32721622643E+03  0.41053248838E+03  0.00000000000E+00 0.  1.
<mgrwt>
<rscale>  0 0.15709835E+04</rscale>
<asrwt>0</asrwt>
<pdfrwt beam="1">  1        1 0.39267033E-01 0.15709835E+04</pdfrwt>
<pdfrwt beam="2">  1       -4 0.37190196E+00 0.15709835E+04</pdfrwt>
<totfact> 0.52626393E-01</totfact>
</mgrwt>
</event>
<event>
12    4  0.4424320E-008  0.1631708E+04  0.7818608E-02  0.8801302E-01
         -2   -1    0    0    0  501 -0.00000000000E+00  0.00000000000E+00  0.36332660308E+03  0.36332660308E+03  0.00000000000E+00 0.  1.
          1   -1    0    0  501    0  0.00000000000E+00 -0.00000000000E+00 -0.18320094521E+04  0.18320094521E+04  0.00000000000E+00 0. -1.
        -24    2    1    2    0    0  0.11575199421E+03 -0.48497032350E+03 -0.91091136693E+03  0.10415209021E+04  0.80072044707E+02 0.  0.
        254    2    1    2    0    0 -0.11575199421E+03  0.48497032350E+03 -0.55777148210E+03  0.11538151530E+04  0.87839947764E+03 0.  0.
         23    2    4    4    0    0  0.28921367431E+03  0.75190118410E+02 -0.46759036962E+03  0.56305202038E+03  0.95334781612E+02 0.  0.
         23    2    4    4    0    0 -0.40496566852E+03  0.40978020509E+03 -0.90181112487E+02  0.59076313267E+03  0.94612032526E+02 0.  0.
          3    1    3    3  502    0  0.64298779747E+02 -0.32415400399E+03 -0.52590002424E+03  0.62111270062E+03  0.00000000000E+00 0. -1.
         -4    1    3    3    0  502  0.51453214465E+02 -0.16081631952E+03 -0.38501134269E+03  0.42040820152E+03  0.00000000000E+00 0.  1.
         11    1    5    5    0    0  0.86837507572E+02  0.24056443054E+02 -0.22872089938E+03  0.24583066324E+03  0.00000000000E+00 0. -1.
        -11    1    5    5    0    0  0.20237616674E+03  0.51133675356E+02 -0.23886947023E+03  0.31722135715E+03  0.00000000000E+00 0.  1.
          1    1    6    6  503    0 -0.36858092242E+03  0.39822742827E+03 -0.68679789929E+02  0.54694962707E+03  0.00000000000E+00 0. -1.
         -1    1    6    6    0  503 -0.36384746103E+02  0.11552776819E+02 -0.21501322559E+02  0.43813505600E+02  0.00000000000E+00 0.  1.
<mgrwt>
<rscale>  0 0.16317080E+04</rscale>
<asrwt>0</asrwt>
<pdfrwt beam="1">  1        1 0.28184761E+00 0.16317080E+04</pdfrwt>
<pdfrwt beam="2">  1       -2 0.55896400E-01 0.16317080E+04</pdfrwt>
<totfact> 0.97868159E+00</totfact>
</mgrwt>
</event>
<event>
12    4  0.4424320E-008  0.1874676E+04  0.7818608E-02  0.8667565E-01
          1   -1    0    0  501    0  0.00000000000E+00  0.00000000000E+00  0.17506531068E+04  0.17506531068E+04  0.00000000000E+00 0. -1.
         -2   -1    0    0    0  501 -0.00000000000E+00 -0.00000000000E+00 -0.50187142553E+03  0.50187142553E+03  0.00000000000E+00 0.  1.
        -24    2    1    2    0    0  0.26156421365E+02 -0.38384027211E+02 -0.37997802382E+03  0.39031161739E+03  0.76173277210E+02 0.  0.
        254    2    1    2    0    0 -0.26156421365E+02  0.38384027211E+02  0.16287597050E+04  0.18622129149E+04  0.90156601071E+03 0.  0.
         23    2    4    4    0    0  0.14498747813E+03 -0.24286267127E+03  0.12918773349E+03  0.32431516546E+03  0.92126055755E+02 0.  0.
         23    2    4    4    0    0 -0.17114389950E+03  0.28124669848E+03  0.14995719716E+04  0.15378977494E+04  0.89573713103E+02 0.  0.
          1    1    3    3  502    0  0.30720101031E+02  0.22771188078E+01 -0.57350191872E+02  0.65099572850E+02  0.00000000000E+00 0. -1.
         -2    1    3    3    0  502 -0.45636796660E+01 -0.40661146019E+02 -0.32262783195E+03  0.32521204454E+03  0.00000000000E+00 0.  1.
         11    1    5    5    0    0  0.14628283069E+03 -0.23671863416E+03  0.10194231614E+03  0.29635555358E+03  0.00000000000E+00 0. -1.
        -11    1    5    5    0    0 -0.12953525555E+01 -0.61440371072E+01  0.27245417345E+02  0.27959611880E+02  0.00000000000E+00 0.  1.
          4    1    6    6  503    0 -0.14213268459E+03  0.19056556165E+03  0.12081405608E+04  0.12313084698E+04  0.00000000000E+00 0. -1.
         -4    1    6    6    0  503 -0.29011214913E+02  0.90681136832E+02  0.29143141078E+03  0.30658927959E+03  0.00000000000E+00 0.  1.
<mgrwt>
<rscale>  0 0.18746763E+04</rscale>
<asrwt>0</asrwt>
<pdfrwt beam="1">  1        1 0.26933124E+00 0.18746763E+04</pdfrwt>
<pdfrwt beam="2">  1       -2 0.77210989E-01 0.18746763E+04</pdfrwt>
<totfact> 0.54229357E+00</totfact>
</mgrwt>
</event>
<event>
12    4  0.4424320E-008  0.1210647E+04  0.7818608E-02  0.9103588E-01
         -2   -1    0    0    0  501 -0.00000000000E+00  0.00000000000E+00  0.35937711057E+03  0.35937711057E+03  0.00000000000E+00 0.  1.
          1   -1    0    0  501    0  0.00000000000E+00 -0.00000000000E+00 -0.10195881903E+04  0.10195881903E+04  0.00000000000E+00 0. -1.
        -24    2    1    2    0    0 -0.28141332219E+03 -0.27899870158E+02 -0.99566182163E+02  0.31104038695E+03  0.82830169764E+02 0.  0.
        254    2    1    2    0    0  0.28141332219E+03  0.27899870158E+02 -0.56064489754E+03  0.10679249139E+04  0.86381077785E+03 0.  0.
         23    2    4    4    0    0  0.49993151413E+03  0.14903673544E+03 -0.10361251676E+03  0.53908219787E+03  0.87923802799E+02 0.  0.
         23    2    4    4    0    0 -0.21851819195E+03 -0.12113686528E+03 -0.45703238078E+03  0.52884271602E+03  0.91496889931E+02 0.  0.
          1    1    3    3  502    0 -0.78575542122E+02  0.26834959537E+02 -0.42800253374E+02  0.93413556628E+02  0.00000000000E+00 0. -1.
         -2    1    3    3    0  502 -0.20283778006E+03 -0.54734829695E+02 -0.56765928788E+02  0.21762683032E+03  0.00000000000E+00 0.  1.
         11    1    5    5    0    0  0.20920973867E+03  0.87177206278E+02 -0.77616655000E+01  0.22677923957E+03  0.00000000000E+00 0. -1.
        -11    1    5    5    0    0  0.29072177546E+03  0.61859529164E+02 -0.95850851258E+02  0.31230295830E+03  0.00000000000E+00 0.  1.
          1    1    6    6  503    0  0.68937392112E+01 -0.10667096751E+02 -0.41225398423E+02  0.43137501881E+02  0.00000000000E+00 0. -1.
         -1    1    6    6    0  503 -0.22541193116E+03 -0.11046976853E+03 -0.41580698236E+03  0.48570521414E+03  0.00000000000E+00 0.  1.
<mgrwt>
<rscale>  0 0.12106472E+04</rscale>
<asrwt>0</asrwt>
<pdfrwt beam="1">  1        1 0.15685972E+00 0.12106472E+04</pdfrwt>
<pdfrwt beam="2">  1       -2 0.55288787E-01 0.12106472E+04</pdfrwt>
<totfact> 0.38950056E+01</totfact>
</mgrwt>
</event>
<event>
12    4  0.4424320E-008  0.2508329E+04  0.7818608E-02  0.8400024E-01
         -4   -1    0    0    0  501 -0.00000000000E+00  0.00000000000E+00  0.69048360583E+03  0.69048360583E+03  0.00000000000E+00 0.  1.
          3   -1    0    0  501    0  0.00000000000E+00 -0.00000000000E+00 -0.22780109003E+04  0.22780109003E+04  0.00000000000E+00 0. -1.
        -24    2    1    2    0    0  0.22202102169E+03 -0.10655764125E+04 -0.60070603414E+03  0.12455783623E+04  0.76624357509E+02 0.  0.
        254    2    1    2    0    0 -0.22202102169E+03  0.10655764125E+04 -0.98682126037E+03  0.17229161439E+04  0.89993189405E+03 0.  0.
         23    2    4    4    0    0 -0.21991504503E+02 -0.98510354329E+02  0.53595351328E+02  0.14587067744E+03  0.90652505056E+02 0.  0.
         23    2    4    4    0    0 -0.20002951718E+03  0.11640867668E+04 -0.10404166117E+04  0.15770454664E+04  0.97446748632E+02 0.  0.
          3    1    3    3  502    0  0.10010689905E+03 -0.52735142350E+03 -0.25386379599E+03  0.59377415068E+03  0.00000000000E+00 0. -1.
         -4    1    3    3    0  502  0.12191412264E+03 -0.53822498901E+03 -0.34684223815E+03  0.65180421160E+03  0.00000000000E+00 0.  1.
         11    1    5    5    0    0 -0.42874358935E+02 -0.65950796151E+02  0.68608480849E+02  0.10437835892E+03  0.00000000000E+00 0.  1.
        -11    1    5    5    0    0  0.20882854432E+02 -0.32559558178E+02 -0.15013129521E+02  0.41492318518E+02  0.00000000000E+00 0. -1.
          3    1    6    6  503    0 -0.80319578522E+02  0.29885275799E+03 -0.23061494245E+03  0.38593711577E+03  0.00000000000E+00 0. -1.
         -3    1    6    6    0  503 -0.11970993866E+03  0.86523400885E+03 -0.80980166925E+03  0.11911083507E+04  0.00000000000E+00 0.  1.
<mgrwt>
<rscale>  0 0.25083295E+04</rscale>
<asrwt>0</asrwt>
<pdfrwt beam="1">  1        3 0.35046321E+00 0.25083295E+04</pdfrwt>
<pdfrwt beam="2">  1       -4 0.10622825E+00 0.25083295E+04</pdfrwt>
<totfact> 0.29853109E-02</totfact>
</mgrwt>
</event>
<event>
12    4  0.4424320E-008  0.1893434E+04  0.7818608E-02  0.8658132E-01
         -4   -1    0    0    0  501 -0.00000000000E+00  0.00000000000E+00  0.44238030084E+03  0.44238030084E+03  0.00000000000E+00 0.  1.
          1   -1    0    0  501    0  0.00000000000E+00 -0.00000000000E+00 -0.20260236496E+04  0.20260236496E+04  0.00000000000E+00 0. -1.
        -24    2    1    2    0    0  0.68309541956E+03 -0.90535953802E+02 -0.79352129035E+03  0.10537861257E+04  0.77285505220E+02 0.  0.
        254    2    1    2    0    0 -0.68309541956E+03  0.90535953802E+02 -0.79012205845E+03  0.14146178248E+04  0.94975502725E+03 0.  0.
         23    2    4    4    0    0 -0.65340372811E+03  0.38543911994E+03 -0.79803592120E+03  0.11054973242E+04  0.98809185542E+02 0.  0.
         23    2    4    4    0    0 -0.29691691459E+02 -0.29490316614E+03  0.79138627426E+01  0.30912050061E+03  0.87426430411E+02 0.  0.
          3    1    3    3  502    0  0.42570787158E+02  0.26850237982E+01 -0.78264902172E+02  0.89134034937E+02  0.00000000000E+00 0. -1.
         -4    1    3    3    0  502  0.64052463241E+03 -0.93220977600E+02 -0.71525638818E+03  0.96465209076E+03  0.00000000000E+00 0.  1.
         11    1    5    5    0    0 -0.17036005803E+03  0.95317649627E+02 -0.27077623229E+03  0.33380798624E+03  0.00000000000E+00 0. -1.
        -11    1    5    5    0    0 -0.48304367007E+03  0.29012147031E+03 -0.52725968891E+03  0.77168933793E+03  0.00000000000E+00 0.  1.
          1    1    6    6  503    0  0.27957965865E+02 -0.79376565744E+02 -0.12522524606E+02  0.85082904671E+02  0.00000000000E+00 0. -1.
         -1    1    6    6    0  503 -0.57649657324E+02 -0.21552660040E+03  0.20436387348E+02  0.22403759594E+03  0.00000000000E+00 0.  1.
<mgrwt>
<rscale>  0 0.18934339E+04</rscale>
<asrwt>0</asrwt>
<pdfrwt beam="1">  1        1 0.31169594E+00 0.18934339E+04</pdfrwt>
<pdfrwt beam="2">  1       -4 0.68058509E-01 0.18934339E+04</pdfrwt>
<totfact> 0.26322188E+00</totfact>
</mgrwt>
</event>
<event>
12    4  0.4424320E-008  0.1560262E+04  0.7818608E-02  0.8845339E-01
          1   -1    0    0  501    0  0.00000000000E+00  0.00000000000E+00  0.82845544756E+03  0.82845544756E+03  0.00000000000E+00 0. -1.
         -2   -1    0    0    0  501 -0.00000000000E+00 -0.00000000000E+00 -0.73462576317E+03  0.73462576317E+03  0.00000000000E+00 0.  1.
        -24    2    1    2    0    0 -0.11052325209E+03  0.50901765416E+03  0.66371821811E+01  0.52444971762E+03  0.60737901080E+02 0.  0.
        254    2    1    2    0    0  0.11052325209E+03 -0.50901765416E+03  0.87192502206E+02  0.10386314931E+04  0.89433689656E+03 0.  0.
         23    2    4    4    0    0  0.48219195356E+02  0.32472156137E+02 -0.32961357779E+03  0.34638757700E+03  0.89217213091E+02 0.  0.
         23    2    4    4    0    0  0.62304056734E+02 -0.54148981029E+03  0.41680608000E+03  0.69224391612E+03  0.91549554559E+02 0.  0.
          3    1    3    3  502    0 -0.57195402847E+02  0.32038967535E+03  0.30964515595E+02  0.32692454696E+03  0.00000000000E+00 0. -1.
         -4    1    3    3    0  502 -0.53327849243E+02  0.18862797881E+03 -0.24327333414E+02  0.19752517066E+03  0.00000000000E+00 0.  1.
         11    1    5    5    0    0  0.45801653258E+02  0.53989202310E+02 -0.15461031848E+03  0.17004992205E+03  0.00000000000E+00 0.  1.
        -11    1    5    5    0    0  0.24175420979E+01 -0.21517046173E+02 -0.17500325931E+03  0.17633765496E+03  0.00000000000E+00 0. -1.
          1    1    6    6  503    0  0.76719364565E+02 -0.52083059798E+03  0.40605580486E+03  0.66485463776E+03  0.00000000000E+00 0. -1.
         -1    1    6    6    0  503 -0.14415307832E+02 -0.20659212311E+02  0.10750275138E+02  0.27389278354E+02  0.00000000000E+00 0.  1.
<mgrwt>
<rscale>  0 0.15602624E+04</rscale>
<asrwt>0</asrwt>
<pdfrwt beam="1">  1        1 0.12745469E+00 0.15602624E+04</pdfrwt>
<pdfrwt beam="2">  1       -2 0.11301935E+00 0.15602624E+04</pdfrwt>
<totfact> 0.10838339E+01</totfact>
</mgrwt>
</event>
<event>
12    4  0.5468557E-008  0.2280001E+04  0.7818608E-02  0.8485848E-01
         -2   -1    0    0    0  501 -0.00000000000E+00  0.00000000000E+00  0.13577010742E+04  0.13577010742E+04  0.00000000000E+00 0.  1.
          1   -1    0    0  501    0  0.00000000000E+00 -0.00000000000E+00 -0.95720732662E+03  0.95720732662E+03  0.00000000000E+00 0. -1.
        -24    2    1    2    0    0 -0.84159669642E+02 -0.54231277490E+03  0.96242343193E+03  0.11107822250E+04  0.79951818789E+02 0.  0.
        254    2    1    2    0    0  0.84159669642E+02  0.54231277490E+03 -0.56192968434E+03  0.12041261758E+04  0.91267128873E+03 0.  0.
         23    2    4    4    0    0  0.47718606021E+02  0.64789840479E+03 -0.34323960318E+02  0.65677257013E+03  0.90125836124E+02 0.  0.
         23    2    4    4    0    0  0.36441063621E+02 -0.10558562989E+03 -0.52760572402E+03  0.54735360566E+03  0.93551553968E+02 0.  0.
          3    1    3    3  502    0  0.70459685306E+01 -0.31537928099E+01  0.15398049695E+02  0.17224750101E+02  0.00000000000E+00 0. -1.
         -4    1    3    3    0  502 -0.91205638173E+02 -0.53915898209E+03  0.94702538223E+03  0.10935574749E+04  0.00000000000E+00 0.  1.
         11    1    5    5    0    0  0.38655974403E+02  0.10022882299E+03  0.56338085904E+01  0.10757249236E+03  0.00000000000E+00 0. -1.
        -11    1    5    5    0    0  0.90626316186E+01  0.54766958180E+03 -0.39957768909E+02  0.54920007777E+03  0.00000000000E+00 0.  1.
          2    1    6    6  503    0 -0.83905766012E+01  0.13749667232E+02 -0.95018645873E+02  0.96374261026E+02  0.00000000000E+00 0. -1.
         -2    1    6    6    0  503  0.44831640222E+02 -0.11933529712E+03 -0.43258707815E+03  0.45097934463E+03  0.00000000000E+00 0.  1.
<mgrwt>
<rscale>  0 0.22800012E+04</rscale>
<asrwt>0</asrwt>
<pdfrwt beam="1">  1        1 0.14726267E+00 0.22800012E+04</pdfrwt>
<pdfrwt beam="2">  1       -2 0.20887709E+00 0.22800012E+04</pdfrwt>
<totfact> 0.15115617E+00</totfact>
</mgrwt>
</event>
<event>
12    4  0.4424320E-008  0.1408693E+04  0.7818608E-02  0.8947550E-01
         -2   -1    0    0    0  501 -0.00000000000E+00  0.00000000000E+00  0.30863419259E+03  0.30863419259E+03  0.00000000000E+00 0.  1.
          1   -1    0    0  501    0  0.00000000000E+00 -0.00000000000E+00 -0.16074185243E+04  0.16074185243E+04  0.00000000000E+00 0. -1.
        -24    2    1    2    0    0  0.28379761057E+03 -0.24397862447E+03 -0.14831803714E+03  0.40976791145E+03  0.76451606589E+02 0.  0.
        254    2    1    2    0    0 -0.28379761057E+03  0.24397862447E+03 -0.11504662946E+04  0.15062848055E+04  0.89735977581E+03 0.  0.
         23    2    4    4    0    0 -0.28332354281E+03 -0.23067061486E+03 -0.86860998071E+03  0.94674273452E+03  0.91418511826E+02 0.  0.
         23    2    4    4    0    0 -0.47406775959E+00  0.47464923932E+03 -0.28185631390E+03  0.55954207097E+03  0.91390493852E+02 0.  0.
          1    1    3    3  502    0  0.65027242068E+02 -0.78200455692E+02 -0.72824086933E+02  0.12508877295E+03  0.00000000000E+00 0. -1.
         -2    1    3    3    0  502  0.21877036850E+03 -0.16577816877E+03 -0.75493950208E+02  0.28467913849E+03  0.00000000000E+00 0.  1.
         11    1    5    5    0    0 -0.24430090965E+03 -0.15698799015E+03 -0.62272783355E+03  0.68710851995E+03  0.00000000000E+00 0.  1.
        -11    1    5    5    0    0 -0.39022633151E+02 -0.73682624707E+02 -0.24588214716E+03  0.25963421457E+03  0.00000000000E+00 0. -1.
          1    1    6    6  503    0 -0.37078950955E+02  0.18176701272E+03 -0.13787839606E+03  0.23113750803E+03  0.00000000000E+00 0. -1.
         -1    1    6    6    0  503  0.36604883195E+02  0.29288222660E+03 -0.14397791783E+03  0.32840456293E+03  0.00000000000E+00 0.  1.
<mgrwt>
<rscale>  0 0.14086935E+04</rscale>
<asrwt>0</asrwt>
<pdfrwt beam="1">  1        1 0.24729515E+00 0.14086935E+04</pdfrwt>
<pdfrwt beam="2">  1       -2 0.47482185E-01 0.14086935E+04</pdfrwt>
<totfact> 0.19823899E+01</totfact>
</mgrwt>
</event>
<event>
12    4  0.4424320E-008  0.2258077E+04  0.7818608E-02  0.8494637E-01
         -2   -1    0    0    0  501 -0.00000000000E+00  0.00000000000E+00  0.88216314289E+03  0.88216314289E+03  0.00000000000E+00 0.  1.
          1   -1    0    0  501    0  0.00000000000E+00 -0.00000000000E+00 -0.14450024081E+04  0.14450024081E+04  0.00000000000E+00 0. -1.
        -24    2    1    2    0    0  0.68349565656E+03  0.63070210465E+03 -0.10930257976E+03  0.93983871182E+03  0.79989330158E+02 0.  0.
        254    2    1    2    0    0 -0.68349565656E+03 -0.63070210465E+03 -0.45353668548E+03  0.13873268392E+04  0.92413677360E+03 0.  0.
         23    2    4    4    0    0 -0.60884302412E+03  0.49149539344E+02 -0.26892621135E+03  0.67323167299E+03  0.88397246179E+02 0.  0.
         23    2    4    4    0    0 -0.74652632443E+02 -0.67985164400E+03 -0.18461047413E+03  0.71409516620E+03  0.89886627815E+02 0.  0.
          1    1    3    3  502    0  0.20399303782E+03  0.21245376841E+03 -0.17953566219E+01  0.29453859933E+03  0.00000000000E+00 0. -1.
         -2    1    3    3    0  502  0.47950261874E+03  0.41824833625E+03 -0.10750722314E+03  0.64530011249E+03  0.00000000000E+00 0.  1.
         11    1    5    5    0    0 -0.13505969947E+03  0.72983546286E+00 -0.99445600729E+02  0.16772323210E+03  0.00000000000E+00 0.  1.
        -11    1    5    5    0    0 -0.47378332465E+03  0.48419703881E+02 -0.16948061062E+03  0.50550844089E+03  0.00000000000E+00 0. -1.
          1    1    6    6  503    0 -0.50762943897E+02 -0.53728122855E+03 -0.10757229909E+03  0.55029064553E+03  0.00000000000E+00 0. -1.
         -1    1    6    6    0  503 -0.23889688546E+02 -0.14257041544E+03 -0.77038175041E+02  0.16380452067E+03  0.00000000000E+00 0.  1.
<mgrwt>
<rscale>  0 0.22580769E+04</rscale>
<asrwt>0</asrwt>
<pdfrwt beam="1">  1        1 0.22230806E+00 0.22580769E+04</pdfrwt>
<pdfrwt beam="2">  1       -2 0.13571741E+00 0.22580769E+04</pdfrwt>
<totfact> 0.22144353E+00</totfact>
</mgrwt>
</event>
<event>
12    4  0.4424320E-008  0.1305110E+04  0.7818608E-02  0.9025522E-01
          1   -1    0    0  501    0  0.00000000000E+00  0.00000000000E+00  0.14291450815E+04  0.14291450815E+04  0.00000000000E+00 0. -1.
         -2   -1    0    0    0  501 -0.00000000000E+00 -0.00000000000E+00 -0.29796011718E+03  0.29796011718E+03  0.00000000000E+00 0.  1.
        -24    2    1    2    0    0 -0.17625589366E+03  0.12384502302E+03 -0.41508086146E+02  0.23386280166E+03  0.81025668805E+02 0.  0.
        254    2    1    2    0    0  0.17625589366E+03 -0.12384502302E+03  0.11726930504E+04  0.14932423970E+04  0.89897727216E+03 0.  0.
         23    2    4    4    0    0  0.23610733056E+03  0.26091316887E+03  0.98808035081E+03  0.10529485556E+04  0.92604145491E+02 0.  0.
         23    2    4    4    0    0 -0.59851436894E+02 -0.38475819189E+03  0.18461269961E+03  0.44029384143E+03  0.90309231048E+02 0.  0.
          3    1    3    3  502    0 -0.19188628587E+01  0.10366343435E+02  0.14975515874E+02  0.18314179932E+02  0.00000000000E+00 0. -1.
         -4    1    3    3    0  502 -0.17433703081E+03  0.11347867959E+03 -0.56483602021E+02  0.21554862173E+03  0.00000000000E+00 0.  1.
         11    1    5    5    0    0  0.18737800972E+02  0.46687807771E+01  0.12991079670E+03  0.13133818104E+03  0.00000000000E+00 0. -1.
        -11    1    5    5    0    0  0.21736952959E+03  0.25624438809E+03  0.85816955412E+03  0.92161037453E+03  0.00000000000E+00 0.  1.
          1    1    6    6  503    0 -0.55266600822E+02 -0.20771338693E+03  0.58130846862E+02  0.22266217378E+03  0.00000000000E+00 0. -1.
         -1    1    6    6    0  503 -0.45848360722E+01 -0.17704480496E+03  0.12648185275E+03  0.21763166764E+03  0.00000000000E+00 0.  1.
<mgrwt>
<rscale>  0 0.13051103E+04</rscale>
<asrwt>0</asrwt>
<pdfrwt beam="1">  1        1 0.21986847E+00 0.13051103E+04</pdfrwt>
<pdfrwt beam="2">  1       -2 0.45840019E-01 0.13051103E+04</pdfrwt>
<totfact> 0.28498004E+01</totfact>
</mgrwt>
</event>
<event>
12    4  0.4424320E-008  0.1197736E+04  0.7818608E-02  0.9114840E-01
          1   -1    0    0  501    0  0.00000000000E+00  0.00000000000E+00  0.14786601733E+04  0.14786601733E+04  0.00000000000E+00 0. -1.
         -2   -1    0    0    0  501 -0.00000000000E+00 -0.00000000000E+00 -0.24254587554E+03  0.24254587554E+03  0.00000000000E+00 0.  1.
        -24    2    1    2    0    0 -0.63190632632E+02 -0.58066619434E+02 -0.66822468658E+02  0.13416347508E+03  0.78548121444E+02 0.  0.
        254    2    1    2    0    0  0.63190632632E+02  0.58066619434E+02  0.13029367664E+04  0.15870425738E+04  0.90205051150E+03 0.  0.
         23    2    4    4    0    0  0.18563294771E+03 -0.38234719421E+03  0.54886317928E+03  0.70031930826E+03  0.92452018686E+02 0.  0.
         23    2    4    4    0    0 -0.12244231507E+03  0.44041381364E+03  0.75407358714E+03  0.88672326550E+03  0.93245519949E+02 0.  0.
          3    1    3    3  502    0  0.24645540725E+01 -0.48836593555E+01  0.15353856150E+02  0.16299234772E+02  0.00000000000E+00 0. -1.
         -4    1    3    3    0  502 -0.65655186704E+02 -0.53182960079E+02 -0.82176324808E+02  0.11786424031E+03  0.00000000000E+00 0.  1.
         11    1    5    5    0    0  0.89600748640E+02 -0.25344304605E+03  0.28844882305E+03  0.39428973518E+03  0.00000000000E+00 0. -1.
        -11    1    5    5    0    0  0.96032199067E+02 -0.12890414816E+03  0.26041435623E+03  0.30602957308E+03  0.00000000000E+00 0.  1.
          2    1    6    6  503    0 -0.29443227488E+02  0.12950369269E+03  0.30503698055E+03  0.33269455897E+03  0.00000000000E+00 0. -1.
         -2    1    6    6    0  503 -0.92999087587E+02  0.31091012095E+03  0.44903660658E+03  0.55402870652E+03  0.00000000000E+00 0.  1.
<mgrwt>
<rscale>  0 0.11977361E+04</rscale>
<asrwt>0</asrwt>
<pdfrwt beam="1">  1        1 0.22748618E+00 0.11977361E+04</pdfrwt>
<pdfrwt beam="2">  1       -2 0.37314751E-01 0.11977361E+04</pdfrwt>
<totfact> 0.39807016E+01</totfact>
</mgrwt>
</event>
<event>
12    4  0.4424320E-008  0.1778799E+04  0.7818608E-02  0.8717656E-01
         -2   -1    0    0    0  501 -0.00000000000E+00  0.00000000000E+00  0.55675889481E+03  0.55675889481E+03  0.00000000000E+00 0.  1.
          1   -1    0    0  501    0  0.00000000000E+00 -0.00000000000E+00 -0.14207784347E+04  0.14207784347E+04  0.00000000000E+00 0. -1.
        -24    2    1    2    0    0 -0.28072048548E+03 -0.58952153262E+03 -0.36905410777E+03  0.75426599110E+03  0.79853756845E+02 0.  0.
        254    2    1    2    0    0  0.28072048548E+03  0.58952153262E+03 -0.49496543211E+03  0.12232713384E+04  0.90832943361E+03 0.  0.
         23    2    4    4    0    0  0.49114780456E+03  0.24681988807E+03 -0.57769059404E+03  0.80273559505E+03  0.92259362914E+02 0.  0.
         23    2    4    4    0    0 -0.21042731909E+03  0.34270164455E+03  0.82725161934E+02  0.42053574334E+03  0.91009808337E+02 0.  0.
          3    1    3    3  502    0 -0.62366826167E+02 -0.15162903860E+03 -0.13234621496E+03  0.21070478629E+03  0.00000000000E+00 0. -1.
         -4    1    3    3    0  502 -0.21835365931E+03 -0.43789249402E+03 -0.23670789281E+03  0.54356120481E+03  0.00000000000E+00 0.  1.
         11    1    5    5    0    0  0.32038210001E+01  0.91098346201E+01  0.54324777279E+00  0.96720563454E+01  0.00000000000E+00 0. -1.
        -11    1    5    5    0    0  0.48794398356E+03  0.23771005345E+03 -0.57823384181E+03  0.79306353871E+03  0.00000000000E+00 0.  1.
          3    1    6    6  503    0 -0.75415243446E+02  0.19310121537E+03  0.69266268654E+02  0.21857116529E+03  0.00000000000E+00 0. -1.
         -3    1    6    6    0  503 -0.13501207564E+03  0.14960042918E+03  0.13458893280E+02  0.20196457805E+03  0.00000000000E+00 0.  1.
<mgrwt>
<rscale>  0 0.17787985E+04</rscale>
<asrwt>0</asrwt>
<pdfrwt beam="1">  1        1 0.21858129E+00 0.17787985E+04</pdfrwt>
<pdfrwt beam="2">  1       -2 0.85655216E-01 0.17787985E+04</pdfrwt>
<totfact> 0.72960162E+00</totfact>
</mgrwt>
</event>
<event>
12    4  0.4424320E-008  0.1990950E+04  0.7818608E-02  0.8610863E-01
          1   -1    0    0  501    0  0.00000000000E+00  0.00000000000E+00  0.18766470886E+04  0.18766470886E+04  0.00000000000E+00 0. -1.
         -2   -1    0    0    0  501 -0.00000000000E+00 -0.00000000000E+00 -0.52805385991E+03  0.52805385991E+03  0.00000000000E+00 0.  1.
        -24    2    1    2    0    0 -0.78190463360E+03 -0.98978084217E+02  0.50686015488E+03  0.94021217087E+03  0.76942786846E+02 0.  0.
        254    2    1    2    0    0  0.78190463360E+03  0.98978084217E+02  0.84173307382E+03  0.14644887777E+04  0.90279637522E+03 0.  0.
         23    2    4    4    0    0  0.27250861927E+03 -0.34273602392E+03  0.10019588173E+03  0.45784512908E+03  0.88622896800E+02 0.  0.
         23    2    4    4    0    0  0.50939601433E+03  0.44171410813E+03  0.74153719209E+03  0.10066436486E+04  0.94118941889E+02 0.  0.
          3    1    3    3  502    0 -0.28506280702E+03 -0.47791800141E+02  0.22819148900E+03  0.36826107012E+03  0.00000000000E+00 0. -1.
         -4    1    3    3    0  502 -0.49684182658E+03 -0.51186284076E+02  0.27866866587E+03  0.57195110076E+03  0.00000000000E+00 0.  1.
         11    1    5    5    0    0  0.11979743662E+03 -0.84083967874E+02  0.30954065801E+02  0.14959844139E+03  0.00000000000E+00 0. -1.
        -11    1    5    5    0    0  0.15271118265E+03 -0.25865205604E+03  0.69241815926E+02  0.30824668769E+03  0.00000000000E+00 0.  1.
          3    1    6    6  503    0  0.21768677783E+03  0.21837219479E+03  0.39976805998E+03  0.50486478435E+03  0.00000000000E+00 0. -1.
         -3    1    6    6    0  503  0.29170923650E+03  0.22334191335E+03  0.34176913211E+03  0.50177886422E+03  0.00000000000E+00 0.  1.
<mgrwt>
<rscale>  0 0.19909503E+04</rscale>
<asrwt>0</asrwt>
<pdfrwt beam="1">  1        1 0.28871493E+00 0.19909503E+04</pdfrwt>
<pdfrwt beam="2">  1       -2 0.81239056E-01 0.19909503E+04</pdfrwt>
<totfact> 0.39332744E+00</totfact>
</mgrwt>
</event>
<event>
12    4  0.4424320E-008  0.2931762E+04  0.7818608E-02  0.8263490E-01
         -2   -1    0    0    0  501 -0.00000000000E+00  0.00000000000E+00  0.14256663055E+04  0.14256663055E+04  0.00000000000E+00 0.  1.
          1   -1    0    0  501    0  0.00000000000E+00 -0.00000000000E+00 -0.15072303341E+04  0.15072303341E+04  0.00000000000E+00 0. -1.
        -24    2    1    2    0    0 -0.62977033311E+03  0.16673815405E+03 -0.12173234250E+04  0.13828922884E+04  0.78118343864E+02 0.  0.
        254    2    1    2    0    0  0.62977033311E+03 -0.16673815405E+03  0.11357593965E+04  0.15500043512E+04  0.82954915315E+03 0.  0.
         23    2    4    4    0    0  0.76253815875E+03 -0.44550914704E+02  0.11051611124E+04  0.13457651388E+04  0.79079053615E+02 0.  0.
         23    2    4    4    0    0 -0.13276782565E+03 -0.12218723935E+03  0.30598284096E+02  0.20423921245E+03  0.90666332921E+02 0.  0.
          1    1    3    3  502    0 -0.50845209173E+03  0.14240766875E+03 -0.10440371851E+04  0.11699645796E+04  0.00000000000E+00 0. -1.
         -2    1    3    3    0  502 -0.12131824137E+03  0.24330485301E+02 -0.17328623993E+03  0.21292770875E+03  0.00000000000E+00 0.  1.
         11    1    5    5    0    0  0.11749692923E+03 -0.41016786607E+01  0.12409819267E+03  0.17094652255E+03  0.00000000000E+00 0. -1.
        -11    1    5    5    0    0  0.64504122953E+03 -0.40449236043E+02  0.98106291975E+03  0.11748186162E+04  0.00000000000E+00 0.  1.
          3    1    6    6  503    0 -0.14530059204E+02  0.11032234029E+02  0.18068077019E+02  0.25676608329E+02  0.00000000000E+00 0. -1.
         -3    1    6    6    0  503 -0.11823776644E+03 -0.13321947338E+03  0.12530207077E+02  0.17856260412E+03  0.00000000000E+00 0.  1.
<mgrwt>
<rscale>  0 0.29317623E+04</rscale>
<asrwt>0</asrwt>
<pdfrwt beam="1">  1        1 0.23188159E+00 0.29317623E+04</pdfrwt>
<pdfrwt beam="2">  1       -2 0.21933328E+00 0.29317623E+04</pdfrwt>
<totfact> 0.48522842E-01</totfact>
</mgrwt>
</event>
<event>
12    4  0.4424320E-008  0.1221493E+04  0.7818608E-02  0.9094249E-01
          1   -1    0    0  501    0  0.00000000000E+00  0.00000000000E+00  0.16451060007E+04  0.16451060007E+04  0.00000000000E+00 0. -1.
         -2   -1    0    0    0  501 -0.00000000000E+00 -0.00000000000E+00 -0.22673982745E+03  0.22673982745E+03  0.00000000000E+00 0.  1.
        -24    2    1    2    0    0 -0.49836752704E+02  0.81844500478E+01  0.75784591054E+03  0.76400453104E+03  0.82594262469E+02 0.  0.
        254    2    1    2    0    0  0.49836752704E+02 -0.81844500478E+01  0.66052026268E+03  0.11078412971E+04  0.88796094224E+03 0.  0.
         23    2    4    4    0    0  0.16982294515E+03 -0.33325575630E+03  0.64309351782E+03  0.74953510300E+03  0.91292749711E+02 0.  0.
         23    2    4    4    0    0 -0.11998619245E+03  0.32507130625E+03  0.17426744859E+02  0.35830619407E+03  0.89507523408E+02 0.  0.
          1    1    3    3  502    0 -0.38065840012E+02  0.44453781947E+02  0.47975854872E+03  0.48331502354E+03  0.00000000000E+00 0. -1.
         -2    1    3    3    0  502 -0.11770912692E+02 -0.36269331899E+02  0.27808736181E+03  0.28068950750E+03  0.00000000000E+00 0.  1.
         11    1    5    5    0    0  0.11479406886E+03 -0.12772182507E+03  0.26813954286E+03  0.31841695509E+03  0.00000000000E+00 0.  1.
        -11    1    5    5    0    0  0.55028876297E+02 -0.20553393123E+03  0.37495397496E+03  0.43111814790E+03  0.00000000000E+00 0. -1.
          1    1    6    6  503    0 -0.13095627060E+03  0.31601647599E+03  0.23406973999E+02  0.34287584391E+03  0.00000000000E+00 0. -1.
         -1    1    6    6    0  503  0.10970078145E+02  0.90548302662E+01 -0.59802291405E+01  0.15430350165E+02  0.00000000000E+00 0.  1.
<mgrwt>
<rscale>  0 0.12214926E+04</rscale>
<asrwt>0</asrwt>
<pdfrwt beam="1">  1        1 0.25309322E+00 0.12214926E+04</pdfrwt>
<pdfrwt beam="2">  1       -2 0.34883051E-01 0.12214926E+04</pdfrwt>
<totfact> 0.34752465E+01</totfact>
</mgrwt>
</event>
<event>
12    4  0.4424320E-008  0.1299573E+04  0.7818608E-02  0.9029904E-01
         -2   -1    0    0    0  501 -0.00000000000E+00  0.00000000000E+00  0.16971785932E+03  0.16971785932E+03  0.00000000000E+00 0.  1.
          1   -1    0    0  501    0  0.00000000000E+00 -0.00000000000E+00 -0.24877907250E+04  0.24877907250E+04  0.00000000000E+00 0. -1.
        -24    2    1    2    0    0  0.22764464017E+03 -0.67952881052E+02 -0.10756373865E+04  0.11046200462E+04  0.82158280669E+02 0.  0.
        254    2    1    2    0    0 -0.22764464017E+03  0.67952881052E+02 -0.12424354792E+04  0.15528885381E+04  0.90076479477E+03 0.  0.
         23    2    4    4    0    0 -0.73203968078E+02  0.46773010123E+03 -0.53189110687E+03  0.71777826736E+03  0.90372689390E+02 0.  0.
         23    2    4    4    0    0 -0.15444067209E+03 -0.39977722018E+03 -0.71054437229E+03  0.83511027069E+03  0.94138792445E+02 0.  0.
          3    1    3    3  502    0  0.18572376853E+03 -0.58887526635E+02 -0.98827033012E+03  0.10072930578E+04  0.00000000000E+00 0. -1.
         -4    1    3    3    0  502  0.41920871636E+02 -0.90653544170E+01 -0.87367056371E+02  0.97326988386E+02  0.00000000000E+00 0.  1.
         11    1    5    5    0    0 -0.77197899343E+02  0.20831600392E+03 -0.23141496437E+03  0.32079270392E+03  0.00000000000E+00 0.  1.
        -11    1    5    5    0    0  0.39939312648E+01  0.25941409731E+03 -0.30047614250E+03  0.39698556345E+03  0.00000000000E+00 0. -1.
          4    1    6    6  503    0 -0.11602999279E+03 -0.21792620093E+03 -0.33565705113E+03  0.41667786628E+03  0.00000000000E+00 0. -1.
         -4    1    6    6    0  503 -0.38410679297E+02 -0.18185101926E+03 -0.37488732116E+03  0.41843240441E+03  0.00000000000E+00 0.  1.
<mgrwt>
<rscale>  0 0.12995730E+04</rscale>
<asrwt>0</asrwt>
<pdfrwt beam="1">  1        1 0.38273700E+00 0.12995730E+04</pdfrwt>
<pdfrwt beam="2">  1       -2 0.26110442E-01 0.12995730E+04</pdfrwt>
<totfact> 0.15867421E+01</totfact>
</mgrwt>
</event>
<event>
12    4  0.4424320E-008  0.1197208E+04  0.7818608E-02  0.9115304E-01
          1   -1    0    0  501    0  0.00000000000E+00  0.00000000000E+00  0.26543845268E+03  0.26543845268E+03  0.00000000000E+00 0. -1.
         -2   -1    0    0    0  501 -0.00000000000E+00 -0.00000000000E+00 -0.13499427155E+04  0.13499427155E+04  0.00000000000E+00 0.  1.
        -24    2    1    2    0    0  0.23985127806E+03 -0.34713207974E+02 -0.35367655218E+03  0.43603191895E+03  0.79391991980E+02 0.  0.
        254    2    1    2    0    0 -0.23985127806E+03  0.34713207974E+02 -0.73082771064E+03  0.11793492492E+04  0.89332069639E+03 0.  0.
         23    2    4    4    0    0 -0.28437738144E+03  0.42317111744E+03 -0.34393824969E+03  0.62183552218E+03  0.91878220102E+02 0.  0.
         23    2    4    4    0    0  0.44526103374E+02 -0.38845790947E+03 -0.38688946095E+03  0.55751372705E+03  0.90862420956E+02 0.  0.
          1    1    3    3  502    0  0.14188284887E+03 -0.44022650228E+02 -0.15720276501E+03  0.21629018902E+03  0.00000000000E+00 0. -1.
         -2    1    3    3    0  502  0.97968429190E+02  0.93094422541E+01 -0.19647378716E+03  0.21974172994E+03  0.00000000000E+00 0.  1.
         11    1    5    5    0    0 -0.63453770505E+02  0.17005110646E+03 -0.13483787650E+03  0.22610840927E+03  0.00000000000E+00 0. -1.
        -11    1    5    5    0    0 -0.22092361093E+03  0.25312001098E+03 -0.20910037319E+03  0.39572711291E+03  0.00000000000E+00 0.  1.
          2    1    6    6  503    0 -0.25927138999E+02 -0.60062928039E+02 -0.68455663497E+02  0.94688699041E+02  0.00000000000E+00 0. -1.
         -2    1    6    6    0  503  0.70453242373E+02 -0.32839498143E+03 -0.31843379745E+03  0.46282502801E+03  0.00000000000E+00 0.  1.
<mgrwt>
<rscale>  0 0.11972079E+04</rscale>
<asrwt>0</asrwt>
<pdfrwt beam="1">  1        1 0.40836685E-01 0.11972079E+04</pdfrwt>
<pdfrwt beam="2">  1       -2 0.20768350E+00 0.11972079E+04</pdfrwt>
<totfact> 0.10524760E+01</totfact>
</mgrwt>
</event>
<event>
12    4  0.4424320E-008  0.3099009E+04  0.7818608E-02  0.8216010E-01
          1   -1    0    0  501    0  0.00000000000E+00  0.00000000000E+00  0.27736823139E+04  0.27736823139E+04  0.00000000000E+00 0. -1.
         -2   -1    0    0    0  501 -0.00000000000E+00 -0.00000000000E+00 -0.86562332661E+03  0.86562332661E+03  0.00000000000E+00 0.  1.
        -24    2    1    2    0    0  0.11140697512E+04  0.24356225604E+03  0.18656677163E+04  0.21887512726E+04  0.97170585204E+02 0.  0.
        254    2    1    2    0    0 -0.11140697512E+04 -0.24356225604E+03  0.42391270980E+02  0.14505543679E+04  0.89545350038E+03 0.  0.
         23    2    4    4    0    0 -0.47878411606E+03  0.33724466459E+02 -0.39292127617E+03  0.62687995931E+03  0.90663028235E+02 0.  0.
         23    2    4    4    0    0 -0.63528563511E+03 -0.27728672250E+03  0.43531254715E+03  0.82367440859E+03  0.92014960767E+02 0.  0.
          1    1    3    3  502    0  0.22857709401E+03  0.13959350451E+02  0.40569336616E+03  0.46586420631E+03  0.00000000000E+00 0. -1.
         -4    1    3    3    0  502  0.88549265716E+03  0.22960290559E+03  0.14599743501E+04  0.17228870663E+04  0.00000000000E+00 0.  1.
         11    1    5    5    0    0 -0.24072590966E+03  0.43970315175E+02 -0.15224163048E+03  0.28820108648E+03  0.00000000000E+00 0. -1.
        -11    1    5    5    0    0 -0.23805820640E+03 -0.10245848716E+02 -0.24067964569E+03  0.33867887283E+03  0.00000000000E+00 0.  1.
          4    1    6    6  503    0 -0.18970671736E+03 -0.11073745304E+03  0.17879487366E+03  0.28322963998E+03  0.00000000000E+00 0. -1.
         -4    1    6    6    0  503 -0.44557891775E+03 -0.16654926946E+03  0.25651767349E+03  0.54044476860E+03  0.00000000000E+00 0.  1.
<mgrwt>
<rscale>  0 0.30990089E+04</rscale>
<asrwt>0</asrwt>
<pdfrwt beam="1">  1        1 0.42672035E+00 0.30990089E+04</pdfrwt>
<pdfrwt beam="2">  1       -2 0.13317282E+00 0.30990089E+04</pdfrwt>
<totfact> 0.26384181E-01</totfact>
</mgrwt>
</event>
<event>
12    4  0.4424320E-008  0.1808461E+04  0.7818608E-02  0.8701813E-01
          1   -1    0    0  501    0  0.00000000000E+00  0.00000000000E+00  0.70448788601E+03  0.70448788601E+03  0.00000000000E+00 0. -1.
         -2   -1    0    0    0  501 -0.00000000000E+00 -0.00000000000E+00 -0.11606064617E+04  0.11606064617E+04  0.00000000000E+00 0.  1.
        -24    2    1    2    0    0  0.50560895663E+03 -0.25223193911E+03  0.22343619789E+03  0.61279132754E+03  0.79549408864E+02 0.  0.
        254    2    1    2    0    0 -0.50560895663E+03  0.25223193911E+03 -0.67955477354E+03  0.12523030201E+04  0.88724675027E+03 0.  0.
         23    2    4    4    0    0 -0.43216490387E+03 -0.19643853608E+03 -0.61770822664E+03  0.78435133056E+03  0.91043692254E+02 0.  0.
         23    2    4    4    0    0 -0.73444052763E+02  0.44867047519E+03 -0.61846546903E+02  0.46795168958E+03  0.91948704296E+02 0.  0.
          3    1    3    3  502    0  0.21811828840E+03 -0.94094262114E+02  0.13387033067E+03  0.27267303375E+03  0.00000000000E+00 0. -1.
         -4    1    3    3    0  502  0.28749066822E+03 -0.15813767700E+03  0.89565867223E+02  0.34011829379E+03  0.00000000000E+00 0.  1.
         11    1    5    5    0    0 -0.42190898600E+02 -0.33082883443E+02 -0.11910426869E+03  0.13061537398E+03  0.00000000000E+00 0. -1.
        -11    1    5    5    0    0 -0.38997400527E+03 -0.16335565263E+03 -0.49860395795E+03  0.65373595657E+03  0.00000000000E+00 0.  1.
          1    1    6    6  503    0 -0.77910874963E+02  0.30435038412E+03 -0.93120376790E+01  0.31430236206E+03  0.00000000000E+00 0. -1.
         -1    1    6    6    0  503  0.44668221999E+01  0.14432009107E+03 -0.52534509224E+02  0.15364932751E+03  0.00000000000E+00 0.  1.
<mgrwt>
<rscale>  0 0.18084614E+04</rscale>
<asrwt>0</asrwt>
<pdfrwt beam="1">  1        1 0.10838275E+00 0.18084614E+04</pdfrwt>
<pdfrwt beam="2">  1       -2 0.17855484E+00 0.18084614E+04</pdfrwt>
<totfact> 0.41313651E+00</totfact>
</mgrwt>
</event>
<event>
12    4  0.4424320E-008  0.1507533E+04  0.7818608E-02  0.8879459E-01
          1   -1    0    0  501    0  0.00000000000E+00  0.00000000000E+00  0.15072894974E+04  0.15072894974E+04  0.00000000000E+00 0. -1.
         -2   -1    0    0    0  501 -0.00000000000E+00 -0.00000000000E+00 -0.37694398464E+03  0.37694398464E+03  0.00000000000E+00 0.  1.
        -24    2    1    2    0    0 -0.10978733225E+03  0.75093857129E+02 -0.21325708360E+03  0.26259315097E+03  0.76054148672E+02 0.  0.
        254    2    1    2    0    0  0.10978733225E+03 -0.75093857129E+02  0.13436025964E+04  0.16216403311E+04  0.89819657128E+03 0.  0.
         23    2    4    4    0    0  0.10292854248E+03 -0.11787400138E+02  0.14568293070E+04  0.14633572661E+04  0.91266810888E+02 0.  0.
         23    2    4    4    0    0  0.68587897695E+01 -0.63306456991E+02 -0.11322671064E+03  0.15828306499E+03  0.90435005206E+02 0.  0.
          1    1    3    3  502    0 -0.15344990807E+02 -0.11315002759E+02 -0.59746787809E+02  0.62715043521E+02  0.00000000000E+00 0. -1.
         -2    1    3    3    0  502 -0.94442341438E+02  0.86408859888E+02 -0.15351029579E+03  0.19987810745E+03  0.00000000000E+00 0.  1.
         11    1    5    5    0    0  0.88487601553E+02 -0.20163489261E+02  0.64472308279E+03  0.65107946935E+03  0.00000000000E+00 0.  1.
        -11    1    5    5    0    0  0.14440940923E+02  0.83760891236E+01  0.81210622421E+03  0.81227779673E+03  0.00000000000E+00 0. -1.
          3    1    6    6  503    0  0.46860167440E+02 -0.42182502125E+02 -0.81447615904E+02  0.10299977143E+03  0.00000000000E+00 0. -1.
         -3    1    6    6    0  503 -0.40001377670E+02 -0.21123954867E+02 -0.31779094732E+02  0.55283293559E+02  0.00000000000E+00 0.  1.
<mgrwt>
<rscale>  0 0.15075327E+04</rscale>
<asrwt>0</asrwt>
<pdfrwt beam="1">  1        1 0.23189069E+00 0.15075327E+04</pdfrwt>
<pdfrwt beam="2">  1       -2 0.57991383E-01 0.15075327E+04</pdfrwt>
<totfact> 0.15264003E+01</totfact>
</mgrwt>
</event>
<event>
12    4  0.4424320E-008  0.1878137E+04  0.7818608E-02  0.8665816E-01
         -2   -1    0    0    0  501 -0.00000000000E+00  0.00000000000E+00  0.56171590610E+03  0.56171590610E+03  0.00000000000E+00 0.  1.
          1   -1    0    0  501    0  0.00000000000E+00 -0.00000000000E+00 -0.15699217357E+04  0.15699217357E+04  0.00000000000E+00 0. -1.
        -24    2    1    2    0    0  0.38659177581E+03 -0.19821078508E+03  0.26561131187E+03  0.51495157963E+03  0.76714039938E+02 0.  0.
        254    2    1    2    0    0 -0.38659177581E+03  0.19821078508E+03 -0.12738171414E+04  0.16166860622E+04  0.89572484462E+03 0.  0.
         23    2    4    4    0    0 -0.27557770556E+02  0.45904667368E+03 -0.34187221024E+03  0.58040592371E+03  0.92255887642E+02 0.  0.
         23    2    4    4    0    0 -0.35903400525E+03 -0.26083588860E+03 -0.93194493121E+03  0.10362801384E+04  0.91729999599E+02 0.  0.
          3    1    3    3  502    0  0.61068722060E+02 -0.54477749655E+02  0.25660125388E+02  0.85765121444E+02  0.00000000000E+00 0. -1.
         -4    1    3    3    0  502  0.32552305375E+03 -0.14373303542E+03  0.23995118648E+03  0.42918645818E+03  0.00000000000E+00 0.  1.
         11    1    5    5    0    0 -0.61041403702E+02  0.32034239120E+03 -0.22918963317E+03  0.39858899698E+03  0.00000000000E+00 0.  1.
        -11    1    5    5    0    0  0.33483633146E+02  0.13870428248E+03 -0.11268257707E+03  0.18181692673E+03  0.00000000000E+00 0. -1.
          1    1    6    6  503    0 -0.41421820684E+02 -0.65715635387E+01 -0.13692762985E+03  0.14320659375E+03  0.00000000000E+00 0. -1.
         -1    1    6    6    0  503 -0.31761218457E+03 -0.25426432506E+03 -0.79501730135E+03  0.89307354470E+03  0.00000000000E+00 0.  1.
<mgrwt>
<rscale>  0 0.18781374E+04</rscale>
<asrwt>0</asrwt>
<pdfrwt beam="1">  1        1 0.24152642E+00 0.18781374E+04</pdfrwt>
<pdfrwt beam="2">  1       -2 0.86417832E-01 0.18781374E+04</pdfrwt>
<totfact> 0.55865270E+00</totfact>
</mgrwt>
</event>
<event>
12    4  0.4424320E-008  0.2028591E+04  0.7818608E-02  0.8593369E-01
         -2   -1    0    0    0  501 -0.00000000000E+00  0.00000000000E+00  0.45413862379E+03  0.45413862379E+03  0.00000000000E+00 0.  1.
          1   -1    0    0  501    0  0.00000000000E+00 -0.00000000000E+00 -0.22653776525E+04  0.22653776525E+04  0.00000000000E+00 0. -1.
        -24    2    1    2    0    0 -0.17285890580E+03 -0.26740604280E+03  0.27427644245E+03  0.42763734047E+03  0.79119751293E+02 0.  0.
        254    2    1    2    0    0  0.17285890580E+03  0.26740604280E+03 -0.20855154712E+04  0.22918789358E+04  0.89551554032E+03 0.  0.
         23    2    4    4    0    0 -0.83906061129E+02  0.37438051164E+03 -0.19097588072E+04  0.19500212600E+04  0.90571620070E+02 0.  0.
         23    2    4    4    0    0  0.25676496693E+03 -0.10697446884E+03 -0.17575666399E+03  0.34185767580E+03  0.92760338191E+02 0.  0.
          3    1    3    3  502    0  0.55746344074E+00 -0.17893429976E+02 -0.57898553123E+00  0.17911471911E+02  0.00000000000E+00 0. -1.
         -4    1    3    3    0  502 -0.17341636924E+03 -0.24951261282E+03  0.27485542798E+03  0.40972586856E+03  0.00000000000E+00 0.  1.
         11    1    5    5    0    0  0.41668791260E+01  0.81175210160E+00 -0.96201881942E+02  0.96295503074E+02  0.00000000000E+00 0.  1.
        -11    1    5    5    0    0 -0.88072940255E+02  0.37356875954E+03 -0.18135569252E+04  0.18537257569E+04  0.00000000000E+00 0. -1.
          4    1    6    6  503    0  0.86146318035E+02 -0.94164673852E+01 -0.15003787019E+02  0.87948687278E+02  0.00000000000E+00 0. -1.
         -4    1    6    6    0  503  0.17061864890E+03 -0.97558001455E+02 -0.16075287697E+03  0.25390898853E+03  0.00000000000E+00 0.  1.
<mgrwt>
<rscale>  0 0.20285911E+04</rscale>
<asrwt>0</asrwt>
<pdfrwt beam="1">  1        1 0.34851964E+00 0.20285911E+04</pdfrwt>
<pdfrwt beam="2">  1       -2 0.69867481E-01 0.20285911E+04</pdfrwt>
<totfact> 0.29827782E+00</totfact>
</mgrwt>
</event>
<event>
12    4  0.4424320E-008  0.2155741E+04  0.7818608E-02  0.8537079E-01
          1   -1    0    0  501    0  0.00000000000E+00  0.00000000000E+00  0.75584220301E+03  0.75584220301E+03  0.00000000000E+00 0. -1.
         -2   -1    0    0    0  501 -0.00000000000E+00 -0.00000000000E+00 -0.15371001785E+04  0.15371001785E+04  0.00000000000E+00 0.  1.
        -24    2    1    2    0    0  0.51312633132E+03  0.36702921582E+03  0.34197288405E+03  0.72191410243E+03  0.78774619659E+02 0.  0.
        254    2    1    2    0    0 -0.51312633132E+03 -0.36702921582E+03 -0.11232308595E+04  0.15710282791E+04  0.89915138474E+03 0.  0.
         23    2    4    4    0    0 -0.55489376967E+03 -0.44798278213E+03 -0.37184203709E+03  0.80887215408E+03  0.86092928859E+02 0.  0.
         23    2    4    4    0    0  0.41767438352E+02  0.80953566317E+02 -0.75138882245E+03  0.76215612499E+03  0.89435996932E+02 0.  0.
          3    1    3    3  502    0  0.17046320171E+03  0.11736808364E+03  0.15489550464E+03  0.25850645554E+03  0.00000000000E+00 0. -1.
         -4    1    3    3    0  502  0.34266312961E+03  0.24966113217E+03  0.18707737940E+03  0.46340764689E+03  0.00000000000E+00 0.  1.
         11    1    5    5    0    0 -0.11289376216E+03 -0.53618396700E+02 -0.81318719403E+02  0.14910623100E+03  0.00000000000E+00 0. -1.
        -11    1    5    5    0    0 -0.44200000752E+03 -0.39436438543E+03 -0.29052331768E+03  0.65976592308E+03  0.00000000000E+00 0.  1.
          1    1    6    6  503    0  0.11591095629E+02  0.37508218261E+01 -0.89814948822E+01  0.15135699936E+02  0.00000000000E+00 0. -1.
         -1    1    6    6    0  503  0.30176342723E+02  0.77202744490E+02 -0.74240732757E+03  0.74702042505E+03  0.00000000000E+00 0.  1.
<mgrwt>
<rscale>  0 0.21557413E+04</rscale>
<asrwt>0</asrwt>
<pdfrwt beam="1">  1        1 0.11628342E+00 0.21557413E+04</pdfrwt>
<pdfrwt beam="2">  1       -2 0.23647695E+00 0.21557413E+04</pdfrwt>
<totfact> 0.15112679E+00</totfact>
</mgrwt>
</event>
<event>
12    4  0.4424320E-008  0.2712936E+04  0.7818608E-02  0.8330820E-01
         -2   -1    0    0    0  501 -0.00000000000E+00  0.00000000000E+00  0.13342960437E+04  0.13342960437E+04  0.00000000000E+00 0.  1.
          1   -1    0    0  501    0  0.00000000000E+00 -0.00000000000E+00 -0.13790085835E+04  0.13790085835E+04  0.00000000000E+00 0. -1.
        -24    2    1    2    0    0 -0.24883134446E+03  0.11351715885E+04  0.17220728313E+03  0.11776291295E+04  0.81384550189E+02 0.  0.
        254    2    1    2    0    0  0.24883134446E+03 -0.11351715885E+04 -0.21691982297E+03  0.15356754976E+04  0.98015991092E+03 0.  0.
         23    2    4    4    0    0  0.54181083260E+03 -0.73009248959E+03  0.12608917068E+03  0.92246200904E+03  0.91889376340E+02 0.  0.
         23    2    4    4    0    0 -0.29297948814E+03 -0.40507909893E+03 -0.34300899365E+03  0.61321348857E+03  0.91921466356E+02 0.  0.
          1    1    3    3  502    0 -0.17499693597E+03  0.83540848911E+03  0.90816595662E+02  0.85835827328E+03  0.00000000000E+00 0. -1.
         -2    1    3    3    0  502 -0.73834408495E+02  0.29976309942E+03  0.81390687467E+02  0.31927085626E+03  0.00000000000E+00 0.  1.
         11    1    5    5    0    0  0.33439083929E+03 -0.37465025803E+03  0.75817229075E+02  0.50786642089E+03  0.00000000000E+00 0.  1.
        -11    1    5    5    0    0  0.20741999330E+03 -0.35544223157E+03  0.50271941603E+02  0.41459558815E+03  0.00000000000E+00 0. -1.
          1    1    6    6  503    0 -0.26928939971E+03 -0.40142589642E+03 -0.31819058241E+03  0.57870957988E+03  0.00000000000E+00 0. -1.
         -1    1    6    6    0  503 -0.23690088427E+02 -0.36532025145E+01 -0.24818411239E+02  0.34503908688E+02  0.00000000000E+00 0.  1.
<mgrwt>
<rscale>  0 0.27129362E+04</rscale>
<asrwt>0</asrwt>
<pdfrwt beam="1">  1        1 0.21215517E+00 0.27129362E+04</pdfrwt>
<pdfrwt beam="2">  1       -2 0.20527631E+00 0.27129362E+04</pdfrwt>
<totfact> 0.74777796E-01</totfact>
</mgrwt>
</event>
<event>
12    4  0.4424320E-008  0.1414711E+04  0.7818608E-02  0.8943238E-01
         -4   -1    0    0    0  501 -0.00000000000E+00  0.00000000000E+00  0.32527771995E+03  0.32527771995E+03  0.00000000000E+00 0.  1.
          3   -1    0    0  501    0  0.00000000000E+00 -0.00000000000E+00 -0.15382303533E+04  0.15382303533E+04  0.00000000000E+00 0. -1.
        -24    2    1    2    0    0 -0.19763427389E+03  0.11132328265E+03 -0.87415339057E+03  0.90626526553E+03  0.75633337844E+02 0.  0.
        254    2    1    2    0    0  0.19763427389E+03 -0.11132328265E+03 -0.33879924281E+03  0.95724280774E+03  0.86606967766E+03 0.  0.
         23    2    4    4    0    0 -0.20316470590E+03  0.20978019704E+03 -0.30833590567E+03  0.43474429202E+03  0.92994300529E+02 0.  0.
         23    2    4    4    0    0  0.40079897979E+03 -0.32110347969E+03 -0.30463337140E+02  0.52249851571E+03  0.91265640563E+02 0.  0.
          1    1    3    3  502    0 -0.20314810285E+03  0.10543810681E+03 -0.81374055974E+03  0.84531653516E+03  0.00000000000E+00 0. -1.
         -2    1    3    3    0  502  0.55138289644E+01  0.58851758412E+01 -0.60412830829E+02  0.60948730367E+02  0.00000000000E+00 0.  1.
         11    1    5    5    0    0 -0.21184772855E+03  0.18963893200E+03 -0.28179452090E+03  0.40031304829E+03  0.00000000000E+00 0.  1.
        -11    1    5    5    0    0  0.86830226511E+01  0.20141265039E+02 -0.26541384763E+02  0.34431243731E+02  0.00000000000E+00 0. -1.
          1    1    6    6  503    0  0.16163821137E+03 -0.80614991964E+02  0.10151265017E+02  0.18091085231E+03  0.00000000000E+00 0. -1.
         -1    1    6    6    0  503  0.23916076842E+03 -0.24048848773E+03 -0.40614602157E+02  0.34158766340E+03  0.00000000000E+00 0.  1.
<mgrwt>
<rscale>  0 0.14147114E+04</rscale>
<asrwt>0</asrwt>
<pdfrwt beam="1">  1        3 0.23665082E+00 0.14147114E+04</pdfrwt>
<pdfrwt beam="2">  1       -4 0.50042726E-01 0.14147114E+04</pdfrwt>
<totfact> 0.75966875E-01</totfact>
</mgrwt>
</event>
<event>
12    4  0.4424320E-008  0.1992445E+04  0.7818608E-02  0.8610161E-01
          1   -1    0    0  501    0  0.00000000000E+00  0.00000000000E+00  0.89742046853E+03  0.89742046853E+03  0.00000000000E+00 0. -1.
         -2   -1    0    0    0  501 -0.00000000000E+00 -0.00000000000E+00 -0.11059017008E+04  0.11059017008E+04  0.00000000000E+00 0.  1.
        -24    2    1    2    0    0 -0.38413564840E+03  0.61376572471E+03 -0.39899767372E+03  0.83035685026E+03  0.77619546136E+02 0.  0.
        254    2    1    2    0    0  0.38413564840E+03 -0.61376572471E+03  0.19051644144E+03  0.11729653191E+04  0.90292998849E+03 0.  0.
         23    2    4    4    0    0  0.11392387380E+03  0.14641280905E+03 -0.18595451341E+03  0.27801203454E+03  0.91083756050E+02 0.  0.
         23    2    4    4    0    0  0.27021177461E+03 -0.76017853376E+03  0.37647095484E+03  0.89495328455E+03  0.91242508509E+02 0.  0.
          1    1    3    3  502    0 -0.16386576251E+03  0.26722875285E+03 -0.12929948221E+03  0.33908929586E+03  0.00000000000E+00 0. -1.
         -2    1    3    3    0  502 -0.22026988589E+03  0.34653697187E+03 -0.26969819151E+03  0.49126755440E+03  0.00000000000E+00 0.  1.
         11    1    5    5    0    0  0.56937626082E+02  0.75433207299E+02 -0.33158308353E+02  0.10015755309E+03  0.00000000000E+00 0. -1.
        -11    1    5    5    0    0  0.56986247713E+02  0.70979601750E+02 -0.15279620505E+03  0.17785448145E+03  0.00000000000E+00 0.  1.
          3    1    6    6  503    0  0.70555905883E+02 -0.28189351141E+03  0.98484783843E+02  0.30682460834E+03  0.00000000000E+00 0. -1.
         -3    1    6    6    0  503  0.19965586872E+03 -0.47828502235E+03  0.27798617100E+03  0.58812867621E+03  0.00000000000E+00 0.  1.
<mgrwt>
<rscale>  0 0.19924446E+04</rscale>
<asrwt>0</asrwt>
<pdfrwt beam="1">  1        1 0.13806469E+00 0.19924446E+04</pdfrwt>
<pdfrwt beam="2">  1       -2 0.17013872E+00 0.19924446E+04</pdfrwt>
<totfact> 0.31624144E+00</totfact>
</mgrwt>
</event>
<event>
12    4  0.4424320E-008  0.1781264E+04  0.7818608E-02  0.8716327E-01
         -2   -1    0    0    0  501 -0.00000000000E+00  0.00000000000E+00  0.80273176225E+03  0.80273176225E+03  0.00000000000E+00 0.  1.
          1   -1    0    0  501    0  0.00000000000E+00 -0.00000000000E+00 -0.98815781973E+03  0.98815781973E+03  0.00000000000E+00 0. -1.
        -24    2    1    2    0    0  0.21140202775E+03  0.12749790256E+03 -0.68230319813E+03  0.73001318787E+03  0.80218874257E+02 0.  0.
        254    2    1    2    0    0 -0.21140202775E+03 -0.12749790256E+03  0.49687714066E+03  0.10608763941E+04  0.90422635339E+03 0.  0.
         23    2    4    4    0    0 -0.28897599050E+02 -0.41755546455E+03  0.55697475202E+03  0.70281716127E+03  0.92430788025E+02 0.  0.
         23    2    4    4    0    0 -0.18250442870E+03  0.29005756199E+03 -0.60097611361E+02  0.35805923284E+03  0.84577985111E+02 0.  0.
          3    1    3    3  502    0  0.12783810220E+03  0.31568959881E+02 -0.37339096987E+03  0.39592928155E+03  0.00000000000E+00 0. -1.
         -4    1    3    3    0  502  0.83563925555E+02  0.95928942677E+02 -0.30891222826E+03  0.33408390633E+03  0.00000000000E+00 0.  1.
         11    1    5    5    0    0 -0.28084642901E+00 -0.26403236360E+03  0.28003474357E+03  0.38488001443E+03  0.00000000000E+00 0. -1.
        -11    1    5    5    0    0 -0.28616752621E+02 -0.15352310095E+03  0.27694000846E+03  0.31793714684E+03  0.00000000000E+00 0.  1.
          3    1    6    6  503    0 -0.86792645267E+02  0.86714336655E+02  0.87723356779E+01  0.12300119238E+03  0.00000000000E+00 0. -1.
         -3    1    6    6    0  503 -0.95711783436E+02  0.20334322534E+03 -0.68869947039E+02  0.23505804046E+03  0.00000000000E+00 0.  1.
<mgrwt>
<rscale>  0 0.17812643E+04</rscale>
<asrwt>0</asrwt>
<pdfrwt beam="1">  1        1 0.15202428E+00 0.17812643E+04</pdfrwt>
<pdfrwt beam="2">  1       -2 0.12349719E+00 0.17812643E+04</pdfrwt>
<totfact> 0.63295683E+00</totfact>
</mgrwt>
</event>
<event>
12    4  0.4424320E-008  0.2510510E+04  0.7818608E-02  0.8399251E-01
         -2   -1    0    0    0  501 -0.00000000000E+00  0.00000000000E+00  0.11771563362E+04  0.11771563362E+04  0.00000000000E+00 0.  1.
          1   -1    0    0  501    0  0.00000000000E+00 -0.00000000000E+00 -0.13385350885E+04  0.13385350885E+04  0.00000000000E+00 0. -1.
        -24    2    1    2    0    0 -0.34978640695E+03  0.82992796528E+03  0.55081637669E+03  0.10587065899E+04  0.79561326452E+02 0.  0.
        254    2    1    2    0    0  0.34978640695E+03 -0.82992796528E+03 -0.71219512898E+03  0.14569848348E+04  0.89691245346E+03 0.  0.
         23    2    4    4    0    0 -0.24036491410E+02 -0.80566016906E+02  0.18815138731E+03  0.22448748260E+03  0.89022745945E+02 0.  0.
         23    2    4    4    0    0  0.37382289836E+03 -0.74936194837E+03 -0.90034651629E+03  0.12324973522E+04  0.84492513735E+02 0.  0.
          1    1    3    3  502    0 -0.36914200256E+02  0.16747039232E+03  0.10170991361E+03  0.19938379325E+03  0.00000000000E+00 0. -1.
         -2    1    3    3    0  502 -0.31287220669E+03  0.66245757296E+03  0.44910646308E+03  0.85932279667E+03  0.00000000000E+00 0.  1.
         11    1    5    5    0    0 -0.12675160480E+02 -0.35166573793E+01 -0.66171650045E+01  0.14724586412E+02  0.00000000000E+00 0. -1.
        -11    1    5    5    0    0 -0.11361330930E+02 -0.77049359526E+02  0.19476855232E+03  0.20976289619E+03  0.00000000000E+00 0.  1.
          4    1    6    6  503    0  0.49947976791E+01 -0.50158099938E+02 -0.67108295705E+02  0.83930366052E+02  0.00000000000E+00 0. -1.
         -4    1    6    6    0  503  0.36882810068E+03 -0.69920384843E+03 -0.83323822059E+03  0.11485669862E+04  0.00000000000E+00 0.  1.
<mgrwt>
<rscale>  0 0.25105100E+04</rscale>
<asrwt>0</asrwt>
<pdfrwt beam="1">  1        1 0.20592847E+00 0.25105100E+04</pdfrwt>
<pdfrwt beam="2">  1       -2 0.18110098E+00 0.25105100E+04</pdfrwt>
<totfact> 0.11787503E+00</totfact>
</mgrwt>
</event>
<event>
12    4  0.4424320E-008  0.1858119E+04  0.7818608E-02  0.8675989E-01
         -2   -1    0    0    0  501 -0.00000000000E+00  0.00000000000E+00  0.11041292574E+04  0.11041292574E+04  0.00000000000E+00 0.  1.
          1   -1    0    0  501    0  0.00000000000E+00 -0.00000000000E+00 -0.78174881820E+03  0.78174881820E+03  0.00000000000E+00 0. -1.
        -24    2    1    2    0    0  0.45643690350E+03  0.26530670445E+03  0.60432256498E+03  0.80631705350E+03  0.78861485645E+02 0.  0.
        254    2    1    2    0    0 -0.45643690350E+03 -0.26530670445E+03 -0.28194212581E+03  0.10795610221E+04  0.89846443656E+03 0.  0.
         23    2    4    4    0    0 -0.30839680333E+03  0.11471488911E+03  0.23517220085E+03  0.41465703958E+03  0.91468039933E+02 0.  0.
         23    2    4    4    0    0 -0.14804010017E+03 -0.38002159357E+03 -0.51711432666E+03  0.66490398250E+03  0.91420983737E+02 0.  0.
          1    1    3    3  502    0  0.22995078839E+03  0.12200525804E+03  0.35542385451E+03  0.44055506401E+03  0.00000000000E+00 0. -1.
         -2    1    3    3    0  502  0.22648611511E+03  0.14330144642E+03  0.24889871046E+03  0.36576198949E+03  0.00000000000E+00 0.  1.
         11    1    5    5    0    0 -0.30429331813E+03  0.10477482011E+03  0.20243802851E+03  0.38020171196E+03  0.00000000000E+00 0. -1.
        -11    1    5    5    0    0 -0.41034851964E+01  0.99400690031E+01  0.32734172336E+02  0.34455327615E+02  0.00000000000E+00 0.  1.
          2    1    6    6  503    0 -0.12728127299E+03 -0.36962752879E+03 -0.46264885350E+03  0.60569711419E+03  0.00000000000E+00 0. -1.
         -2    1    6    6    0  503 -0.20758827178E+02 -0.10394064782E+02 -0.54465473157E+02  0.59206868307E+02  0.00000000000E+00 0.  1.
<mgrwt>
<rscale>  0 0.18581192E+04</rscale>
<asrwt>0</asrwt>
<pdfrwt beam="1">  1        1 0.12026905E+00 0.18581192E+04</pdfrwt>
<pdfrwt beam="2">  1       -2 0.16986604E+00 0.18581192E+04</pdfrwt>
<totfact> 0.40287553E+00</totfact>
</mgrwt>
</event>
<event>
12    4  0.4424320E-008  0.1601138E+04  0.7818608E-02  0.8819849E-01
         -2   -1    0    0    0  501 -0.00000000000E+00  0.00000000000E+00  0.12515864389E+04  0.12515864389E+04  0.00000000000E+00 0.  1.
          1   -1    0    0  501    0  0.00000000000E+00 -0.00000000000E+00 -0.51207880767E+03  0.51207880767E+03  0.00000000000E+00 0. -1.
        -24    2    1    2    0    0  0.47480160197E+02  0.53882535349E+03  0.13408468370E+03  0.56223321095E+03  0.74433553753E+02 0.  0.
        254    2    1    2    0    0 -0.47480160197E+02 -0.53882535349E+03  0.60542294751E+03  0.12014320356E+04  0.88561552811E+03 0.  0.
         23    2    4    4    0    0 -0.40105621397E+03 -0.53135934460E+03  0.40188892641E+03  0.78288252081E+03  0.90562091169E+02 0.  0.
         23    2    4    4    0    0  0.35357605377E+03 -0.74660088814E+01  0.20353402110E+03  0.41854951479E+03  0.93197808421E+02 0.  0.
          1    1    3    3  502    0  0.10005566029E+02  0.31948404208E+03  0.11167763398E+03  0.33858833179E+03  0.00000000000E+00 0. -1.
         -2    1    3    3    0  502  0.37474594168E+02  0.21934131140E+03  0.22407049720E+02  0.22364487916E+03  0.00000000000E+00 0.  1.
         11    1    5    5    0    0 -0.37065743169E+03 -0.49376922427E+03  0.39758163560E+03  0.73434742150E+03  0.00000000000E+00 0. -1.
        -11    1    5    5    0    0 -0.30398782284E+02 -0.37590120330E+02  0.43072908175E+01  0.48535099309E+02  0.00000000000E+00 0.  1.
          2    1    6    6  503    0  0.13174541325E+03  0.14291128124E+02  0.29505813369E+02  0.13576333555E+03  0.00000000000E+00 0. -1.
         -2    1    6    6    0  503  0.22183064052E+03 -0.21757137005E+02  0.17402820773E+03  0.28278617924E+03  0.00000000000E+00 0.  1.
<mgrwt>
<rscale>  0 0.16011382E+04</rscale>
<asrwt>0</asrwt>
<pdfrwt beam="1">  1        1 0.78781355E-01 0.16011382E+04</pdfrwt>
<pdfrwt beam="2">  1       -2 0.19255176E+00 0.16011382E+04</pdfrwt>
<totfact> 0.53578018E+00</totfact>
</mgrwt>
</event>
<event>
12    4  0.4424320E-008  0.2351462E+04  0.7818608E-02  0.8457902E-01
         -2   -1    0    0    0  501 -0.00000000000E+00  0.00000000000E+00  0.84970584325E+03  0.84970584325E+03  0.00000000000E+00 0.  1.
          1   -1    0    0  501    0  0.00000000000E+00 -0.00000000000E+00 -0.16268498163E+04  0.16268498163E+04  0.00000000000E+00 0. -1.
        -24    2    1    2    0    0 -0.60773333537E+03 -0.71553984101E+03  0.35723086153E+02  0.94277145838E+03  0.78770634534E+02 0.  0.
        254    2    1    2    0    0  0.60773333537E+03  0.71553984101E+03 -0.81286705921E+03  0.15337842012E+04  0.90022444357E+03 0.  0.
         23    2    4    4    0    0  0.74567907704E+03  0.81304935134E+03 -0.66188185842E+03  0.12898454243E+04  0.92342245532E+02 0.  0.
         23    2    4    4    0    0 -0.13794574166E+03 -0.97509510332E+02 -0.15098520078E+03  0.24393877691E+03  0.90401680171E+02 0.  0.
          3    1    3    3  502    0 -0.35112615096E+03 -0.41242875470E+03 -0.18350237584E+02  0.54196289800E+03  0.00000000000E+00 0. -1.
         -4    1    3    3    0  502 -0.25660718442E+03 -0.30311108631E+03  0.54073323736E+02  0.40080856038E+03  0.00000000000E+00 0.  1.
         11    1    5    5    0    0  0.69649142994E+03  0.74987341916E+03 -0.63914314185E+03  0.12066127848E+04  0.00000000000E+00 0. -1.
        -11    1    5    5    0    0  0.49187647092E+02  0.63175932183E+02 -0.22738716575E+02  0.83232639422E+02  0.00000000000E+00 0.  1.
          1    1    6    6  503    0 -0.98939221024E+02 -0.18088903672E+02 -0.60456969017E+02  0.11735085426E+03  0.00000000000E+00 0. -1.
         -1    1    6    6    0  503 -0.39006520639E+02 -0.79420606660E+02 -0.90528231764E+02  0.12658792265E+03  0.00000000000E+00 0.  1.
<mgrwt>
<rscale>  0 0.23514623E+04</rscale>
<asrwt>0</asrwt>
<pdfrwt beam="1">  1        1 0.25028458E+00 0.23514623E+04</pdfrwt>
<pdfrwt beam="2">  1       -2 0.13072398E+00 0.23514623E+04</pdfrwt>
<totfact> 0.18099618E+00</totfact>
</mgrwt>
</event>
<event>
12    4  0.4424320E-008  0.2000684E+04  0.7818608E-02  0.8606301E-01
         -2   -1    0    0    0  501 -0.00000000000E+00  0.00000000000E+00  0.72708869403E+03  0.72708869403E+03  0.00000000000E+00 0.  1.
          1   -1    0    0  501    0  0.00000000000E+00 -0.00000000000E+00 -0.13762889549E+04  0.13762889549E+04  0.00000000000E+00 0. -1.
        -24    2    1    2    0    0 -0.35916323174E+03  0.20997591325E+03 -0.96426506421E+03  0.10532308328E+04  0.79999762703E+02 0.  0.
        254    2    1    2    0    0  0.35916323174E+03 -0.20997591325E+03  0.31506480338E+03  0.10501468160E+04  0.91129270475E+03 0.  0.
         23    2    4    4    0    0  0.37696682184E+03 -0.20966427488E+03  0.60358236626E+03  0.74750733434E+03  0.91610311112E+02 0.  0.
         23    2    4    4    0    0 -0.17803590100E+02 -0.31163836580E+00 -0.28851756288E+03  0.30263948170E+03  0.89617000944E+02 0.  0.
          1    1    3    3  502    0 -0.30882345123E+03  0.17164693497E+03 -0.87653656905E+03  0.94506663850E+03  0.00000000000E+00 0. -1.
         -2    1    3    3    0  502 -0.50339780506E+02  0.38328978278E+02 -0.87728495159E+02  0.10816419435E+03  0.00000000000E+00 0.  1.
         11    1    5    5    0    0  0.20312008747E+03 -0.87286400781E+02  0.23983293668E+03  0.32618479917E+03  0.00000000000E+00 0. -1.
        -11    1    5    5    0    0  0.17384673437E+03 -0.12237787410E+03  0.36374942957E+03  0.42132253516E+03  0.00000000000E+00 0.  1.
          2    1    6    6  503    0 -0.16231823364E+02 -0.15790236302E+02 -0.11893956012E+02  0.25578698986E+02  0.00000000000E+00 0.  1.
         -2    1    6    6    0  503 -0.15717667361E+01  0.15478597937E+02 -0.27662360686E+03  0.27706078272E+03  0.00000000000E+00 0. -1.
<mgrwt>
<rscale>  0 0.20006840E+04</rscale>
<asrwt>0</asrwt>
<pdfrwt beam="1">  1        1 0.21173676E+00 0.20006840E+04</pdfrwt>
<pdfrwt beam="2">  1       -2 0.11185980E+00 0.20006840E+04</pdfrwt>
<totfact> 0.40998326E+00</totfact>
</mgrwt>
</event>
<event>
12    4  0.4424320E-008  0.2079380E+04  0.7818608E-02  0.8570381E-01
         -2   -1    0    0    0  501 -0.00000000000E+00  0.00000000000E+00  0.36603706423E+03  0.36603706423E+03  0.00000000000E+00 0.  1.
          1   -1    0    0  501    0  0.00000000000E+00 -0.00000000000E+00 -0.29531313117E+04  0.29531313117E+04  0.00000000000E+00 0. -1.
        -24    2    1    2    0    0 -0.82740297714E+03  0.89528434093E+02 -0.12455922745E+04  0.15001979284E+04  0.80515109963E+02 0.  0.
        254    2    1    2    0    0  0.82740297714E+03 -0.89528434093E+02 -0.13415019730E+04  0.18189704476E+04  0.90355681531E+03 0.  0.
         23    2    4    4    0    0 -0.10124383215E+03  0.15391820906E+03 -0.49521190485E+03  0.53588529426E+03  0.89426446151E+02 0.  0.
         23    2    4    4    0    0  0.92864680930E+03 -0.24344664315E+03 -0.84629006814E+03  0.12830851533E+04  0.91920980883E+02 0.  0.
          1    1    3    3  502    0 -0.74269679627E+03  0.10448725210E+03 -0.11240403679E+04  0.13512893346E+04  0.00000000000E+00 0. -1.
         -2    1    3    3    0  502 -0.84706180871E+02 -0.14958818009E+02 -0.12155190657E+03  0.14890859379E+03  0.00000000000E+00 0.  1.
         11    1    5    5    0    0 -0.54349314149E+02  0.11743815885E+03 -0.42312127837E+03  0.44246715732E+03  0.00000000000E+00 0. -1.
        -11    1    5    5    0    0 -0.46894518005E+02  0.36480050209E+02 -0.72090626479E+02  0.93418136934E+02  0.00000000000E+00 0.  1.
          1    1    6    6  503    0  0.59137065884E+03 -0.12836805582E+03 -0.48388285000E+03  0.77481625332E+03  0.00000000000E+00 0. -1.
         -1    1    6    6    0  503  0.33727615045E+03 -0.11507858733E+03 -0.36240721814E+03  0.50826889998E+03  0.00000000000E+00 0.  1.
<mgrwt>
<rscale>  0 0.20793802E+04</rscale>
<asrwt>0</asrwt>
<pdfrwt beam="1">  1        1 0.45432791E+00 0.20793802E+04</pdfrwt>
<pdfrwt beam="2">  1       -2 0.56313393E-01 0.20793802E+04</pdfrwt>
<totfact> 0.15512821E+00</totfact>
</mgrwt>
</event>
<event>
12    4  0.4424320E-008  0.1354199E+04  0.7818608E-02  0.8987655E-01
         -2   -1    0    0    0  501 -0.00000000000E+00  0.00000000000E+00  0.13488233853E+04  0.13488233853E+04  0.00000000000E+00 0.  1.
          1   -1    0    0  501    0  0.00000000000E+00 -0.00000000000E+00 -0.33989908666E+03  0.33989908666E+03  0.00000000000E+00 0. -1.
        -24    2    1    2    0    0  0.12723322031E+03  0.20045556922E+03  0.63631699010E+03  0.68383047373E+03  0.79712466553E+02 0.  0.
        254    2    1    2    0    0 -0.12723322031E+03 -0.20045556922E+03  0.37260730855E+03  0.10048919983E+04  0.90255248833E+03 0.  0.
         23    2    4    4    0    0 -0.27943191111E+03 -0.42704473837E+03  0.47123445954E+03  0.70024653503E+03  0.88509278823E+02 0.  0.
         23    2    4    4    0    0  0.15219869080E+03  0.22658916916E+03 -0.98627150990E+02  0.30464546323E+03  0.92598327696E+02 0.  0.
          3    1    3    3  502    0  0.65033650352E+02  0.60135233301E+02  0.15372035307E+03  0.17741355334E+03  0.00000000000E+00 0. -1.
         -4    1    3    3    0  502  0.62199569962E+02  0.14032033592E+03  0.48259663704E+03  0.50641692039E+03  0.00000000000E+00 0.  1.
         11    1    5    5    0    0 -0.91323835917E+02 -0.73348588365E+02  0.11529059094E+03  0.16435321348E+03  0.00000000000E+00 0. -1.
        -11    1    5    5    0    0 -0.18810807519E+03 -0.35369615001E+03  0.35594386860E+03  0.53589332155E+03  0.00000000000E+00 0.  1.
          3    1    6    6  503    0  0.45694914421E+02  0.16505218130E+02  0.17373205575E+01  0.48615488398E+02  0.00000000000E+00 0. -1.
         -3    1    6    6    0  503  0.10650377638E+03  0.21008395103E+03 -0.10036447155E+03  0.25602997483E+03  0.00000000000E+00 0.  1.
<mgrwt>
<rscale>  0 0.13541992E+04</rscale>
<asrwt>0</asrwt>
<pdfrwt beam="1">  1        1 0.52292168E-01 0.13541992E+04</pdfrwt>
<pdfrwt beam="2">  1       -2 0.20751129E+00 0.13541992E+04</pdfrwt>
<totfact> 0.75533208E+00</totfact>
</mgrwt>
</event>
<event>
12    4  0.4424320E-008  0.3021970E+04  0.7818608E-02  0.8237485E-01
          1   -1    0    0  501    0  0.00000000000E+00  0.00000000000E+00  0.38714683763E+04  0.38714683763E+04  0.00000000000E+00 0. -1.
         -2   -1    0    0    0  501 -0.00000000000E+00 -0.00000000000E+00 -0.58971833767E+03  0.58971833767E+03  0.00000000000E+00 0.  1.
        -24    2    1    2    0    0  0.11169036443E+04  0.28208082742E+03  0.26227278493E+04  0.28657859357E+04  0.83572209482E+02 0.  0.
        254    2    1    2    0    0 -0.11169036443E+04 -0.28208082742E+03  0.65902218935E+03  0.15954007782E+04  0.88540953987E+03 0.  0.
         23    2    4    4    0    0 -0.12030921529E+04 -0.32618986365E+03  0.72671314840E+03  0.14461161570E+04  0.96485149832E+02 0.  0.
         23    2    4    4    0    0  0.86188508573E+02  0.44109036234E+02 -0.67690959048E+02  0.14928462120E+03  0.91267552291E+02 0.  0.
          3    1    3    3  502    0  0.10919875349E+04  0.28308944411E+03  0.25368670716E+04  0.27763773066E+04  0.00000000000E+00 0. -1.
         -4    1    3    3    0  502  0.24916109376E+02 -0.10086166920E+01  0.85860777684E+02  0.89408629106E+02  0.00000000000E+00 0.  1.
         11    1    5    5    0    0 -0.29671226191E+02  0.59336579971E+01  0.24040140538E+02  0.38646064716E+02  0.00000000000E+00 0. -1.
        -11    1    5    5    0    0 -0.11734209267E+04 -0.33212352165E+03  0.70267300786E+03  0.14074700923E+04  0.00000000000E+00 0.  1.
          3    1    6    6  503    0  0.52862691646E+02 -0.21587823105E+02 -0.16025987460E+02  0.59307086833E+02  0.00000000000E+00 0. -1.
         -3    1    6    6    0  503  0.33325816927E+02  0.65696859339E+02 -0.51664971588E+02  0.89977534363E+02  0.00000000000E+00 0.  1.
<mgrwt>
<rscale>  0 0.30219701E+04</rscale>
<asrwt>0</asrwt>
<pdfrwt beam="1">  1        1 0.59561050E+00 0.30219701E+04</pdfrwt>
<pdfrwt beam="2">  1       -2 0.90725901E-01 0.30219701E+04</pdfrwt>
<totfact> 0.96108768E-02</totfact>
</mgrwt>
</event>
<event>
12    4  0.4424320E-008  0.1522744E+04  0.7818608E-02  0.8869468E-01
          1   -1    0    0  501    0  0.00000000000E+00  0.00000000000E+00  0.27264126010E+04  0.27264126010E+04  0.00000000000E+00 0. -1.
         -2   -1    0    0    0  501 -0.00000000000E+00 -0.00000000000E+00 -0.21261917025E+03  0.21261917025E+03  0.00000000000E+00 0.  1.
        -24    2    1    2    0    0 -0.10853970299E+03 -0.83018111906E+01  0.17443658341E+04  0.17495329566E+04  0.78763036232E+02 0.  0.
        254    2    1    2    0    0  0.10853970299E+03  0.83018111906E+01  0.76942759663E+03  0.11894988146E+04  0.90057693528E+03 0.  0.
         23    2    4    4    0    0 -0.17472712731E+03 -0.26320643351E+03  0.94406376500E+01  0.32975227661E+03  0.94022564493E+02 0.  0.
         23    2    4    4    0    0  0.28326683030E+03  0.27150824470E+03  0.75998695898E+03  0.85974653802E+03  0.87333313981E+02 0.  0.
          3    1    3    3  502    0 -0.80168659846E+02 -0.40736297739E+02  0.10573634886E+04  0.10611804781E+04  0.00000000000E+00 0. -1.
         -4    1    3    3    0  502 -0.28371043144E+02  0.32434486549E+02  0.68700234548E+03  0.68835247853E+03  0.00000000000E+00 0.  1.
         11    1    5    5    0    0 -0.14218750670E+03 -0.26071741948E+03  0.93794692091E+01  0.29711754294E+03  0.00000000000E+00 0. -1.
        -11    1    5    5    0    0 -0.32539620607E+02 -0.24890140294E+01  0.61168440900E-01  0.32634733669E+02  0.00000000000E+00 0.  1.
          4    1    6    6  503    0  0.99638914904E+02  0.61839595269E+02  0.16192162738E+03  0.19992664235E+03  0.00000000000E+00 0.  1.
         -4    1    6    6    0  503  0.18362791540E+03  0.20966864943E+03  0.59806533160E+03  0.65981989567E+03  0.00000000000E+00 0. -1.
<mgrwt>
<rscale>  0 0.15227443E+04</rscale>
<asrwt>0</asrwt>
<pdfrwt beam="1">  1        1 0.41944807E+00 0.15227443E+04</pdfrwt>
<pdfrwt beam="2">  1       -2 0.32710643E-01 0.15227443E+04</pdfrwt>
<totfact> 0.69726644E+00</totfact>
</mgrwt>
</event>
<event>
12    4  0.4424320E-008  0.1791017E+04  0.7818608E-02  0.8711091E-01
         -2   -1    0    0    0  501 -0.00000000000E+00  0.00000000000E+00  0.44132302009E+03  0.44132302009E+03  0.00000000000E+00 0.  1.
          1   -1    0    0  501    0  0.00000000000E+00 -0.00000000000E+00 -0.18171176970E+04  0.18171176970E+04  0.00000000000E+00 0. -1.
        -24    2    1    2    0    0  0.50754816956E+03 -0.27991900719E+03 -0.97124916717E+02  0.59212842941E+03  0.72270550369E+02 0.  0.
        254    2    1    2    0    0 -0.50754816956E+03  0.27991900719E+03 -0.12786697602E+04  0.16663122877E+04  0.89757478211E+03 0.  0.
         23    2    4    4    0    0 -0.52935628884E+03 -0.13386384048E+03 -0.10437959993E+04  0.11814210675E+04  0.90044668436E+02 0.  0.
         23    2    4    4    0    0  0.21808119284E+02  0.41378284768E+03 -0.23487376093E+03  0.48489122020E+03  0.90895394562E+02 0.  0.
          3    1    3    3  502    0  0.29481170900E+03 -0.16159483843E+03 -0.92371410128E+02  0.34865357159E+03  0.00000000000E+00 0. -1.
         -4    1    3    3    0  502  0.21273646056E+03 -0.11832416876E+03 -0.47535065889E+01  0.24347485782E+03  0.00000000000E+00 0.  1.
         11    1    5    5    0    0 -0.98473050960E+02 -0.21485253345E+02 -0.12640812417E+03  0.16167118399E+03  0.00000000000E+00 0. -1.
        -11    1    5    5    0    0 -0.43088323788E+03 -0.11237858714E+03 -0.91738787513E+03  0.10197498835E+04  0.00000000000E+00 0.  1.
          3    1    6    6  503    0 -0.10296418251E+01  0.90897482531E+02 -0.11546808213E+02  0.91633734359E+02  0.00000000000E+00 0. -1.
         -3    1    6    6    0  503  0.22837761109E+02  0.32288536515E+03 -0.22332695271E+03  0.39325748584E+03  0.00000000000E+00 0.  1.
<mgrwt>
<rscale>  0 0.17910174E+04</rscale>
<asrwt>0</asrwt>
<pdfrwt beam="1">  1        1 0.27955657E+00 0.17910174E+04</pdfrwt>
<pdfrwt beam="2">  1       -2 0.67895849E-01 0.17910174E+04</pdfrwt>
<totfact> 0.65329938E+00</totfact>
</mgrwt>
</event>
<event>
12    4  0.4424320E-008  0.1175358E+04  0.7818608E-02  0.9134703E-01
          1   -1    0    0  501    0  0.00000000000E+00  0.00000000000E+00  0.11152119946E+04  0.11152119946E+04  0.00000000000E+00 0. -1.
         -2   -1    0    0    0  501 -0.00000000000E+00 -0.00000000000E+00 -0.30968693308E+03  0.30968693308E+03  0.00000000000E+00 0.  1.
        -24    2    1    2    0    0  0.21297045204E+03  0.86813027567E+02  0.14480245743E+03  0.28358312268E+03  0.80985928380E+02 0.  0.
        254    2    1    2    0    0 -0.21297045204E+03 -0.86813027567E+02  0.66072260406E+03  0.11413158050E+04  0.90175079262E+03 0.  0.
         23    2    4    4    0    0 -0.82320626390E+01 -0.38957660415E+02 -0.21411859233E+03  0.23717696356E+03  0.93918444970E+02 0.  0.
         23    2    4    4    0    0 -0.20473838940E+03 -0.47855367152E+02  0.87484119639E+03  0.90413884141E+03  0.88949319280E+02 0.  0.
          3    1    3    3  502    0  0.15291521839E+03  0.79426624531E+02  0.14153299511E+03  0.22298708797E+03  0.00000000000E+00 0. -1.
         -4    1    3    3    0  502  0.60055233650E+02  0.73864030363E+01  0.32694623245E+01  0.60596034709E+02  0.00000000000E+00 0.  1.
         11    1    5    5    0    0 -0.22668512784E+02 -0.35493949782E+02 -0.21783818659E+03  0.22187193937E+03  0.00000000000E+00 0.  1.
        -11    1    5    5    0    0  0.14436450145E+02 -0.34637106336E+01  0.37195942629E+01  0.15305024195E+02  0.00000000000E+00 0. -1.
          3    1    6    6  503    0 -0.65156907243E+00 -0.20278080991E+02  0.49600038514E+02  0.53589074740E+02  0.00000000000E+00 0. -1.
         -3    1    6    6    0  503 -0.20408682032E+03 -0.27577286161E+02  0.82524115787E+03  0.85054976667E+03  0.00000000000E+00 0.  1.
<mgrwt>
<rscale>  0 0.11753580E+04</rscale>
<asrwt>0</asrwt>
<pdfrwt beam="1">  1        1 0.17157107E+00 0.11753580E+04</pdfrwt>
<pdfrwt beam="2">  1       -2 0.47644144E-01 0.11753580E+04</pdfrwt>
<totfact> 0.44809967E+01</totfact>
</mgrwt>
</event>
<event>
12    4  0.4424320E-008  0.1563468E+04  0.7818608E-02  0.8843310E-01
          1   -1    0    0  501    0  0.00000000000E+00  0.00000000000E+00  0.99697155220E+03  0.99697155220E+03  0.00000000000E+00 0. -1.
         -2   -1    0    0    0  501 -0.00000000000E+00 -0.00000000000E+00 -0.61296470145E+03  0.61296470145E+03  0.00000000000E+00 0.  1.
        -24    2    1    2    0    0  0.42966737254E+03 -0.28909406521E+03  0.82182479963E+02  0.53063837379E+03  0.81447493252E+02 0.  0.
        254    2    1    2    0    0 -0.42966737254E+03  0.28909406521E+03  0.30182437078E+03  0.10792978799E+04  0.89755029559E+03 0.  0.
         23    2    4    4    0    0  0.10364469672E+03 -0.90597555312E+02 -0.19209895776E+03  0.25417179208E+03  0.93547582154E+02 0.  0.
         23    2    4    4    0    0 -0.53331206927E+03  0.37969162052E+03  0.49392332855E+03  0.82512608778E+03  0.91023713062E+02 0.  0.
          1    1    3    3  502    0  0.15574480681E+02 -0.36322310740E+01  0.17231491254E+02  0.23509186330E+02  0.00000000000E+00 0. -1.
         -2    1    3    3    0  502  0.41409289186E+03 -0.28546183413E+03  0.64950988709E+02  0.50712918746E+03  0.00000000000E+00 0.  1.
         11    1    5    5    0    0  0.74330053323E+02 -0.15671270995E+02 -0.50207284309E+02  0.91056668945E+02  0.00000000000E+00 0. -1.
        -11    1    5    5    0    0  0.29314643401E+02 -0.74926284317E+02 -0.14189167345E+03  0.16311512313E+03  0.00000000000E+00 0.  1.
          4    1    6    6  503    0 -0.42256786442E+03  0.25228596957E+03  0.36907944499E+03  0.61516782035E+03  0.00000000000E+00 0. -1.
         -4    1    6    6    0  503 -0.11074420484E+03  0.12740565095E+03  0.12484388356E+03  0.20995826743E+03  0.00000000000E+00 0.  1.
<mgrwt>
<rscale>  0 0.15634684E+04</rscale>
<asrwt>0</asrwt>
<pdfrwt beam="1">  1        1 0.15338024E+00 0.15634684E+04</pdfrwt>
<pdfrwt beam="2">  1       -2 0.94302262E-01 0.15634684E+04</pdfrwt>
<totfact> 0.12171189E+01</totfact>
</mgrwt>
</event>
<event>
12    4  0.4424320E-008  0.1558123E+04  0.7818608E-02  0.8846696E-01
          1   -1    0    0  501    0  0.00000000000E+00  0.00000000000E+00  0.98641949402E+03  0.98641949402E+03  0.00000000000E+00 0. -1.
         -4   -1    0    0    0  501 -0.00000000000E+00 -0.00000000000E+00 -0.61529307726E+03  0.61529307726E+03  0.00000000000E+00 0.  1.
        -24    2    1    2    0    0  0.45203315790E+03  0.25307243987E+03  0.10823808659E+03  0.53485218812E+03  0.77277060577E+02 0.  0.
        254    2    1    2    0    0 -0.45203315790E+03 -0.25307243987E+03  0.26288833016E+03  0.10668603832E+04  0.89481906961E+03 0.  0.
         23    2    4    4    0    0 -0.21465881398E+03  0.32352929433E+03  0.15298480380E+03  0.42714815462E+03  0.91113034674E+02 0.  0.
         23    2    4    4    0    0 -0.23737434392E+03 -0.57660173420E+03  0.10990352637E+03  0.63971222854E+03  0.91306140000E+02 0.  0.
          3    1    3    3  502    0  0.23961740156E+03  0.12325606856E+03  0.94427937499E+02  0.28552616858E+03  0.00000000000E+00 0. -1.
         -4    1    3    3    0  502  0.21241575634E+03  0.12981637131E+03  0.13810149091E+02  0.24932601954E+03  0.00000000000E+00 0.  1.
         11    1    5    5    0    0 -0.20580753513E+03  0.25868437809E+03  0.14585635768E+03  0.36131485723E+03  0.00000000000E+00 0.  1.
        -11    1    5    5    0    0 -0.88512788524E+01  0.64844916246E+02  0.71284461194E+01  0.65833297383E+02  0.00000000000E+00 0. -1.
          1    1    6    6  503    0 -0.16794122683E+03 -0.29123803749E+03  0.68844028479E+02  0.34316665108E+03  0.00000000000E+00 0. -1.
         -1    1    6    6    0  503 -0.69433117083E+02 -0.28536369671E+03  0.41059497888E+02  0.29654557746E+03  0.00000000000E+00 0.  1.
<mgrwt>
<rscale>  0 0.15581233E+04</rscale>
<asrwt>0</asrwt>
<pdfrwt beam="1">  1        1 0.15175684E+00 0.15581233E+04</pdfrwt>
<pdfrwt beam="2">  1       -4 0.94660474E-01 0.15581233E+04</pdfrwt>
<totfact> 0.68256553E+00</totfact>
</mgrwt>
</event>
<event>
12    4  0.4424320E-008  0.1447018E+04  0.7818608E-02  0.8920470E-01
          1   -1    0    0  501    0  0.00000000000E+00  0.00000000000E+00  0.32338857272E+03  0.32338857272E+03  0.00000000000E+00 0. -1.
         -2   -1    0    0    0  501 -0.00000000000E+00 -0.00000000000E+00 -0.16186882941E+04  0.16186882941E+04  0.00000000000E+00 0.  1.
        -24    2    1    2    0    0 -0.35446915450E+03 -0.17886389111E+03 -0.14426871828E+03  0.42943246918E+03  0.77188791128E+02 0.  0.
        254    2    1    2    0    0  0.35446915450E+03  0.17886389111E+03 -0.11510310031E+04  0.15126443976E+04  0.89754110242E+03 0.  0.
         23    2    4    4    0    0 -0.17728317728E+03  0.35097771728E+03 -0.36665631688E+03  0.54534920753E+03  0.91401424876E+02 0.  0.
         23    2    4    4    0    0  0.53175233177E+03 -0.17211382617E+03 -0.78437468617E+03  0.96729519006E+03  0.89624912324E+02 0.  0.
          1    1    3    3  502    0 -0.32038932627E+03 -0.14987470858E+03 -0.15023558261E+03  0.38429478131E+03  0.00000000000E+00 0. -1.
         -2    1    3    3    0  502 -0.34079828226E+02 -0.28989182534E+02  0.59668643342E+01  0.45137687866E+02  0.00000000000E+00 0.  1.
         11    1    5    5    0    0  0.32316311023E+01  0.41256694491E+01 -0.26719478517E+02  0.27228571762E+02  0.00000000000E+00 0. -1.
        -11    1    5    5    0    0 -0.18051480838E+03  0.34685204783E+03 -0.33993683837E+03  0.51812063577E+03  0.00000000000E+00 0.  1.
          4    1    6    6  503    0  0.23445850179E+03 -0.11589355153E+03 -0.32383194971E+03  0.41625621436E+03  0.00000000000E+00 0.  1.
         -4    1    6    6    0  503  0.29729382998E+03 -0.56220274636E+02 -0.46054273647E+03  0.55103897570E+03  0.00000000000E+00 0. -1.
<mgrwt>
<rscale>  0 0.14470180E+04</rscale>
<asrwt>0</asrwt>
<pdfrwt beam="1">  1        1 0.49752089E-01 0.14470180E+04</pdfrwt>
<pdfrwt beam="2">  1       -2 0.24902896E+00 0.14470180E+04</pdfrwt>
<totfact> 0.43965974E+00</totfact>
</mgrwt>
</event>
<event>
12    4  0.4424320E-008  0.1125542E+04  0.7818608E-02  0.9180649E-01
          3   -1    0    0  501    0  0.00000000000E+00  0.00000000000E+00  0.14704205065E+03  0.14704205065E+03  0.00000000000E+00 0. -1.
         -4   -1    0    0    0  501 -0.00000000000E+00 -0.00000000000E+00 -0.21538806503E+04  0.21538806503E+04  0.00000000000E+00 0.  1.
        -24    2    1    2    0    0  0.12958889429E+03  0.11332178164E+03 -0.54196235002E+03  0.57433304000E+03  0.80623472250E+02 0.  0.
        254    2    1    2    0    0 -0.12958889429E+03 -0.11332178164E+03 -0.14648762497E+04  0.17265896610E+04  0.89756020570E+03 0.  0.
         23    2    4    4    0    0  0.37108306773E+03 -0.72338798960E+02 -0.78510529766E+03  0.87629165080E+03  0.92526665663E+02 0.  0.
         23    2    4    4    0    0 -0.50067196202E+03 -0.40982982683E+02 -0.67977095200E+03  0.85029801018E+03  0.92553446762E+02 0.  0.
          3    1    3    3  502    0 -0.95664755132E+01 -0.13485971139E+01 -0.23428664905E+02  0.25342425044E+02  0.00000000000E+00 0. -1.
         -4    1    3    3    0  502  0.13915536980E+03  0.11467037876E+03 -0.51853368511E+03  0.54899061495E+03  0.00000000000E+00 0.  1.
         11    1    5    5    0    0  0.16806953835E+03  0.95695801932E+01 -0.29815537160E+03  0.34239680518E+03  0.00000000000E+00 0.  1.
        -11    1    5    5    0    0  0.20301352938E+03 -0.81908379153E+02 -0.48694992606E+03  0.53389484562E+03  0.00000000000E+00 0. -1.
          1    1    6    6  503    0 -0.47846074766E+03 -0.19742703916E+02 -0.65135560851E+03  0.80844207594E+03  0.00000000000E+00 0. -1.
         -1    1    6    6    0  503 -0.22211214358E+02 -0.21240278767E+02 -0.28415343486E+02  0.41855934236E+02  0.00000000000E+00 0.  1.
<mgrwt>
<rscale>  0 0.11255417E+04</rscale>
<asrwt>0</asrwt>
<pdfrwt beam="1">  1        3 0.22621852E-01 0.11255417E+04</pdfrwt>
<pdfrwt beam="2">  1       -4 0.33136628E+00 0.11255417E+04</pdfrwt>
<totfact> 0.82966814E-01</totfact>
</mgrwt>
</event>
<event>
12    4  0.4424320E-008  0.1353307E+04  0.7818608E-02  0.8988328E-01
          1   -1    0    0  501    0  0.00000000000E+00  0.00000000000E+00  0.17138433150E+04  0.17138433150E+04  0.00000000000E+00 0. -1.
         -2   -1    0    0    0  501 -0.00000000000E+00 -0.00000000000E+00 -0.26715408609E+03  0.26715408609E+03  0.00000000000E+00 0.  1.
        -24    2    1    2    0    0 -0.19371398391E+03 -0.14606969275E+03  0.81027920568E+03  0.84958047546E+03  0.79831888500E+02 0.  0.
        254    2    1    2    0    0  0.19371398391E+03  0.14606969275E+03  0.63641002321E+03  0.11314169256E+04  0.90345175810E+03 0.  0.
         23    2    4    4    0    0  0.50802676546E+03  0.37435846533E+02  0.58998675123E+03  0.78488465896E+03  0.92015891128E+02 0.  0.
         23    2    4    4    0    0 -0.31431278155E+03  0.10863384622E+03  0.46423271976E+02  0.34653226664E+03  0.85648435217E+02 0.  0.
          1    1    3    3  502    0 -0.42784130923E+02 -0.44174435321E+02  0.33520860149E+03  0.34080297697E+03  0.00000000000E+00 0. -1.
         -2    1    3    3    0  502 -0.15092985299E+03 -0.10189525743E+03  0.47507060418E+03  0.50877749849E+03  0.00000000000E+00 0.  1.
         11    1    5    5    0    0  0.98399136173E+02  0.44046743554E+02  0.13092830782E+03  0.16960167277E+03  0.00000000000E+00 0. -1.
        -11    1    5    5    0    0  0.40962762929E+03 -0.66108970220E+01  0.45905844341E+03  0.61528298619E+03  0.00000000000E+00 0.  1.
          4    1    6    6  503    0  0.19385877558E+01  0.29051830868E+01  0.10595388430E+02  0.11156185156E+02  0.00000000000E+00 0. -1.
         -4    1    6    6    0  503 -0.31625136931E+03  0.10572866313E+03  0.35827883546E+02  0.33537608149E+03  0.00000000000E+00 0.  1.
<mgrwt>
<rscale>  0 0.13533074E+04</rscale>
<asrwt>0</asrwt>
<pdfrwt beam="1">  1        1 0.26366820E+00 0.13533074E+04</pdfrwt>
<pdfrwt beam="2">  1       -2 0.41100630E-01 0.13533074E+04</pdfrwt>
<totfact> 0.22462785E+01</totfact>
</mgrwt>
</event>
<event>
12    4  0.4424320E-008  0.1742172E+04  0.7818608E-02  0.8737671E-01
         -2   -1    0    0    0  501 -0.00000000000E+00  0.00000000000E+00  0.66418234981E+03  0.66418234981E+03  0.00000000000E+00 0.  1.
          1   -1    0    0  501    0  0.00000000000E+00 -0.00000000000E+00 -0.11424432932E+04  0.11424432932E+04  0.00000000000E+00 0. -1.
        -24    2    1    2    0    0 -0.95462701300E+02 -0.57147131775E+03  0.95815857473E+02  0.59294342596E+03  0.81906248214E+02 0.  0.
        254    2    1    2    0    0  0.95462701300E+02  0.57147131775E+03 -0.57407680088E+03  0.12136822171E+04  0.89875900907E+03 0.  0.
         23    2    4    4    0    0  0.10734573482E+03  0.63557707716E+03 -0.23106105409E+02  0.65150029739E+03  0.91855416804E+02 0.  0.
         23    2    4    4    0    0 -0.11883033522E+02 -0.64105759406E+02 -0.55097069548E+03  0.56218191969E+03  0.90714104092E+02 0.  0.
          1    1    3    3  502    0 -0.58761707908E+02 -0.27830238599E+03  0.86650631682E+02  0.29734405717E+03  0.00000000000E+00 0. -1.
         -2    1    3    3    0  502 -0.36700993392E+02 -0.29316893176E+03  0.91652257910E+01  0.29559936879E+03  0.00000000000E+00 0.  1.
         11    1    5    5    0    0  0.23707031681E+02  0.45617495313E+02  0.17378371999E+02  0.54267734825E+02  0.00000000000E+00 0. -1.
        -11    1    5    5    0    0  0.83638703141E+02  0.58995958184E+03 -0.40484477408E+02  0.59723256256E+03  0.00000000000E+00 0.  1.
          1    1    6    6  503    0  0.17621988425E+01  0.22831268587E+02 -0.88610471327E+02  0.91521515497E+02  0.00000000000E+00 0. -1.
         -1    1    6    6    0  503 -0.13645232364E+02 -0.86937027993E+02 -0.46236022415E+03  0.47066040420E+03  0.00000000000E+00 0.  1.
<mgrwt>
<rscale>  0 0.17421718E+04</rscale>
<asrwt>0</asrwt>
<pdfrwt beam="1">  1        1 0.17576050E+00 0.17421718E+04</pdfrwt>
<pdfrwt beam="2">  1       -2 0.10218190E+00 0.17421718E+04</pdfrwt>
<totfact> 0.76887658E+00</totfact>
</mgrwt>
</event>
<event>
12    4  0.4424320E-008  0.1938111E+04  0.7818608E-02  0.8636115E-01
          1   -1    0    0  501    0  0.00000000000E+00  0.00000000000E+00  0.32449277112E+03  0.32449277112E+03  0.00000000000E+00 0. -1.
         -2   -1    0    0    0  501 -0.00000000000E+00 -0.00000000000E+00 -0.28939588720E+04  0.28939588720E+04  0.00000000000E+00 0.  1.
        -24    2    1    2    0    0 -0.61313662943E+03 -0.12018956196E+03 -0.30277096995E+03  0.69892230935E+03  0.80250091091E+02 0.  0.
        254    2    1    2    0    0  0.61313662943E+03  0.12018956196E+03 -0.22666951309E+04  0.25195293337E+04  0.90539449410E+03 0.  0.
         23    2    4    4    0    0  0.23145389439E+03  0.22482447029E+01 -0.36329927921E+02  0.25185393614E+03  0.92382799551E+02 0.  0.
         23    2    4    4    0    0  0.38168273504E+03  0.11794131725E+03 -0.22303652030E+04  0.22676753976E+04  0.90724338925E+02 0.  0.
          1    1    3    3  502    0 -0.52890473551E+03 -0.12849438964E+03 -0.24815494141E+03  0.59819052346E+03  0.00000000000E+00 0. -1.
         -2    1    3    3    0  502 -0.84231893920E+02  0.83048276800E+01 -0.54616028541E+02  0.10073178590E+03  0.00000000000E+00 0.  1.
         11    1    5    5    0    0 -0.80444725265E+01  0.54110507899E+01 -0.17410618174E+01  0.98500916307E+01  0.00000000000E+00 0.  1.
        -11    1    5    5    0    0  0.23949836691E+03 -0.31628060870E+01 -0.34588866104E+02  0.24200384450E+03  0.00000000000E+00 0. -1.
          4    1    6    6  503    0  0.17010208933E+02 -0.11609412847E+02 -0.71907204855E+02  0.74798207096E+02  0.00000000000E+00 0.  1.
         -4    1    6    6    0  503  0.36467252611E+03  0.12955073010E+03 -0.21584579981E+04  0.21928771905E+04  0.00000000000E+00 0. -1.
<mgrwt>
<rscale>  0 0.19381112E+04</rscale>
<asrwt>0</asrwt>
<pdfrwt beam="1">  1        1 0.49921965E-01 0.19381112E+04</pdfrwt>
<pdfrwt beam="2">  1       -2 0.44522444E+00 0.19381112E+04</pdfrwt>
<totfact> 0.24138580E-01</totfact>
</mgrwt>
</event>
<event>
12    4  0.4424320E-008  0.1944226E+04  0.7818608E-02  0.8633150E-01
         -2   -1    0    0    0  501 -0.00000000000E+00  0.00000000000E+00  0.67234094015E+03  0.67234094015E+03  0.00000000000E+00 0.  1.
          1   -1    0    0  501    0  0.00000000000E+00 -0.00000000000E+00 -0.14055420284E+04  0.14055420284E+04  0.00000000000E+00 0. -1.
        -24    2    1    2    0    0  0.28035620942E+03  0.28210039425E+03 -0.99049584898E+03  0.10701123833E+04  0.76669742284E+02 0.  0.
        254    2    1    2    0    0 -0.28035620942E+03 -0.28210039425E+03  0.25729476078E+03  0.10077705852E+04  0.88950588641E+03 0.  0.
         23    2    4    4    0    0 -0.23759586185E+03  0.29154432915E+03  0.15109780786E+03  0.41566711745E+03  0.92188478470E+02 0.  0.
         23    2    4    4    0    0 -0.42760347569E+02 -0.57364472340E+03  0.10619695292E+03  0.59210346779E+03  0.91716998169E+02 0.  0.
          3    1    3    3  502    0  0.12538876180E+03  0.89766525354E+02 -0.45438103948E+03  0.47983590914E+03  0.00000000000E+00 0. -1.
         -4    1    3    3    0  502  0.15496744762E+03  0.19233386889E+03 -0.53611480950E+03  0.59027647413E+03  0.00000000000E+00 0.  1.
         11    1    5    5    0    0 -0.18848598457E+03  0.16174659172E+03  0.92829683794E+02  0.26515330755E+03  0.00000000000E+00 0. -1.
        -11    1    5    5    0    0 -0.49109877281E+02  0.12979773743E+03  0.58268124064E+02  0.15051380990E+03  0.00000000000E+00 0.  1.
          1    1    6    6  503    0 -0.31361264725E+02 -0.14237473121E+03  0.62003818137E+02  0.15842527095E+03  0.00000000000E+00 0. -1.
         -1    1    6    6    0  503 -0.11399082845E+02 -0.43126999219E+03  0.44193134780E+02  0.43367819684E+03  0.00000000000E+00 0.  1.
<mgrwt>
<rscale>  0 0.19442258E+04</rscale>
<asrwt>0</asrwt>
<pdfrwt beam="1">  1        1 0.21623723E+00 0.19442258E+04</pdfrwt>
<pdfrwt beam="2">  1       -2 0.10343707E+00 0.19442258E+04</pdfrwt>
<totfact> 0.47460284E+00</totfact>
</mgrwt>
</event>
<event>
12    4  0.4424320E-008  0.2564047E+04  0.7818608E-02  0.8380517E-01
         -2   -1    0    0    0  501 -0.00000000000E+00  0.00000000000E+00  0.10010466287E+04  0.10010466287E+04  0.00000000000E+00 0.  1.
          1   -1    0    0  501    0  0.00000000000E+00 -0.00000000000E+00 -0.16418662180E+04  0.16418662180E+04  0.00000000000E+00 0. -1.
        -24    2    1    2    0    0 -0.44170526896E+03  0.19757693353E+03 -0.13273828480E+04  0.14149655961E+04  0.77731741003E+02 0.  0.
        254    2    1    2    0    0  0.44170526896E+03 -0.19757693353E+03  0.68656325867E+03  0.12279472506E+04  0.89573721194E+03 0.  0.
         23    2    4    4    0    0 -0.11198411698E+03  0.16736492313E+03 -0.54934095662E+02  0.22845346383E+03  0.92853488474E+02 0.  0.
         23    2    4    4    0    0  0.55368938594E+03 -0.36494185665E+03  0.74149735433E+03  0.99949378678E+03  0.97030966733E+02 0.  0.
          3    1    3    3  502    0 -0.16185562731E+03  0.41983305883E+02 -0.38749644971E+03  0.42203476232E+03  0.00000000000E+00 0. -1.
         -4    1    3    3    0  502 -0.27984964165E+03  0.15559362764E+03 -0.93988639830E+03  0.99293083374E+03  0.00000000000E+00 0.  1.
         11    1    5    5    0    0 -0.58828428873E+02  0.15708332671E+02 -0.11256937747E+02  0.61921356627E+02  0.00000000000E+00 0. -1.
        -11    1    5    5    0    0 -0.53155688102E+02  0.15165659045E+03 -0.43677157915E+02  0.16653210720E+03  0.00000000000E+00 0.  1.
          2    1    6    6  503    0  0.12817180944E+02  0.11640155375E+01  0.22688184325E+01  0.13068381560E+02  0.00000000000E+00 0. -1.
         -2    1    6    6    0  503  0.54087220499E+03 -0.36610587219E+03  0.73922853590E+03  0.98642540522E+03  0.00000000000E+00 0.  1.
<mgrwt>
<rscale>  0 0.25640473E+04</rscale>
<asrwt>0</asrwt>
<pdfrwt beam="1">  1        1 0.25259480E+00 0.25640473E+04</pdfrwt>
<pdfrwt beam="2">  1       -2 0.15400717E+00 0.25640473E+04</pdfrwt>
<totfact> 0.11320446E+00</totfact>
</mgrwt>
</event>
<event>
12    4  0.4424320E-008  0.2054677E+04  0.7818608E-02  0.8581476E-01
          1   -1    0    0  501    0  0.00000000000E+00  0.00000000000E+00  0.23462871446E+04  0.23462871446E+04  0.00000000000E+00 0. -1.
         -2   -1    0    0    0  501 -0.00000000000E+00 -0.00000000000E+00 -0.44982733264E+03  0.44982733264E+03  0.00000000000E+00 0.  1.
        -24    2    1    2    0    0 -0.29559565086E+03  0.15739018124E+02 -0.28735879506E+03  0.42043132043E+03  0.81011805330E+02 0.  0.
        254    2    1    2    0    0  0.29559565086E+03 -0.15739018124E+02  0.21838186070E+04  0.23756831568E+04  0.88723291627E+03 0.  0.
         23    2    4    4    0    0 -0.44007703595E+02 -0.74423605272E+02  0.19373802547E+04  0.19414934260E+04  0.92081055894E+02 0.  0.
         23    2    4    4    0    0  0.33960335446E+03  0.58684587148E+02  0.24643835228E+03  0.43418973080E+03  0.94944940502E+02 0.  0.
          3    1    3    3  502    0 -0.91866363167E+02 -0.10576461142E+02 -0.13935289603E+03  0.16724389330E+03  0.00000000000E+00 0. -1.
         -4    1    3    3    0  502 -0.20372928769E+03  0.26315479266E+02 -0.14800589902E+03  0.25318742713E+03  0.00000000000E+00 0.  1.
         11    1    5    5    0    0 -0.41320987368E+02 -0.59780262477E+01  0.32666223444E+03  0.32931956548E+03  0.00000000000E+00 0.  1.
        -11    1    5    5    0    0 -0.26867162262E+01 -0.68445579024E+02  0.16107180202E+04  0.16121738605E+04  0.00000000000E+00 0. -1.
          4    1    6    6  503    0  0.30231278754E+03  0.46927967033E+02  0.24977653886E+03  0.39494755977E+03  0.00000000000E+00 0.  1.
         -4    1    6    6    0  503  0.37290566916E+02  0.11756620115E+02 -0.33381865800E+01  0.39242171029E+02  0.00000000000E+00 0. -1.
<mgrwt>
<rscale>  0 0.20546767E+04</rscale>
<asrwt>0</asrwt>
<pdfrwt beam="1">  1        1 0.36096725E+00 0.20546767E+04</pdfrwt>
<pdfrwt beam="2">  1       -2 0.69204206E-01 0.20546767E+04</pdfrwt>
<totfact> 0.26746059E+00</totfact>
</mgrwt>
</event>
<event>
12    4  0.4424320E-008  0.1531439E+04  0.7818608E-02  0.8863812E-01
         -2   -1    0    0    0  501 -0.00000000000E+00  0.00000000000E+00  0.13582948447E+04  0.13582948447E+04  0.00000000000E+00 0.  1.
          1   -1    0    0  501    0  0.00000000000E+00 -0.00000000000E+00 -0.43166325799E+03  0.43166325799E+03  0.00000000000E+00 0. -1.
        -24    2    1    2    0    0 -0.29732465405E+03  0.22679680335E+03 -0.74802674410E+02  0.38943603875E+03  0.78906579325E+02 0.  0.
        254    2    1    2    0    0  0.29732465405E+03 -0.22679680335E+03  0.10014342611E+04  0.14005220640E+04  0.90484956336E+03 0.  0.
         23    2    4    4    0    0 -0.31300641772E+03 -0.13386358133E+03  0.31108652080E+03  0.46990527979E+03  0.90242299418E+02 0.  0.
         23    2    4    4    0    0  0.61033107178E+03 -0.92933222020E+02  0.69034774034E+03  0.93061678416E+03  0.91252372257E+02 0.  0.
          1    1    3    3  502    0 -0.26886344210E+03  0.20064143009E+03 -0.40788434577E+02  0.33794708219E+03  0.00000000000E+00 0. -1.
         -2    1    3    3    0  502 -0.28461211958E+02  0.26155373258E+02 -0.34014239832E+02  0.51488956561E+02  0.00000000000E+00 0.  1.
         11    1    5    5    0    0 -0.19783019361E+02  0.13127032275E+02  0.27263279052E+02  0.36152084533E+02  0.00000000000E+00 0.  1.
        -11    1    5    5    0    0 -0.29322339836E+03 -0.14699061361E+03  0.28382324175E+03  0.43375319525E+03  0.00000000000E+00 0. -1.
          4    1    6    6  503    0  0.50687240739E+03 -0.10463198074E+03  0.60348411687E+03  0.79502236955E+03  0.00000000000E+00 0. -1.
         -4    1    6    6    0  503  0.10345866439E+03  0.11698758719E+02  0.86863623466E+02  0.13559441462E+03  0.00000000000E+00 0.  1.
<mgrwt>
<rscale>  0 0.15314385E+04</rscale>
<asrwt>0</asrwt>
<pdfrwt beam="1">  1        1 0.66409732E-01 0.15314385E+04</pdfrwt>
<pdfrwt beam="2">  1       -2 0.20896844E+00 0.15314385E+04</pdfrwt>
<totfact> 0.53088935E+00</totfact>
</mgrwt>
</event>
<event>
12    4  0.4424320E-008  0.2181505E+04  0.7818608E-02  0.8526166E-01
         -2   -1    0    0    0  501 -0.00000000000E+00  0.00000000000E+00  0.49068715771E+03  0.49068715771E+03  0.00000000000E+00 0.  1.
          1   -1    0    0  501    0  0.00000000000E+00 -0.00000000000E+00 -0.24246428543E+04  0.24246428543E+04  0.00000000000E+00 0. -1.
        -24    2    1    2    0    0  0.18726321685E+03  0.78048127239E+03 -0.14673663935E+04  0.16742913190E+04  0.76607827448E+02 0.  0.
        254    2    1    2    0    0 -0.18726321685E+03 -0.78048127239E+03 -0.46658930302E+03  0.12410386929E+04  0.82356112749E+03 0.  0.
         23    2    4    4    0    0 -0.30866591351E+03 -0.84787583845E+03 -0.54049445524E+03  0.10557808201E+04  0.91492077793E+02 0.  0.
         23    2    4    4    0    0  0.12140269667E+03  0.67394566054E+02  0.73905152216E+02  0.18525787286E+03  0.97866570593E+02 0.  0.
          1    1    3    3  502    0  0.23232575921E+02  0.40602711409E+02 -0.11326198293E+03  0.12254227652E+03  0.00000000000E+00 0. -1.
         -2    1    3    3    0  502  0.16403064093E+03  0.73987856098E+03 -0.13541044106E+04  0.15517490425E+04  0.00000000000E+00 0.  1.
         11    1    5    5    0    0 -0.10197466303E+02 -0.70337129813E+02 -0.67327476039E+02  0.97899382936E+02  0.00000000000E+00 0.  1.
        -11    1    5    5    0    0 -0.29846844721E+03 -0.77753870863E+03 -0.47316697920E+03  0.95788143714E+03  0.00000000000E+00 0. -1.
          3    1    6    6  503    0  0.11734851565E+03  0.86764273328E+02  0.77348440329E+02  0.16517110665E+03  0.00000000000E+00 0. -1.
         -3    1    6    6    0  503  0.40541810202E+01 -0.19369707274E+02 -0.34432881128E+01  0.20086766207E+02  0.00000000000E+00 0.  1.
<mgrwt>
<rscale>  0 0.21815051E+04</rscale>
<asrwt>0</asrwt>
<pdfrwt beam="1">  1        1 0.37302198E+00 0.21815051E+04</pdfrwt>
<pdfrwt beam="2">  1       -2 0.75490332E-01 0.21815051E+04</pdfrwt>
<totfact> 0.19293364E+00</totfact>
</mgrwt>
</event>
<event>
12    4  0.4424320E-008  0.1231783E+04  0.7818608E-02  0.9085483E-01
         -2   -1    0    0    0  501 -0.00000000000E+00  0.00000000000E+00  0.20539255271E+03  0.20539255271E+03  0.00000000000E+00 0.  1.
          1   -1    0    0  501    0  0.00000000000E+00 -0.00000000000E+00 -0.18468160817E+04  0.18468160817E+04  0.00000000000E+00 0. -1.
        -24    2    1    2    0    0  0.46414380354E+02  0.96019853800E+02 -0.83100356287E+03  0.84105854053E+03  0.73745780049E+02 0.  0.
        254    2    1    2    0    0 -0.46414380354E+02 -0.96019853800E+02 -0.81041996614E+03  0.12111500939E+04  0.89371691346E+03 0.  0.
         23    2    4    4    0    0 -0.36596395097E+03 -0.31578690705E+03 -0.53323658410E+03  0.72560673295E+03  0.92265335882E+02 0.  0.
         23    2    4    4    0    0  0.31954957062E+03  0.21976705325E+03 -0.27718338204E+03  0.48554336095E+03  0.92261813892E+02 0.  0.
          1    1    3    3  502    0  0.45132147843E+02  0.10320820318E+03 -0.63464673187E+03  0.64456599216E+03  0.00000000000E+00 0. -1.
         -2    1    3    3    0  502  0.12822325108E+01 -0.71883493812E+01 -0.19635683100E+03  0.19649254838E+03  0.00000000000E+00 0.  1.
         11    1    5    5    0    0 -0.29794928963E+03 -0.23786892136E+03 -0.46667686629E+03  0.60261322627E+03  0.00000000000E+00 0.  1.
        -11    1    5    5    0    0 -0.68014661346E+02 -0.77917985690E+02 -0.66559717806E+02  0.12299350668E+03  0.00000000000E+00 0. -1.
          1    1    6    6  503    0  0.30536523261E+02  0.49946870658E+02 -0.16280383004E+02  0.60763640544E+02  0.00000000000E+00 0. -1.
         -1    1    6    6    0  503  0.28901304736E+03  0.16982018259E+03 -0.26090299904E+03  0.42477972040E+03  0.00000000000E+00 0.  1.
<mgrwt>
<rscale>  0 0.12317829E+04</rscale>
<asrwt>0</asrwt>
<pdfrwt beam="1">  1        1 0.28412555E+00 0.12317829E+04</pdfrwt>
<pdfrwt beam="2">  1       -2 0.31598854E-01 0.12317829E+04</pdfrwt>
<totfact> 0.30556336E+01</totfact>
</mgrwt>
</event>
<event>
12    4  0.4424320E-008  0.2010106E+04  0.7818608E-02  0.8601910E-01
         -2   -1    0    0    0  501 -0.00000000000E+00  0.00000000000E+00  0.11158723498E+04  0.11158723498E+04  0.00000000000E+00 0.  1.
          1   -1    0    0  501    0  0.00000000000E+00 -0.00000000000E+00 -0.90523897562E+03  0.90523897562E+03  0.00000000000E+00 0. -1.
        -24    2    1    2    0    0  0.51418371861E+03  0.41346746947E+03  0.55240219508E+03  0.86426964005E+03  0.80458565697E+02 0.  0.
        254    2    1    2    0    0 -0.51418371861E+03 -0.41346746947E+03 -0.34176882090E+03  0.11568416854E+04  0.88664339691E+03 0.  0.
         23    2    4    4    0    0 -0.13602892805E+03 -0.35841530967E+03  0.23460419585E+03  0.45908968025E+03  0.93588473270E+02 0.  0.
         23    2    4    4    0    0 -0.37815479056E+03 -0.55052159796E+02 -0.57637301675E+03  0.69775200512E+03  0.92845141487E+02 0.  0.
          3    1    3    3  502    0  0.68930719191E+02  0.63365183374E+02  0.45255005158E+02  0.10399329788E+03  0.00000000000E+00 0. -1.
         -4    1    3    3    0  502  0.44525299942E+03  0.35010228609E+03  0.50714718992E+03  0.76027634217E+03  0.00000000000E+00 0.  1.
         11    1    5    5    0    0 -0.10066081527E+03 -0.19818423286E+03  0.18041546097E+03  0.28628539684E+03  0.00000000000E+00 0. -1.
        -11    1    5    5    0    0 -0.35368112778E+02 -0.16023107681E+03  0.54188734874E+02  0.17280428341E+03  0.00000000000E+00 0.  1.
          2    1    6    6  503    0 -0.29751362627E+03 -0.45811124678E+01 -0.42011830982E+03  0.51481524711E+03  0.00000000000E+00 0. -1.
         -2    1    6    6    0  503 -0.80641164286E+02 -0.50471047328E+02 -0.15625470693E+03  0.18293675802E+03  0.00000000000E+00 0.  1.
<mgrwt>
<rscale>  0 0.20101056E+04</rscale>
<asrwt>0</asrwt>
<pdfrwt beam="1">  1        1 0.13926753E+00 0.20101056E+04</pdfrwt>
<pdfrwt beam="2">  1       -2 0.17167267E+00 0.20101056E+04</pdfrwt>
<totfact> 0.30344000E+00</totfact>
</mgrwt>
</event>
<event>
12    4  0.4424320E-008  0.1708274E+04  0.7818608E-02  0.8756659E-01
          1   -1    0    0  501    0  0.00000000000E+00  0.00000000000E+00  0.15657588105E+04  0.15657588105E+04  0.00000000000E+00 0. -1.
         -2   -1    0    0    0  501 -0.00000000000E+00 -0.00000000000E+00 -0.46594034496E+03  0.46594034496E+03  0.00000000000E+00 0.  1.
        -24    2    1    2    0    0 -0.16843935874E+03  0.54613160414E+03  0.11531469102E+03  0.58821385920E+03  0.77887865370E+02 0.  0.
        254    2    1    2    0    0  0.16843935874E+03 -0.54613160414E+03  0.98450377452E+03  0.14434852963E+04  0.88756440434E+03 0.  0.
         23    2    4    4    0    0 -0.56465875812E+02  0.10011360804E+03 -0.85709638345E+02  0.16985370783E+03  0.91065966824E+02 0.  0.
         23    2    4    4    0    0  0.22490523455E+03 -0.64624521218E+03  0.10702134129E+04  0.12736315884E+04  0.92549636185E+02 0.  0.
          1    1    3    3  502    0 -0.36167999188E+01 -0.13008959192E+00  0.63612451666E+01  0.73187160775E+01  0.00000000000E+00 0. -1.
         -2    1    3    3    0  502 -0.16482255882E+03  0.54626169373E+03  0.10895344586E+03  0.58089514312E+03  0.00000000000E+00 0.  1.
         11    1    5    5    0    0 -0.51894539706E+02  0.22638479546E+02 -0.33922217749E+01  0.56719054788E+02  0.00000000000E+00 0. -1.
        -11    1    5    5    0    0 -0.45713361054E+01  0.77475128493E+02 -0.82317416570E+02  0.11313465304E+03  0.00000000000E+00 0.  1.
          4    1    6    6  503    0  0.12565639992E+03 -0.22617484762E+03  0.41266961724E+03  0.48707371673E+03  0.00000000000E+00 0. -1.
         -4    1    6    6    0  503  0.99248834636E+02 -0.42007036455E+03  0.65754379562E+03  0.78655787169E+03  0.00000000000E+00 0.  1.
<mgrwt>
<rscale>  0 0.17082742E+04</rscale>
<asrwt>0</asrwt>
<pdfrwt beam="1">  1        1 0.24088597E+00 0.17082742E+04</pdfrwt>
<pdfrwt beam="2">  1       -2 0.71683131E-01 0.17082742E+04</pdfrwt>
<totfact> 0.86756601E+00</totfact>
</mgrwt>
</event>
<event>
12    4  0.4424320E-008  0.1411664E+04  0.7818608E-02  0.8945418E-01
          1   -1    0    0  501    0  0.00000000000E+00  0.00000000000E+00  0.16501097412E+04  0.16501097412E+04  0.00000000000E+00 0. -1.
         -2   -1    0    0    0  501 -0.00000000000E+00 -0.00000000000E+00 -0.30191874380E+03  0.30191874380E+03  0.00000000000E+00 0.  1.
        -24    2    1    2    0    0  0.23206212343E+02  0.41108088580E+03  0.32117601780E+03  0.52856010575E+03  0.81827428316E+02 0.  0.
        254    2    1    2    0    0 -0.23206212343E+02 -0.41108088580E+03  0.10270149796E+04  0.14234683793E+04  0.89553137045E+03 0.  0.
         23    2    4    4    0    0  0.17284933655E+03 -0.48452570272E+03  0.19067331028E+03  0.55629105345E+03  0.91985733424E+02 0.  0.
         23    2    4    4    0    0 -0.19605554890E+03  0.73444816923E+02  0.83634166932E+03  0.86717732581E+03  0.93258818169E+02 0.  0.
          3    1    3    3  502    0  0.17946755931E+02  0.41002976370E+03  0.30450551876E+03  0.51104804483E+03  0.00000000000E+00 0. -1.
         -4    1    3    3    0  502  0.52594564124E+01  0.10511220944E+01  0.16670499047E+02  0.17512060926E+02  0.00000000000E+00 0.  1.
         11    1    5    5    0    0  0.16319159994E+03 -0.48386729103E+03  0.19369960488E+03  0.54614887215E+03  0.00000000000E+00 0.  1.
        -11    1    5    5    0    0  0.96577366127E+01 -0.65841168515E+00 -0.30262946023E+01  0.10142181296E+02  0.00000000000E+00 0. -1.
          3    1    6    6  503    0  0.61652751705E+01 -0.53030926996E+01  0.77179305795E+02  0.77606563209E+02  0.00000000000E+00 0. -1.
         -3    1    6    6    0  503 -0.20222082407E+03  0.78747909623E+02  0.75916236352E+03  0.78957076260E+03  0.00000000000E+00 0.  1.
<mgrwt>
<rscale>  0 0.14116644E+04</rscale>
<asrwt>0</asrwt>
<pdfrwt beam="1">  1        1 0.25386303E+00 0.14116644E+04</pdfrwt>
<pdfrwt beam="2">  1       -2 0.46449038E-01 0.14116644E+04</pdfrwt>
<totfact> 0.19370411E+01</totfact>
</mgrwt>
</event>
<event>
12    4  0.4424320E-008  0.1785217E+04  0.7818608E-02  0.8714200E-01
          3   -1    0    0  501    0  0.00000000000E+00  0.00000000000E+00  0.10898876361E+04  0.10898876361E+04  0.00000000000E+00 0. -1.
         -4   -1    0    0    0  501 -0.00000000000E+00 -0.00000000000E+00 -0.73103895059E+03  0.73103895059E+03  0.00000000000E+00 0.  1.
        -24    2    1    2    0    0 -0.52356532707E+03 -0.24148656393E+03 -0.20670657121E+03  0.61758850018E+03  0.79066659839E+02 0.  0.
        254    2    1    2    0    0  0.52356532707E+03  0.24148656393E+03  0.56555525672E+03  0.12033380865E+04  0.89203889475E+03 0.  0.
         23    2    4    4    0    0  0.28080532110E+03 -0.30799869633E+03  0.10182771377E+03  0.43910446952E+03  0.93429259666E+02 0.  0.
         23    2    4    4    0    0  0.24276000597E+03  0.54948526026E+03  0.46372754295E+03  0.76423361698E+03  0.90240320789E+02 0.  0.
          3    1    3    3  502    0 -0.88660508000E+02 -0.71644019136E+02 -0.25795799840E+02  0.11687161523E+03  0.00000000000E+00 0. -1.
         -4    1    3    3    0  502 -0.43490481907E+03 -0.16984254480E+03 -0.18091077137E+03  0.50071688495E+03  0.00000000000E+00 0.  1.
         11    1    5    5    0    0  0.18204277348E+03 -0.16971866839E+03  0.17759270965E+02  0.24951831492E+03  0.00000000000E+00 0. -1.
        -11    1    5    5    0    0  0.98762547622E+02 -0.13828002793E+03  0.84068442807E+02  0.18958615459E+03  0.00000000000E+00 0.  1.
          2    1    6    6  503    0  0.96868071418E+02  0.18135316153E+03  0.10956508650E+03  0.23297403426E+03  0.00000000000E+00 0. -1.
         -2    1    6    6    0  503  0.14589193455E+03  0.36813209872E+03  0.35416245645E+03  0.53125958272E+03  0.00000000000E+00 0.  1.
<mgrwt>
<rscale>  0 0.17852174E+04</rscale>
<asrwt>0</asrwt>
<pdfrwt beam="1">  1        3 0.16767502E+00 0.17852174E+04</pdfrwt>
<pdfrwt beam="2">  1       -4 0.11246753E+00 0.17852174E+04</pdfrwt>
<totfact> 0.32414371E-01</totfact>
</mgrwt>
</event>
<event>
12    4  0.4424320E-008  0.1246914E+04  0.7818608E-02  0.9072756E-01
          1   -1    0    0  501    0  0.00000000000E+00  0.00000000000E+00  0.60203229890E+03  0.60203229890E+03  0.00000000000E+00 0. -1.
         -2   -1    0    0    0  501 -0.00000000000E+00 -0.00000000000E+00 -0.64564423897E+03  0.64564423897E+03  0.00000000000E+00 0.  1.
        -24    2    1    2    0    0  0.11788089831E+03  0.11250685028E+03 -0.25002962384E+03  0.31153313569E+03  0.89355381987E+02 0.  0.
        254    2    1    2    0    0 -0.11788089831E+03 -0.11250685028E+03  0.20641768377E+03  0.93614340218E+03  0.89844449563E+03 0.  0.
         23    2    4    4    0    0  0.11592933524E+02 -0.42366040580E+03 -0.12871477158E+03  0.45198860437E+03  0.90020389389E+02 0.  0.
         23    2    4    4    0    0 -0.12947383184E+03  0.31115355552E+03  0.33513245535E+03  0.48415479782E+03  0.92261028459E+02 0.  0.
          1    1    3    3  502    0 -0.14208123085E+02  0.76573900958E+01 -0.32505227187E+02  0.36291819728E+02  0.00000000000E+00 0. -1.
         -2    1    3    3    0  502  0.13208902140E+03  0.10484946018E+03 -0.21752439665E+03  0.27524131596E+03  0.00000000000E+00 0.  1.
         11    1    5    5    0    0  0.30092116424E+01 -0.33215331246E+03 -0.60741444892E+02  0.33767499383E+03  0.00000000000E+00 0.  1.
        -11    1    5    5    0    0  0.85837218814E+01 -0.91507093345E+02 -0.67973326686E+02  0.11431361054E+03  0.00000000000E+00 0. -1.
          3    1    6    6  503    0 -0.98106551141E+02  0.18069783397E+03  0.25613118169E+03  0.32845058199E+03  0.00000000000E+00 0. -1.
         -3    1    6    6    0  503 -0.31367280696E+02  0.13045572156E+03  0.79001273661E+02  0.15570421582E+03  0.00000000000E+00 0.  1.
<mgrwt>
<rscale>  0 0.12469141E+04</rscale>
<asrwt>0</asrwt>
<pdfrwt beam="1">  1        1 0.92620354E-01 0.12469141E+04</pdfrwt>
<pdfrwt beam="2">  1       -2 0.99329883E-01 0.12469141E+04</pdfrwt>
<totfact> 0.24693955E+01</totfact>
</mgrwt>
</event>
<event>
12    4  0.4424320E-008  0.2109673E+04  0.7818608E-02  0.8556994E-01
         -2   -1    0    0    0  501 -0.00000000000E+00  0.00000000000E+00  0.49092454653E+03  0.49092454653E+03  0.00000000000E+00 0.  1.
          1   -1    0    0  501    0  0.00000000000E+00 -0.00000000000E+00 -0.22664989180E+04  0.22664989180E+04  0.00000000000E+00 0. -1.
        -24    2    1    2    0    0  0.19682488379E+03 -0.80860062562E+03 -0.44316563861E+03  0.94653644954E+03  0.83429373866E+02 0.  0.
        254    2    1    2    0    0 -0.19682488379E+03  0.80860062562E+03 -0.13324087329E+04  0.18108870150E+04  0.90079062109E+03 0.  0.
         23    2    4    4    0    0  0.28848128327E+03  0.36978043848E+03 -0.90700148185E+03  0.10251956858E+04  0.91735940167E+02 0.  0.
         23    2    4    4    0    0 -0.48530616706E+03  0.43882018714E+03 -0.42540725102E+03  0.78569132916E+03  0.90853195113E+02 0.  0.
          3    1    3    3  502    0  0.12316273579E+03 -0.34448891101E+03 -0.21207191982E+03  0.42286660837E+03  0.00000000000E+00 0. -1.
         -4    1    3    3    0  502  0.73662148007E+02 -0.46411171461E+03 -0.23109371879E+03  0.52366984117E+03  0.00000000000E+00 0.  1.
         11    1    5    5    0    0  0.28881565449E+02  0.30092112816E+02 -0.36711934020E+02  0.55564792594E+02  0.00000000000E+00 0.  1.
        -11    1    5    5    0    0  0.25959971782E+03  0.33968832566E+03 -0.87028954783E+03  0.96963089325E+03  0.00000000000E+00 0. -1.
          1    1    6    6  503    0 -0.13608441442E+03  0.91062658542E+02 -0.14469779820E+03  0.21851505311E+03  0.00000000000E+00 0.  1.
         -1    1    6    6    0  503 -0.34922175264E+03  0.34775752860E+03 -0.28070945282E+03  0.56717627605E+03  0.00000000000E+00 0. -1.
<mgrwt>
<rscale>  0 0.21096729E+04</rscale>
<asrwt>0</asrwt>
<pdfrwt beam="1">  1        1 0.34869214E+00 0.21096729E+04</pdfrwt>
<pdfrwt beam="2">  1       -2 0.75526854E-01 0.21096729E+04</pdfrwt>
<totfact> 0.24903223E+00</totfact>
</mgrwt>
</event>
<event>
12    4  0.4424320E-008  0.1404493E+04  0.7818608E-02  0.8950573E-01
         -2   -1    0    0    0  501 -0.00000000000E+00  0.00000000000E+00  0.69761524873E+03  0.69761524873E+03  0.00000000000E+00 0.  1.
          1   -1    0    0  501    0  0.00000000000E+00 -0.00000000000E+00 -0.70690863812E+03  0.70690863812E+03  0.00000000000E+00 0. -1.
        -24    2    1    2    0    0 -0.33586235702E+03 -0.12820782020E+02  0.18801024969E+03  0.39345792707E+03  0.80581580232E+02 0.  0.
        254    2    1    2    0    0  0.33586235702E+03  0.12820782020E+02 -0.19730363908E+03  0.10110659598E+04  0.93292966173E+03 0.  0.
         23    2    4    4    0    0 -0.10723996029E+03 -0.29626502753E+02  0.30255732155E+03  0.33481564389E+03  0.90456861678E+02 0.  0.
         23    2    4    4    0    0  0.44310231731E+03  0.42447284773E+02 -0.49986096063E+03  0.67625031589E+03  0.96499089107E+02 0.  0.
          3    1    3    3  502    0 -0.13063180487E+02 -0.77778589448E+01  0.30861175377E+02  0.34402818487E+02  0.00000000000E+00 0. -1.
         -4    1    3    3    0  502 -0.32279917653E+03 -0.50429230751E+01  0.15714907431E+03  0.35905510858E+03  0.00000000000E+00 0.  1.
         11    1    5    5    0    0 -0.11454651694E+03 -0.43880876060E+02  0.23165863365E+03  0.26213004096E+03  0.00000000000E+00 0.  1.
        -11    1    5    5    0    0  0.73065566534E+01  0.14254373307E+02  0.70898687894E+02  0.72685602932E+02  0.00000000000E+00 0. -1.
          3    1    6    6  503    0  0.25263825444E+03  0.22543393757E+02 -0.35418112902E+03  0.43563581621E+03  0.00000000000E+00 0. -1.
         -3    1    6    6    0  503  0.19046406287E+03  0.19903891016E+02 -0.14567983160E+03  0.24061449968E+03  0.00000000000E+00 0.  1.
<mgrwt>
<rscale>  0 0.14044931E+04</rscale>
<asrwt>0</asrwt>
<pdfrwt beam="1">  1        1 0.10875517E+00 0.14044931E+04</pdfrwt>
<pdfrwt beam="2">  1       -2 0.10732542E+00 0.14044931E+04</pdfrwt>
<totfact> 0.15973125E+01</totfact>
</mgrwt>
</event>
<event>
12    4  0.4424320E-008  0.1415864E+04  0.7818608E-02  0.8942415E-01
         -4   -1    0    0    0  501 -0.00000000000E+00  0.00000000000E+00  0.89759914013E+03  0.89759914013E+03  0.00000000000E+00 0.  1.
          3   -1    0    0  501    0  0.00000000000E+00 -0.00000000000E+00 -0.55834246532E+03  0.55834246532E+03  0.00000000000E+00 0. -1.
        -24    2    1    2    0    0 -0.11349821929E+03  0.14152835684E+03 -0.28481518344E+03  0.34677611481E+03  0.78878789992E+02 0.  0.
        254    2    1    2    0    0  0.11349821929E+03 -0.14152835684E+03  0.62407185825E+03  0.11091654906E+04  0.89881604335E+03 0.  0.
         23    2    4    4    0    0 -0.26720486425E+02 -0.23038075426E+03  0.80778068614E+03  0.84459654382E+03  0.83930975293E+02 0.  0.
         23    2    4    4    0    0  0.14021870571E+03  0.88852397412E+02 -0.18370882789E+03  0.26456894681E+03  0.93229610185E+02 0.  0.
          3    1    3    3  502    0 -0.68579023155E+02  0.10608264574E+03 -0.12794453686E+03  0.17979548008E+03  0.00000000000E+00 0. -1.
         -4    1    3    3    0  502 -0.44919196130E+02  0.35445711107E+02 -0.15687064658E+03  0.16698063473E+03  0.00000000000E+00 0.  1.
         11    1    5    5    0    0  0.14280649564E+01 -0.21399930901E+03  0.70784678760E+03  0.73948956608E+03  0.00000000000E+00 0.  1.
        -11    1    5    5    0    0 -0.28148551382E+02 -0.16381445249E+02  0.99933898542E+02  0.10510697775E+03  0.00000000000E+00 0. -1.
          3    1    6    6  503    0  0.55924903409E+02  0.13385107866E+02 -0.12389726302E+03  0.13659168246E+03  0.00000000000E+00 0. -1.
         -3    1    6    6    0  503  0.84293802301E+02  0.75467289546E+02 -0.59811564865E+02  0.12797726435E+03  0.00000000000E+00 0.  1.
<mgrwt>
<rscale>  0 0.14158640E+04</rscale>
<asrwt>0</asrwt>
<pdfrwt beam="1">  1        3 0.85898841E-01 0.14158640E+04</pdfrwt>
<pdfrwt beam="2">  1       -4 0.13809218E+00 0.14158640E+04</pdfrwt>
<totfact> 0.10219751E+00</totfact>
</mgrwt>
</event>
<event>
12    4  0.4424320E-008  0.1376388E+04  0.7818608E-02  0.8971089E-01
          1   -1    0    0  501    0  0.00000000000E+00  0.00000000000E+00  0.87000529706E+03  0.87000529706E+03  0.00000000000E+00 0. -1.
         -2   -1    0    0    0  501 -0.00000000000E+00 -0.00000000000E+00 -0.54437737357E+03  0.54437737357E+03  0.00000000000E+00 0.  1.
        -24    2    1    2    0    0  0.10375431242E+03 -0.49405639302E+01 -0.29262214948E+03  0.32067471024E+03  0.80094824461E+02 0.  0.
        254    2    1    2    0    0 -0.10375431242E+03  0.49405639302E+01  0.61825007297E+03  0.10937079604E+04  0.89620007999E+03 0.  0.
         23    2    4    4    0    0 -0.33634526965E+03  0.10784063702E+03  0.71900737621E+03  0.80584605750E+03  0.87512958681E+02 0.  0.
         23    2    4    4    0    0  0.23259095723E+03 -0.10290007309E+03 -0.10075730324E+03  0.28786190289E+03  0.89584946007E+02 0.  0.
          1    1    3    3  502    0 -0.86266123244E+01 -0.11471697775E+02 -0.13488006784E+02  0.19696309731E+02  0.00000000000E+00 0. -1.
         -2    1    3    3    0  502  0.11238092474E+03  0.65311338449E+01 -0.27913414269E+03  0.30097840051E+03  0.00000000000E+00 0.  1.
         11    1    5    5    0    0 -0.12717223511E+03  0.22036871023E+02  0.18137601189E+03  0.22261100323E+03  0.00000000000E+00 0. -1.
        -11    1    5    5    0    0 -0.20917303454E+03  0.85803765994E+02  0.53763136431E+03  0.58323505427E+03  0.00000000000E+00 0.  1.
          2    1    6    6  503    0  0.12155730891E+02 -0.21404927758E+01  0.14867124158E+02  0.19322910845E+02  0.00000000000E+00 0. -1.
         -2    1    6    6    0  503  0.22043522634E+03 -0.10075958031E+03 -0.11562442740E+03  0.26853899205E+03  0.00000000000E+00 0.  1.
<mgrwt>
<rscale>  0 0.13763883E+04</rscale>
<asrwt>0</asrwt>
<pdfrwt beam="1">  1        1 0.13384697E+00 0.13763883E+04</pdfrwt>
<pdfrwt beam="2">  1       -2 0.83750365E-01 0.13763883E+04</pdfrwt>
<totfact> 0.20556716E+01</totfact>
</mgrwt>
</event>
<event>
12    4  0.4424320E-008  0.1734369E+04  0.7818608E-02  0.8742001E-01
          1   -1    0    0  501    0  0.00000000000E+00  0.00000000000E+00  0.22512120159E+04  0.22512120159E+04  0.00000000000E+00 0. -1.
         -2   -1    0    0    0  501 -0.00000000000E+00 -0.00000000000E+00 -0.33404636783E+03  0.33404636783E+03  0.00000000000E+00 0.  1.
        -24    2    1    2    0    0 -0.12348160834E+03  0.28226623750E+03  0.15362160601E+04  0.15689057087E+04  0.81138171274E+02 0.  0.
        254    2    1    2    0    0  0.12348160834E+03 -0.28226623750E+03  0.38094958793E+03  0.10163526751E+04  0.89046517906E+03 0.  0.
         23    2    4    4    0    0  0.45602492447E+02  0.29505512067E+03 -0.40001484208E+01  0.31214050085E+03  0.90986699767E+02 0.  0.
         23    2    4    4    0    0  0.77879115891E+02 -0.57732135817E+03  0.38494973635E+03  0.70421217421E+03  0.91451514426E+02 0.  0.
          1    1    3    3  502    0 -0.13154972371E+03  0.27786734438E+03  0.14520065012E+04  0.14841962372E+04  0.00000000000E+00 0. -1.
         -4    1    3    3    0  502  0.80681153705E+01  0.43988931168E+01  0.84209558919E+02  0.84709471487E+02  0.00000000000E+00 0.  1.
         11    1    5    5    0    0  0.22186163516E+02  0.15318518254E+03 -0.47512479899E+02  0.16191158621E+03  0.00000000000E+00 0.  1.
        -11    1    5    5    0    0  0.23416328932E+02  0.14186993813E+03  0.43512331478E+02  0.15022891465E+03  0.00000000000E+00 0. -1.
          2    1    6    6  503    0  0.53006248770E+02 -0.50193299419E+03  0.29653685636E+03  0.58538918699E+03  0.00000000000E+00 0. -1.
         -2    1    6    6    0  503  0.24872867120E+02 -0.75388363983E+02  0.88412879994E+02  0.11882298722E+03  0.00000000000E+00 0.  1.
<mgrwt>
<rscale>  0 0.17343693E+04</rscale>
<asrwt>0</asrwt>
<pdfrwt beam="1">  1        1 0.34634030E+00 0.17343693E+04</pdfrwt>
<pdfrwt beam="2">  1       -2 0.51391750E-01 0.17343693E+04</pdfrwt>
<totfact> 0.59951299E+00</totfact>
</mgrwt>
</event>
<event>
12    4  0.4424320E-008  0.2028686E+04  0.7818608E-02  0.8593325E-01
          1   -1    0    0  501    0  0.00000000000E+00  0.00000000000E+00  0.10384560763E+04  0.10384560763E+04  0.00000000000E+00 0. -1.
         -2   -1    0    0    0  501 -0.00000000000E+00 -0.00000000000E+00 -0.99078953133E+03  0.99078953133E+03  0.00000000000E+00 0.  1.
        -24    2    1    2    0    0  0.40997129104E+02  0.39452247343E+03  0.72760927424E+03  0.83247013667E+03  0.79136122225E+02 0.  0.
        254    2    1    2    0    0 -0.40997129104E+02 -0.39452247343E+03 -0.67994272927E+03  0.11967754710E+04  0.90145474995E+03 0.  0.
         23    2    4    4    0    0 -0.22843815674E+03  0.78475180909E+01  0.12214209840E+03  0.27558785547E+03  0.93725124082E+02 0.  0.
         23    2    4    4    0    0  0.18744102764E+03 -0.40236999152E+03 -0.80208482767E+03  0.92118761550E+03  0.90613482834E+02 0.  0.
          3    1    3    3  502    0  0.37379090776E+02  0.36297775285E+03  0.61149442219E+03  0.71209232116E+03  0.00000000000E+00 0. -1.
         -2    1    3    3    0  502  0.36180383274E+01  0.31544720580E+02  0.11611485206E+03  0.12037781551E+03  0.00000000000E+00 0.  1.
         11    1    5    5    0    0 -0.49286317188E+02 -0.17175017326E+02 -0.79229159990E+01  0.52791049241E+02  0.00000000000E+00 0. -1.
        -11    1    5    5    0    0 -0.17915183955E+03  0.25022535417E+02  0.13006501440E+03  0.22279680622E+03  0.00000000000E+00 0.  1.
          4    1    6    6  503    0 -0.37934944034E+01 -0.47090007438E+02 -0.58543316475E+02  0.75227516935E+02  0.00000000000E+00 0. -1.
         -4    1    6    6    0  503  0.19123452204E+03 -0.35527998408E+03 -0.74354151119E+03  0.84596009857E+03  0.00000000000E+00 0.  1.
<mgrwt>
<rscale>  0 0.20286857E+04</rscale>
<asrwt>0</asrwt>
<pdfrwt beam="1">  1        1 0.15976247E+00 0.20286857E+04</pdfrwt>
<pdfrwt beam="2">  1       -2 0.15242916E+00 0.20286857E+04</pdfrwt>
<totfact> 0.32897757E+00</totfact>
</mgrwt>
</event>
<event>
12    4  0.4424320E-008  0.2195938E+04  0.7818608E-02  0.8520121E-01
          1   -1    0    0  501    0  0.00000000000E+00  0.00000000000E+00  0.13616743436E+04  0.13616743436E+04  0.00000000000E+00 0. -1.
         -2   -1    0    0    0  501 -0.00000000000E+00 -0.00000000000E+00 -0.88533386065E+03  0.88533386065E+03  0.00000000000E+00 0.  1.
        -24    2    1    2    0    0 -0.61919436188E+03  0.17582611938E+03  0.85884479688E+03  0.10763140182E+04  0.80752699820E+02 0.  0.
        254    2    1    2    0    0  0.61919436188E+03 -0.17582611938E+03 -0.38250431395E+03  0.11706941861E+04  0.89994380106E+03 0.  0.
         23    2    4    4    0    0  0.55423437547E+02 -0.30705755371E+03 -0.47764132116E+03  0.57732368507E+03  0.88347648207E+02 0.  0.
         23    2    4    4    0    0  0.56377092434E+03  0.13123143434E+03  0.95137007210E+02  0.59337050100E+03  0.89320528588E+02 0.  0.
          3    1    3    3  502    0 -0.29479895048E+03  0.12449305367E+03  0.43966619721E+03  0.54379344111E+03  0.00000000000E+00 0. -1.
         -4    1    3    3    0  502 -0.32439541140E+03  0.51333065701E+02  0.41917859966E+03  0.53252057705E+03  0.00000000000E+00 0.  1.
         11    1    5    5    0    0  0.25741701738E+02 -0.13193838667E+02 -0.42179086698E+02  0.51144774335E+02  0.00000000000E+00 0. -1.
        -11    1    5    5    0    0  0.29681735809E+02 -0.29386371505E+03 -0.43546223446E+03  0.52617891073E+03  0.00000000000E+00 0.  1.
          1    1    6    6  503    0 -0.99480988301E+00  0.59116236555E+01 -0.28335433672E+01  0.66306793740E+01  0.00000000000E+00 0. -1.
         -1    1    6    6    0  503  0.56476573422E+03  0.12531981068E+03  0.97970550577E+02  0.58673982162E+03  0.00000000000E+00 0.  1.
<mgrwt>
<rscale>  0 0.21959384E+04</rscale>
<asrwt>0</asrwt>
<pdfrwt beam="1">  1        1 0.20948836E+00 0.21959384E+04</pdfrwt>
<pdfrwt beam="2">  1       -2 0.13620521E+00 0.21959384E+04</pdfrwt>
<totfact> 0.25239598E+00</totfact>
</mgrwt>
</event>
<event>
12    4  0.4424320E-008  0.1249270E+04  0.7818608E-02  0.9070791E-01
         -2   -1    0    0    0  501 -0.00000000000E+00  0.00000000000E+00  0.24283407322E+03  0.24283407322E+03  0.00000000000E+00 0.  1.
          1   -1    0    0  501    0  0.00000000000E+00 -0.00000000000E+00 -0.16067314151E+04  0.16067314151E+04  0.00000000000E+00 0. -1.
        -24    2    1    2    0    0 -0.18578947685E+03  0.15593100731E+03 -0.55907996192E+03  0.61608087255E+03  0.90294124628E+02 0.  0.
        254    2    1    2    0    0  0.18578947685E+03 -0.15593100731E+03 -0.80481737991E+03  0.12334846157E+04  0.90272978985E+03 0.  0.
         23    2    4    4    0    0  0.26627658704E+03  0.24887515072E+03 -0.67063228231E+02  0.38314617466E+03  0.97270001157E+02 0.  0.
         23    2    4    4    0    0 -0.80487110184E+02 -0.40480615803E+03 -0.73775415168E+03  0.85033844107E+03  0.91913413357E+02 0.  0.
          1    1    3    3  502    0 -0.16833496210E+03  0.14199916874E+03 -0.54910401184E+03  0.59162119570E+03  0.00000000000E+00 0. -1.
         -2    1    3    3    0  502 -0.17454514753E+02  0.13931838566E+02 -0.99759500845E+01  0.24459676841E+02  0.00000000000E+00 0.  1.
         11    1    5    5    0    0  0.25292859145E+03  0.21825046476E+03 -0.33433831341E+02  0.33574388873E+03  0.00000000000E+00 0. -1.
        -11    1    5    5    0    0  0.13347995590E+02  0.30624685963E+02 -0.33629396890E+02  0.47402285934E+02  0.00000000000E+00 0.  1.
          3    1    6    6  503    0 -0.57117871345E+02 -0.34340312088E+03 -0.67500904521E+03  0.75949020124E+03  0.00000000000E+00 0. -1.
         -3    1    6    6    0  503 -0.23369238839E+02 -0.61403037148E+02 -0.62745106471E+02  0.90848239834E+02  0.00000000000E+00 0.  1.
<mgrwt>
<rscale>  0 0.12492704E+04</rscale>
<asrwt>0</asrwt>
<pdfrwt beam="1">  1        1 0.24718944E+00 0.12492704E+04</pdfrwt>
<pdfrwt beam="2">  1       -2 0.37359089E-01 0.12492704E+04</pdfrwt>
<totfact> 0.32285641E+01</totfact>
</mgrwt>
</event>
<event>
12    4  0.4424320E-008  0.1474227E+04  0.7818608E-02  0.8901775E-01
          1   -1    0    0  501    0  0.00000000000E+00  0.00000000000E+00  0.32138354485E+03  0.32138354485E+03  0.00000000000E+00 0. -1.
         -2   -1    0    0    0  501 -0.00000000000E+00 -0.00000000000E+00 -0.16906167748E+04  0.16906167748E+04  0.00000000000E+00 0.  1.
        -24    2    1    2    0    0 -0.93179214780E+02 -0.44729415968E+03 -0.35210522891E+03  0.58231931257E+03  0.79770033299E+02 0.  0.
        254    2    1    2    0    0  0.93179214780E+02  0.44729415968E+03 -0.10171280010E+04  0.14296810070E+04  0.89480946582E+03 0.  0.
         23    2    4    4    0    0 -0.31195812477E+03 -0.57532613749E+02 -0.48766372488E+03  0.58841212418E+03  0.88232908058E+02 0.  0.
         23    2    4    4    0    0  0.40513733955E+03  0.50482677343E+03 -0.52946427611E+03  0.84126888285E+03  0.91731011730E+02 0.  0.
          1    1    3    3  502    0  0.19730255841E+01 -0.44253766493E+02 -0.64016893957E+02  0.77848901024E+02  0.00000000000E+00 0. -1.
         -2    1    3    3    0  502 -0.95152240365E+02 -0.40304039319E+03 -0.28808833495E+03  0.50447041154E+03  0.00000000000E+00 0.  1.
         11    1    5    5    0    0 -0.15126050110E+03 -0.71213633203E+02 -0.22774934707E+03  0.28252590295E+03  0.00000000000E+00 0.  1.
        -11    1    5    5    0    0 -0.16069762367E+03  0.13681019453E+02 -0.25991437781E+03  0.30588622123E+03  0.00000000000E+00 0. -1.
          1    1    6    6  503    0  0.38078911582E+03  0.50026653675E+03 -0.51393481347E+03  0.81203198892E+03  0.00000000000E+00 0. -1.
         -1    1    6    6    0  503  0.24348223731E+02  0.45602366747E+01 -0.15529462639E+02  0.29236893939E+02  0.00000000000E+00 0.  1.
<mgrwt>
<rscale>  0 0.14742271E+04</rscale>
<asrwt>0</asrwt>
<pdfrwt beam="1">  1        1 0.49443621E-01 0.14742271E+04</pdfrwt>
<pdfrwt beam="2">  1       -2 0.26009490E+00 0.14742271E+04</pdfrwt>
<totfact> 0.37845520E+00</totfact>
</mgrwt>
</event>
<event>
12    4  0.4424320E-008  0.3341103E+04  0.7818608E-02  0.8152515E-01
         -2   -1    0    0    0  501 -0.00000000000E+00  0.00000000000E+00  0.12642365318E+04  0.12642365318E+04  0.00000000000E+00 0.  1.
          1   -1    0    0  501    0  0.00000000000E+00 -0.00000000000E+00 -0.22074521424E+04  0.22074521424E+04  0.00000000000E+00 0. -1.
        -24    2    1    2    0    0 -0.64314984586E+03  0.71488869825E+03 -0.16983675723E+04  0.19534689781E+04  0.82952170929E+02 0.  0.
        254    2    1    2    0    0  0.64314984586E+03 -0.71488869825E+03  0.75515196163E+03  0.15182196961E+04  0.90001610289E+03 0.  0.
         23    2    4    4    0    0  0.19098213834E+03 -0.76281634411E+02  0.69254388567E+03  0.72798687703E+03  0.89748507740E+02 0.  0.
         23    2    4    4    0    0  0.45216770752E+03 -0.63860706384E+03  0.62608075962E+02  0.79023281911E+03  0.90958889118E+02 0.  0.
          1    1    3    3  502    0 -0.63115095447E+03  0.69254055200E+03 -0.16734311746E+04  0.19178988085E+04  0.00000000000E+00 0. -1.
         -2    1    3    3    0  502 -0.11998891395E+02  0.22348146244E+02 -0.24936397642E+02  0.35570169561E+02  0.00000000000E+00 0.  1.
         11    1    5    5    0    0  0.50067585021E+02 -0.65469376978E+02  0.28202176549E+03  0.29381844497E+03  0.00000000000E+00 0. -1.
        -11    1    5    5    0    0  0.14091455332E+03 -0.10812257433E+02  0.41052212017E+03  0.43416843206E+03  0.00000000000E+00 0.  1.
          3    1    6    6  503    0  0.32866865512E+03 -0.44970632041E+03  0.38570421185E+01  0.55702220445E+03  0.00000000000E+00 0. -1.
         -3    1    6    6    0  503  0.12349905240E+03 -0.18890074343E+03  0.58751033844E+02  0.23321061466E+03  0.00000000000E+00 0.  1.
<mgrwt>
<rscale>  0 0.33411026E+04</rscale>
<asrwt>0</asrwt>
<pdfrwt beam="1">  1        1 0.33960802E+00 0.33411026E+04</pdfrwt>
<pdfrwt beam="2">  1       -2 0.19449793E+00 0.33411026E+04</pdfrwt>
<totfact> 0.22644387E-01</totfact>
</mgrwt>
</event>
<event>
12    4  0.4424320E-008  0.1092547E+04  0.7818608E-02  0.9212487E-01
          1   -1    0    0  501    0  0.00000000000E+00  0.00000000000E+00  0.20521484822E+04  0.20521484822E+04  0.00000000000E+00 0. -1.
         -4   -1    0    0    0  501 -0.00000000000E+00 -0.00000000000E+00 -0.14541565518E+03  0.14541565518E+03  0.00000000000E+00 0.  1.
        -24    2    1    2    0    0  0.69267372911E+02  0.12418853162E+03  0.41573329835E+03  0.44748898114E+03  0.84802432485E+02 0.  0.
        254    2    1    2    0    0 -0.69267372911E+02 -0.12418853162E+03  0.14909995287E+04  0.17500751563E+04  0.90524178962E+03 0.  0.
         23    2    4    4    0    0 -0.46840334245E+03 -0.16449811424E+03  0.80431558579E+03  0.94963142532E+03  0.91733099811E+02 0.  0.
         23    2    4    4    0    0  0.39913596954E+03  0.40309582620E+02  0.68668394293E+03  0.80044373096E+03  0.90779647150E+02 0.  0.
          1    1    3    3  502    0  0.64998581473E+02  0.12983201438E+03  0.31889970465E+03  0.35039718775E+03  0.00000000000E+00 0. -1.
         -2    1    3    3    0  502  0.42687914384E+01 -0.56434827591E+01  0.96833593693E+02  0.97091793399E+02  0.00000000000E+00 0.  1.
         11    1    5    5    0    0 -0.43732463881E+03 -0.15641994468E+03  0.69667266500E+03  0.83730092616E+03  0.00000000000E+00 0. -1.
        -11    1    5    5    0    0 -0.31078703642E+02 -0.80781695669E+01  0.10764292079E+03  0.11233049915E+03  0.00000000000E+00 0.  1.
          3    1    6    6  503    0  0.35687493481E+03  0.97703801288E+01  0.62399263999E+03  0.71890332743E+03  0.00000000000E+00 0. -1.
         -3    1    6    6    0  503  0.42261034733E+02  0.30539202491E+02  0.62691302932E+02  0.81540403536E+02  0.00000000000E+00 0.  1.
<mgrwt>
<rscale>  0 0.10925466E+04</rscale>
<asrwt>0</asrwt>
<pdfrwt beam="1">  1        1 0.31571513E+00 0.10925466E+04</pdfrwt>
<pdfrwt beam="2">  1       -4 0.22371641E-01 0.10925466E+04</pdfrwt>
<totfact> 0.25690342E+01</totfact>
</mgrwt>
</event>
<event>
12    4  0.6610823E-008  0.2613082E+04  0.7818608E-02  0.8363771E-01
         -2   -1    0    0    0  501 -0.00000000000E+00  0.00000000000E+00  0.11661770025E+04  0.11661770025E+04  0.00000000000E+00 0.  1.
          1   -1    0    0  501    0  0.00000000000E+00 -0.00000000000E+00 -0.14637992063E+04  0.14637992063E+04  0.00000000000E+00 0. -1.
        -24    2    1    2    0    0 -0.74071412800E+03 -0.43809976457E+03  0.63569229803E+03  0.10729403928E+04  0.80669483075E+02 0.  0.
        254    2    1    2    0    0  0.74071412800E+03  0.43809976457E+03 -0.93331450183E+03  0.15570358161E+04  0.90149639501E+03 0.  0.
         23    2    4    4    0    0 -0.35206255887E+02  0.45366067840E+03 -0.37495718747E+03  0.59650757996E+03  0.90448377173E+02 0.  0.
         23    2    4    4    0    0  0.77592038389E+03 -0.15560913832E+02 -0.55835731436E+03  0.96052823616E+03  0.92504150127E+02 0.  0.
          1    1    3    3  502    0 -0.50517411601E+01 -0.99954975124E+00 -0.22251780922E+01  0.56098668430E+01  0.00000000000E+00 0. -1.
         -2    1    3    3    0  502 -0.73566238684E+03 -0.43710021482E+03  0.63791747612E+03  0.10673305259E+04  0.00000000000E+00 0.  1.
         11    1    5    5    0    0  0.27081067703E+01 -0.35872634836E+01 -0.72333564348E+01  0.85160875344E+01  0.00000000000E+00 0. -1.
        -11    1    5    5    0    0 -0.37914362657E+02  0.45724794189E+03 -0.36772383103E+03  0.58799149242E+03  0.00000000000E+00 0.  1.
          1    1    6    6  503    0  0.18566715943E+01  0.53140607613E+01  0.38814527374E+00  0.56424398923E+01  0.00000000000E+00 0. -1.
         -1    1    6    6    0  503  0.77406371229E+03 -0.20874974594E+02 -0.55874545963E+03  0.95488579627E+03  0.00000000000E+00 0.  1.
<mgrwt>
<rscale>  0 0.26130817E+04</rscale>
<asrwt>0</asrwt>
<pdfrwt beam="1">  1        1 0.22519988E+00 0.26130817E+04</pdfrwt>
<pdfrwt beam="2">  1       -2 0.17941185E+00 0.26130817E+04</pdfrwt>
<totfact> 0.98016451E-01</totfact>
</mgrwt>
</event>
<event>
12    4  0.4424320E-008  0.1160586E+04  0.7818608E-02  0.9148073E-01
         -2   -1    0    0    0  501 -0.00000000000E+00  0.00000000000E+00  0.83885638598E+02  0.83885638598E+02  0.00000000000E+00 0.  1.
          1   -1    0    0  501    0  0.00000000000E+00 -0.00000000000E+00 -0.40142753165E+04  0.40142753165E+04  0.00000000000E+00 0. -1.
        -24    2    1    2    0    0  0.10458930791E+03  0.57142378865E+02 -0.14644061161E+04  0.14714555980E+04  0.80573751138E+02 0.  0.
        254    2    1    2    0    0 -0.10458930791E+03 -0.57142378865E+02 -0.24659835618E+04  0.26267053570E+04  0.89682881915E+03 0.  0.
         23    2    4    4    0    0 -0.14118844922E+03  0.18984109457E+03 -0.22982400589E+04  0.23121828210E+04  0.91149382761E+02 0.  0.
         23    2    4    4    0    0  0.36599141314E+02 -0.24698347344E+03 -0.16774350288E+03  0.31452253603E+03  0.91903262288E+02 0.  0.
          1    1    3    3  502    0  0.87935697254E+02  0.28553952949E+02 -0.66862099966E+03  0.67498300443E+03  0.00000000000E+00 0. -1.
         -2    1    3    3    0  502  0.16653610652E+02  0.28588425917E+02 -0.79578511644E+03  0.79647259362E+03  0.00000000000E+00 0.  1.
         11    1    5    5    0    0 -0.14870414361E+03  0.18447551288E+03 -0.22728122800E+04  0.22851301488E+04  0.00000000000E+00 0.  1.
        -11    1    5    5    0    0  0.75156943892E+01  0.53655816880E+01 -0.25427778942E+02  0.27052672159E+02  0.00000000000E+00 0. -1.
          1    1    6    6  503    0 -0.30371921560E+02 -0.95495502427E+02 -0.57108250828E+02  0.11533948550E+03  0.00000000000E+00 0. -1.
         -1    1    6    6    0  503  0.66971062873E+02 -0.15148797101E+03 -0.11063525205E+03  0.19918305053E+03  0.00000000000E+00 0.  1.
<mgrwt>
<rscale>  0 0.11605861E+04</rscale>
<asrwt>0</asrwt>
<pdfrwt beam="1">  1        1 0.61758069E+00 0.11605861E+04</pdfrwt>
<pdfrwt beam="2">  1       -2 0.12905486E-01 0.11605861E+04</pdfrwt>
<totfact> 0.38134521E+00</totfact>
</mgrwt>
</event>
<event>
12    4  0.4424320E-008  0.1186062E+04  0.7818608E-02  0.9125144E-01
         -2   -1    0    0    0  501 -0.00000000000E+00  0.00000000000E+00  0.44554763220E+03  0.44554763220E+03  0.00000000000E+00 0.  1.
          1   -1    0    0  501    0  0.00000000000E+00 -0.00000000000E+00 -0.78933434201E+03  0.78933434201E+03  0.00000000000E+00 0. -1.
        -24    2    1    2    0    0 -0.43897319973E+02  0.88447425501E+02  0.16199183559E+03  0.20566340244E+03  0.79411324922E+02 0.  0.
        254    2    1    2    0    0  0.43897319973E+02 -0.88447425501E+02 -0.50577854540E+03  0.10292185718E+04  0.89091470395E+03 0.  0.
         23    2    4    4    0    0  0.84480223181E+02  0.35221722239E+03 -0.31262993241E+02  0.37390590680E+03  0.87374896464E+02 0.  0.
         23    2    4    4    0    0 -0.40582903207E+02 -0.44066464789E+03 -0.47451555216E+03  0.65531266498E+03  0.91855188756E+02 0.  0.
          3    1    3    3  502    0  0.14263154621E+02  0.27198541221E+02  0.10942307722E+02  0.32602642877E+02  0.00000000000E+00 0. -1.
         -4    1    3    3    0  502 -0.58160474594E+02  0.61248884280E+02  0.15104952787E+03  0.17306075956E+03  0.00000000000E+00 0.  1.
         11    1    5    5    0    0  0.89431253527E+02  0.35554600398E+03 -0.31099912922E+02  0.36793765047E+03  0.00000000000E+00 0. -1.
        -11    1    5    5    0    0 -0.49510303464E+01 -0.33287815859E+01 -0.16308031896E+00  0.59682563223E+01  0.00000000000E+00 0.  1.
          4    1    6    6  503    0 -0.67653910536E+02 -0.27639894303E+03 -0.27892054562E+03  0.39845965679E+03  0.00000000000E+00 0. -1.
         -4    1    6    6    0  503  0.27071007329E+02 -0.16426570486E+03 -0.19559500654E+03  0.25685300819E+03  0.00000000000E+00 0.  1.
<mgrwt>
<rscale>  0 0.11860625E+04</rscale>
<asrwt>0</asrwt>
<pdfrwt beam="1">  1        1 0.12143605E+00 0.11860625E+04</pdfrwt>
<pdfrwt beam="2">  1       -2 0.68545790E-01 0.11860625E+04</pdfrwt>
<totfact> 0.38165726E+01</totfact>
</mgrwt>
</event>
<event>
12    4  0.4424320E-008  0.1301994E+04  0.7818608E-02  0.9027986E-01
         -4   -1    0    0    0  501 -0.00000000000E+00  0.00000000000E+00  0.32892402695E+03  0.32892402695E+03  0.00000000000E+00 0.  1.
          3   -1    0    0  501    0  0.00000000000E+00 -0.00000000000E+00 -0.12884337787E+04  0.12884337787E+04  0.00000000000E+00 0. -1.
        -24    2    1    2    0    0 -0.17205747386E+03 -0.16169016267E+02 -0.60694611399E+03  0.63577314481E+03  0.77192583741E+02 0.  0.
        254    2    1    2    0    0  0.17205747386E+03  0.16169016267E+02 -0.35256363773E+03  0.98158466081E+03  0.89963443480E+03 0.  0.
         23    2    4    4    0    0 -0.31294269963E+03 -0.14338527627E+03 -0.29069698776E+03  0.45939505043E+03  0.89702859315E+02 0.  0.
         23    2    4    4    0    0  0.48500017349E+03  0.15955429253E+03 -0.61866649969E+02  0.52218961037E+03  0.90397822187E+02 0.  0.
          1    1    3    3  502    0 -0.13108896034E+03 -0.43266746292E+02 -0.48623064573E+03  0.50544689899E+03  0.00000000000E+00 0. -1.
         -4    1    3    3    0  502 -0.40968513518E+02  0.27097730025E+02 -0.12071546826E+03  0.13032624582E+03  0.00000000000E+00 0.  1.
         11    1    5    5    0    0 -0.10533262949E+03 -0.37421538881E+02 -0.44366150945E+02  0.12026508120E+03  0.00000000000E+00 0. -1.
        -11    1    5    5    0    0 -0.20761007014E+03 -0.10596373739E+03 -0.24633083681E+03  0.33912996923E+03  0.00000000000E+00 0.  1.
          3    1    6    6  503    0  0.45729775856E+03  0.13908938348E+03 -0.36421421804E+02  0.47936793442E+03  0.00000000000E+00 0. -1.
         -3    1    6    6    0  503  0.27702414924E+02  0.20464909053E+02 -0.25445228165E+02  0.42821675954E+02  0.00000000000E+00 0.  1.
<mgrwt>
<rscale>  0 0.13019936E+04</rscale>
<asrwt>0</asrwt>
<pdfrwt beam="1">  1        3 0.19822058E+00 0.13019936E+04</pdfrwt>
<pdfrwt beam="2">  1       -4 0.50603696E-01 0.13019936E+04</pdfrwt>
<totfact> 0.12784594E+00</totfact>
</mgrwt>
</event>
<event>
12    4  0.4424320E-008  0.1498846E+04  0.7818608E-02  0.8885221E-01
         -2   -1    0    0    0  501 -0.00000000000E+00  0.00000000000E+00  0.23116335612E+03  0.23116335612E+03  0.00000000000E+00 0.  1.
          1   -1    0    0  501    0  0.00000000000E+00 -0.00000000000E+00 -0.24296007246E+04  0.24296007246E+04  0.00000000000E+00 0. -1.
        -24    2    1    2    0    0 -0.12298416044E+03 -0.45802685811E+03 -0.77943318878E+03  0.91593177844E+03  0.80630146453E+02 0.  0.
        254    2    1    2    0    0  0.12298416044E+03  0.45802685811E+03 -0.14190041797E+04  0.17448323023E+04  0.89774895968E+03 0.  0.
         23    2    4    4    0    0  0.34412869201E+03  0.62458786638E+03 -0.10724360588E+04  0.12915512409E+04  0.97215987454E+02 0.  0.
         23    2    4    4    0    0 -0.22114453157E+03 -0.16656100827E+03 -0.34656812092E+03  0.45328106138E+03  0.93310154028E+02 0.  0.
          1    1    3    3  502    0 -0.56008264708E+02 -0.29732596474E+03 -0.43326435906E+03  0.52844835117E+03  0.00000000000E+00 0. -1.
         -2    1    3    3    0  502 -0.66975895729E+02 -0.16070089337E+03 -0.34616882972E+03  0.38748342727E+03  0.00000000000E+00 0.  1.
         11    1    5    5    0    0  0.34384372107E+03  0.61065641327E+03 -0.10670608184E+04  0.12766160542E+04  0.00000000000E+00 0. -1.
        -11    1    5    5    0    0  0.28497093566E+00  0.13931453111E+02 -0.53752404116E+01  0.14935186765E+02  0.00000000000E+00 0.  1.
          4    1    6    6  503    0 -0.21772487397E+03 -0.17182852309E+03 -0.34963755104E+03  0.44629091318E+03  0.00000000000E+00 0. -1.
         -4    1    6    6    0  503 -0.34196576037E+01  0.52675148230E+01  0.30694301180E+01  0.69901481949E+01  0.00000000000E+00 0.  1.
<mgrwt>
<rscale>  0 0.14988458E+04</rscale>
<asrwt>0</asrwt>
<pdfrwt beam="1">  1        1 0.37378474E+00 0.14988458E+04</pdfrwt>
<pdfrwt beam="2">  1       -2 0.35563592E-01 0.14988458E+04</pdfrwt>
<totfact> 0.95877069E+00</totfact>
</mgrwt>
</event>
<event>
12    4  0.4424320E-008  0.2118042E+04  0.7818608E-02  0.8553337E-01
          1   -1    0    0  501    0  0.00000000000E+00  0.00000000000E+00  0.28180029651E+04  0.28180029651E+04  0.00000000000E+00 0. -1.
         -2   -1    0    0    0  501 -0.00000000000E+00 -0.00000000000E+00 -0.39798601709E+03  0.39798601709E+03  0.00000000000E+00 0.  1.
        -24    2    1    2    0    0  0.68743566102E+03 -0.96927349610E+02  0.21733511931E+03  0.73191278718E+03  0.80616839458E+02 0.  0.
        254    2    1    2    0    0 -0.68743566102E+03  0.96927349610E+02  0.22026818287E+04  0.24840761950E+04  0.91480304165E+03 0.  0.
         23    2    4    4    0    0 -0.61969320447E+03  0.14646276561E+03  0.22554690329E+04  0.23454271533E+04  0.91744010810E+02 0.  0.
         23    2    4    4    0    0 -0.67742456549E+02 -0.49535415999E+02 -0.52787204242E+02  0.13864904171E+03  0.96924042312E+02 0.  0.
          1    1    3    3  502    0  0.94788467523E+02 -0.17654829333E+02  0.60256932316E+02  0.11369892025E+03  0.00000000000E+00 0. -1.
         -2    1    3    3    0  502  0.59264719350E+03 -0.79272520277E+02  0.15707818699E+03  0.61821386693E+03  0.00000000000E+00 0.  1.
         11    1    5    5    0    0 -0.23848824944E+03  0.72779888813E+02  0.10389385907E+04  0.10684413660E+04  0.00000000000E+00 0.  1.
        -11    1    5    5    0    0 -0.38120495503E+03  0.73682876795E+02  0.12165304422E+04  0.12769857873E+04  0.00000000000E+00 0. -1.
          2    1    6    6  503    0  0.14024234225E+02 -0.40934260058E+02 -0.32076705938E+02  0.53862861565E+02  0.00000000000E+00 0. -1.
         -2    1    6    6    0  503 -0.81766690774E+02 -0.86011559406E+01 -0.20710498304E+02  0.84786180146E+02  0.00000000000E+00 0.  1.
<mgrwt>
<rscale>  0 0.21180423E+04</rscale>
<asrwt>0</asrwt>
<pdfrwt beam="1">  1        1 0.43353891E+00 0.21180423E+04</pdfrwt>
<pdfrwt beam="2">  1       -2 0.61228620E-01 0.21180423E+04</pdfrwt>
<totfact> 0.16208706E+00</totfact>
</mgrwt>
</event>
<event>
12    4  0.4424320E-008  0.2472526E+04  0.7818608E-02  0.8412839E-01
          1   -1    0    0  501    0  0.00000000000E+00  0.00000000000E+00  0.35388826449E+04  0.35388826449E+04  0.00000000000E+00 0. -1.
         -2   -1    0    0    0  501 -0.00000000000E+00 -0.00000000000E+00 -0.43187243685E+03  0.43187243685E+03  0.00000000000E+00 0.  1.
        -24    2    1    2    0    0 -0.36743399667E+03 -0.40714186639E+03 -0.12711733792E+03  0.56842278920E+03  0.78571040480E+02 0.  0.
        254    2    1    2    0    0  0.36743399667E+03  0.40714186639E+03  0.32341275460E+04  0.34023322926E+04  0.90305692186E+03 0.  0.
         23    2    4    4    0    0 -0.26574784185E+03  0.13028193074E+03  0.15338526692E+04  0.15648376545E+04  0.91747355807E+02 0.  0.
         23    2    4    4    0    0  0.63318183852E+03  0.27685993565E+03  0.17002748768E+04  0.18374946381E+04  0.88776255956E+02 0.  0.
          3    1    3    3  502    0 -0.58155482793E+02 -0.28177701254E+02 -0.93372295743E+01  0.65293390806E+02  0.00000000000E+00 0. -1.
         -4    1    3    3    0  502 -0.30927851388E+03 -0.37896416513E+03 -0.11778010835E+03  0.50312939839E+03  0.00000000000E+00 0.  1.
         11    1    5    5    0    0 -0.16092724439E+02  0.11986249704E+02  0.31881030981E+02  0.37670228274E+02  0.00000000000E+00 0.  1.
        -11    1    5    5    0    0 -0.24965511741E+03  0.11829568103E+03  0.15019716382E+04  0.15271674263E+04  0.00000000000E+00 0. -1.
          4    1    6    6  503    0  0.58938209141E+03  0.27162170342E+03  0.15375034768E+04  0.16688518630E+04  0.00000000000E+00 0. -1.
         -4    1    6    6    0  503  0.43799747102E+02  0.52382322342E+01  0.16277140002E+03  0.16864277509E+03  0.00000000000E+00 0.  1.
<mgrwt>
<rscale>  0 0.24725257E+04</rscale>
<asrwt>0</asrwt>
<pdfrwt beam="1">  1        1 0.54444346E+00 0.24725257E+04</pdfrwt>
<pdfrwt beam="2">  1       -2 0.66441916E-01 0.24725257E+04</pdfrwt>
<totfact> 0.37999150E-01</totfact>
</mgrwt>
</event>
<event>
12    4  0.4424320E-008  0.1526713E+04  0.7818608E-02  0.8866881E-01
         -2   -1    0    0    0  501 -0.00000000000E+00  0.00000000000E+00  0.10484116033E+04  0.10484116033E+04  0.00000000000E+00 0.  1.
          1   -1    0    0  501    0  0.00000000000E+00 -0.00000000000E+00 -0.55580601807E+03  0.55580601807E+03  0.00000000000E+00 0. -1.
        -24    2    1    2    0    0 -0.24217404663E+03  0.19291710746E+03 -0.24479685331E+03  0.40270760501E+03  0.79891404627E+02 0.  0.
        254    2    1    2    0    0  0.24217404663E+03 -0.19291710746E+03  0.73740243858E+03  0.12015100164E+04  0.89665973696E+03 0.  0.
         23    2    4    4    0    0  0.18031013424E+03  0.33380487646E+03  0.19142633519E+03  0.43491006611E+03  0.92548818125E+02 0.  0.
         23    2    4    4    0    0  0.61863912390E+02 -0.52672198392E+03  0.54597610339E+03  0.76659995030E+03  0.91227113957E+02 0.  0.
          3    1    3    3  502    0 -0.18577358507E+03  0.18258766750E+03 -0.18256712028E+03  0.31808935009E+03  0.00000000000E+00 0. -1.
         -4    1    3    3    0  502 -0.56400461564E+02  0.10329439967E+02 -0.62229733021E+02  0.84618254925E+02  0.00000000000E+00 0.  1.
         11    1    5    5    0    0 -0.37221453770E+01 -0.39107334421E+01  0.55589751648E+01  0.77492197766E+01  0.00000000000E+00 0.  1.
        -11    1    5    5    0    0  0.18403227962E+03  0.33771560990E+03  0.18586736003E+03  0.42716084633E+03  0.00000000000E+00 0. -1.
          1    1    6    6  503    0  0.76834544285E+02 -0.48934546885E+03  0.52256386294E+03  0.72002467036E+03  0.00000000000E+00 0. -1.
         -1    1    6    6    0  503 -0.14970631895E+02 -0.37376515074E+02  0.23412240455E+02  0.46575279941E+02  0.00000000000E+00 0.  1.
<mgrwt>
<rscale>  0 0.15267134E+04</rscale>
<asrwt>0</asrwt>
<pdfrwt beam="1">  1        1 0.85508618E-01 0.15267134E+04</pdfrwt>
<pdfrwt beam="2">  1       -2 0.16129409E+00 0.15267134E+04</pdfrwt>
<totfact> 0.79464199E+00</totfact>
</mgrwt>
</event>
<event>
12    4  0.4424320E-008  0.2025841E+04  0.7818608E-02  0.8594633E-01
          1   -1    0    0  501    0  0.00000000000E+00  0.00000000000E+00  0.91828513740E+03  0.91828513740E+03  0.00000000000E+00 0. -1.
         -2   -1    0    0    0  501 -0.00000000000E+00 -0.00000000000E+00 -0.11173091572E+04  0.11173091572E+04  0.00000000000E+00 0.  1.
        -24    2    1    2    0    0 -0.22656718265E+03 -0.76391451056E+03  0.36136589369E+02  0.80164852497E+03  0.80227406708E+02 0.  0.
        254    2    1    2    0    0  0.22656718265E+03  0.76391451056E+03 -0.23516060922E+03  0.12339457697E+04  0.91237250215E+03 0.  0.
         23    2    4    4    0    0  0.11726279294E+03 -0.18236370013E+03  0.42996807320E+02  0.23799044390E+03  0.88224963692E+02 0.  0.
         23    2    4    4    0    0  0.10930438971E+03  0.94627821069E+03 -0.27815741654E+03  0.99595532578E+03  0.84649636353E+02 0.  0.
          3    1    3    3  502    0 -0.15598042952E+03 -0.54552271622E+03 -0.10320912188E+02  0.56747814895E+03  0.00000000000E+00 0. -1.
         -4    1    3    3    0  502 -0.70586753122E+02 -0.21839179435E+03  0.46457501557E+02  0.23417037602E+03  0.00000000000E+00 0.  1.
         11    1    5    5    0    0 -0.64310885229E+01 -0.58984580352E+02  0.91672129877E+01  0.60038132990E+02  0.00000000000E+00 0. -1.
        -11    1    5    5    0    0  0.12369388146E+03 -0.12337911977E+03  0.33829594333E+02  0.17795231091E+03  0.00000000000E+00 0.  1.
          3    1    6    6  503    0  0.17205517377E+02  0.10220777670E+03 -0.40435305689E+01  0.10372468166E+03  0.00000000000E+00 0. -1.
         -3    1    6    6    0  503  0.92098872331E+02  0.84407043399E+03 -0.27411388597E+03  0.89223064411E+03  0.00000000000E+00 0.  1.
<mgrwt>
<rscale>  0 0.20258414E+04</rscale>
<asrwt>0</asrwt>
<pdfrwt beam="1">  1        1 0.14127464E+00 0.20258414E+04</pdfrwt>
<pdfrwt beam="2">  1       -2 0.17189372E+00 0.20258414E+04</pdfrwt>
<totfact> 0.29464550E+00</totfact>
</mgrwt>
</event>
<event>
12    4  0.4424320E-008  0.1335752E+04  0.7818608E-02  0.9001684E-01
          1   -1    0    0  501    0  0.00000000000E+00  0.00000000000E+00  0.17393779770E+04  0.17393779770E+04  0.00000000000E+00 0. -1.
         -2   -1    0    0    0  501 -0.00000000000E+00 -0.00000000000E+00 -0.25644716692E+03  0.25644716692E+03  0.00000000000E+00 0.  1.
        -24    2    1    2    0    0  0.43606568430E+01 -0.17232645354E+03 -0.57740684326E+02  0.20270174511E+03  0.89658178230E+02 0.  0.
        254    2    1    2    0    0 -0.43606568430E+01  0.17232645354E+03  0.15406714944E+04  0.17931233988E+04  0.90105907009E+03 0.  0.
         23    2    4    4    0    0 -0.43530760540E+03  0.96927076136E+02  0.61553994439E+03  0.76564823398E+03  0.91870700701E+02 0.  0.
         23    2    4    4    0    0  0.43094694856E+03  0.75399377407E+02  0.92513155005E+03  0.10274751649E+04  0.91850372509E+02 0.  0.
          3    1    3    3  502    0  0.29356263792E+02 -0.48604317888E+02  0.12657501126E+02  0.58175443925E+02  0.00000000000E+00 0. -1.
         -4    1    3    3    0  502 -0.24995606949E+02 -0.12372213566E+03 -0.70398185453E+02  0.14452630118E+03  0.00000000000E+00 0.  1.
         11    1    5    5    0    0 -0.33671184773E+03  0.39225155752E+02  0.49095342158E+03  0.59661440094E+03  0.00000000000E+00 0.  1.
        -11    1    5    5    0    0 -0.98595757671E+02  0.57701920384E+02  0.12458652281E+03  0.16903383304E+03  0.00000000000E+00 0. -1.
          2    1    6    6  503    0  0.16657777525E+03  0.85309804146E+01  0.26355011664E+03  0.31189677270E+03  0.00000000000E+00 0. -1.
         -2    1    6    6    0  503  0.26436917331E+03  0.66868396993E+02  0.66158143341E+03  0.71557839217E+03  0.00000000000E+00 0.  1.
<mgrwt>
<rscale>  0 0.13357523E+04</rscale>
<asrwt>0</asrwt>
<pdfrwt beam="1">  1        1 0.26759660E+00 0.13357523E+04</pdfrwt>
<pdfrwt beam="2">  1       -2 0.39453411E-01 0.13357523E+04</pdfrwt>
<totfact> 0.23417576E+01</totfact>
</mgrwt>
</event>
<event>
12    4  0.4424320E-008  0.2310715E+04  0.7818608E-02  0.8473708E-01
          1   -1    0    0  501    0  0.00000000000E+00  0.00000000000E+00  0.86481190549E+03  0.86481190549E+03  0.00000000000E+00 0. -1.
         -2   -1    0    0    0  501 -0.00000000000E+00 -0.00000000000E+00 -0.15435154219E+04  0.15435154219E+04  0.00000000000E+00 0.  1.
        -24    2    1    2    0    0 -0.21227508619E+03  0.47165411800E+03  0.57888112517E+03  0.78055681192E+03  0.81530732288E+02 0.  0.
        254    2    1    2    0    0  0.21227508619E+03 -0.47165411800E+03 -0.12575846416E+04  0.16277705154E+04  0.89476220359E+03 0.  0.
         23    2    4    4    0    0  0.62177382450E+02  0.24964472755E+03 -0.48364013353E+03  0.55593623087E+03  0.94703733585E+02 0.  0.
         23    2    4    4    0    0  0.15009770374E+03 -0.72129884555E+03 -0.77394450803E+03  0.10718342846E+04  0.83888537889E+02 0.  0.
          1    1    3    3  502    0 -0.20505932802E+03  0.47321091827E+03  0.56610955654E+03  0.76580541339E+03  0.00000000000E+00 0. -1.
         -2    1    3    3    0  502 -0.72157581794E+01 -0.15568002681E+01  0.12771568634E+02  0.14751398529E+02  0.00000000000E+00 0.  1.
         11    1    5    5    0    0  0.49524490142E+02  0.40108099256E+02 -0.12732121807E+03  0.14237986979E+03  0.00000000000E+00 0. -1.
        -11    1    5    5    0    0  0.12652892308E+02  0.20953662829E+03 -0.35631891545E+03  0.41355636108E+03  0.00000000000E+00 0.  1.
          4    1    6    6  503    0  0.94603605241E+02 -0.60780835884E+03 -0.63723652027E+03  0.88569251209E+03  0.00000000000E+00 0. -1.
         -4    1    6    6    0  503  0.55494098503E+02 -0.11349048671E+03 -0.13670798776E+03  0.18614177247E+03  0.00000000000E+00 0.  1.
<mgrwt>
<rscale>  0 0.23107146E+04</rscale>
<asrwt>0</asrwt>
<pdfrwt beam="1">  1        1 0.13304799E+00 0.23107146E+04</pdfrwt>
<pdfrwt beam="2">  1       -2 0.23746391E+00 0.23107146E+04</pdfrwt>
<totfact> 0.11831322E+00</totfact>
</mgrwt>
</event>
<event>
12    4  0.4424320E-008  0.1505270E+04  0.7818608E-02  0.8880956E-01
         -2   -1    0    0    0  501 -0.00000000000E+00  0.00000000000E+00  0.79026647263E+03  0.79026647263E+03  0.00000000000E+00 0.  1.
          1   -1    0    0  501    0  0.00000000000E+00 -0.00000000000E+00 -0.71679548391E+03  0.71679548391E+03  0.00000000000E+00 0. -1.
        -24    2    1    2    0    0  0.99978723411E+02  0.57617163842E+02  0.49350636238E+03  0.51313706893E+03  0.80284737624E+02 0.  0.
        254    2    1    2    0    0 -0.99978723411E+02 -0.57617163842E+02 -0.42003537366E+03  0.99392488761E+03  0.89338764508E+03 0.  0.
         23    2    4    4    0    0 -0.45234996072E+03  0.13235287454E+03 -0.15223742793E+03  0.50357833841E+03  0.90978778237E+02 0.  0.
         23    2    4    4    0    0  0.35237123731E+03 -0.18997003838E+03 -0.26779794574E+03  0.49034654920E+03  0.92032028163E+02 0.  0.
          1    1    3    3  502    0  0.22695151886E+02  0.86792226220E+01  0.21803628966E+02  0.32646547452E+02  0.00000000000E+00 0. -1.
         -2    1    3    3    0  502  0.77283571524E+02  0.48937941220E+02  0.47170273342E+03  0.48049052148E+03  0.00000000000E+00 0.  1.
         11    1    5    5    0    0 -0.34256417462E+03  0.10943392948E+03 -0.74873783581E+02  0.36733102527E+03  0.00000000000E+00 0. -1.
        -11    1    5    5    0    0 -0.10978578610E+03  0.22918945063E+02 -0.77363644345E+02  0.13624731314E+03  0.00000000000E+00 0.  1.
          2    1    6    6  503    0  0.33888679709E+03 -0.15379393207E+03 -0.24296065674E+03  0.44443977714E+03  0.00000000000E+00 0. -1.
         -2    1    6    6    0  503  0.13484440220E+02 -0.36176106319E+02 -0.24837288991E+02  0.45906772059E+02  0.00000000000E+00 0.  1.
<mgrwt>
<rscale>  0 0.15052700E+04</rscale>
<asrwt>0</asrwt>
<pdfrwt beam="1">  1        1 0.11027623E+00 0.15052700E+04</pdfrwt>
<pdfrwt beam="2">  1       -2 0.12157946E+00 0.15052700E+04</pdfrwt>
<totfact> 0.11431626E+01</totfact>
</mgrwt>
</event>
<event>
12    4  0.4424320E-008  0.2062521E+04  0.7818608E-02  0.8577935E-01
         -2   -1    0    0    0  501 -0.00000000000E+00  0.00000000000E+00  0.67626279021E+03  0.67626279021E+03  0.00000000000E+00 0.  1.
          1   -1    0    0  501    0  0.00000000000E+00 -0.00000000000E+00 -0.15726109469E+04  0.15726109469E+04  0.00000000000E+00 0. -1.
        -24    2    1    2    0    0  0.17826834602E+03  0.34832152696E+03 -0.11661843234E+04  0.12327012374E+04  0.80367750309E+02 0.  0.
        254    2    1    2    0    0 -0.17826834602E+03 -0.34832152696E+03  0.26983616670E+03  0.10161724997E+04  0.89815783855E+03 0.  0.
         23    2    4    4    0    0  0.40178713008E+02 -0.35691426893E+03 -0.24892917097E+03  0.44647894646E+03  0.91518266637E+02 0.  0.
         23    2    4    4    0    0 -0.21844705903E+03  0.85927419764E+01  0.51876533766E+03  0.56969355323E+03  0.87408902405E+02 0.  0.
          3    1    3    3  502    0  0.17379915356E+03  0.31454115007E+03 -0.11126330494E+04  0.11692281999E+04  0.00000000000E+00 0. -1.
         -2    1    3    3    0  502  0.44691924629E+01  0.33780376883E+02 -0.53551273952E+02  0.63473037469E+02  0.00000000000E+00 0.  1.
         11    1    5    5    0    0  0.36058606438E+02 -0.51357348945E+02 -0.24634135979E+02  0.67413952890E+02  0.00000000000E+00 0. -1.
        -11    1    5    5    0    0  0.41201065703E+01 -0.30555691999E+03 -0.22429503499E+03  0.37906499357E+03  0.00000000000E+00 0.  1.
          4    1    6    6  503    0 -0.14945325294E+03 -0.26650182931E+02  0.40054664229E+03  0.42835046366E+03  0.00000000000E+00 0.  1.
         -4    1    6    6    0  503 -0.68993806096E+02  0.35242924907E+02  0.11821869537E+03  0.14134308958E+03  0.00000000000E+00 0. -1.
<mgrwt>
<rscale>  0 0.20625210E+04</rscale>
<asrwt>0</asrwt>
<pdfrwt beam="1">  1        1 0.24194014E+00 0.20625210E+04</pdfrwt>
<pdfrwt beam="2">  1       -2 0.10404043E+00 0.20625210E+04</pdfrwt>
<totfact> 0.35471151E+00</totfact>
</mgrwt>
</event>
<event>
12    4  0.4424320E-008  0.1765923E+04  0.7818608E-02  0.8724634E-01
          1   -1    0    0  501    0  0.00000000000E+00  0.00000000000E+00  0.28469401711E+04  0.28469401711E+04  0.00000000000E+00 0. -1.
         -2   -1    0    0    0  501 -0.00000000000E+00 -0.00000000000E+00 -0.27384524238E+03  0.27384524238E+03  0.00000000000E+00 0.  1.
        -24    2    1    2    0    0 -0.33239511052E+03  0.11859490045E+03 -0.10677519729E+02  0.36222507324E+03  0.80880988773E+02 0.  0.
        254    2    1    2    0    0  0.33239511052E+03 -0.11859490045E+03  0.25837724485E+04  0.27585603403E+04  0.89956868861E+03 0.  0.
         23    2    4    4    0    0  0.23989799319E+03 -0.17759391371E+03  0.25965019302E+04  0.26152453222E+04  0.92710172078E+02 0.  0.
         23    2    4    4    0    0  0.92497117334E+02  0.58999013256E+02 -0.12729481785E+02  0.14331501810E+03  0.91326635903E+02 0.  0.
          1    1    3    3  502    0 -0.74881362192E+02  0.14393787750E+02 -0.33922100939E+02  0.83457225341E+02  0.00000000000E+00 0. -1.
         -2    1    3    3    0  502 -0.25751374833E+03  0.10420111270E+03  0.23244581210E+02  0.27876784790E+03  0.00000000000E+00 0.  1.
         11    1    5    5    0    0  0.60750660607E+02 -0.72681641740E+02  0.53552362969E+03  0.54383712797E+03  0.00000000000E+00 0. -1.
        -11    1    5    5    0    0  0.17914733258E+03 -0.10491227197E+03  0.20609783006E+04  0.20714081942E+04  0.00000000000E+00 0.  1.
          4    1    6    6  503    0  0.73497040251E+02  0.80700224385E+02  0.53324179554E+01  0.10928300793E+03  0.00000000000E+00 0. -1.
         -4    1    6    6    0  503  0.19000077083E+02 -0.21701211129E+02 -0.18061899740E+02  0.34032010165E+02  0.00000000000E+00 0.  1.
<mgrwt>
<rscale>  0 0.17659230E+04</rscale>
<asrwt>0</asrwt>
<pdfrwt beam="1">  1        1 0.43799078E+00 0.17659230E+04</pdfrwt>
<pdfrwt beam="2">  1       -2 0.42130039E-01 0.17659230E+04</pdfrwt>
<totfact> 0.34326318E+00</totfact>
</mgrwt>
</event>
<event>
12    4  0.4424320E-008  0.1338101E+04  0.7818608E-02  0.8999885E-01
         -2   -1    0    0    0  501 -0.00000000000E+00  0.00000000000E+00  0.70035406191E+03  0.70035406191E+03  0.00000000000E+00 0.  1.
          1   -1    0    0  501    0  0.00000000000E+00 -0.00000000000E+00 -0.63914596255E+03  0.63914596255E+03  0.00000000000E+00 0. -1.
        -24    2    1    2    0    0  0.18874283737E+03  0.13557056514E+02  0.32036172416E+03  0.38069538196E+03  0.80558594225E+02 0.  0.
        254    2    1    2    0    0 -0.18874283737E+03 -0.13557056514E+02 -0.25915362480E+03  0.95880464249E+03  0.90351429916E+03 0.  0.
         23    2    4    4    0    0 -0.27523807651E+03  0.12553756236E+03 -0.53697816978E+03  0.62289244865E+03  0.90187412919E+02 0.  0.
         23    2    4    4    0    0  0.86495239142E+02 -0.13909461887E+03  0.27782454497E+03  0.33591219384E+03  0.93924356748E+02 0.  0.
          1    1    3    3  502    0  0.11267647631E+02 -0.18454865296E+02  0.61651649918E+02  0.65333512640E+02  0.00000000000E+00 0. -1.
         -2    1    3    3    0  502  0.17747518973E+03  0.32011921810E+02  0.25871007424E+03  0.31536186932E+03  0.00000000000E+00 0.  1.
         11    1    5    5    0    0 -0.34097397448E+02 -0.10646235105E+02 -0.37590536351E+02  0.51855792905E+02  0.00000000000E+00 0. -1.
        -11    1    5    5    0    0 -0.24114067906E+03  0.13618379746E+03 -0.49938763342E+03  0.57103665575E+03  0.00000000000E+00 0.  1.
          3    1    6    6  503    0  0.26207275832E+02  0.18125612345E+01  0.11586285507E+02  0.28711473257E+02  0.00000000000E+00 0. -1.
         -3    1    6    6    0  503  0.60287963310E+02 -0.14090718011E+03  0.26623825947E+03  0.30720072059E+03  0.00000000000E+00 0.  1.
<mgrwt>
<rscale>  0 0.13381008E+04</rscale>
<asrwt>0</asrwt>
<pdfrwt beam="1">  1        1 0.98330148E-01 0.13381008E+04</pdfrwt>
<pdfrwt beam="2">  1       -2 0.10774678E+00 0.13381008E+04</pdfrwt>
<totfact> 0.18496399E+01</totfact>
</mgrwt>
</event>
<event>
12    4  0.4424320E-008  0.1265197E+04  0.7818608E-02  0.9057629E-01
          1   -1    0    0  501    0  0.00000000000E+00  0.00000000000E+00  0.23716339460E+04  0.23716339460E+04  0.00000000000E+00 0. -1.
         -2   -1    0    0    0  501 -0.00000000000E+00 -0.00000000000E+00 -0.16873637394E+03  0.16873637394E+03  0.00000000000E+00 0.  1.
        -24    2    1    2    0    0 -0.73608515211E+02 -0.77505653419E+02  0.11326440792E+04  0.11403974153E+04  0.78729377912E+02 0.  0.
        254    2    1    2    0    0  0.73608515211E+02  0.77505653419E+02  0.10702534929E+04  0.13999729046E+04  0.89613406075E+03 0.  0.
         23    2    4    4    0    0 -0.31456220654E+03  0.29110979552E+03  0.41384854981E+03  0.60261924502E+03  0.90471196841E+02 0.  0.
         23    2    4    4    0    0  0.38817072175E+03 -0.21360414210E+03  0.65640494305E+03  0.79735365959E+03  0.92747886487E+02 0.  0.
          3    1    3    3  502    0 -0.38189796541E+02  0.52976323385E+01  0.22326002399E+03  0.22656470109E+03  0.00000000000E+00 0. -1.
         -4    1    3    3    0  502 -0.35418718669E+02 -0.82803285758E+02  0.90938405517E+03  0.91383271421E+03  0.00000000000E+00 0.  1.
         11    1    5    5    0    0 -0.30832584647E+03  0.26609266818E+03  0.40736232688E+03  0.57603315965E+03  0.00000000000E+00 0. -1.
        -11    1    5    5    0    0 -0.62363600742E+01  0.25017127342E+02  0.64862229340E+01  0.26586085372E+02  0.00000000000E+00 0.  1.
          3    1    6    6  503    0  0.30532023180E+03 -0.15541319054E+03  0.43352081755E+03  0.55255226268E+03  0.00000000000E+00 0. -1.
         -3    1    6    6    0  503  0.82850489952E+02 -0.58190951562E+02  0.22288412550E+03  0.24480139691E+03  0.00000000000E+00 0.  1.
<mgrwt>
<rscale>  0 0.12651971E+04</rscale>
<asrwt>0</asrwt>
<pdfrwt beam="1">  1        1 0.36486674E+00 0.12651971E+04</pdfrwt>
<pdfrwt beam="2">  1       -2 0.25959444E-01 0.12651971E+04</pdfrwt>
<totfact> 0.19328712E+01</totfact>
</mgrwt>
</event>
<event>
12    4  0.4424320E-008  0.2005902E+04  0.7818608E-02  0.8603866E-01
         -2   -1    0    0    0  501 -0.00000000000E+00  0.00000000000E+00  0.10260480114E+04  0.10260480114E+04  0.00000000000E+00 0.  1.
          1   -1    0    0  501    0  0.00000000000E+00 -0.00000000000E+00 -0.98037396813E+03  0.98037396813E+03  0.00000000000E+00 0. -1.
        -24    2    1    2    0    0 -0.52426210665E+02  0.18873057794E+03  0.79219676576E+03  0.81996150409E+03  0.79958826303E+02 0.  0.
        254    2    1    2    0    0  0.52426210665E+02 -0.18873057794E+03 -0.74652272251E+03  0.11864604754E+04  0.90112404579E+03 0.  0.
         23    2    4    4    0    0 -0.20020729537E+02 -0.26675665546E+02  0.19790424856E+03  0.22123204085E+03  0.93086538017E+02 0.  0.
         23    2    4    4    0    0  0.72446940202E+02 -0.16205491239E+03 -0.94442697106E+03  0.96522843457E+03  0.90627112145E+02 0.  0.
          1    1    3    3  502    0  0.16560047614E+02  0.24195921857E+02  0.17717331499E+03  0.17958302079E+03  0.00000000000E+00 0. -1.
         -2    1    3    3    0  502 -0.68986258279E+02  0.16453465608E+03  0.61502345077E+03  0.64037848330E+03  0.00000000000E+00 0.  1.
         11    1    5    5    0    0 -0.15425180956E+02  0.25282646694E+02  0.14083975382E+03  0.14392006353E+03  0.00000000000E+00 0. -1.
        -11    1    5    5    0    0 -0.45955485809E+01 -0.51958312240E+02  0.57064494734E+02  0.77311977318E+02  0.00000000000E+00 0.  1.
          4    1    6    6  503    0  0.59190388410E+02 -0.11518941583E+03 -0.44585156606E+03  0.46427978909E+03  0.00000000000E+00 0. -1.
         -4    1    6    6    0  503  0.13256551792E+02 -0.46865496558E+02 -0.49857540500E+03  0.50094864548E+03  0.00000000000E+00 0.  1.
<mgrwt>
<rscale>  0 0.20059021E+04</rscale>
<asrwt>0</asrwt>
<pdfrwt beam="1">  1        1 0.15082676E+00 0.20059021E+04</pdfrwt>
<pdfrwt beam="2">  1       -2 0.15785354E+00 0.20059021E+04</pdfrwt>
<totfact> 0.33294373E+00</totfact>
</mgrwt>
</event>
<event>
12    4  0.4424320E-008  0.2244124E+04  0.7818608E-02  0.8500284E-01
          1   -1    0    0  501    0  0.00000000000E+00  0.00000000000E+00  0.78195525661E+03  0.78195525661E+03  0.00000000000E+00 0. -1.
         -2   -1    0    0    0  501 -0.00000000000E+00 -0.00000000000E+00 -0.16100959735E+04  0.16100959735E+04  0.00000000000E+00 0.  1.
        -24    2    1    2    0    0 -0.82213445527E+03  0.34729933675E+03 -0.37260263934E+02  0.89700962060E+03  0.81951451107E+02 0.  0.
        254    2    1    2    0    0  0.82213445527E+03 -0.34729933675E+03 -0.79088045299E+03  0.14950416095E+04  0.90174033485E+03 0.  0.
         23    2    4    4    0    0  0.12509983132E+03  0.11822271547E+03 -0.60003814426E+03  0.63060251420E+03  0.89371013785E+02 0.  0.
         23    2    4    4    0    0  0.69703462395E+03 -0.46552205222E+03 -0.19084230873E+03  0.86443909534E+03  0.90918175609E+02 0.  0.
          1    1    3    3  502    0 -0.58933306992E+03  0.22301719930E+03  0.25546381136E+01  0.63012432477E+03  0.00000000000E+00 0. -1.
         -2    1    3    3    0  502 -0.23280138535E+03  0.12428213744E+03 -0.39814902048E+02  0.26688529583E+03  0.00000000000E+00 0.  1.
         11    1    5    5    0    0 -0.99050277618E+01  0.15703101173E+02 -0.12184315583E+03  0.12324955004E+03  0.00000000000E+00 0.  1.
        -11    1    5    5    0    0  0.13500485908E+03  0.10251961430E+03 -0.47819498842E+03  0.50735296416E+03  0.00000000000E+00 0. -1.
          4    1    6    6  503    0  0.10688422393E+03 -0.64588808202E+02 -0.62043655284E+02  0.13944664439E+03  0.00000000000E+00 0.  1.
         -4    1    6    6    0  503  0.59015040002E+03 -0.40093324402E+03 -0.12879865345E+03  0.72499245095E+03  0.00000000000E+00 0. -1.
<mgrwt>
<rscale>  0 0.22441239E+04</rscale>
<asrwt>0</asrwt>
<pdfrwt beam="1">  1        1 0.12030081E+00 0.22441239E+04</pdfrwt>
<pdfrwt beam="2">  1       -2 0.24770707E+00 0.22441239E+04</pdfrwt>
<totfact> 0.12116033E+00</totfact>
</mgrwt>
</event>
<event>
12    4  0.4424320E-008  0.1052477E+04  0.7818608E-02  0.9252791E-01
         -2   -1    0    0    0  501 -0.00000000000E+00  0.00000000000E+00  0.24654640532E+03  0.24654640532E+03  0.00000000000E+00 0.  1.
          1   -1    0    0  501    0  0.00000000000E+00 -0.00000000000E+00 -0.11232239197E+04  0.11232239197E+04  0.00000000000E+00 0. -1.
        -24    2    1    2    0    0  0.71838275149E+01 -0.74467700689E+01  0.27581524926E+02  0.95072707429E+02  0.90393680190E+02 0.  0.
        254    2    1    2    0    0 -0.71838275149E+01  0.74467700689E+01 -0.90425903932E+03  0.12746976176E+04  0.89836659797E+03 0.  0.
         23    2    4    4    0    0 -0.10984957375E+03  0.38045762562E+03 -0.73756241708E+03  0.84217732698E+03  0.91920602920E+02 0.  0.
         23    2    4    4    0    0  0.10266574624E+03 -0.37301085555E+03 -0.16669662224E+03  0.43252029062E+03  0.98023895669E+02 0.  0.
          3    1    3    3  502    0  0.60101681094E+01  0.41529770556E+02  0.11489988429E+02  0.43507054569E+02  0.00000000000E+00 0. -1.
         -4    1    3    3    0  502  0.11736594054E+01 -0.48976540625E+02  0.16091536498E+02  0.51565652860E+02  0.00000000000E+00 0.  1.
         11    1    5    5    0    0 -0.33939695737E+02  0.24802645456E+03 -0.51049268385E+03  0.56856996524E+03  0.00000000000E+00 0.  1.
        -11    1    5    5    0    0 -0.75909878015E+02  0.13243117105E+03 -0.22706973323E+03  0.27360736174E+03  0.00000000000E+00 0. -1.
          1    1    6    6  503    0 -0.17565716368E+02 -0.58829454719E+02 -0.13418799271E+02  0.62845232977E+02  0.00000000000E+00 0. -1.
         -1    1    6    6    0  503  0.12023146261E+03 -0.31418140083E+03 -0.15327782297E+03  0.36967505764E+03  0.00000000000E+00 0.  1.
<mgrwt>
<rscale>  0 0.10524767E+04</rscale>
<asrwt>0</asrwt>
<pdfrwt beam="1">  1        1 0.17280368E+00 0.10524767E+04</pdfrwt>
<pdfrwt beam="2">  1       -2 0.37930217E-01 0.10524767E+04</pdfrwt>
<totfact> 0.69993507E+01</totfact>
</mgrwt>
</event>
<event>
12    4  0.4424320E-008  0.2331871E+04  0.7818608E-02  0.8465460E-01
          1   -1    0    0  501    0  0.00000000000E+00  0.00000000000E+00  0.25549611953E+04  0.25549611953E+04  0.00000000000E+00 0. -1.
         -2   -1    0    0    0  501 -0.00000000000E+00 -0.00000000000E+00 -0.53206516133E+03  0.53206516133E+03  0.00000000000E+00 0.  1.
        -24    2    1    2    0    0  0.51243975135E+03  0.62211868289E+03  0.10253261237E+03  0.81614718028E+03  0.77182439201E+02 0.  0.
        254    2    1    2    0    0 -0.51243975135E+03 -0.62211868289E+03  0.19203634216E+04  0.22708791763E+04  0.90524604844E+03 0.  0.
         23    2    4    4    0    0 -0.58800320932E+03 -0.79991166238E+03  0.15386932992E+04  0.18333988076E+04  0.90375202076E+02 0.  0.
         23    2    4    4    0    0  0.75563457967E+02  0.17779297949E+03  0.38167012244E+03  0.43748036873E+03  0.91634114408E+02 0.  0.
          3    1    3    3  502    0  0.40793945460E+03  0.47883551671E+03  0.49236675445E+02  0.63096933435E+03  0.00000000000E+00 0. -1.
         -4    1    3    3    0  502  0.10450029675E+03  0.14328316617E+03  0.53295936929E+02  0.18517784593E+03  0.00000000000E+00 0.  1.
         11    1    5    5    0    0 -0.12119828204E+03 -0.14285549058E+03  0.35416206163E+03  0.40065880828E+03  0.00000000000E+00 0.  1.
        -11    1    5    5    0    0 -0.46680492728E+03 -0.65705617180E+03  0.11845312375E+04  0.14327399993E+04  0.00000000000E+00 0. -1.
          3    1    6    6  503    0  0.72371437878E+02  0.17739574651E+03  0.30136121032E+03  0.35710706376E+03  0.00000000000E+00 0. -1.
         -3    1    6    6    0  503  0.31920200889E+01  0.39723298477E+00  0.80308912120E+02  0.80373304972E+02  0.00000000000E+00 0.  1.
<mgrwt>
<rscale>  0 0.23318712E+04</rscale>
<asrwt>0</asrwt>
<pdfrwt beam="1">  1        1 0.39307095E+00 0.23318712E+04</pdfrwt>
<pdfrwt beam="2">  1       -2 0.81856180E-01 0.23318712E+04</pdfrwt>
<totfact> 0.12899734E+00</totfact>
</mgrwt>
</event>
<event>
12    4  0.4424320E-008  0.2204207E+04  0.7818608E-02  0.8516679E-01
          1   -1    0    0  501    0  0.00000000000E+00  0.00000000000E+00  0.22585798584E+04  0.22585798584E+04  0.00000000000E+00 0. -1.
         -2   -1    0    0    0  501 -0.00000000000E+00 -0.00000000000E+00 -0.53778580184E+03  0.53778580184E+03  0.00000000000E+00 0.  1.
        -24    2    1    2    0    0 -0.63462443881E+02 -0.72281855842E+01 -0.44973084222E+03  0.46181910505E+03  0.83302622389E+02 0.  0.
        254    2    1    2    0    0  0.63462443881E+02  0.72281855842E+01  0.21705248988E+04  0.23345465552E+04  0.85723366342E+03 0.  0.
         23    2    4    4    0    0  0.43929609166E+03 -0.68274654447E+02  0.13478332058E+04  0.14222260263E+04  0.91815220335E+02 0.  0.
         23    2    4    4    0    0 -0.37583364778E+03  0.75502840031E+02  0.82269169300E+03  0.91232052890E+03  0.92496032698E+02 0.  0.
          3    1    3    3  502    0 -0.50262287022E+02 -0.28899489127E+02 -0.14690711632E+03  0.15793409637E+03  0.00000000000E+00 0. -1.
         -4    1    3    3    0  502 -0.13200156860E+02  0.21671303543E+02 -0.30282372589E+03  0.30388500868E+03  0.00000000000E+00 0.  1.
         11    1    5    5    0    0  0.28647004193E+03 -0.87281241463E+02  0.85876192287E+03  0.90948069810E+03  0.00000000000E+00 0.  1.
        -11    1    5    5    0    0  0.15282604973E+03  0.19006587016E+02  0.48907128295E+03  0.51274532824E+03  0.00000000000E+00 0. -1.
          1    1    6    6  503    0 -0.85510139868E+02 -0.21432832838E+02  0.17511888302E+03  0.19605604692E+03  0.00000000000E+00 0. -1.
         -1    1    6    6    0  503 -0.29032350791E+03  0.96935672869E+02  0.64757280998E+03  0.71626448198E+03  0.00000000000E+00 0.  1.
<mgrwt>
<rscale>  0 0.22042071E+04</rscale>
<asrwt>0</asrwt>
<pdfrwt beam="1">  1        1 0.34747382E+00 0.22042071E+04</pdfrwt>
<pdfrwt beam="2">  1       -2 0.82736279E-01 0.22042071E+04</pdfrwt>
<totfact> 0.20380763E+00</totfact>
</mgrwt>
</event>
<event>
12    4  0.4424320E-008  0.2907266E+04  0.7818608E-02  0.8270719E-01
          3   -1    0    0  501    0  0.00000000000E+00  0.00000000000E+00  0.14490410601E+04  0.14490410601E+04  0.00000000000E+00 0. -1.
         -4   -1    0    0    0  501 -0.00000000000E+00 -0.00000000000E+00 -0.14582391598E+04  0.14582391598E+04  0.00000000000E+00 0.  1.
        -24    2    1    2    0    0 -0.11167199371E+04  0.65705372762E+03 -0.46135779355E+02  0.12996893567E+04  0.90999423234E+02 0.  0.
        254    2    1    2    0    0  0.11167199371E+04 -0.65705372762E+03  0.36937679651E+02  0.16075908633E+04  0.95089482735E+03 0.  0.
         23    2    4    4    0    0  0.17738223163E+03  0.16602205462E+03 -0.20624704632E+03  0.33191351167E+03  0.92741341354E+02 0.  0.
         23    2    4    4    0    0  0.93933770543E+03 -0.82307578224E+03  0.24318472597E+03  0.12756773516E+04  0.91677839661E+02 0.  0.
          1    1    3    3  502    0 -0.23342386534E+03  0.99457771542E+02 -0.24320385567E+02  0.25489219365E+03  0.00000000000E+00 0. -1.
         -2    1    3    3    0  502 -0.88329607172E+03  0.55759595608E+03 -0.21815393788E+02  0.10447971631E+04  0.00000000000E+00 0.  1.
         11    1    5    5    0    0  0.13059870455E+03  0.14283626367E+03 -0.20164449391E+03  0.27949726613E+03  0.00000000000E+00 0. -1.
        -11    1    5    5    0    0  0.46783527080E+02  0.23185790953E+02 -0.46025524092E+01  0.52416245543E+02  0.00000000000E+00 0.  1.
          2    1    6    6  503    0  0.92631884636E+03 -0.82294952901E+03  0.24286280347E+03  0.12626539010E+04  0.00000000000E+00 0. -1.
         -2    1    6    6    0  503  0.13018859067E+02 -0.12625323660E+00  0.32192250277E+00  0.13023450594E+02  0.00000000000E+00 0.  1.
<mgrwt>
<rscale>  0 0.29072657E+04</rscale>
<asrwt>0</asrwt>
<pdfrwt beam="1">  1        3 0.22292939E+00 0.29072657E+04</pdfrwt>
<pdfrwt beam="2">  1       -4 0.22434449E+00 0.29072657E+04</pdfrwt>
<totfact> 0.19100301E-02</totfact>
</mgrwt>
</event>
<event>
12    4  0.4424320E-008  0.1823643E+04  0.7818608E-02  0.8693826E-01
         -2   -1    0    0    0  501 -0.00000000000E+00  0.00000000000E+00  0.36882985482E+03  0.36882985482E+03  0.00000000000E+00 0.  1.
          1   -1    0    0  501    0  0.00000000000E+00 -0.00000000000E+00 -0.22542063434E+04  0.22542063434E+04  0.00000000000E+00 0. -1.
        -24    2    1    2    0    0 -0.65889659389E+03  0.19583444059E+03 -0.82682887004E+03  0.10786060172E+04  0.85141707638E+02 0.  0.
        254    2    1    2    0    0  0.65889659389E+03 -0.19583444059E+03 -0.10585476185E+04  0.15444301810E+04  0.89008183546E+03 0.  0.
         23    2    4    4    0    0  0.26433587566E+03  0.32998525114E+03 -0.25404688749E+03  0.50172203896E+03  0.91768525135E+02 0.  0.
         23    2    4    4    0    0  0.39456071823E+03 -0.52581969173E+03 -0.80450073102E+03  0.10427081421E+04  0.88624684556E+02 0.  0.
          3    1    3    3  502    0 -0.20019316885E+03  0.60336174876E+02 -0.31501738265E+03  0.37809219805E+03  0.00000000000E+00 0. -1.
         -4    1    3    3    0  502 -0.45870342504E+03  0.13549826571E+03 -0.51181148739E+03  0.70051381912E+03  0.00000000000E+00 0.  1.
         11    1    5    5    0    0  0.11061796971E+03  0.12904390305E+03 -0.15499892691E+03  0.23002897965E+03  0.00000000000E+00 0.  1.
        -11    1    5    5    0    0  0.15371790595E+03  0.20094134809E+03 -0.99047960586E+02  0.27169305931E+03  0.00000000000E+00 0. -1.
          1    1    6    6  503    0  0.36565976711E+03 -0.50050247564E+03 -0.72115986108E+03  0.95093708448E+03  0.00000000000E+00 0. -1.
         -1    1    6    6    0  503  0.28900951117E+02 -0.25317216094E+02 -0.83340869941E+02  0.91771057576E+02  0.00000000000E+00 0.  1.
<mgrwt>
<rscale>  0 0.18236432E+04</rscale>
<asrwt>0</asrwt>
<pdfrwt beam="1">  1        1 0.34680098E+00 0.18236432E+04</pdfrwt>
<pdfrwt beam="2">  1       -2 0.56743054E-01 0.18236432E+04</pdfrwt>
<totfact> 0.48213335E+00</totfact>
</mgrwt>
</event>
<event>
12    4  0.4424320E-008  0.2396899E+04  0.7818608E-02  0.8440666E-01
         -2   -1    0    0    0  501 -0.00000000000E+00  0.00000000000E+00  0.13172201163E+04  0.13172201163E+04  0.00000000000E+00 0.  1.
          1   -1    0    0  501    0  0.00000000000E+00 -0.00000000000E+00 -0.10903876971E+04  0.10903876971E+04  0.00000000000E+00 0. -1.
        -24    2    1    2    0    0 -0.58994792107E+03 -0.68093427794E+03 -0.40163613089E+03  0.99003122513E+03  0.84499731580E+02 0.  0.
        254    2    1    2    0    0  0.58994792107E+03  0.68093427794E+03  0.62846855016E+03  0.14175765883E+04  0.89601374128E+03 0.  0.
         23    2    4    4    0    0 -0.10905337524E+03  0.14812157575E+03  0.47863458036E+03  0.52080590961E+03  0.91187137907E+02 0.  0.
         23    2    4    4    0    0  0.69900129631E+03  0.53281270219E+03  0.14983396980E+03  0.89677067864E+03  0.96204177136E+02 0.  0.
          1    1    3    3  502    0 -0.20559178666E+03 -0.26128816357E+03 -0.18968099665E+03  0.38277717755E+03  0.00000000000E+00 0. -1.
         -2    1    3    3    0  502 -0.38435613441E+03 -0.41964611437E+03 -0.21195513424E+03  0.60725404758E+03  0.00000000000E+00 0.  1.
         11    1    5    5    0    0 -0.83857779885E+02  0.15692951223E+03  0.42933987346E+03  0.46474910005E+03  0.00000000000E+00 0. -1.
        -11    1    5    5    0    0 -0.25195595354E+02 -0.88079364757E+01  0.49294706899E+02  0.56056809564E+02  0.00000000000E+00 0.  1.
          4    1    6    6  503    0  0.49228631634E+03  0.39086297834E+03  0.14902290439E+03  0.64600890948E+03  0.00000000000E+00 0.  1.
         -4    1    6    6    0  503  0.20671497997E+03  0.14194972385E+03  0.81106541706E+00  0.25076176916E+03  0.00000000000E+00 0. -1.
<mgrwt>
<rscale>  0 0.23968985E+04</rscale>
<asrwt>0</asrwt>
<pdfrwt beam="1">  1        1 0.16775195E+00 0.23968985E+04</pdfrwt>
<pdfrwt beam="2">  1       -2 0.20264925E+00 0.23968985E+04</pdfrwt>
<totfact> 0.12952203E+00</totfact>
</mgrwt>
</event>
<event>
12    4  0.4424320E-008  0.1416634E+04  0.7818608E-02  0.8941865E-01
          1   -1    0    0  501    0  0.00000000000E+00  0.00000000000E+00  0.13969311782E+04  0.13969311782E+04  0.00000000000E+00 0. -1.
         -2   -1    0    0    0  501 -0.00000000000E+00 -0.00000000000E+00 -0.35915377268E+03  0.35915377268E+03  0.00000000000E+00 0.  1.
        -24    2    1    2    0    0  0.22149214399E+03 -0.20728501840E+03  0.68721708948E+03  0.75531092923E+03  0.78749114502E+02 0.  0.
        254    2    1    2    0    0 -0.22149214399E+03  0.20728501840E+03  0.35056031603E+03  0.10007740216E+04  0.88692178828E+03 0.  0.
         23    2    4    4    0    0  0.10043387467E+03  0.33865219578E+03  0.49406044513E+03  0.61416067555E+03  0.91243296022E+02 0.  0.
         23    2    4    4    0    0 -0.32192601866E+03 -0.13136717738E+03 -0.14350012910E+03  0.38661334609E+03  0.89352647076E+02 0.  0.
          3    1    3    3  502    0  0.22705488260E+03 -0.19496700111E+03  0.66603617845E+03  0.73018507396E+03  0.00000000000E+00 0. -1.
         -4    1    3    3    0  502 -0.55627386075E+01 -0.12318017287E+02  0.21180911028E+02  0.25125855263E+02  0.00000000000E+00 0.  1.
         11    1    5    5    0    0 -0.13243625684E+02  0.87852976151E+02  0.13633791343E+03  0.16273157554E+03  0.00000000000E+00 0. -1.
        -11    1    5    5    0    0  0.11367750035E+03  0.25079921963E+03  0.35772253169E+03  0.45142910001E+03  0.00000000000E+00 0.  1.
          3    1    6    6  503    0 -0.48360347817E+02 -0.72626829205E+01 -0.54679644119E+02  0.73357571424E+02  0.00000000000E+00 0. -1.
         -3    1    6    6    0  503 -0.27356567085E+03 -0.12410449446E+03 -0.88820484980E+02  0.31325577467E+03  0.00000000000E+00 0.  1.
<mgrwt>
<rscale>  0 0.14166342E+04</rscale>
<asrwt>0</asrwt>
<pdfrwt beam="1">  1        1 0.21491249E+00 0.14166342E+04</pdfrwt>
<pdfrwt beam="2">  1       -2 0.55254427E-01 0.14166342E+04</pdfrwt>
<totfact> 0.20311196E+01</totfact>
</mgrwt>
</event>
<event>
12    4  0.4424320E-008  0.1244460E+04  0.7818608E-02  0.9074807E-01
         -2   -1    0    0    0  501 -0.00000000000E+00  0.00000000000E+00  0.55892046635E+03  0.55892046635E+03  0.00000000000E+00 0.  1.
          1   -1    0    0  501    0  0.00000000000E+00 -0.00000000000E+00 -0.69271070787E+03  0.69271070787E+03  0.00000000000E+00 0. -1.
        -24    2    1    2    0    0 -0.18671355018E+02 -0.16345114003E+03  0.21158210816E+03  0.27757728605E+03  0.72230648364E+02 0.  0.
        254    2    1    2    0    0  0.18671355018E+02  0.16345114003E+03 -0.34537234967E+03  0.97405388818E+03  0.89578681754E+03 0.  0.
         23    2    4    4    0    0 -0.13932890917E+03  0.45690409927E+03 -0.39105001137E+03  0.62550521873E+03  0.10081054707E+03 0.  0.
         23    2    4    4    0    0  0.15800026419E+03 -0.29345295924E+03  0.45677661698E+02  0.34854866945E+03  0.91219534218E+02 0.  0.
          1    1    3    3  502    0  0.66209154190E+01  0.56357751997E+01  0.96351719724E+01  0.12978251886E+02  0.00000000000E+00 0. -1.
         -2    1    3    3    0  502 -0.25292270437E+02 -0.16908691523E+03  0.20194693618E+03  0.26459903416E+03  0.00000000000E+00 0.  1.
         11    1    5    5    0    0 -0.94754676512E+02  0.36222593125E+03 -0.35174117898E+03  0.51371970079E+03  0.00000000000E+00 0.  1.
        -11    1    5    5    0    0 -0.44574232659E+02  0.94678168019E+02 -0.39308832396E+02  0.11178551794E+03  0.00000000000E+00 0. -1.
          1    1    6    6  503    0  0.77398871667E+01 -0.80978465324E+02 -0.11351234528E+02  0.82135669626E+02  0.00000000000E+00 0. -1.
         -1    1    6    6    0  503  0.15026037702E+03 -0.21247449392E+03  0.57028896226E+02  0.26641299982E+03  0.00000000000E+00 0.  1.
<mgrwt>
<rscale>  0 0.12444600E+04</rscale>
<asrwt>0</asrwt>
<pdfrwt beam="1">  1        1 0.10657088E+00 0.12444600E+04</pdfrwt>
<pdfrwt beam="2">  1       -2 0.85987765E-01 0.12444600E+04</pdfrwt>
<totfact> 0.28070131E+01</totfact>
</mgrwt>
</event>
<event>
12    4  0.4424320E-008  0.2151235E+04  0.7818608E-02  0.8539004E-01
          1   -1    0    0  501    0  0.00000000000E+00  0.00000000000E+00  0.21761441724E+04  0.21761441724E+04  0.00000000000E+00 0. -1.
         -2   -1    0    0    0  501 -0.00000000000E+00 -0.00000000000E+00 -0.53165256151E+03  0.53165256151E+03  0.00000000000E+00 0.  1.
        -24    2    1    2    0    0 -0.12207307271E+03  0.30747739175E+03  0.17083788896E+04  0.17419644186E+04  0.80233555779E+02 0.  0.
        254    2    1    2    0    0  0.12207307271E+03 -0.30747739175E+03 -0.63887278771E+02  0.96583231532E+03  0.90515539849E+03 0.  0.
         23    2    4    4    0    0  0.33095726670E+03  0.16747039133E+03 -0.18550019230E+03  0.42511067759E+03  0.93432984005E+02 0.  0.
         23    2    4    4    0    0 -0.20888419399E+03 -0.47494778308E+03  0.12161291353E+03  0.54072163774E+03  0.91554276938E+02 0.  0.
          3    1    3    3  502    0 -0.11444282497E+03  0.30701146704E+03  0.15937494910E+04  0.16270804040E+04  0.00000000000E+00 0. -1.
         -4    1    3    3    0  502 -0.76302477401E+01  0.46592471191E+00  0.11462939864E+03  0.11488401455E+03  0.00000000000E+00 0.  1.
         11    1    5    5    0    0  0.21895539844E+03  0.60883095497E+02 -0.98388085642E+02  0.24764578175E+03  0.00000000000E+00 0. -1.
        -11    1    5    5    0    0  0.11200186826E+03  0.10658729583E+03 -0.87112106659E+02  0.17746489583E+03  0.00000000000E+00 0.  1.
          1    1    6    6  503    0 -0.55700761893E+02 -0.15870610539E+03  0.81958323647E+02  0.18710256433E+03  0.00000000000E+00 0.  1.
         -1    1    6    6    0  503 -0.15318343210E+03 -0.31624167769E+03  0.39654589883E+02  0.35361907341E+03  0.00000000000E+00 0. -1.
<mgrwt>
<rscale>  0 0.21512346E+04</rscale>
<asrwt>0</asrwt>
<pdfrwt beam="1">  1        1 0.33479141E+00 0.21512346E+04</pdfrwt>
<pdfrwt beam="2">  1       -2 0.81792703E-01 0.21512346E+04</pdfrwt>
<totfact> 0.23919217E+00</totfact>
</mgrwt>
</event>
<event>
12    4  0.4424320E-008  0.1751521E+04  0.7818608E-02  0.8732514E-01
          1   -1    0    0  501    0  0.00000000000E+00  0.00000000000E+00  0.12256021804E+04  0.12256021804E+04  0.00000000000E+00 0. -1.
         -2   -1    0    0    0  501 -0.00000000000E+00 -0.00000000000E+00 -0.62577921400E+03  0.62577921400E+03  0.00000000000E+00 0.  1.
        -24    2    1    2    0    0  0.25047221518E+03 -0.55339291159E+03  0.16606521205E+02  0.61274279446E+03  0.78726808874E+02 0.  0.
        254    2    1    2    0    0 -0.25047221518E+03  0.55339291159E+03  0.58321644517E+03  0.12386385999E+04  0.90835241736E+03 0.  0.
         23    2    4    4    0    0 -0.21331146373E+03  0.21970068576E+03  0.77817055463E+03  0.84010365335E+03  0.80340303685E+02 0.  0.
         23    2    4    4    0    0 -0.37160751453E+02  0.33369222583E+03 -0.19495410946E+03  0.39853494657E+03  0.89953186808E+02 0.  0.
          1    1    3    3  502    0  0.46802463833E+02 -0.91221675124E+02  0.32136986128E+02  0.10744603534E+03  0.00000000000E+00 0. -1.
         -2    1    3    3    0  502  0.20366975135E+03 -0.46217123647E+03 -0.15530464923E+02  0.50529675912E+03  0.00000000000E+00 0.  1.
         11    1    5    5    0    0 -0.14520787299E+03  0.19142658329E+03  0.63754976091E+03  0.68132162802E+03  0.00000000000E+00 0. -1.
        -11    1    5    5    0    0 -0.68103590736E+02  0.28274102467E+02  0.14062079372E+03  0.15878202533E+03  0.00000000000E+00 0.  1.
          2    1    6    6  503    0  0.79941176771E+01  0.24488853824E+03 -0.16144464852E+03  0.29342575997E+03  0.00000000000E+00 0. -1.
         -2    1    6    6    0  503 -0.45154869130E+02  0.88803687592E+02 -0.33509460941E+02  0.10510918660E+03  0.00000000000E+00 0.  1.
<mgrwt>
<rscale>  0 0.17515209E+04</rscale>
<asrwt>0</asrwt>
<pdfrwt beam="1">  1        1 0.18855418E+00 0.17515209E+04</pdfrwt>
<pdfrwt beam="2">  1       -2 0.96273725E-01 0.17515209E+04</pdfrwt>
<totfact> 0.76850718E+00</totfact>
</mgrwt>
</event>
<event>
12    4  0.4424320E-008  0.1875187E+04  0.7818608E-02  0.8667307E-01
          1   -1    0    0  501    0  0.00000000000E+00  0.00000000000E+00  0.11965297409E+04  0.11965297409E+04  0.00000000000E+00 0. -1.
         -2   -1    0    0    0  501 -0.00000000000E+00 -0.00000000000E+00 -0.73469225539E+03  0.73469225539E+03  0.00000000000E+00 0.  1.
        -24    2    1    2    0    0  0.21928368375E+02 -0.11454790377E+03 -0.55308378201E+03  0.57095613696E+03  0.80542937687E+02 0.  0.
        254    2    1    2    0    0 -0.21928368375E+02  0.11454790377E+03  0.10149212675E+04  0.13602658593E+04  0.89814027479E+03 0.  0.
         23    2    4    4    0    0 -0.35008375293E+03  0.55609069465E+02  0.95701302680E+02  0.37820866499E+03  0.90730657823E+02 0.  0.
         23    2    4    4    0    0  0.32815538455E+03  0.58938834306E+02  0.91921996484E+03  0.98205719435E+03  0.91166038630E+02 0.  0.
          3    1    3    3  502    0  0.57880710525E+01 -0.16740430978E+01  0.21671142761E+00  0.60291915416E+01  0.00000000000E+00 0. -1.
         -4    1    3    3    0  502  0.16140297323E+02 -0.11287386067E+03 -0.55330049343E+03  0.56492694541E+03  0.00000000000E+00 0.  1.
         11    1    5    5    0    0 -0.23658685868E+03  0.13729326347E+02  0.25536539680E+02  0.23835677242E+03  0.00000000000E+00 0. -1.
        -11    1    5    5    0    0 -0.11349689425E+03  0.41879743118E+02  0.70164763001E+02  0.13985189257E+03  0.00000000000E+00 0.  1.
          1    1    6    6  503    0  0.25266118072E+03  0.83671216746E+02  0.70093298786E+03  0.74976369492E+03  0.00000000000E+00 0. -1.
         -1    1    6    6    0  503  0.75494203828E+02 -0.24732382439E+02  0.21828697699E+03  0.23229349942E+03  0.00000000000E+00 0.  1.
<mgrwt>
<rscale>  0 0.18751865E+04</rscale>
<asrwt>0</asrwt>
<pdfrwt beam="1">  1        1 0.18408150E+00 0.18751865E+04</pdfrwt>
<pdfrwt beam="2">  1       -2 0.11302958E+00 0.18751865E+04</pdfrwt>
<totfact> 0.54368268E+00</totfact>
</mgrwt>
</event>
<event>
12    4  0.4424320E-008  0.1913924E+04  0.7818608E-02  0.8647956E-01
         -4   -1    0    0    0  501 -0.00000000000E+00  0.00000000000E+00  0.50630119319E+03  0.50630119319E+03  0.00000000000E+00 0.  1.
          3   -1    0    0  501    0  0.00000000000E+00 -0.00000000000E+00 -0.18087585633E+04  0.18087585633E+04  0.00000000000E+00 0. -1.
        -24    2    1    2    0    0  0.25865223337E+03 -0.39371417892E+03  0.18650189309E+03  0.51319721206E+03  0.81710402237E+02 0.  0.
        254    2    1    2    0    0 -0.25865223337E+03  0.39371417892E+03 -0.14889592632E+04  0.18018625444E+04  0.89877533845E+03 0.  0.
         23    2    4    4    0    0 -0.77166084676E+02  0.11666340623E+02 -0.13377370920E+04  0.13430731015E+04  0.90631785238E+02 0.  0.
         23    2    4    4    0    0 -0.18148614870E+03  0.38204783829E+03 -0.15122217118E+03  0.45878944292E+03  0.93390764869E+02 0.  0.
          3    1    3    3  502    0 -0.21877471321E+01 -0.31530472438E+02  0.15778473832E+02  0.35325871059E+02  0.00000000000E+00 0. -1.
         -4    1    3    3    0  502  0.26083998051E+03 -0.36218370648E+03  0.17072341926E+03  0.47787134100E+03  0.00000000000E+00 0.  1.
         11    1    5    5    0    0 -0.78469325546E+02 -0.20634298887E+02 -0.11217135227E+04  0.11246441376E+04  0.00000000000E+00 0. -1.
        -11    1    5    5    0    0  0.13032408691E+01  0.32300639511E+02 -0.21602356931E+03  0.21842896385E+03  0.00000000000E+00 0.  1.
          4    1    6    6  503    0 -0.22096979049E+02  0.11698206976E+03 -0.73373958045E+02  0.13984569656E+03  0.00000000000E+00 0. -1.
         -4    1    6    6    0  503 -0.15938916965E+03  0.26506576853E+03 -0.77848213131E+02  0.31894374635E+03  0.00000000000E+00 0.  1.
<mgrwt>
<rscale>  0 0.19139244E+04</rscale>
<asrwt>0</asrwt>
<pdfrwt beam="1">  1        3 0.27827054E+00 0.19139244E+04</pdfrwt>
<pdfrwt beam="2">  1       -4 0.77892493E-01 0.19139244E+04</pdfrwt>
<totfact> 0.16163767E-01</totfact>
</mgrwt>
</event>
<event>
12    4  0.4424320E-008  0.1752438E+04  0.7818608E-02  0.8732010E-01
         -2   -1    0    0    0  501 -0.00000000000E+00  0.00000000000E+00  0.10025064251E+04  0.10025064251E+04  0.00000000000E+00 0.  1.
          1   -1    0    0  501    0  0.00000000000E+00 -0.00000000000E+00 -0.76584014411E+03  0.76584014411E+03  0.00000000000E+00 0. -1.
        -24    2    1    2    0    0 -0.38173761547E+03 -0.16389885502E+03  0.58055183325E+03  0.71845617701E+03  0.80946929836E+02 0.  0.
        254    2    1    2    0    0  0.38173761547E+03  0.16389885502E+03 -0.34388555229E+03  0.10498903922E+04  0.90079194087E+03 0.  0.
         23    2    4    4    0    0 -0.20664128948E+03 -0.15742434759E+03 -0.24050706993E+03  0.36540689762E+03  0.90529014154E+02 0.  0.
         23    2    4    4    0    0  0.58837890496E+03  0.32132320261E+03 -0.10337848236E+03  0.68448349455E+03  0.91608991705E+02 0.  0.
          3    1    3    3  502    0 -0.26837352733E+03 -0.82941238190E+02  0.34614303796E+03  0.44577864674E+03  0.00000000000E+00 0. -1.
         -4    1    3    3    0  502 -0.11336408815E+03 -0.80957616830E+02  0.23440879529E+03  0.27267753027E+03  0.00000000000E+00 0.  1.
         11    1    5    5    0    0 -0.12156160265E+03 -0.11494431242E+03 -0.20331078800E+03  0.26329583118E+03  0.00000000000E+00 0.  1.
        -11    1    5    5    0    0 -0.85079686836E+02 -0.42480035168E+02 -0.37196281930E+02  0.10211106644E+03  0.00000000000E+00 0. -1.
          4    1    6    6  503    0  0.59108107294E+03  0.31786453559E+03 -0.99195826869E+02  0.67842059951E+03  0.00000000000E+00 0.  1.
         -4    1    6    6    0  503 -0.27021679790E+01  0.34586670249E+01 -0.41826554866E+01  0.60628950424E+01  0.00000000000E+00 0. -1.
<mgrwt>
<rscale>  0 0.17524379E+04</rscale>
<asrwt>0</asrwt>
<pdfrwt beam="1">  1        1 0.11782156E+00 0.17524379E+04</pdfrwt>
<pdfrwt beam="2">  1       -2 0.15423176E+00 0.17524379E+04</pdfrwt>
<totfact> 0.54694498E+00</totfact>
</mgrwt>
</event>
<event>
12    4  0.4424320E-008  0.1352320E+04  0.7818608E-02  0.8989074E-01
         -2   -1    0    0    0  501 -0.00000000000E+00  0.00000000000E+00  0.31265198332E+03  0.31265198332E+03  0.00000000000E+00 0.  1.
          1   -1    0    0  501    0  0.00000000000E+00 -0.00000000000E+00 -0.14623033986E+04  0.14623033986E+04  0.00000000000E+00 0. -1.
        -24    2    1    2    0    0  0.11412095571E+03  0.13877841514E+03  0.98883006543E+02  0.22165692629E+03  0.84088661236E+02 0.  0.
        254    2    1    2    0    0 -0.11412095571E+03 -0.13877841514E+03 -0.12485344218E+04  0.15532984556E+04  0.90642972632E+03 0.  0.
         23    2    4    4    0    0  0.19135820125E+03 -0.43765463997E+03 -0.65473500813E+03  0.81559677152E+03  0.91436413730E+02 0.  0.
         23    2    4    4    0    0 -0.30547915696E+03  0.29887622483E+03 -0.59379941370E+03  0.73770168412E+03  0.94665294298E+02 0.  0.
          1    1    3    3  502    0 -0.45703779505E+01  0.13071044317E+02 -0.10230943529E+02  0.17216641939E+02  0.00000000000E+00 0. -1.
         -2    1    3    3    0  502  0.11869133366E+03  0.12570737082E+03  0.10911395007E+03  0.20444028435E+03  0.00000000000E+00 0.  1.
         11    1    5    5    0    0  0.14756890503E+02 -0.43619222998E+00 -0.18307643075E+02  0.23518628275E+02  0.00000000000E+00 0. -1.
        -11    1    5    5    0    0  0.17660131075E+03 -0.43721844774E+03 -0.63642736506E+03  0.79207814324E+03  0.00000000000E+00 0.  1.
          4    1    6    6  503    0 -0.31218874327E+03  0.28716897030E+03 -0.57745608399E+03  0.71650775143E+03  0.00000000000E+00 0.  1.
         -4    1    6    6    0  503  0.67095863050E+01  0.11707254526E+02 -0.16343329708E+02  0.21193932690E+02  0.00000000000E+00 0. -1.
<mgrwt>
<rscale>  0 0.13523196E+04</rscale>
<asrwt>0</asrwt>
<pdfrwt beam="1">  1        1 0.22496976E+00 0.13523196E+04</pdfrwt>
<pdfrwt beam="2">  1       -2 0.48100305E-01 0.13523196E+04</pdfrwt>
<totfact> 0.24430751E+01</totfact>
</mgrwt>
</event>
<event>
12    4  0.4424320E-008  0.1497734E+04  0.7818608E-02  0.8885961E-01
         -2   -1    0    0    0  501 -0.00000000000E+00  0.00000000000E+00  0.57585337587E+03  0.57585337587E+03  0.00000000000E+00 0.  1.
          1   -1    0    0  501    0  0.00000000000E+00 -0.00000000000E+00 -0.97386252438E+03  0.97386252438E+03  0.00000000000E+00 0. -1.
        -24    2    1    2    0    0  0.28791305480E+03  0.17669016389E+03 -0.47601912681E+03  0.58912742445E+03  0.79772000164E+02 0.  0.
        254    2    1    2    0    0 -0.28791305480E+03 -0.17669016389E+03  0.78009978297E+02  0.96058847581E+03  0.89584112542E+03 0.  0.
         23    2    4    4    0    0 -0.47736188827E+03 -0.87676684418E+01 -0.24157782620E+03  0.54287279485E+03  0.91650318555E+02 0.  0.
         23    2    4    4    0    0  0.18944883347E+03 -0.16792249545E+03  0.31958780450E+03  0.41771568096E+03  0.90891145647E+02 0.  0.
          3    1    3    3  502    0  0.25231439606E+03  0.12009707396E+03 -0.39925240575E+03  0.48732775945E+03  0.00000000000E+00 0. -1.
         -4    1    3    3    0  502  0.35598658749E+02  0.56593089932E+02 -0.76766721054E+02  0.10179966500E+03  0.00000000000E+00 0.  1.
         11    1    5    5    0    0 -0.38751536298E+03  0.19948262573E+01 -0.23253231847E+03  0.45193297624E+03  0.00000000000E+00 0. -1.
        -11    1    5    5    0    0 -0.89846525292E+02 -0.10762494699E+02 -0.90455077308E+01  0.90939818613E+02  0.00000000000E+00 0.  1.
          4    1    6    6  503    0  0.51949913673E+02 -0.67226466997E+02  0.17374040920E+03  0.19340093377E+03  0.00000000000E+00 0. -1.
         -4    1    6    6    0  503  0.13749891980E+03 -0.10069602845E+03  0.14584739530E+03  0.22431474719E+03  0.00000000000E+00 0.  1.
<mgrwt>
<rscale>  0 0.14977343E+04</rscale>
<asrwt>0</asrwt>
<pdfrwt beam="1">  1        1 0.14982500E+00 0.14977343E+04</pdfrwt>
<pdfrwt beam="2">  1       -2 0.88592827E-01 0.14977343E+04</pdfrwt>
<totfact> 0.14747029E+01</totfact>
</mgrwt>
</event>
<event>
12    4  0.4424320E-008  0.1630522E+04  0.7818608E-02  0.8802014E-01
         -4   -1    0    0    0  501 -0.00000000000E+00  0.00000000000E+00  0.50204709166E+03  0.50204709166E+03  0.00000000000E+00 0.  1.
          3   -1    0    0  501    0  0.00000000000E+00 -0.00000000000E+00 -0.13238806810E+04  0.13238806810E+04  0.00000000000E+00 0. -1.
        -24    2    1    2    0    0  0.46746134579E+03 -0.22344042109E+03 -0.45060575470E+03  0.69141316770E+03  0.80999325419E+02 0.  0.
        254    2    1    2    0    0 -0.46746134579E+03  0.22344042109E+03 -0.37122783467E+03  0.11345146050E+04  0.93854544488E+03 0.  0.
         23    2    4    4    0    0 -0.33068634570E+02 -0.30064812627E+03 -0.31376665969E+03  0.44547582224E+03  0.92284132135E+02 0.  0.
         23    2    4    4    0    0 -0.43439271122E+03  0.52408854736E+03 -0.57461174983E+02  0.68903878275E+03  0.90037905705E+02 0.  0.
          3    1    3    3  502    0  0.37380717143E+03 -0.18594439657E+03 -0.31810278626E+03  0.52487760731E+03  0.00000000000E+00 0. -1.
         -4    1    3    3    0  502  0.93654174358E+02 -0.37496024517E+02 -0.13250296844E+03  0.16653556039E+03  0.00000000000E+00 0.  1.
         11    1    5    5    0    0  0.10230281931E+02 -0.52759263550E+02 -0.10717163430E+03  0.11989144155E+03  0.00000000000E+00 0.  1.
        -11    1    5    5    0    0 -0.43298916501E+02 -0.24788886272E+03 -0.20659502539E+03  0.32558438068E+03  0.00000000000E+00 0. -1.
          2    1    6    6  503    0 -0.21850906729E+03  0.28518398636E+03 -0.73223722763E+02  0.36665764978E+03  0.00000000000E+00 0. -1.
         -2    1    6    6    0  503 -0.21588364393E+03  0.23890456100E+03  0.15762547779E+02  0.32238113297E+03  0.00000000000E+00 0.  1.
<mgrwt>
<rscale>  0 0.16305219E+04</rscale>
<asrwt>0</asrwt>
<pdfrwt beam="1">  1        3 0.20367395E+00 0.16305219E+04</pdfrwt>
<pdfrwt beam="2">  1       -4 0.77238014E-01 0.16305219E+04</pdfrwt>
<totfact> 0.46028117E-01</totfact>
</mgrwt>
</event>
<event>
12    4  0.4424320E-008  0.1916107E+04  0.7818608E-02  0.8646880E-01
          1   -1    0    0  501    0  0.00000000000E+00  0.00000000000E+00  0.53208345351E+03  0.53208345351E+03  0.00000000000E+00 0. -1.
         -2   -1    0    0    0  501 -0.00000000000E+00 -0.00000000000E+00 -0.17250417290E+04  0.17250417290E+04  0.00000000000E+00 0.  1.
        -24    2    1    2    0    0  0.30400479141E+03 -0.57646538517E+03 -0.88949369308E+03  0.11055962398E+04  0.80079722449E+02 0.  0.
        254    2    1    2    0    0 -0.30400479141E+03  0.57646538517E+03 -0.30346458245E+03  0.11515289427E+04  0.89955372249E+03 0.  0.
         23    2    4    4    0    0 -0.47581556256E+03  0.70155284924E+03 -0.12889955027E+03  0.86201761705E+03  0.88783040028E+02 0.  0.
         23    2    4    4    0    0  0.17181077115E+03 -0.12508746406E+03 -0.17456503218E+03  0.28951132569E+03  0.90432530070E+02 0.  0.
          3    1    3    3  502    0  0.15866863632E+03 -0.36733141106E+03 -0.50305808340E+03  0.64278731862E+03  0.00000000000E+00 0. -1.
         -4    1    3    3    0  502  0.14533615509E+03 -0.20913397411E+03 -0.38643560968E+03  0.46280892119E+03  0.00000000000E+00 0.  1.
         11    1    5    5    0    0 -0.28976543807E+02  0.47098706208E+02 -0.31404466031E+02  0.63593778816E+02  0.00000000000E+00 0. -1.
        -11    1    5    5    0    0 -0.44683901875E+03  0.65445414303E+03 -0.97495084244E+02  0.79842383823E+03  0.00000000000E+00 0.  1.
          4    1    6    6  503    0  0.94907260579E+01 -0.33076405305E+02 -0.61238574484E+00  0.34416529245E+02  0.00000000000E+00 0. -1.
         -4    1    6    6    0  503  0.16232004509E+03 -0.92011058759E+02 -0.17395264643E+03  0.25509479644E+03  0.00000000000E+00 0.  1.
<mgrwt>
<rscale>  0 0.19161066E+04</rscale>
<asrwt>0</asrwt>
<pdfrwt beam="1">  1        1 0.81858993E-01 0.19161066E+04</pdfrwt>
<pdfrwt beam="2">  1       -2 0.26539103E+00 0.19161066E+04</pdfrwt>
<totfact> 0.17194655E+00</totfact>
</mgrwt>
</event>
<event>
12    4  0.4424320E-008  0.1065485E+04  0.7818608E-02  0.9239501E-01
         -2   -1    0    0    0  501 -0.00000000000E+00  0.00000000000E+00  0.20037222223E+03  0.20037222223E+03  0.00000000000E+00 0.  1.
          1   -1    0    0  501    0  0.00000000000E+00 -0.00000000000E+00 -0.14164368803E+04  0.14164368803E+04  0.00000000000E+00 0. -1.
        -24    2    1    2    0    0 -0.86648626475E+02  0.87759071332E+02 -0.91790853570E+02  0.17590398392E+03  0.85481060406E+02 0.  0.
        254    2    1    2    0    0  0.86648626475E+02 -0.87759071332E+02 -0.11242738045E+04  0.14409051186E+04  0.89275211245E+03 0.  0.
         23    2    4    4    0    0 -0.34493855430E+03 -0.74272429562E+02 -0.84197442088E+03  0.91705382580E+03  0.86993068472E+02 0.  0.
         23    2    4    4    0    0  0.43158718078E+03 -0.13486641771E+02 -0.28229938363E+03  0.52385129282E+03  0.90982695462E+02 0.  0.
          1    1    3    3  502    0 -0.99879377242E+02  0.91489107656E+02 -0.88408917990E+02  0.16174759225E+03  0.00000000000E+00 0. -1.
         -2    1    3    3    0  502  0.13230750767E+02 -0.37300363239E+01 -0.33819355792E+01  0.14156391670E+02  0.00000000000E+00 0.  1.
         11    1    5    5    0    0 -0.33801534719E+03 -0.73314707991E+02 -0.76257082137E+03  0.83734322649E+03  0.00000000000E+00 0. -1.
        -11    1    5    5    0    0 -0.69232071128E+01 -0.95772157069E+00 -0.79403599510E+02  0.79710599311E+02  0.00000000000E+00 0.  1.
          2    1    6    6  503    0  0.42924079078E+03 -0.19400304400E+02 -0.28630978942E+03  0.51633063418E+03  0.00000000000E+00 0. -1.
         -2    1    6    6    0  503  0.23463899989E+01  0.59136626291E+01  0.40104057900E+01  0.75206586359E+01  0.00000000000E+00 0.  1.
<mgrwt>
<rscale>  0 0.10654851E+04</rscale>
<asrwt>0</asrwt>
<pdfrwt beam="1">  1        1 0.21791336E+00 0.10654851E+04</pdfrwt>
<pdfrwt beam="2">  1       -2 0.30826497E-01 0.10654851E+04</pdfrwt>
<totfact> 0.63867210E+01</totfact>
</mgrwt>
</event>
<event>
12    4  0.4424320E-008  0.1548703E+04  0.7818608E-02  0.8852697E-01
          1   -1    0    0  501    0  0.00000000000E+00  0.00000000000E+00  0.35010647838E+03  0.35010647838E+03  0.00000000000E+00 0. -1.
         -2   -1    0    0    0  501 -0.00000000000E+00 -0.00000000000E+00 -0.17126798826E+04  0.17126798826E+04  0.00000000000E+00 0.  1.
        -24    2    1    2    0    0  0.47688464407E+03 -0.11204828346E+03 -0.27744660046E+03  0.56864715139E+03  0.80057386277E+02 0.  0.
        254    2    1    2    0    0 -0.47688464407E+03  0.11204828346E+03 -0.10851268038E+04  0.14941392096E+04  0.90276132828E+03 0.  0.
         23    2    4    4    0    0 -0.57967244908E+03 -0.22741521211E+02 -0.11495286266E+04  0.12910543030E+04  0.94169129161E+02 0.  0.
         23    2    4    4    0    0  0.10278780501E+03  0.13478980468E+03  0.64401822761E+02  0.20308490667E+03  0.91445394855E+02 0.  0.
          3    1    3    3  502    0  0.21180578723E+03 -0.52960114280E+02 -0.16948579689E+03  0.27639084745E+03  0.00000000000E+00 0. -1.
         -4    1    3    3    0  502  0.26507885685E+03 -0.59088169184E+02 -0.10796080357E+03  0.29225630394E+03  0.00000000000E+00 0.  1.
         11    1    5    5    0    0 -0.16784645089E+03  0.30969816764E+02 -0.38106883025E+03  0.41754642139E+03  0.00000000000E+00 0.  1.
        -11    1    5    5    0    0 -0.41182599819E+03 -0.53711337975E+02 -0.76845979631E+03  0.87350788157E+03  0.00000000000E+00 0. -1.
          3    1    6    6  503    0  0.11352809185E+03  0.13819569235E+03  0.67874366998E+02  0.19129455486E+03  0.00000000000E+00 0. -1.
         -3    1    6    6    0  503 -0.10740286846E+02 -0.34058876730E+01 -0.34725442372E+01  0.11790351812E+02  0.00000000000E+00 0.  1.
<mgrwt>
<rscale>  0 0.15487031E+04</rscale>
<asrwt>0</asrwt>
<pdfrwt beam="1">  1        1 0.53862535E-01 0.15487031E+04</pdfrwt>
<pdfrwt beam="2">  1       -2 0.26348921E+00 0.15487031E+04</pdfrwt>
<totfact> 0.32053020E+00</totfact>
</mgrwt>
</event>
<event>
12    4  0.4424320E-008  0.1440188E+04  0.7818608E-02  0.8925231E-01
         -2   -1    0    0    0  501 -0.00000000000E+00  0.00000000000E+00  0.92894369964E+03  0.92894369964E+03  0.00000000000E+00 0.  1.
          1   -1    0    0  501    0  0.00000000000E+00 -0.00000000000E+00 -0.55819898628E+03  0.55819898628E+03  0.00000000000E+00 0. -1.
        -24    2    1    2    0    0 -0.60266323993E+02 -0.35181308261E+03 -0.13768490595E+03  0.39579549898E+03  0.10145180521E+03 0.  0.
        254    2    1    2    0    0  0.60266323993E+02  0.35181308261E+03  0.50842961931E+03  0.10913471869E+04  0.89729233238E+03 0.  0.
         23    2    4    4    0    0  0.27568748470E+02  0.60544122704E+03  0.13464849258E+03  0.62821687265E+03  0.95953672359E+02 0.  0.
         23    2    4    4    0    0  0.32697575524E+02 -0.25362814443E+03  0.37378112673E+03  0.46313031429E+03  0.96855512086E+02 0.  0.
          3    1    3    3  502    0 -0.65578734658E+02 -0.35726753016E+03 -0.13281010006E+03  0.38675467835E+03  0.00000000000E+00 0. -1.
         -4    1    3    3    0  502  0.53124106650E+01  0.54544475503E+01 -0.48748058929E+01  0.90408206291E+01  0.00000000000E+00 0.  1.
         11    1    5    5    0    0  0.27090002357E+02  0.60906687032E+03  0.13226384978E+03  0.62385098117E+03  0.00000000000E+00 0. -1.
        -11    1    5    5    0    0  0.47874611250E+00 -0.36256432868E+01  0.23846428015E+01  0.43658914753E+01  0.00000000000E+00 0.  1.
          1    1    6    6  503    0  0.40345695878E+02 -0.19325411264E+03  0.34095160451E+03  0.39398340555E+03  0.00000000000E+00 0. -1.
         -1    1    6    6    0  503 -0.76481203546E+01 -0.60374031789E+02  0.32829522223E+02  0.69146908744E+02  0.00000000000E+00 0.  1.
<mgrwt>
<rscale>  0 0.14401881E+04</rscale>
<asrwt>0</asrwt>
<pdfrwt beam="1">  1        1 0.85876767E-01 0.14401881E+04</pdfrwt>
<pdfrwt beam="2">  1       -2 0.14291442E+00 0.14401881E+04</pdfrwt>
<totfact> 0.10986985E+01</totfact>
</mgrwt>
</event>
<event>
12    4  0.4424320E-008  0.1391829E+04  0.7818608E-02  0.8959755E-01
          1   -1    0    0  501    0  0.00000000000E+00  0.00000000000E+00  0.10747047278E+04  0.10747047278E+04  0.00000000000E+00 0. -1.
         -2   -1    0    0    0  501 -0.00000000000E+00 -0.00000000000E+00 -0.45063247164E+03  0.45063247164E+03  0.00000000000E+00 0.  1.
        -24    2    1    2    0    0  0.93820095860E+02  0.16437798225E+02  0.56661416520E+03  0.58014616366E+03  0.80284166542E+02 0.  0.
        254    2    1    2    0    0 -0.93820095860E+02 -0.16437798225E+02  0.57458090945E+02  0.94519103577E+03  0.93862252811E+03 0.  0.
         23    2    4    4    0    0  0.79623303470E+02  0.42034488476E+03  0.14197398366E+03  0.46026015510E+03  0.93022071223E+02 0.  0.
         23    2    4    4    0    0 -0.17344339933E+03 -0.43678268298E+03 -0.84515892718E+02  0.48493088067E+03  0.84577171761E+02 0.  0.
          3    1    3    3  502    0  0.53256412690E+02  0.11128389602E+01  0.48326785461E+03  0.48619471737E+03  0.00000000000E+00 0. -1.
         -4    1    3    3    0  502  0.40563683171E+02  0.15324959265E+02  0.83346310594E+02  0.93951446282E+02  0.00000000000E+00 0.  1.
         11    1    5    5    0    0  0.53032333065E+02  0.18592198975E+03  0.10926558600E+03  0.22207742548E+03  0.00000000000E+00 0.  1.
        -11    1    5    5    0    0  0.26590970405E+02  0.23442289500E+03  0.32708397662E+02  0.23818272961E+03  0.00000000000E+00 0. -1.
          3    1    6    6  503    0 -0.55245645247E+02 -0.60117514356E+02 -0.26956652721E+02  0.85981730485E+02  0.00000000000E+00 0. -1.
         -3    1    6    6    0  503 -0.11819775408E+03 -0.37666516863E+03 -0.57559239997E+02  0.39894915019E+03  0.00000000000E+00 0.  1.
<mgrwt>
<rscale>  0 0.13918288E+04</rscale>
<asrwt>0</asrwt>
<pdfrwt beam="1">  1        1 0.16533919E+00 0.13918288E+04</pdfrwt>
<pdfrwt beam="2">  1       -2 0.69328073E-01 0.13918288E+04</pdfrwt>
<totfact> 0.21522080E+01</totfact>
</mgrwt>
</event>
<event>
12    4  0.4424320E-008  0.2592147E+04  0.7818608E-02  0.8370874E-01
         -2   -1    0    0    0  501 -0.00000000000E+00  0.00000000000E+00  0.36442411081E+03  0.36442411081E+03  0.00000000000E+00 0.  1.
          1   -1    0    0  501    0  0.00000000000E+00 -0.00000000000E+00 -0.46094821724E+04  0.46094821724E+04  0.00000000000E+00 0. -1.
        -24    2    1    2    0    0  0.96545874606E+03  0.51395983360E+03 -0.12610218741E+04  0.16712160780E+04  0.80757113557E+02 0.  0.
        254    2    1    2    0    0 -0.96545874606E+03 -0.51395983360E+03 -0.29840361874E+04  0.33026902052E+04  0.89834588144E+03 0.  0.
         23    2    4    4    0    0  0.12809651564E+03 -0.10046556695E+03 -0.82300214851E+03  0.84396678746E+03  0.91898609497E+02 0.  0.
         23    2    4    4    0    0 -0.10935552617E+04 -0.41349426665E+03 -0.21610340389E+04  0.24587234177E+04  0.91717547930E+02 0.  0.
          1    1    3    3  502    0  0.85531056499E+03  0.45005347178E+03 -0.11506479328E+04  0.15026958958E+04  0.00000000000E+00 0. -1.
         -2    1    3    3    0  502  0.11014818107E+03  0.63906361824E+02 -0.11037394133E+03  0.16852018217E+03  0.00000000000E+00 0.  1.
         11    1    5    5    0    0  0.34266420368E+02 -0.31808071544E+02 -0.46979394696E+03  0.47211470384E+03  0.00000000000E+00 0.  1.
        -11    1    5    5    0    0  0.93830095269E+02 -0.68657495404E+02 -0.35320820154E+03  0.37185208362E+03  0.00000000000E+00 0. -1.
          3    1    6    6  503    0 -0.26188852629E+03 -0.96309829894E+02 -0.60110212290E+03  0.66271030299E+03  0.00000000000E+00 0. -1.
         -3    1    6    6    0  503 -0.83166673541E+03 -0.31718443676E+03 -0.15599319160E+04  0.17960131148E+04  0.00000000000E+00 0.  1.
<mgrwt>
<rscale>  0 0.25921469E+04</rscale>
<asrwt>0</asrwt>
<pdfrwt beam="1">  1        1 0.70915115E+00 0.25921469E+04</pdfrwt>
<pdfrwt beam="2">  1       -2 0.56065244E-01 0.25921469E+04</pdfrwt>
<totfact> 0.57497593E-02</totfact>
</mgrwt>
</event>
<event>
12    4  0.4424320E-008  0.2780340E+04  0.7818608E-02  0.8309398E-01
          1   -1    0    0  501    0  0.00000000000E+00  0.00000000000E+00  0.14360057077E+04  0.14360057077E+04  0.00000000000E+00 0. -1.
         -2   -1    0    0    0  501 -0.00000000000E+00 -0.00000000000E+00 -0.13457972620E+04  0.13457972620E+04  0.00000000000E+00 0.  1.
        -24    2    1    2    0    0  0.79156781388E+03 -0.14663164362E+03  0.98580011348E+03  0.12752671466E+04  0.80149787949E+02 0.  0.
        254    2    1    2    0    0 -0.79156781388E+03  0.14663164362E+03 -0.89559166777E+03  0.15065358231E+04  0.90525427812E+03 0.  0.
         23    2    4    4    0    0 -0.12020316984E+03  0.43370194738E+03 -0.22702036320E+03  0.51241436105E+03  0.92108907834E+02 0.  0.
         23    2    4    4    0    0 -0.67136464404E+03 -0.28707030375E+03 -0.66857130457E+03  0.99412146206E+03  0.90277613404E+02 0.  0.
          3    1    3    3  502    0  0.61111401899E+03 -0.12914941104E+03  0.71527792781E+03  0.94961172518E+03  0.00000000000E+00 0. -1.
         -4    1    3    3    0  502  0.18045379489E+03 -0.17482232584E+02  0.27052218567E+03  0.32565542140E+03  0.00000000000E+00 0.  1.
         11    1    5    5    0    0 -0.26421600225E+02  0.24440385522E+03 -0.96492343136E+02  0.26408732967E+03  0.00000000000E+00 0.  1.
        -11    1    5    5    0    0 -0.93781569618E+02  0.18929809215E+03 -0.13052802007E+03  0.24832703138E+03  0.00000000000E+00 0. -1.
          1    1    6    6  503    0 -0.14270523896E+03 -0.23265108822E+02 -0.14308949343E+03  0.20342235287E+03  0.00000000000E+00 0. -1.
         -1    1    6    6    0  503 -0.52865940509E+03 -0.26380519493E+03 -0.52548181113E+03  0.79069910920E+03  0.00000000000E+00 0.  1.
<mgrwt>
<rscale>  0 0.27803399E+04</rscale>
<asrwt>0</asrwt>
<pdfrwt beam="1">  1        1 0.22092396E+00 0.27803399E+04</pdfrwt>
<pdfrwt beam="2">  1       -2 0.20704573E+00 0.27803399E+04</pdfrwt>
<totfact> 0.66043866E-01</totfact>
</mgrwt>
</event>
<event>
12    4  0.4424320E-008  0.1671676E+04  0.7818608E-02  0.8777686E-01
         -2   -1    0    0    0  501 -0.00000000000E+00  0.00000000000E+00  0.69632966731E+03  0.69632966731E+03  0.00000000000E+00 0.  1.
          1   -1    0    0  501    0  0.00000000000E+00 -0.00000000000E+00 -0.10032964847E+04  0.10032964847E+04  0.00000000000E+00 0. -1.
        -24    2    1    2    0    0  0.53446561890E+03  0.25740540520E+03 -0.16307739693E+03  0.62058563400E+03  0.81371071818E+02 0.  0.
        254    2    1    2    0    0 -0.53446561890E+03 -0.25740540520E+03 -0.14388942043E+03  0.10790405180E+04  0.88978268905E+03 0.  0.
         23    2    4    4    0    0 -0.61040701782E+03 -0.43676710696E+03  0.89816201378E+02  0.76202697373E+03  0.96207720813E+02 0.  0.
         23    2    4    4    0    0  0.75941398924E+02  0.17936170176E+03 -0.23370562180E+03  0.31701354425E+03  0.89115393988E+02 0.  0.
          1    1    3    3  502    0  0.43391852963E+03  0.18705263620E+03 -0.10154437853E+03  0.48330656925E+03  0.00000000000E+00 0. -1.
         -2    1    3    3    0  502  0.10054708927E+03  0.70352768997E+02 -0.61533018405E+02  0.13727906475E+03  0.00000000000E+00 0.  1.
         11    1    5    5    0    0 -0.29588933939E+03 -0.21180363089E+03  0.91985012169E+02  0.37532988381E+03  0.00000000000E+00 0.  1.
        -11    1    5    5    0    0 -0.31451767843E+03 -0.22496347607E+03 -0.21688107907E+01  0.38669708992E+03  0.00000000000E+00 0. -1.
          1    1    6    6  503    0  0.49662453361E+02  0.15540360042E+03 -0.13388992949E+03  0.21105248521E+03  0.00000000000E+00 0. -1.
         -1    1    6    6    0  503  0.26278945563E+02  0.23958101347E+02 -0.99815692314E+02  0.10596105904E+03  0.00000000000E+00 0.  1.
<mgrwt>
<rscale>  0 0.16716759E+04</rscale>
<asrwt>0</asrwt>
<pdfrwt beam="1">  1        1 0.15435330E+00 0.16716759E+04</pdfrwt>
<pdfrwt beam="2">  1       -2 0.10712764E+00 0.16716759E+04</pdfrwt>
<totfact> 0.88097726E+00</totfact>
</mgrwt>
</event>
<event>
12    4  0.4424320E-008  0.2094534E+04  0.7818608E-02  0.8563655E-01
         -2   -1    0    0    0  501 -0.00000000000E+00  0.00000000000E+00  0.60069995424E+03  0.60069995424E+03  0.00000000000E+00 0.  1.
          1   -1    0    0  501    0  0.00000000000E+00 -0.00000000000E+00 -0.18258172565E+04  0.18258172565E+04  0.00000000000E+00 0. -1.
        -24    2    1    2    0    0  0.18429575879E+03 -0.70122498458E+02 -0.14653366828E+04  0.14806850805E+04  0.79590338680E+02 0.  0.
        254    2    1    2    0    0 -0.18429575879E+03  0.70122498458E+02  0.24021938060E+03  0.94583213023E+03  0.89331460094E+03 0.  0.
         23    2    4    4    0    0 -0.39537081833E+03 -0.24348478529E+03  0.28803681092E+03  0.55401945015E+03  0.91484545447E+02 0.  0.
         23    2    4    4    0    0  0.21107505953E+03  0.31360728375E+03 -0.47817430314E+02  0.39181268007E+03  0.91260399127E+02 0.  0.
          1    1    3    3  502    0  0.19052391871E+03 -0.69579535527E+02 -0.13472311610E+04  0.13624142089E+04  0.00000000000E+00 0. -1.
         -2    1    3    3    0  502 -0.62281599145E+01 -0.54296293106E+00 -0.11810552179E+03  0.11827087157E+03  0.00000000000E+00 0.  1.
         11    1    5    5    0    0 -0.20263868479E+03 -0.88512287126E+02  0.17550972874E+03  0.28231281662E+03  0.00000000000E+00 0. -1.
        -11    1    5    5    0    0 -0.19273213354E+03 -0.15497249816E+03  0.11252708218E+03  0.27170663354E+03  0.00000000000E+00 0.  1.
          4    1    6    6  503    0  0.20281624553E+03  0.26699617182E+03 -0.64845625408E+02  0.34150598875E+03  0.00000000000E+00 0. -1.
         -4    1    6    6    0  503  0.82588140036E+01  0.46611111930E+02  0.17028195094E+02  0.50306691326E+02  0.00000000000E+00 0.  1.
<mgrwt>
<rscale>  0 0.20945342E+04</rscale>
<asrwt>0</asrwt>
<pdfrwt beam="1">  1        1 0.28089496E+00 0.20945342E+04</pdfrwt>
<pdfrwt beam="2">  1       -2 0.92415380E-01 0.20945342E+04</pdfrwt>
<totfact> 0.31421605E+00</totfact>
</mgrwt>
</event>
<event>
12    4  0.4424320E-008  0.1746993E+04  0.7818608E-02  0.8735007E-01
          1   -1    0    0  501    0  0.00000000000E+00  0.00000000000E+00  0.21276567370E+04  0.21276567370E+04  0.00000000000E+00 0. -1.
         -2   -1    0    0    0  501 -0.00000000000E+00 -0.00000000000E+00 -0.35860866671E+03  0.35860866671E+03  0.00000000000E+00 0.  1.
        -24    2    1    2    0    0  0.60644200220E+03  0.60844110294E+02  0.92464334889E+03  0.11102827656E+04  0.79300624901E+02 0.  0.
        254    2    1    2    0    0 -0.60644200220E+03 -0.60844110294E+02  0.84440472141E+03  0.13759826381E+04  0.89935253330E+03 0.  0.
         23    2    4    4    0    0  0.20448568275E+03  0.11391041897E+03  0.22219429676E+03  0.33503540127E+03  0.89935735887E+02 0.  0.
         23    2    4    4    0    0 -0.81092768495E+03 -0.17475452926E+03  0.62221042466E+03  0.10409472369E+04  0.91008140894E+02 0.  0.
          1    1    3    3  502    0  0.55016075422E+03  0.78168420364E+02  0.84016986160E+03  0.10073095620E+04  0.00000000000E+00 0. -1.
         -2    1    3    3    0  502  0.56281247983E+02 -0.17324310070E+02  0.84473487289E+02  0.10297320355E+03  0.00000000000E+00 0.  1.
         11    1    5    5    0    0 -0.88586849960E+01 -0.90472657735E-01  0.75060211757E+01  0.11611409865E+02  0.00000000000E+00 0. -1.
        -11    1    5    5    0    0  0.21334436775E+03  0.11400089163E+03  0.21468827558E+03  0.32342399140E+03  0.00000000000E+00 0.  1.
          3    1    6    6  503    0 -0.27613529407E+03 -0.67551345577E+02  0.16130186704E+03  0.32685191942E+03  0.00000000000E+00 0. -1.
         -3    1    6    6    0  503 -0.53479239088E+03 -0.10720318369E+03  0.46090855761E+03  0.71409531746E+03  0.00000000000E+00 0.  1.
<mgrwt>
<rscale>  0 0.17469930E+04</rscale>
<asrwt>0</asrwt>
<pdfrwt beam="1">  1        1 0.32733180E+00 0.17469930E+04</pdfrwt>
<pdfrwt beam="2">  1       -2 0.55170565E-01 0.17469930E+04</pdfrwt>
<totfact> 0.62767197E+00</totfact>
</mgrwt>
</event>
<event>
12    4  0.4424320E-008  0.1460938E+04  0.7818608E-02  0.8910852E-01
          1   -1    0    0  501    0  0.00000000000E+00  0.00000000000E+00  0.11923476546E+04  0.11923476546E+04  0.00000000000E+00 0. -1.
         -2   -1    0    0    0  501 -0.00000000000E+00 -0.00000000000E+00 -0.44750785286E+03  0.44750785286E+03  0.00000000000E+00 0.  1.
        -24    2    1    2    0    0 -0.21155889138E+03 -0.17725162326E+03  0.63333806161E+03  0.69545305890E+03  0.79765621493E+02 0.  0.
        254    2    1    2    0    0  0.21155889138E+03  0.17725162326E+03  0.11150174016E+03  0.94440244859E+03  0.89626337891E+03 0.  0.
         23    2    4    4    0    0  0.42136604479E+03 -0.21176627000E+03  0.11542012838E+03  0.49253976731E+03  0.82941663385E+02 0.  0.
         23    2    4    4    0    0 -0.20980715341E+03  0.38901789326E+03 -0.39183882290E+01  0.45186268128E+03  0.93864615634E+02 0.  0.
          3    1    3    3  502    0 -0.16133724644E+03 -0.13379304987E+03  0.38463160702E+03  0.43803168881E+03  0.00000000000E+00 0. -1.
         -2    1    3    3    0  502 -0.50221644940E+02 -0.43458573383E+02  0.24870645459E+03  0.25742137008E+03  0.00000000000E+00 0.  1.
         11    1    5    5    0    0  0.33172584221E+03 -0.12626955405E+03  0.84576082431E+02  0.36488237610E+03  0.00000000000E+00 0. -1.
        -11    1    5    5    0    0  0.89640202587E+02 -0.85496715959E+02  0.30844045954E+02  0.12765739121E+03  0.00000000000E+00 0.  1.
          1    1    6    6  503    0 -0.13855609281E+03  0.16124869155E+03 -0.13385992337E+02  0.21302139839E+03  0.00000000000E+00 0. -1.
         -1    1    6    6    0  503 -0.71251060603E+02  0.22776920172E+03  0.94676041080E+01  0.23884128289E+03  0.00000000000E+00 0.  1.
<mgrwt>
<rscale>  0 0.14609380E+04</rscale>
<asrwt>0</asrwt>
<pdfrwt beam="1">  1        1 0.18343810E+00 0.14609380E+04</pdfrwt>
<pdfrwt beam="2">  1       -2 0.68847362E-01 0.14609380E+04</pdfrwt>
<totfact> 0.17757384E+01</totfact>
</mgrwt>
</event>
<event>
12    4  0.4424320E-008  0.1915237E+04  0.7818608E-02  0.8647309E-01
          1   -1    0    0  501    0  0.00000000000E+00  0.00000000000E+00  0.34044112561E+04  0.34044112561E+04  0.00000000000E+00 0. -1.
         -2   -1    0    0    0  501 -0.00000000000E+00 -0.00000000000E+00 -0.26936614248E+03  0.26936614248E+03  0.00000000000E+00 0.  1.
        -24    2    1    2    0    0 -0.66417056454E+03 -0.27779532014E+03  0.87543241547E+03  0.11362143814E+04  0.79425610913E+02 0.  0.
        254    2    1    2    0    0  0.66417056454E+03  0.27779532014E+03  0.22596126982E+04  0.25375630173E+04  0.90281988348E+03 0.  0.
         23    2    4    4    0    0  0.11359513632E+03  0.41159592342E+03  0.16217938538E+04  0.16795442125E+04  0.91314830177E+02 0.  0.
         23    2    4    4    0    0  0.55057542822E+03 -0.13380060328E+03  0.63781884437E+03  0.85801880478E+03  0.91364585634E+02 0.  0.
          1    1    3    3  502    0 -0.12058526273E+03 -0.71572206356E+02  0.21080579530E+03  0.25318465523E+03  0.00000000000E+00 0. -1.
         -2    1    3    3    0  502 -0.54358530181E+03 -0.20622311378E+03  0.66462662017E+03  0.88302972614E+03  0.00000000000E+00 0.  1.
         11    1    5    5    0    0  0.11717448535E+02  0.49227224046E+01  0.19233582290E+02  0.23053470102E+02  0.00000000000E+00 0. -1.
        -11    1    5    5    0    0  0.10187768778E+03  0.40667320102E+03  0.16025602715E+04  0.16564907424E+04  0.00000000000E+00 0.  1.
          3    1    6    6  503    0  0.30017625135E+03 -0.27468518247E+02  0.31830238990E+03  0.43837964459E+03  0.00000000000E+00 0. -1.
         -3    1    6    6    0  503  0.25039917687E+03 -0.10633208504E+03  0.31951645447E+03  0.41963916019E+03  0.00000000000E+00 0.  1.
<mgrwt>
<rscale>  0 0.19152369E+04</rscale>
<asrwt>0</asrwt>
<pdfrwt beam="1">  1        1 0.52375555E+00 0.19152369E+04</pdfrwt>
<pdfrwt beam="2">  1       -2 0.41440947E-01 0.19152369E+04</pdfrwt>
<totfact> 0.13504521E+00</totfact>
</mgrwt>
</event>
<event>
12    4  0.4424320E-008  0.2456306E+04  0.7818608E-02  0.8418719E-01
          1   -1    0    0  501    0  0.00000000000E+00  0.00000000000E+00  0.25008438782E+04  0.25008438782E+04  0.00000000000E+00 0. -1.
         -2   -1    0    0    0  501 -0.00000000000E+00 -0.00000000000E+00 -0.60314053986E+03  0.60314053986E+03  0.00000000000E+00 0.  1.
        -24    2    1    2    0    0  0.31334366517E+03 -0.78947425943E+03  0.36571672535E+02  0.85367513634E+03  0.77265078581E+02 0.  0.
        254    2    1    2    0    0 -0.31334366517E+03  0.78947425943E+03  0.18611316658E+04  0.22503092817E+04  0.93735101596E+03 0.  0.
         23    2    4    4    0    0 -0.19779895756E+03 -0.16301001004E+03  0.63426057814E+03  0.69009195972E+03  0.90795048864E+02 0.  0.
         23    2    4    4    0    0 -0.11554470761E+03  0.95248426947E+03  0.12268710877E+04  0.15602173220E+04  0.92133398292E+02 0.  0.
          3    1    3    3  502    0 -0.27644972760E+01 -0.16673592366E+02 -0.51871457138E+01  0.17679298862E+02  0.00000000000E+00 0. -1.
         -4    1    3    3    0  502  0.31610816245E+03 -0.77280066706E+03  0.41758818249E+02  0.83599583748E+03  0.00000000000E+00 0.  1.
         11    1    5    5    0    0 -0.16418716769E+03 -0.17130787467E+03  0.55108033652E+03  0.59999445936E+03  0.00000000000E+00 0.  1.
        -11    1    5    5    0    0 -0.33611789871E+02  0.82978646259E+01  0.83180241615E+02  0.90097500358E+02  0.00000000000E+00 0. -1.
          1    1    6    6  503    0 -0.87705430916E+02  0.36977324386E+03  0.46021261910E+03  0.59684181260E+03  0.00000000000E+00 0. -1.
         -1    1    6    6    0  503 -0.27839276691E+02  0.58271102561E+03  0.76665846860E+03  0.96337550943E+03  0.00000000000E+00 0.  1.
<mgrwt>
<rscale>  0 0.24563064E+04</rscale>
<asrwt>0</asrwt>
<pdfrwt beam="1">  1        1 0.38474521E+00 0.24563064E+04</pdfrwt>
<pdfrwt beam="2">  1       -2 0.92790853E-01 0.24563064E+04</pdfrwt>
<totfact> 0.10440542E+00</totfact>
</mgrwt>
</event>
<event>
12    4  0.4424320E-008  0.2850119E+04  0.7818608E-02  0.8287875E-01
          1   -1    0    0  501    0  0.00000000000E+00  0.00000000000E+00  0.59659653115E+03  0.59659653115E+03  0.00000000000E+00 0. -1.
         -2   -1    0    0    0  501 -0.00000000000E+00 -0.00000000000E+00 -0.34039654677E+04  0.34039654677E+04  0.00000000000E+00 0.  1.
        -24    2    1    2    0    0  0.64308735716E+03  0.61291119531E+03  0.28624776676E+02  0.89248374654E+03  0.80538051408E+02 0.  0.
        254    2    1    2    0    0 -0.64308735716E+03 -0.61291119531E+03 -0.28359937132E+04  0.31080782523E+04  0.90998274639E+03 0.  0.
         23    2    4    4    0    0 -0.67046284287E+03 -0.74848402534E+03 -0.27328629112E+04  0.29131129267E+04  0.89098105587E+02 0.  0.
         23    2    4    4    0    0  0.27375485715E+02  0.13557283002E+03 -0.10313080201E+03  0.19496532560E+03  0.90808074552E+02 0.  0.
          3    1    3    3  502    0  0.59219365411E+03  0.54174974889E+03  0.82487323120E+01  0.80265444369E+03  0.00000000000E+00 0. -1.
         -4    1    3    3    0  502  0.50893703053E+02  0.71161446425E+02  0.20376044364E+02  0.89829302857E+02  0.00000000000E+00 0.  1.
         11    1    5    5    0    0 -0.25463351586E+03 -0.25690846222E+03 -0.87379485222E+03  0.94570483193E+03  0.00000000000E+00 0. -1.
        -11    1    5    5    0    0 -0.41582932702E+03 -0.49157556312E+03 -0.18590680589E+04  0.19674080947E+04  0.00000000000E+00 0.  1.
          2    1    6    6  503    0  0.31092367639E+02  0.11132575075E+03 -0.32310782362E+02  0.12001726860E+03  0.00000000000E+00 0.  1.
         -2    1    6    6    0  503 -0.37168819248E+01  0.24247079273E+02 -0.70820019652E+02  0.74948057000E+02  0.00000000000E+00 0. -1.
<mgrwt>
<rscale>  0 0.28501186E+04</rscale>
<asrwt>0</asrwt>
<pdfrwt beam="1">  1        1 0.91784083E-01 0.28501186E+04</pdfrwt>
<pdfrwt beam="2">  1       -2 0.52368699E+00 0.28501186E+04</pdfrwt>
<totfact> 0.30861207E-02</totfact>
</mgrwt>
</event>
<event>
12    4  0.4424320E-008  0.1267609E+04  0.7818608E-02  0.9055654E-01
          1   -1    0    0  501    0  0.00000000000E+00  0.00000000000E+00  0.39476168475E+03  0.39476168475E+03  0.00000000000E+00 0. -1.
         -2   -1    0    0    0  501 -0.00000000000E+00 -0.00000000000E+00 -0.10175958051E+04  0.10175958051E+04  0.00000000000E+00 0.  1.
        -24    2    1    2    0    0 -0.24896194661E+03  0.12610605991E+03 -0.22422964878E+02  0.28989768916E+03  0.75187044240E+02 0.  0.
        254    2    1    2    0    0  0.24896194661E+03 -0.12610605991E+03 -0.60041115546E+03  0.11224598007E+04  0.90638714650E+03 0.  0.
         23    2    4    4    0    0 -0.34398188691E+02  0.28131262406E+03  0.45924952362E+02  0.30157124529E+03  0.92282646781E+02 0.  0.
         23    2    4    4    0    0  0.28336013530E+03 -0.40741868397E+03 -0.64633610782E+03  0.82088855539E+03  0.99119653822E+02 0.  0.
          1    1    3    3  502    0 -0.23170494922E+03  0.13128169657E+03 -0.34013051645E+02  0.26847524100E+03  0.00000000000E+00 0. -1.
         -2    1    3    3    0  502 -0.17256997387E+02 -0.51756366687E+01  0.11590086767E+02  0.21422448156E+02  0.00000000000E+00 0.  1.
         11    1    5    5    0    0  0.23997490622E+02  0.27915775610E+02 -0.31327973777E+01  0.36945696684E+02  0.00000000000E+00 0. -1.
        -11    1    5    5    0    0 -0.58395679312E+02  0.25339684845E+03  0.49057749739E+02  0.26462554861E+03  0.00000000000E+00 0.  1.
          3    1    6    6  503    0  0.50501428704E+02 -0.14451392099E+03 -0.16539755836E+03  0.22536863130E+03  0.00000000000E+00 0. -1.
         -3    1    6    6    0  503  0.23285870660E+03 -0.26290476298E+03 -0.48093854946E+03  0.59551992409E+03  0.00000000000E+00 0.  1.
<mgrwt>
<rscale>  0 0.12676085E+04</rscale>
<asrwt>0</asrwt>
<pdfrwt beam="1">  1        1 0.60732567E-01 0.12676085E+04</pdfrwt>
<pdfrwt beam="2">  1       -2 0.15655320E+00 0.12676085E+04</pdfrwt>
<totfact> 0.14025968E+01</totfact>
</mgrwt>
</event>
<event>
12    4  0.5649582E-008  0.1745733E+04  0.7818608E-02  0.8735703E-01
         -2   -1    0    0    0  501 -0.00000000000E+00  0.00000000000E+00  0.39570604368E+03  0.39570604368E+03  0.00000000000E+00 0.  1.
          1   -1    0    0  501    0  0.00000000000E+00 -0.00000000000E+00 -0.19254087609E+04  0.19254087609E+04  0.00000000000E+00 0. -1.
        -24    2    1    2    0    0  0.81303529757E+02  0.27327867388E+03 -0.13228013739E+04  0.13550396704E+04  0.70975602055E+02 0.  0.
        254    2    1    2    0    0 -0.81303529757E+02 -0.27327867388E+03 -0.20690134329E+03  0.96607513413E+03  0.89955628028E+03 0.  0.
         23    2    4    4    0    0 -0.39805372407E+03 -0.12355275391E+03 -0.37414373230E+03  0.56733785154E+03  0.90424859014E+02 0.  0.
         23    2    4    4    0    0  0.31675019431E+03 -0.14972591996E+03  0.16724238900E+03  0.39873728260E+03  0.90955303027E+02 0.  0.
          1    1    3    3  502    0  0.94276343066E+02  0.23631241478E+03 -0.11278348866E+04  0.11561760756E+04  0.00000000000E+00 0. -1.
         -2    1    3    3    0  502 -0.12972813309E+02  0.36966259091E+02 -0.19496648726E+03  0.19886359484E+03  0.00000000000E+00 0.  1.
         11    1    5    5    0    0 -0.37336560063E+03 -0.11782102155E+03 -0.37478534997E+03  0.54198498448E+03  0.00000000000E+00 0. -1.
        -11    1    5    5    0    0 -0.24688123440E+02 -0.57317323583E+01  0.64161767090E+00  0.25352867057E+02  0.00000000000E+00 0.  1.
          1    1    6    6  503    0  0.23129769800E+03 -0.14117314167E+03  0.15447189734E+03  0.31191352663E+03  0.00000000000E+00 0. -1.
         -1    1    6    6    0  503  0.85452496313E+02 -0.85527782964E+01  0.12770491661E+02  0.86823755966E+02  0.00000000000E+00 0.  1.
<mgrwt>
<rscale>  0 0.17457330E+04</rscale>
<asrwt>0</asrwt>
<pdfrwt beam="1">  1        1 0.29621674E+00 0.17457330E+04</pdfrwt>
<pdfrwt beam="2">  1       -2 0.60877852E-01 0.17457330E+04</pdfrwt>
<totfact> 0.69997287E+00</totfact>
</mgrwt>
</event>
<event>
12    4  0.4424320E-008  0.1759248E+04  0.7818608E-02  0.8728276E-01
          1   -1    0    0  501    0  0.00000000000E+00  0.00000000000E+00  0.11017950963E+04  0.11017950963E+04  0.00000000000E+00 0. -1.
         -2   -1    0    0    0  501 -0.00000000000E+00 -0.00000000000E+00 -0.70225275654E+03  0.70225275654E+03  0.00000000000E+00 0.  1.
        -24    2    1    2    0    0 -0.34921192085E+03 -0.11563471737E+02 -0.41125005121E+03  0.54184812765E+03  0.48888743860E+02 0.  0.
        254    2    1    2    0    0  0.34921192085E+03  0.11563471737E+02  0.81079239101E+03  0.12621997252E+04  0.90204277367E+03 0.  0.
         23    2    4    4    0    0  0.30606967588E+03 -0.86963710146E+02 -0.94761760662E+02  0.34571457360E+03  0.96423242729E+02 0.  0.
         23    2    4    4    0    0  0.43142244968E+02  0.98527181883E+02  0.90555415167E+03  0.91648515164E+03  0.91366584145E+02 0.  0.
          3    1    3    3  502    0 -0.48207077347E+01  0.61666997465E+01 -0.70799356707E+01  0.10554283392E+02  0.00000000000E+00 0. -1.
         -4    1    3    3    0  502 -0.34439121311E+03 -0.17730171483E+02 -0.40417011554E+03  0.53129384426E+03  0.00000000000E+00 0.  1.
         11    1    5    5    0    0  0.12907521774E+03  0.12058679591E+02 -0.34884818327E+02  0.13424892602E+03  0.00000000000E+00 0. -1.
        -11    1    5    5    0    0  0.17699445814E+03 -0.99022389737E+02 -0.59876942335E+02  0.21146564758E+03  0.00000000000E+00 0.  1.
          2    1    6    6  503    0  0.17011456624E+01  0.31840328046E+02  0.60517175683E+03  0.60601118443E+03  0.00000000000E+00 0. -1.
         -2    1    6    6    0  503  0.41441099306E+02  0.66686853837E+02  0.30038239483E+03  0.31047396721E+03  0.00000000000E+00 0.  1.
<mgrwt>
<rscale>  0 0.17592483E+04</rscale>
<asrwt>0</asrwt>
<pdfrwt beam="1">  1        1 0.16950694E+00 0.17592483E+04</pdfrwt>
<pdfrwt beam="2">  1       -2 0.10803889E+00 0.17592483E+04</pdfrwt>
<totfact> 0.72020881E+00</totfact>
</mgrwt>
</event>
<event>
12    4  0.4424320E-008  0.1897196E+04  0.7818608E-02  0.8656253E-01
         -2   -1    0    0    0  501 -0.00000000000E+00  0.00000000000E+00  0.55515901443E+03  0.55515901443E+03  0.00000000000E+00 0.  1.
          1   -1    0    0  501    0  0.00000000000E+00 -0.00000000000E+00 -0.16208661100E+04  0.16208661100E+04  0.00000000000E+00 0. -1.
        -24    2    1    2    0    0  0.27697962469E+03 -0.15419298404E+03  0.34403635177E+03  0.47463271132E+03  0.80137447553E+02 0.  0.
        254    2    1    2    0    0 -0.27697962469E+03  0.15419298404E+03 -0.14097434474E+04  0.17013924131E+04  0.89825740587E+03 0.  0.
         23    2    4    4    0    0 -0.34654547949E+03 -0.25229432037E+03 -0.10790613241E+04  0.11649070530E+04  0.94281003105E+02 0.  0.
         23    2    4    4    0    0  0.69565854802E+02  0.40648730441E+03 -0.33068212324E+03  0.53648536008E+03  0.91621712241E+02 0.  0.
          1    1    3    3  502    0  0.64123051125E+02 -0.38413632175E+02  0.36719950877E+02  0.83281015933E+02  0.00000000000E+00 0. -1.
         -2    1    3    3    0  502  0.21285657356E+03 -0.11577935186E+03  0.30731640090E+03  0.39135169539E+03  0.00000000000E+00 0.  1.
         11    1    5    5    0    0 -0.19039475151E+03 -0.18431745781E+03 -0.58227812810E+03  0.63974284296E+03  0.00000000000E+00 0.  1.
        -11    1    5    5    0    0 -0.15615072798E+03 -0.67976862560E+02 -0.49678319601E+03  0.52516421006E+03  0.00000000000E+00 0. -1.
          1    1    6    6  503    0  0.26650205135E+02  0.63219912259E+02 -0.19867510561E+02  0.71426246686E+02  0.00000000000E+00 0. -1.
         -1    1    6    6    0  503  0.42915649667E+02  0.34326739215E+03 -0.31081461268E+03  0.46505911340E+03  0.00000000000E+00 0.  1.
<mgrwt>
<rscale>  0 0.18971963E+04</rscale>
<asrwt>0</asrwt>
<pdfrwt beam="1">  1        1 0.24936401E+00 0.18971963E+04</pdfrwt>
<pdfrwt beam="2">  1       -2 0.85409080E-01 0.18971963E+04</pdfrwt>
<totfact> 0.52855973E+00</totfact>
</mgrwt>
</event>
<event>
12    4  0.4424320E-008  0.2121661E+04  0.7818608E-02  0.8551761E-01
         -2   -1    0    0    0  501 -0.00000000000E+00  0.00000000000E+00  0.58124006980E+03  0.58124006980E+03  0.00000000000E+00 0.  1.
          1   -1    0    0  501    0  0.00000000000E+00 -0.00000000000E+00 -0.19361385974E+04  0.19361385974E+04  0.00000000000E+00 0. -1.
        -24    2    1    2    0    0 -0.68492458166E+03  0.40320033173E+03 -0.98488900661E+03  0.12680830045E+04  0.79598748969E+02 0.  0.
        254    2    1    2    0    0  0.68492458166E+03 -0.40320033173E+03 -0.37000952100E+03  0.12492956627E+04  0.89002270601E+03 0.  0.
         23    2    4    4    0    0  0.75353043220E+03 -0.15656149827E+03 -0.52604667065E+03  0.93659272501E+03  0.90339458939E+02 0.  0.
         23    2    4    4    0    0 -0.68605850544E+02 -0.24663883346E+03  0.15603714965E+03  0.31270293772E+03  0.88871020520E+02 0.  0.
          3    1    3    3  502    0 -0.61580174002E+03  0.35400592911E+03 -0.83878980358E+03  0.10991361678E+04  0.00000000000E+00 0. -1.
         -4    1    3    3    0  502 -0.69122841641E+02  0.49194402619E+02 -0.14609920303E+03  0.16894683664E+03  0.00000000000E+00 0.  1.
         11    1    5    5    0    0  0.58509153142E+03 -0.93441887564E+02 -0.37065849358E+03  0.69889284254E+03  0.00000000000E+00 0. -1.
        -11    1    5    5    0    0  0.16843890078E+03 -0.63119610705E+02 -0.15538817707E+03  0.23769988247E+03  0.00000000000E+00 0.  1.
          3    1    6    6  503    0 -0.69685912577E+02 -0.13632464931E+03  0.12622304800E+03  0.19842579033E+03  0.00000000000E+00 0. -1.
         -3    1    6    6    0  503  0.10800620326E+01 -0.11031418415E+03  0.29814101648E+02  0.11427714739E+03  0.00000000000E+00 0.  1.
<mgrwt>
<rscale>  0 0.21216610E+04</rscale>
<asrwt>0</asrwt>
<pdfrwt beam="1">  1        1 0.29786747E+00 0.21216610E+04</pdfrwt>
<pdfrwt beam="2">  1       -2 0.89421550E-01 0.21216610E+04</pdfrwt>
<totfact> 0.28474940E+00</totfact>
</mgrwt>
</event>
<event>
12    4  0.4424320E-008  0.1410624E+04  0.7818608E-02  0.8946164E-01
         -2   -1    0    0    0  501 -0.00000000000E+00  0.00000000000E+00  0.69720062229E+03  0.69720062229E+03  0.00000000000E+00 0.  1.
          1   -1    0    0  501    0  0.00000000000E+00 -0.00000000000E+00 -0.71351777996E+03  0.71351777996E+03  0.00000000000E+00 0. -1.
        -24    2    1    2    0    0  0.21510009481E+03 -0.56570894685E+01 -0.34688385940E+03  0.41600980711E+03  0.80222778852E+02 0.  0.
        254    2    1    2    0    0 -0.21510009481E+03  0.56570894685E+01  0.33056670173E+03  0.99470859515E+03  0.91316525970E+03 0.  0.
         23    2    4    4    0    0  0.37200340710E+02  0.30130031237E+03  0.47374901784E+03  0.57062047483E+03  0.94888623189E+02 0.  0.
         23    2    4    4    0    0 -0.25230043552E+03 -0.29564322290E+03 -0.14318231611E+03  0.42408812032E+03  0.91044676624E+02 0.  0.
          3    1    3    3  502    0  0.22222754779E+03 -0.50801890116E+01 -0.33886390823E+03  0.40526490055E+03  0.00000000000E+00 0. -1.
         -4    1    3    3    0  502 -0.71274529792E+01 -0.57690045687E+00 -0.80199511694E+01  0.10744906555E+02  0.00000000000E+00 0.  1.
         11    1    5    5    0    0  0.13226248178E+02 -0.19839810066E+01  0.14330360331E+02  0.19601761368E+02  0.00000000000E+00 0. -1.
        -11    1    5    5    0    0  0.23974092533E+02  0.30328429337E+03  0.45941865751E+03  0.55101871346E+03  0.00000000000E+00 0.  1.
          3    1    6    6  503    0 -0.45028094530E+02 -0.11454037008E+03 -0.57275507093E+02  0.13574796274E+03  0.00000000000E+00 0. -1.
         -3    1    6    6    0  503 -0.20727234099E+03 -0.18110285281E+03 -0.85906809015E+02  0.28834015758E+03  0.00000000000E+00 0.  1.
<mgrwt>
<rscale>  0 0.14106240E+04</rscale>
<asrwt>0</asrwt>
<pdfrwt beam="1">  1        1 0.10977197E+00 0.14106240E+04</pdfrwt>
<pdfrwt beam="2">  1       -2 0.10726163E+00 0.14106240E+04</pdfrwt>
<totfact> 0.15762671E+01</totfact>
</mgrwt>
</event>
<event>
12    4  0.4424320E-008  0.2087342E+04  0.7818608E-02  0.8566840E-01
         -2   -1    0    0    0  501 -0.00000000000E+00  0.00000000000E+00  0.77881650606E+03  0.77881650606E+03  0.00000000000E+00 0.  1.
          1   -1    0    0  501    0  0.00000000000E+00 -0.00000000000E+00 -0.13985955275E+04  0.13985955275E+04  0.00000000000E+00 0. -1.
        -24    2    1    2    0    0 -0.15181274602E+03 -0.63654247966E+02 -0.11308722417E+04  0.11455621951E+04  0.79635059281E+02 0.  0.
        254    2    1    2    0    0  0.15181274602E+03  0.63654247966E+02  0.51109322022E+03  0.10318498385E+04  0.88113497054E+03 0.  0.
         23    2    4    4    0    0  0.78199229733E+02  0.20804770488E+03 -0.19000942767E+03  0.30663056402E+03  0.92302508912E+02 0.  0.
         23    2    4    4    0    0  0.73613516290E+02 -0.14439345691E+03  0.70110264789E+03  0.72521927448E+03  0.90164588529E+02 0.  0.
          3    1    3    3  502    0 -0.14308915090E+03 -0.30103259252E+02 -0.97324173904E+03  0.98416471891E+03  0.00000000000E+00 0. -1.
         -4    1    3    3    0  502 -0.87235951234E+01 -0.33550988714E+02 -0.15763050263E+03  0.16139747617E+03  0.00000000000E+00 0.  1.
         11    1    5    5    0    0 -0.88439547858E+01  0.62303994657E+01 -0.37713000463E+02  0.39233962554E+02  0.00000000000E+00 0.  1.
        -11    1    5    5    0    0  0.87043184519E+02  0.20181730541E+03 -0.15229642720E+03  0.26739660146E+03  0.00000000000E+00 0. -1.
          2    1    6    6  503    0  0.72507321768E+02 -0.68168614345E+02  0.50715839114E+03  0.51683063512E+03  0.00000000000E+00 0. -1.
         -2    1    6    6    0  503  0.11061945224E+01 -0.76224842568E+02  0.19394425675E+03  0.20838863936E+03  0.00000000000E+00 0.  1.
<mgrwt>
<rscale>  0 0.20873421E+04</rscale>
<asrwt>0</asrwt>
<pdfrwt beam="1">  1        1 0.21516854E+00 0.20873421E+04</pdfrwt>
<pdfrwt beam="2">  1       -2 0.11981793E+00 0.20873421E+04</pdfrwt>
<totfact> 0.33165495E+00</totfact>
</mgrwt>
</event>
<event>
12    4  0.4424320E-008  0.1129685E+04  0.7818608E-02  0.9176732E-01
          1   -1    0    0  501    0  0.00000000000E+00  0.00000000000E+00  0.11888232442E+04  0.11888232442E+04  0.00000000000E+00 0. -1.
         -2   -1    0    0    0  501 -0.00000000000E+00 -0.00000000000E+00 -0.26837221008E+03  0.26837221008E+03  0.00000000000E+00 0.  1.
        -24    2    1    2    0    0  0.22514988373E+03 -0.39924004298E+02  0.30302372546E+03  0.38849109492E+03  0.82556383028E+02 0.  0.
        254    2    1    2    0    0 -0.22514988373E+03  0.39924004298E+02  0.61742730865E+03  0.10687043594E+04  0.84179934068E+03 0.  0.
         23    2    4    4    0    0 -0.19956482575E+03  0.45953885710E+02 -0.16845318949E+03  0.27716286118E+03  0.80652930990E+02 0.  0.
         23    2    4    4    0    0 -0.25585057984E+02 -0.60298814121E+01  0.78588049814E+03  0.79154149817E+03  0.90768008189E+02 0.  0.
          1    1    3    3  502    0  0.16104606740E+03 -0.37122006699E+01  0.25135704576E+03  0.29854644649E+03  0.00000000000E+00 0. -1.
         -2    1    3    3    0  502  0.64103816332E+02 -0.36211803628E+02  0.51666679699E+02  0.89944648431E+02  0.00000000000E+00 0.  1.
         11    1    5    5    0    0 -0.74019152891E+02 -0.19326957142E+02 -0.41373458180E+02  0.86972003017E+02  0.00000000000E+00 0. -1.
        -11    1    5    5    0    0 -0.12554567286E+03  0.65280842853E+02 -0.12707973131E+03  0.19019085816E+03  0.00000000000E+00 0.  1.
          3    1    6    6  503    0  0.24024729063E+02 -0.20216459773E+02  0.13432102512E+03  0.13794212787E+03  0.00000000000E+00 0. -1.
         -3    1    6    6    0  503 -0.49609787047E+02  0.14186578360E+02  0.65155947303E+03  0.65359937031E+03  0.00000000000E+00 0.  1.
<mgrwt>
<rscale>  0 0.11296851E+04</rscale>
<asrwt>0</asrwt>
<pdfrwt beam="1">  1        1 0.18289588E+00 0.11296851E+04</pdfrwt>
<pdfrwt beam="2">  1       -2 0.41288033E-01 0.11296851E+04</pdfrwt>
<totfact> 0.52761269E+01</totfact>
</mgrwt>
</event>
<event>
12    4  0.4424320E-008  0.2013302E+04  0.7818608E-02  0.8600426E-01
         -2   -1    0    0    0  501 -0.00000000000E+00  0.00000000000E+00  0.56731380739E+03  0.56731380739E+03  0.00000000000E+00 0.  1.
          1   -1    0    0  501    0  0.00000000000E+00 -0.00000000000E+00 -0.17862190306E+04  0.17862190306E+04  0.00000000000E+00 0. -1.
        -24    2    1    2    0    0 -0.48401279049E+03  0.63146076247E+03 -0.38606813967E+03  0.88794232632E+03  0.79886735471E+02 0.  0.
        254    2    1    2    0    0  0.48401279049E+03 -0.63146076247E+03 -0.83283708350E+03  0.14655905116E+04  0.90627085590E+03 0.  0.
         23    2    4    4    0    0  0.89366434711E+02 -0.34319786210E+03 -0.89250701137E+03  0.96476851191E+03  0.91860677267E+02 0.  0.
         23    2    4    4    0    0  0.39464635578E+03 -0.28826290037E+03  0.59669927867E+02  0.50082199973E+03  0.91765621331E+02 0.  0.
          3    1    3    3  502    0 -0.17689267982E+01  0.23178809059E+02 -0.86613464681E+01  0.24807362093E+02  0.00000000000E+00 0. -1.
         -4    1    3    3    0  502 -0.48224386369E+03  0.60828195341E+03 -0.37740679321E+03  0.86313496423E+03  0.00000000000E+00 0.  1.
         11    1    5    5    0    0  0.73179957836E+02 -0.33096575489E+03 -0.78029767227E+03  0.85073973370E+03  0.00000000000E+00 0. -1.
        -11    1    5    5    0    0  0.16186476875E+02 -0.12232107215E+02 -0.11220933910E+03  0.11402877821E+03  0.00000000000E+00 0.  1.
          2    1    6    6  503    0  0.31219310917E+03 -0.18454037178E+03  0.63944025870E+02  0.36825062753E+03  0.00000000000E+00 0. -1.
         -2    1    6    6    0  503  0.82453246616E+02 -0.10372252859E+03 -0.42740980030E+01  0.13257137220E+03  0.00000000000E+00 0.  1.
<mgrwt>
<rscale>  0 0.20133025E+04</rscale>
<asrwt>0</asrwt>
<pdfrwt beam="1">  1        1 0.27480292E+00 0.20133025E+04</pdfrwt>
<pdfrwt beam="2">  1       -2 0.87279049E-01 0.20133025E+04</pdfrwt>
<totfact> 0.38412539E+00</totfact>
</mgrwt>
</event>
<event>
12    4  0.4424320E-008  0.1376942E+04  0.7818608E-02  0.8970680E-01
          1   -1    0    0  501    0  0.00000000000E+00  0.00000000000E+00  0.10863076954E+04  0.10863076954E+04  0.00000000000E+00 0. -1.
         -2   -1    0    0    0  501 -0.00000000000E+00 -0.00000000000E+00 -0.43633356696E+03  0.43633356696E+03  0.00000000000E+00 0.  1.
        -24    2    1    2    0    0  0.27201269802E+03  0.28964208050E+03  0.16457168295E+03  0.43776122693E+03  0.81655436388E+02 0.  0.
        254    2    1    2    0    0 -0.27201269802E+03 -0.28964208050E+03  0.48540244550E+03  0.10848800354E+04  0.88513598646E+03 0.  0.
         23    2    4    4    0    0  0.22442617970E+03  0.61372251589E+02 -0.65441521209E+02  0.25859911411E+03  0.91963284629E+02 0.  0.
         23    2    4    4    0    0 -0.49643887771E+03 -0.35101433209E+03  0.55084396671E+03  0.82628092134E+03  0.98226598613E+02 0.  0.
          1    1    3    3  502    0  0.23663152325E+03  0.20652188277E+03  0.14175591827E+03  0.34458744351E+03  0.00000000000E+00 0. -1.
         -2    1    3    3    0  502  0.35381174767E+02  0.83120197729E+02  0.22815764679E+02  0.93173783418E+02  0.00000000000E+00 0.  1.
         11    1    5    5    0    0  0.16479096688E+03  0.83267212509E+02 -0.34080710106E+02  0.18775246003E+03  0.00000000000E+00 0.  1.
        -11    1    5    5    0    0  0.59635212816E+02 -0.21894960920E+02 -0.31360811103E+02  0.70846654080E+02  0.00000000000E+00 0. -1.
          4    1    6    6  503    0 -0.30545220074E+03 -0.16837944053E+03  0.27380507179E+03  0.44342068092E+03  0.00000000000E+00 0. -1.
         -4    1    6    6    0  503 -0.19098667697E+03 -0.18263489156E+03  0.27703889492E+03  0.38286024042E+03  0.00000000000E+00 0.  1.
<mgrwt>
<rscale>  0 0.13769423E+04</rscale>
<asrwt>0</asrwt>
<pdfrwt beam="1">  1        1 0.16712426E+00 0.13769423E+04</pdfrwt>
<pdfrwt beam="2">  1       -2 0.67128242E-01 0.13769423E+04</pdfrwt>
<totfact> 0.22648388E+01</totfact>
</mgrwt>
</event>
<event>
12    4  0.4424320E-008  0.1466435E+04  0.7818608E-02  0.8907085E-01
         -2   -1    0    0    0  501 -0.00000000000E+00  0.00000000000E+00  0.33034152302E+03  0.33034152302E+03  0.00000000000E+00 0.  1.
          1   -1    0    0  501    0  0.00000000000E+00 -0.00000000000E+00 -0.16274308924E+04  0.16274308924E+04  0.00000000000E+00 0. -1.
        -24    2    1    2    0    0  0.51972899537E+02 -0.26084900616E+03  0.83638262068E+02  0.29016633077E+03  0.80360153889E+02 0.  0.
        254    2    1    2    0    0 -0.51972899537E+02  0.26084900616E+03 -0.13807276315E+04  0.16676060847E+04  0.89652544585E+03 0.  0.
         23    2    4    4    0    0 -0.22122934048E+03  0.10371100194E+03  0.40960954890E+01  0.26071566416E+03  0.90870713259E+02 0.  0.
         23    2    4    4    0    0  0.16925644095E+03  0.15713800422E+03 -0.13848237270E+04  0.14068904205E+04  0.90905475174E+02 0.  0.
          1    1    3    3  502    0 -0.13418376891E+02 -0.65067383235E+02 -0.25407194845E+01  0.66485129578E+02  0.00000000000E+00 0. -1.
         -2    1    3    3    0  502  0.65391276427E+02 -0.19578162292E+03  0.86178981552E+02  0.22368120119E+03  0.00000000000E+00 0.  1.
         11    1    5    5    0    0 -0.33346891242E+02  0.47711846489E+02 -0.23417723159E+02  0.62744124895E+02  0.00000000000E+00 0.  1.
        -11    1    5    5    0    0 -0.18788244924E+03  0.55999155453E+02  0.27513818648E+02  0.19797153927E+03  0.00000000000E+00 0. -1.
          4    1    6    6  503    0  0.12031225323E+03  0.64222058809E+02 -0.93975654144E+03  0.94960089948E+03  0.00000000000E+00 0. -1.
         -4    1    6    6    0  503  0.48944187711E+02  0.92915945406E+02 -0.44506718554E+03  0.45728952106E+03  0.00000000000E+00 0.  1.
<mgrwt>
<rscale>  0 0.14664351E+04</rscale>
<asrwt>0</asrwt>
<pdfrwt beam="1">  1        1 0.25037398E+00 0.14664351E+04</pdfrwt>
<pdfrwt beam="2">  1       -2 0.50821773E-01 0.14664351E+04</pdfrwt>
<totfact> 0.16648444E+01</totfact>
</mgrwt>
</event>
<event>
12    4  0.4424320E-008  0.2367951E+04  0.7818608E-02  0.8451600E-01
          1   -1    0    0  501    0  0.00000000000E+00  0.00000000000E+00  0.16327195901E+04  0.16327195901E+04  0.00000000000E+00 0. -1.
         -2   -1    0    0    0  501 -0.00000000000E+00 -0.00000000000E+00 -0.85856657230E+03  0.85856657230E+03  0.00000000000E+00 0.  1.
        -24    2    1    2    0    0 -0.59519465647E+03  0.68738014380E+03 -0.13526381931E+03  0.92258403133E+03  0.78210311737E+02 0.  0.
        254    2    1    2    0    0  0.59519465647E+03 -0.68738014380E+03  0.90941683715E+03  0.15687021311E+04  0.89835363376E+03 0.  0.
         23    2    4    4    0    0 -0.25519595069E+02 -0.61563945386E+03  0.30143489987E+03  0.69221085209E+03  0.92896060250E+02 0.  0.
         23    2    4    4    0    0  0.62071425154E+03 -0.71740689936E+02  0.60798193728E+03  0.87649127902E+03  0.90343884568E+02 0.  0.
          3    1    3    3  502    0 -0.39968850751E+03  0.50230698191E+03 -0.71224523446E+02  0.64586077436E+03  0.00000000000E+00 0. -1.
         -4    1    3    3    0  502 -0.19550614896E+03  0.18507316189E+03 -0.64039295863E+02  0.27672325697E+03  0.00000000000E+00 0.  1.
         11    1    5    5    0    0 -0.51558767316E+02 -0.20579639427E+03  0.11299642618E+03  0.24037190915E+03  0.00000000000E+00 0.  1.
        -11    1    5    5    0    0  0.26039172246E+02 -0.40984305960E+03  0.18843847369E+03  0.45183894294E+03  0.00000000000E+00 0. -1.
          3    1    6    6  503    0  0.30771164622E+03 -0.79831062252E+02  0.32063686396E+03  0.45151683717E+03  0.00000000000E+00 0. -1.
         -3    1    6    6    0  503  0.31300260532E+03  0.80903723162E+01  0.28734507332E+03  0.42497444185E+03  0.00000000000E+00 0.  1.
<mgrwt>
<rscale>  0 0.23679514E+04</rscale>
<asrwt>0</asrwt>
<pdfrwt beam="1">  1        1 0.25118763E+00 0.23679514E+04</pdfrwt>
<pdfrwt beam="2">  1       -2 0.13208717E+00 0.23679514E+04</pdfrwt>
<totfact> 0.17441705E+00</totfact>
</mgrwt>
</event>
<event>
12    4  0.4424320E-008  0.2665491E+04  0.7818608E-02  0.8346289E-01
          1   -1    0    0  501    0  0.00000000000E+00  0.00000000000E+00  0.59935479175E+03  0.59935479175E+03  0.00000000000E+00 0. -1.
         -2   -1    0    0    0  501 -0.00000000000E+00 -0.00000000000E+00 -0.29635382763E+04  0.29635382763E+04  0.00000000000E+00 0.  1.
        -24    2    1    2    0    0  0.27700418046E+03  0.10950089717E+04 -0.15063192969E+04  0.18844613770E+04  0.80130474074E+02 0.  0.
        254    2    1    2    0    0 -0.27700418046E+03 -0.10950089717E+04 -0.85786418760E+03  0.16784316911E+04  0.89745529867E+03 0.  0.
         23    2    4    4    0    0 -0.52721710613E+03 -0.99505331305E+03 -0.53993416466E+03  0.12518352240E+04  0.86449714419E+02 0.  0.
         23    2    4    4    0    0  0.25021292568E+03 -0.99955658660E+02 -0.31793002295E+03  0.42659646705E+03  0.91144963305E+02 0.  0.
          3    1    3    3  502    0  0.70896827881E+02  0.29794940317E+03 -0.46900850207E+03  0.56015103505E+03  0.00000000000E+00 0. -1.
         -4    1    3    3    0  502  0.20610735258E+03  0.79705956854E+03 -0.10373107949E+04  0.13243103419E+04  0.00000000000E+00 0.  1.
         11    1    5    5    0    0 -0.49509040948E+03 -0.87832065785E+03 -0.48685994151E+03  0.11196402521E+04  0.00000000000E+00 0.  1.
        -11    1    5    5    0    0 -0.32126696655E+02 -0.11673265520E+03 -0.53074223141E+02  0.13219497188E+03  0.00000000000E+00 0. -1.
          3    1    6    6  503    0  0.29506274422E+02 -0.44149785360E+02 -0.89692111751E+02  0.10423290597E+03  0.00000000000E+00 0. -1.
         -3    1    6    6    0  503  0.22070665126E+03 -0.55805873300E+02 -0.22823791120E+03  0.32236356108E+03  0.00000000000E+00 0.  1.
<mgrwt>
<rscale>  0 0.26654912E+04</rscale>
<asrwt>0</asrwt>
<pdfrwt beam="1">  1        1 0.92208428E-01 0.26654912E+04</pdfrwt>
<pdfrwt beam="2">  1       -2 0.45592897E+00 0.26654912E+04</pdfrwt>
<totfact> 0.83394721E-02</totfact>
</mgrwt>
</event>
<event>
12    4  0.4424320E-008  0.1598736E+04  0.7818608E-02  0.8821325E-01
          1   -1    0    0  501    0  0.00000000000E+00  0.00000000000E+00  0.93811245597E+03  0.93811245597E+03  0.00000000000E+00 0. -1.
         -2   -1    0    0    0  501 -0.00000000000E+00 -0.00000000000E+00 -0.68114365408E+03  0.68114365408E+03  0.00000000000E+00 0.  1.
        -24    2    1    2    0    0  0.43932132781E+03  0.28012413974E+03  0.21041044540E+03  0.56754032525E+03  0.79728931484E+02 0.  0.
        254    2    1    2    0    0 -0.43932132781E+03 -0.28012413974E+03  0.46558356481E+02  0.10517157848E+04  0.91239555495E+03 0.  0.
         23    2    4    4    0    0  0.25522805729E+03  0.43868208361E+02 -0.78878265740E+01  0.27785499883E+03  0.10037630015E+03 0.  0.
         23    2    4    4    0    0 -0.69454938511E+03 -0.32399234810E+03  0.54446183055E+02  0.77386078597E+03  0.92337637110E+02 0.  0.
          3    1    3    3  502    0  0.43193563612E+03  0.28554078996E+03  0.20491518788E+03  0.55685920187E+03  0.00000000000E+00 0. -1.
         -4    1    3    3    0  502  0.73856916902E+01 -0.54166502250E+01  0.54952575177E+01  0.10681123377E+02  0.00000000000E+00 0.  1.
         11    1    5    5    0    0  0.25691367525E+03  0.29826395553E+02 -0.19755651607E+02  0.25939262938E+03  0.00000000000E+00 0.  1.
        -11    1    5    5    0    0 -0.16856179609E+01  0.14041812809E+02  0.11867825033E+02  0.18462369454E+02  0.00000000000E+00 0. -1.
          2    1    6    6  503    0 -0.42429105744E+03 -0.22725884195E+03  0.70035070210E+02  0.48638913816E+03  0.00000000000E+00 0.  1.
         -2    1    6    6    0  503 -0.27025832767E+03 -0.96733506152E+02 -0.15588887154E+02  0.28747164780E+03  0.00000000000E+00 0. -1.
<mgrwt>
<rscale>  0 0.15987362E+04</rscale>
<asrwt>0</asrwt>
<pdfrwt beam="1">  1        1 0.14432499E+00 0.15987362E+04</pdfrwt>
<pdfrwt beam="2">  1       -2 0.10479133E+00 0.15987362E+04</pdfrwt>
<totfact> 0.10525615E+01</totfact>
</mgrwt>
</event>
<event>
12    4  0.4424320E-008  0.2027125E+04  0.7818608E-02  0.8594043E-01
          1   -1    0    0  501    0  0.00000000000E+00  0.00000000000E+00  0.10826253407E+04  0.10826253407E+04  0.00000000000E+00 0. -1.
         -2   -1    0    0    0  501 -0.00000000000E+00 -0.00000000000E+00 -0.94890529545E+03  0.94890529545E+03  0.00000000000E+00 0.  1.
        -24    2    1    2    0    0 -0.40810531258E+03 -0.47921830802E+03  0.55838963016E+03  0.84521831995E+03  0.79968096187E+02 0.  0.
        254    2    1    2    0    0  0.40810531258E+03  0.47921830802E+03 -0.42466958495E+03  0.11863123162E+04  0.91147820721E+03 0.  0.
         23    2    4    4    0    0 -0.23546428403E+03  0.10231494696E+02  0.44574798820E+02  0.25743947516E+03  0.93488278104E+02 0.  0.
         23    2    4    4    0    0  0.64356959661E+03  0.46898681332E+03 -0.46924438377E+03  0.92887284101E+03  0.92108665844E+02 0.  0.
          3    1    3    3  502    0 -0.36817412586E+03 -0.38831991780E+03  0.46522863616E+03  0.70907138528E+03  0.00000000000E+00 0. -1.
         -4    1    3    3    0  502 -0.39931186717E+02 -0.90898390220E+02  0.93160994002E+02  0.13614693467E+03  0.00000000000E+00 0.  1.
         11    1    5    5    0    0 -0.12196113815E+03  0.34596858324E+02 -0.13760328625E+02  0.12751787509E+03  0.00000000000E+00 0. -1.
        -11    1    5    5    0    0 -0.11350314588E+03 -0.24365363628E+02  0.58335127445E+02  0.12992160007E+03  0.00000000000E+00 0.  1.
          4    1    6    6  503    0  0.38315730857E+03  0.24445159639E+03 -0.30850692202E+03  0.54931104760E+03  0.00000000000E+00 0. -1.
         -4    1    6    6    0  503  0.26041228804E+03  0.22453521693E+03 -0.16073746175E+03  0.37956179341E+03  0.00000000000E+00 0.  1.
<mgrwt>
<rscale>  0 0.20271250E+04</rscale>
<asrwt>0</asrwt>
<pdfrwt beam="1">  1        1 0.16655775E+00 0.20271250E+04</pdfrwt>
<pdfrwt beam="2">  1       -2 0.14598543E+00 0.20271250E+04</pdfrwt>
<totfact> 0.34137248E+00</totfact>
</mgrwt>
</event>
<event>
12    4  0.4424320E-008  0.1686005E+04  0.7818608E-02  0.8769387E-01
          1   -1    0    0  501    0  0.00000000000E+00  0.00000000000E+00  0.74889062284E+03  0.74889062284E+03  0.00000000000E+00 0. -1.
         -2   -1    0    0    0  501 -0.00000000000E+00 -0.00000000000E+00 -0.94894155381E+03  0.94894155381E+03  0.00000000000E+00 0.  1.
        -24    2    1    2    0    0  0.52769420137E+03  0.20849290636E+03 -0.25798439647E+03  0.62847681241E+03  0.80602064223E+02 0.  0.
        254    2    1    2    0    0 -0.52769420137E+03 -0.20849290636E+03  0.57933465496E+02  0.10693553642E+04  0.90456295880E+03 0.  0.
         23    2    4    4    0    0 -0.53354970828E+03  0.10891868291E+03 -0.26026153499E+03  0.61076062099E+03  0.93562272622E+02 0.  0.
         23    2    4    4    0    0  0.58555069120E+01 -0.31741158927E+03  0.31819500048E+03  0.45859474325E+03  0.90976239988E+02 0.  0.
          1    1    3    3  502    0  0.51094760601E+03  0.20297577073E+03 -0.26394630181E+03  0.60986414047E+03  0.00000000000E+00 0. -1.
         -2    1    3    3    0  502  0.16746595362E+02  0.55171356318E+01  0.59619053365E+01  0.18612671948E+02  0.00000000000E+00 0.  1.
         11    1    5    5    0    0 -0.65190780185E+02  0.40371518005E+02 -0.16911626272E+02  0.78521973933E+02  0.00000000000E+00 0. -1.
        -11    1    5    5    0    0 -0.46835892810E+03  0.68547164905E+02 -0.24334990872E+03  0.53223864705E+03  0.00000000000E+00 0.  1.
          2    1    6    6  503    0 -0.68061158708E+01 -0.29825009453E+03  0.31742876748E+03  0.43561504166E+03  0.00000000000E+00 0.  1.
         -2    1    6    6    0  503  0.12661622783E+02 -0.19161494742E+02  0.76623300666E+00  0.22979701592E+02  0.00000000000E+00 0. -1.
<mgrwt>
<rscale>  0 0.16860053E+04</rscale>
<asrwt>0</asrwt>
<pdfrwt beam="1">  1        1 0.11521394E+00 0.16860053E+04</pdfrwt>
<pdfrwt beam="2">  1       -2 0.14599101E+00 0.16860053E+04</pdfrwt>
<totfact> 0.65902065E+00</totfact>
</mgrwt>
</event>
<event>
12    4  0.4424320E-008  0.1017095E+04  0.7818608E-02  0.9289991E-01
         -2   -1    0    0    0  501 -0.00000000000E+00  0.00000000000E+00  0.37665113899E+03  0.37665113899E+03  0.00000000000E+00 0.  1.
          1   -1    0    0  501    0  0.00000000000E+00 -0.00000000000E+00 -0.68663180086E+03  0.68663180086E+03  0.00000000000E+00 0. -1.
        -24    2    1    2    0    0  0.45097390296E+02  0.30143848555E+02 -0.51702539120E+02  0.11320727732E+03  0.84854633752E+02 0.  0.
        254    2    1    2    0    0 -0.45097390296E+02 -0.30143848555E+02 -0.25827812275E+03  0.95007566253E+03  0.91268491257E+03 0.  0.
         23    2    4    4    0    0  0.21942099769E+03 -0.18942055586E+03 -0.47401036214E+03  0.56323037548E+03  0.92287113056E+02 0.  0.
         23    2    4    4    0    0 -0.26451838798E+03  0.15927670731E+03  0.21573223939E+03  0.38684528705E+03  0.88146638807E+02 0.  0.
          3    1    3    3  502    0 -0.16908297168E+02  0.32859982930E+02 -0.29517021276E+02  0.47296126017E+02  0.00000000000E+00 0. -1.
         -4    1    3    3    0  502  0.62005687464E+02 -0.27161343749E+01 -0.22185517844E+02  0.65911151301E+02  0.00000000000E+00 0.  1.
         11    1    5    5    0    0  0.18195549134E+02 -0.55405645391E+02 -0.13288040226E+03  0.14511397195E+03  0.00000000000E+00 0. -1.
        -11    1    5    5    0    0  0.20122544855E+03 -0.13401491047E+03 -0.34112995988E+03  0.41811640353E+03  0.00000000000E+00 0.  1.
          3    1    6    6  503    0 -0.58813322766E+02  0.35237444692E+02  0.97294500208E+02  0.11902480504E+03  0.00000000000E+00 0. -1.
         -3    1    6    6    0  503 -0.20570506522E+03  0.12403926262E+03  0.11843773918E+03  0.26782048202E+03  0.00000000000E+00 0.  1.
<mgrwt>
<rscale>  0 0.10170952E+04</rscale>
<asrwt>0</asrwt>
<pdfrwt beam="1">  1        1 0.10563566E+00 0.10170952E+04</pdfrwt>
<pdfrwt beam="2">  1       -2 0.57946329E-01 0.10170952E+04</pdfrwt>
<totfact> 0.68614874E+01</totfact>
</mgrwt>
</event>
<event>
12    4  0.4424320E-008  0.1703099E+04  0.7818608E-02  0.8759599E-01
         -2   -1    0    0    0  501 -0.00000000000E+00  0.00000000000E+00  0.42839875001E+03  0.42839875001E+03  0.00000000000E+00 0.  1.
          1   -1    0    0  501    0  0.00000000000E+00 -0.00000000000E+00 -0.16926677789E+04  0.16926677789E+04  0.00000000000E+00 0. -1.
        -24    2    1    2    0    0 -0.22549148977E+03  0.22950454515E+03  0.18925139816E+03  0.38166128616E+03  0.79564423264E+02 0.  0.
        254    2    1    2    0    0  0.22549148977E+03 -0.22950454515E+03 -0.14535204270E+04  0.17394052427E+04  0.89960559049E+03 0.  0.
         23    2    4    4    0    0 -0.84484763827E+02 -0.33788140422E+03 -0.14696430585E+03  0.38893588387E+03  0.91493693378E+02 0.  0.
         23    2    4    4    0    0  0.30997625359E+03  0.10837685908E+03 -0.13065561212E+04  0.13504693588E+04  0.94062585851E+02 0.  0.
          1    1    3    3  502    0 -0.85898978081E+02  0.13022450376E+03  0.60296197543E+02  0.16725037295E+03  0.00000000000E+00 0. -1.
         -2    1    3    3    0  502 -0.13959251169E+03  0.99280041384E+02  0.12895520062E+03  0.21441091321E+03  0.00000000000E+00 0.  1.
         11    1    5    5    0    0  0.19872750749E+02 -0.62957171251E+02 -0.25472457744E+02  0.70762827372E+02  0.00000000000E+00 0. -1.
        -11    1    5    5    0    0 -0.10435751458E+03 -0.27492423297E+03 -0.12149184811E+03  0.31817305650E+03  0.00000000000E+00 0.  1.
          2    1    6    6  503    0  0.10183818760E+03  0.83700522111E+02 -0.48413047740E+03  0.50175602937E+03  0.00000000000E+00 0. -1.
         -2    1    6    6    0  503  0.20813806599E+03  0.24676336967E+02 -0.82242564375E+03  0.84871332947E+03  0.00000000000E+00 0.  1.
<mgrwt>
<rscale>  0 0.17030992E+04</rscale>
<asrwt>0</asrwt>
<pdfrwt beam="1">  1        1 0.26041042E+00 0.17030992E+04</pdfrwt>
<pdfrwt beam="2">  1       -2 0.65907501E-01 0.17030992E+04</pdfrwt>
<totfact> 0.85305882E+00</totfact>
</mgrwt>
</event>
<event>
12    4  0.4424320E-008  0.2099547E+04  0.7818608E-02  0.8561443E-01
         -4   -1    0    0    0  501 -0.00000000000E+00  0.00000000000E+00  0.80955569589E+03  0.80955569589E+03  0.00000000000E+00 0.  1.
          3   -1    0    0  501    0  0.00000000000E+00 -0.00000000000E+00 -0.13612712112E+04  0.13612712112E+04  0.00000000000E+00 0. -1.
        -24    2    1    2    0    0 -0.60282210893E+03 -0.41736702597E+03  0.22812503224E+03  0.77193451588E+03  0.79070456435E+02 0.  0.
        254    2    1    2    0    0  0.60282210893E+03  0.41736702597E+03 -0.77984054759E+03  0.13988923912E+04  0.90064361055E+03 0.  0.
         23    2    4    4    0    0 -0.39158885705E+02 -0.19739691504E+03 -0.12590002805E+02  0.22111014041E+03  0.90731613148E+02 0.  0.
         23    2    4    4    0    0  0.64198099464E+03  0.61476394100E+03 -0.76725054479E+03  0.11777822508E+04  0.91778708187E+02 0.  0.
          1    1    3    3  502    0 -0.83196548449E+01 -0.21863606234E+02  0.82691738900E+01  0.24811553178E+02  0.00000000000E+00 0. -1.
         -4    1    3    3    0  502 -0.59450245409E+03 -0.39550341973E+03  0.21985585835E+03  0.74712296270E+03  0.00000000000E+00 0.  1.
         11    1    5    5    0    0 -0.63096663561E+02 -0.15386074713E+03  0.98649414358E+01  0.16658822146E+03  0.00000000000E+00 0.  1.
        -11    1    5    5    0    0  0.23937777856E+02 -0.43536167906E+02 -0.22454944241E+02  0.54521918946E+02  0.00000000000E+00 0. -1.
          1    1    6    6  503    0  0.31043547789E+02  0.41188648345E+02 -0.74009158493E+02  0.90208437259E+02  0.00000000000E+00 0. -1.
         -1    1    6    6    0  503  0.61093744685E+03  0.57357529266E+03 -0.69324138629E+03  0.10875738136E+04  0.00000000000E+00 0.  1.
<mgrwt>
<rscale>  0 0.20995474E+04</rscale>
<asrwt>0</asrwt>
<pdfrwt beam="1">  1        3 0.20942634E+00 0.20995474E+04</pdfrwt>
<pdfrwt beam="2">  1       -4 0.12454703E+00 0.20995474E+04</pdfrwt>
<totfact> 0.13084628E-01</totfact>
</mgrwt>
</event>
<event>
12    4  0.4424320E-008  0.2175560E+04  0.7818608E-02  0.8528670E-01
          1   -1    0    0  501    0  0.00000000000E+00  0.00000000000E+00  0.15175256381E+04  0.15175256381E+04  0.00000000000E+00 0. -1.
         -2   -1    0    0    0  501 -0.00000000000E+00 -0.00000000000E+00 -0.77973346695E+03  0.77973346695E+03  0.00000000000E+00 0.  1.
        -24    2    1    2    0    0  0.11620432903E+03 -0.25202470145E+02  0.12520437169E+04  0.12601673900E+04  0.79181887795E+02 0.  0.
        254    2    1    2    0    0 -0.11620432903E+03  0.25202470145E+02 -0.51425154573E+03  0.10370917150E+04  0.89272950129E+03 0.  0.
         23    2    4    4    0    0 -0.34246169177E+03  0.34194578016E+03 -0.21265158476E+03  0.53630063432E+03  0.90502745683E+02 0.  0.
         23    2    4    4    0    0  0.22625736274E+03 -0.31674331001E+03 -0.30159996097E+03  0.50079108069E+03  0.91161677331E+02 0.  0.
          3    1    3    3  502    0  0.55104975822E+02  0.28026518639E+02  0.53892727061E+03  0.54246165497E+03  0.00000000000E+00 0. -1.
         -2    1    3    3    0  502  0.61099353212E+02 -0.53228988784E+02  0.71311644628E+03  0.71770573508E+03  0.00000000000E+00 0.  1.
         11    1    5    5    0    0 -0.25794955866E+02  0.52599936818E+02 -0.51741537115E+02  0.78162137665E+02  0.00000000000E+00 0. -1.
        -11    1    5    5    0    0 -0.31666673591E+03  0.28934584334E+03 -0.16091004765E+03  0.45813849666E+03  0.00000000000E+00 0.  1.
          3    1    6    6  503    0  0.13620632516E+03 -0.15582229580E+03 -0.21017267239E+03  0.29496661354E+03  0.00000000000E+00 0. -1.
         -3    1    6    6    0  503  0.90051037576E+02 -0.16092101421E+03 -0.91427288585E+02  0.20582446715E+03  0.00000000000E+00 0.  1.
<mgrwt>
<rscale>  0 0.21755602E+04</rscale>
<asrwt>0</asrwt>
<pdfrwt beam="1">  1        1 0.23346548E+00 0.21755602E+04</pdfrwt>
<pdfrwt beam="2">  1       -2 0.11995900E+00 0.21755602E+04</pdfrwt>
<totfact> 0.27117168E+00</totfact>
</mgrwt>
</event>
<event>
12    4  0.4424320E-008  0.1265881E+04  0.7818608E-02  0.9057068E-01
         -2   -1    0    0    0  501 -0.00000000000E+00  0.00000000000E+00  0.62588543463E+03  0.62588543463E+03  0.00000000000E+00 0.  1.
          1   -1    0    0  501    0  0.00000000000E+00 -0.00000000000E+00 -0.64007507802E+03  0.64007507802E+03  0.00000000000E+00 0. -1.
        -24    2    1    2    0    0  0.12273787432E+03  0.27798387960E+03 -0.82380036863E+02  0.32504941996E+03  0.80814799577E+02 0.  0.
        254    2    1    2    0    0 -0.12273787432E+03 -0.27798387960E+03  0.68190393476E+02  0.94091109269E+03  0.88787619152E+03 0.  0.
         23    2    4    4    0    0 -0.34800358770E+03 -0.46809442604E+03  0.17013120164E+03  0.61502618984E+03  0.95360891739E+02 0.  0.
         23    2    4    4    0    0  0.22526571338E+03  0.19011054644E+03 -0.10194080816E+03  0.32588490285E+03  0.94458350843E+02 0.  0.
          1    1    3    3  502    0  0.65916009701E+02  0.92997850885E+02  0.18320693689E+01  0.11400384679E+03  0.00000000000E+00 0. -1.
         -2    1    3    3    0  502  0.56821864619E+02  0.18498602872E+03 -0.84212106232E+02  0.21104557317E+03  0.00000000000E+00 0.  1.
         11    1    5    5    0    0 -0.16858796809E+03 -0.14935123469E+03  0.61863433512E+02  0.23356964421E+03  0.00000000000E+00 0. -1.
        -11    1    5    5    0    0 -0.17941561961E+03 -0.31874319134E+03  0.10826776813E+03  0.38145654563E+03  0.00000000000E+00 0.  1.
          3    1    6    6  503    0  0.22407256165E+03  0.15866008072E+03 -0.10567372022E+03  0.29419121204E+03  0.00000000000E+00 0. -1.
         -3    1    6    6    0  503  0.11931517390E+01  0.31450465717E+02  0.37329120541E+01  0.31693690812E+02  0.00000000000E+00 0.  1.
<mgrwt>
<rscale>  0 0.12658810E+04</rscale>
<asrwt>0</asrwt>
<pdfrwt beam="1">  1        1 0.98473089E-01 0.12658810E+04</pdfrwt>
<pdfrwt beam="2">  1       -2 0.96290067E-01 0.12658810E+04</pdfrwt>
<totfact> 0.24264085E+01</totfact>
</mgrwt>
</event>
<event>
12    4  0.4424320E-008  0.1742270E+04  0.7818608E-02  0.8737617E-01
          1   -1    0    0  501    0  0.00000000000E+00  0.00000000000E+00  0.75136250264E+03  0.75136250264E+03  0.00000000000E+00 0. -1.
         -2   -1    0    0    0  501 -0.00000000000E+00 -0.00000000000E+00 -0.10100001321E+04  0.10100001321E+04  0.00000000000E+00 0.  1.
        -24    2    1    2    0    0  0.20313266379E+03 -0.17804077657E+03 -0.64636252425E+03  0.70497239532E+03  0.78994735106E+02 0.  0.
        254    2    1    2    0    0 -0.20313266379E+03  0.17804077657E+03  0.38772489477E+03  0.10563902395E+04  0.94481127575E+03 0.  0.
         23    2    4    4    0    0  0.99769182753E+02  0.14683455520E+03 -0.26493155358E+03  0.33070679089E+03  0.87544143335E+02 0.  0.
         23    2    4    4    0    0 -0.30290184654E+03  0.31206221372E+02  0.65265644835E+03  0.72568344857E+03  0.89065543644E+02 0.  0.
          3    1    3    3  502    0  0.12595869185E+03 -0.62946459323E+02 -0.28333721937E+03  0.31639821219E+03  0.00000000000E+00 0. -1.
         -4    1    3    3    0  502  0.77173971940E+02 -0.11509431725E+03 -0.36302530488E+03  0.38857418313E+03  0.00000000000E+00 0.  1.
         11    1    5    5    0    0  0.61136432076E+01  0.85880407313E+02 -0.11028409295E+03  0.13991212296E+03  0.00000000000E+00 0.  1.
        -11    1    5    5    0    0  0.93655539545E+02  0.60954147890E+02 -0.15464746062E+03  0.19079466793E+03  0.00000000000E+00 0. -1.
          2    1    6    6  503    0 -0.25445921486E+03  0.25281011723E+02  0.45341022106E+03  0.52054726024E+03  0.00000000000E+00 0. -1.
         -2    1    6    6    0  503 -0.48442631683E+02  0.59252096487E+01  0.19924622729E+03  0.20513618833E+03  0.00000000000E+00 0.  1.
<mgrwt>
<rscale>  0 0.17422700E+04</rscale>
<asrwt>0</asrwt>
<pdfrwt beam="1">  1        1 0.11559423E+00 0.17422700E+04</pdfrwt>
<pdfrwt beam="2">  1       -2 0.15538463E+00 0.17422700E+04</pdfrwt>
<totfact> 0.55286229E+00</totfact>
</mgrwt>
</event>
<event>
12    4  0.4424320E-008  0.1755310E+04  0.7818608E-02  0.8730433E-01
         -2   -1    0    0    0  501 -0.00000000000E+00  0.00000000000E+00  0.19562907359E+04  0.19562907359E+04  0.00000000000E+00 0.  1.
          1   -1    0    0  501    0  0.00000000000E+00 -0.00000000000E+00 -0.39374434742E+03  0.39374434742E+03  0.00000000000E+00 0. -1.
        -24    2    1    2    0    0 -0.67212580025E+02 -0.35553063844E+03 -0.13325806723E+03  0.39362759454E+03  0.79154310791E+02 0.  0.
        254    2    1    2    0    0  0.67212580025E+02  0.35553063844E+03  0.16958044557E+04  0.19564074887E+04  0.90601211049E+03 0.  0.
         23    2    4    4    0    0 -0.49067609219E+02  0.59938731404E+03  0.73928558962E+03  0.95794759239E+03  0.97198890172E+02 0.  0.
         23    2    4    4    0    0  0.11628018924E+03 -0.24385667560E+03  0.95651886604E+03  0.99845989634E+03  0.94903439652E+02 0.  0.
          1    1    3    3  502    0 -0.42374170439E+02 -0.33399202316E+03 -0.12872956476E+03  0.36044076170E+03  0.00000000000E+00 0. -1.
         -2    1    3    3    0  502 -0.24838409586E+02 -0.21538615282E+02 -0.45285024696E+01  0.33186832835E+02  0.00000000000E+00 0.  1.
         11    1    5    5    0    0  0.16349806041E+01  0.34645399147E+02  0.87047771125E+02  0.93703208598E+02  0.00000000000E+00 0. -1.
        -11    1    5    5    0    0 -0.50702589823E+02  0.56474191489E+03  0.65223781849E+03  0.86424438379E+03  0.00000000000E+00 0.  1.
          3    1    6    6  503    0  0.15797364029E+02 -0.13176967995E+03  0.52192566993E+03  0.53853431663E+03  0.00000000000E+00 0. -1.
         -3    1    6    6    0  503  0.10048282521E+03 -0.11208699565E+03  0.43459319612E+03  0.45992557970E+03  0.00000000000E+00 0.  1.
<mgrwt>
<rscale>  0 0.17553101E+04</rscale>
<asrwt>0</asrwt>
<pdfrwt beam="1">  1        1 0.60576055E-01 0.17553101E+04</pdfrwt>
<pdfrwt beam="2">  1       -2 0.30096780E+00 0.17553101E+04</pdfrwt>
<totfact> 0.15943575E+00</totfact>
</mgrwt>
</event>
<event>
12    4  0.4424320E-008  0.1187253E+04  0.7818608E-02  0.9124088E-01
          1   -1    0    0  501    0  0.00000000000E+00  0.00000000000E+00  0.13093473711E+04  0.13093473711E+04  0.00000000000E+00 0. -1.
         -2   -1    0    0    0  501 -0.00000000000E+00 -0.00000000000E+00 -0.26913600393E+03  0.26913600393E+03  0.00000000000E+00 0.  1.
        -24    2    1    2    0    0 -0.77601492015E+02  0.22515402036E+03  0.23882447860E+03  0.34705164142E+03  0.81800891109E+02 0.  0.
        254    2    1    2    0    0  0.77601492015E+02 -0.22515402036E+03  0.80138688861E+03  0.12314317337E+04  0.90414979123E+03 0.  0.
         23    2    4    4    0    0  0.35591265475E+03 -0.27426651689E+03  0.97896694575E+02  0.46777044927E+03  0.85612442437E+02 0.  0.
         23    2    4    4    0    0 -0.27831116274E+03  0.49112496529E+02  0.70349019403E+03  0.76366128439E+03  0.91711305503E+02 0.  0.
          3    1    3    3  502    0 -0.20974111936E+02  0.16109548112E+03  0.18414499039E+03  0.24556271072E+03  0.00000000000E+00 0. -1.
         -2    1    3    3    0  502 -0.56627380080E+02  0.64058539234E+02  0.54679488209E+02  0.10148893070E+03  0.00000000000E+00 0.  1.
         11    1    5    5    0    0  0.22101666971E+03 -0.21893716830E+03  0.56304556798E+02  0.31615194934E+03  0.00000000000E+00 0. -1.
        -11    1    5    5    0    0  0.13489598505E+03 -0.55329348583E+02  0.41592137778E+02  0.15161849993E+03  0.00000000000E+00 0.  1.
          3    1    6    6  503    0 -0.18660399121E+01 -0.56311913583E+01  0.11786600694E+00  0.59334908328E+01  0.00000000000E+00 0.  1.
         -3    1    6    6    0  503 -0.27644512282E+03  0.54743687887E+02  0.70337232802E+03  0.75772779356E+03  0.00000000000E+00 0. -1.
<mgrwt>
<rscale>  0 0.11872532E+04</rscale>
<asrwt>0</asrwt>
<pdfrwt beam="1">  1        1 0.20143805E+00 0.11872532E+04</pdfrwt>
<pdfrwt beam="2">  1       -2 0.41405540E-01 0.11872532E+04</pdfrwt>
<totfact> 0.42761417E+01</totfact>
</mgrwt>
</event>
<event>
12    4  0.4424320E-008  0.1422104E+04  0.7818608E-02  0.8937972E-01
          1   -1    0    0  501    0  0.00000000000E+00  0.00000000000E+00  0.77361370590E+03  0.77361370590E+03  0.00000000000E+00 0. -1.
         -2   -1    0    0    0  501 -0.00000000000E+00 -0.00000000000E+00 -0.65354941782E+03  0.65354941782E+03  0.00000000000E+00 0.  1.
        -24    2    1    2    0    0  0.15738371966E+03  0.39599084608E+03  0.19331760060E+03  0.47471315951E+03  0.80015646707E+02 0.  0.
        254    2    1    2    0    0 -0.15738371966E+03 -0.39599084608E+03 -0.73253312521E+02  0.95244996421E+03  0.84865570236E+03 0.  0.
         23    2    4    4    0    0 -0.47861617016E+03 -0.36871720567E+03 -0.45181487793E+01  0.61037496232E+03  0.86668130631E+02 0.  0.
         23    2    4    4    0    0  0.32123245050E+03 -0.27273640409E+02 -0.68735163742E+02  0.34207500189E+03  0.91414689549E+02 0.  0.
          3    1    3    3  502    0  0.86404185962E+02  0.14083322143E+03  0.10390221663E+03  0.19518030185E+03  0.00000000000E+00 0. -1.
         -4    1    3    3    0  502  0.70979533698E+02  0.25515762464E+03  0.89415383965E+02  0.27953285765E+03  0.00000000000E+00 0.  1.
         11    1    5    5    0    0 -0.72503281916E+02 -0.62825238705E+02 -0.32199021031E+02  0.10119542214E+03  0.00000000000E+00 0. -1.
        -11    1    5    5    0    0 -0.40611288825E+03 -0.30589196696E+03  0.27680872252E+02  0.50917954018E+03  0.00000000000E+00 0.  1.
          4    1    6    6  503    0  0.18385143886E+03 -0.51807619660E+02 -0.67276174695E+02  0.20251287541E+03  0.00000000000E+00 0.  1.
         -4    1    6    6    0  503  0.13738101164E+03  0.24533979251E+02 -0.14589890471E+01  0.13956212648E+03  0.00000000000E+00 0. -1.
<mgrwt>
<rscale>  0 0.14221038E+04</rscale>
<asrwt>0</asrwt>
<pdfrwt beam="1">  1        1 0.11901749E+00 0.14221038E+04</pdfrwt>
<pdfrwt beam="2">  1       -2 0.10054606E+00 0.14221038E+04</pdfrwt>
<totfact> 0.16217120E+01</totfact>
</mgrwt>
</event>
<event>
12    4  0.4424320E-008  0.1689680E+04  0.7818608E-02  0.8767272E-01
          3   -1    0    0  501    0  0.00000000000E+00  0.00000000000E+00  0.13853145488E+04  0.13853145488E+04  0.00000000000E+00 0. -1.
         -4   -1    0    0    0  501 -0.00000000000E+00 -0.00000000000E+00 -0.51522928675E+03  0.51522928675E+03  0.00000000000E+00 0.  1.
        -24    2    1    2    0    0  0.59806260454E+03 -0.25684851962E+02  0.34500570229E+03  0.69563258672E+03  0.80852770679E+02 0.  0.
        254    2    1    2    0    0 -0.59806260454E+03  0.25684851962E+02  0.52507955975E+03  0.12049112488E+04  0.90430303707E+03 0.  0.
         23    2    4    4    0    0  0.54153116537E-01  0.28131091811E+03  0.45643052044E+03  0.54463326840E+03  0.95711762446E+02 0.  0.
         23    2    4    4    0    0 -0.59811675766E+03 -0.25562606615E+03  0.68649039306E+02  0.66027798041E+03  0.90365808405E+02 0.  0.
          1    1    3    3  502    0  0.58714545914E+03 -0.21051583420E+02  0.34870221204E+03  0.68321021073E+03  0.00000000000E+00 0. -1.
         -2    1    3    3    0  502  0.10917145400E+02 -0.46332685412E+01 -0.36965097539E+01  0.12422375998E+02  0.00000000000E+00 0.  1.
         11    1    5    5    0    0  0.36361204789E+02  0.12713286865E+03  0.15204224538E+03  0.20149875406E+03  0.00000000000E+00 0. -1.
        -11    1    5    5    0    0 -0.36307051672E+02  0.15417804946E+03  0.30438827506E+03  0.34313451434E+03  0.00000000000E+00 0.  1.
          3    1    6    6  503    0 -0.53142118541E+03 -0.23531429790E+03  0.88258754047E+02  0.58785279005E+03  0.00000000000E+00 0. -1.
         -3    1    6    6    0  503 -0.66695572250E+02 -0.20311768248E+02 -0.19609714740E+02  0.72425190364E+02  0.00000000000E+00 0.  1.
<mgrwt>
<rscale>  0 0.16896800E+04</rscale>
<asrwt>0</asrwt>
<pdfrwt beam="1">  1        3 0.21312531E+00 0.16896800E+04</pdfrwt>
<pdfrwt beam="2">  1       -4 0.79266045E-01 0.16896800E+04</pdfrwt>
<totfact> 0.37773225E-01</totfact>
</mgrwt>
</event>
<event>
12    4  0.4424320E-008  0.1185202E+04  0.7818608E-02  0.9125908E-01
         -2   -1    0    0    0  501 -0.00000000000E+00  0.00000000000E+00  0.49603691970E+03  0.49603691970E+03  0.00000000000E+00 0.  1.
          1   -1    0    0  501    0  0.00000000000E+00 -0.00000000000E+00 -0.70796377598E+03  0.70796377598E+03  0.00000000000E+00 0. -1.
        -24    2    1    2    0    0  0.12454052215E+03  0.16113662043E+03  0.66365761024E+02  0.22940370687E+03  0.82135828877E+02 0.  0.
        254    2    1    2    0    0 -0.12454052215E+03 -0.16113662043E+03 -0.27829261730E+03  0.97459698881E+03  0.91154657460E+03 0.  0.
         23    2    4    4    0    0 -0.33409908497E+03 -0.40394320692E+02  0.22105194041E+03  0.41294019168E+03  0.91661015861E+02 0.  0.
         23    2    4    4    0    0  0.20955856281E+03 -0.12074229974E+03 -0.49934455771E+03  0.56165679713E+03  0.87291902545E+02 0.  0.
          3    1    3    3  502    0  0.30746715764E+02  0.14725784246E+02  0.41579118671E+02  0.53768321170E+02  0.00000000000E+00 0. -1.
         -4    1    3    3    0  502  0.93793806389E+02  0.14641083619E+03  0.24786642352E+02  0.17563538570E+03  0.00000000000E+00 0.  1.
         11    1    5    5    0    0 -0.16518891949E+03 -0.63420785164E+02  0.94262869612E+02  0.20048706617E+03  0.00000000000E+00 0. -1.
        -11    1    5    5    0    0 -0.16891016547E+03  0.23026464472E+02  0.12678907080E+03  0.21245312551E+03  0.00000000000E+00 0.  1.
          4    1    6    6  503    0  0.31329070724E+02  0.82356564578E+01 -0.34189180537E+02  0.47098161063E+02  0.00000000000E+00 0. -1.
         -4    1    6    6    0  503  0.17822949209E+03 -0.12897795620E+03 -0.46515537718E+03  0.51455863607E+03  0.00000000000E+00 0.  1.
<mgrwt>
<rscale>  0 0.11852024E+04</rscale>
<asrwt>0</asrwt>
<pdfrwt beam="1">  1        1 0.10891750E+00 0.11852024E+04</pdfrwt>
<pdfrwt beam="2">  1       -2 0.76313372E-01 0.11852024E+04</pdfrwt>
<totfact> 0.35705935E+01</totfact>
</mgrwt>
</event>
<event>
12    4  0.4424320E-008  0.2056247E+04  0.7818608E-02  0.8580766E-01
          1   -1    0    0  501    0  0.00000000000E+00  0.00000000000E+00  0.20396551237E+04  0.20396551237E+04  0.00000000000E+00 0. -1.
         -2   -1    0    0    0  501 -0.00000000000E+00 -0.00000000000E+00 -0.51824339386E+03  0.51824339386E+03  0.00000000000E+00 0.  1.
        -24    2    1    2    0    0  0.57355186772E+03 -0.57652244362E+03  0.40252874935E+03  0.91076957926E+03  0.78306829115E+02 0.  0.
        254    2    1    2    0    0 -0.57355186772E+03  0.57652244362E+03  0.11188829805E+04  0.16471289383E+04  0.89431244116E+03 0.  0.
         23    2    4    4    0    0 -0.27331754780E+03 -0.16872031383E+03  0.59687646447E+03  0.68458486074E+03  0.96051504354E+02 0.  0.
         23    2    4    4    0    0 -0.30023431992E+03  0.74524275746E+03  0.52200651603E+03  0.96254407757E+03  0.92048270395E+02 0.  0.
          3    1    3    3  502    0  0.87511340842E+02 -0.51796553921E+02  0.46633519285E+02  0.11187404925E+03  0.00000000000E+00 0. -1.
         -4    1    3    3    0  502  0.48604052688E+03 -0.52472588970E+03  0.35589523007E+03  0.79889553001E+03  0.00000000000E+00 0.  1.
         11    1    5    5    0    0 -0.27820768467E+03 -0.16588466313E+03  0.59667984670E+03  0.67892862418E+03  0.00000000000E+00 0. -1.
        -11    1    5    5    0    0  0.48901368694E+01 -0.28356507046E+01  0.19661776559E+00  0.56562365638E+01  0.00000000000E+00 0.  1.
          1    1    6    6  503    0 -0.30273856434E+03  0.74492228906E+03  0.51445188595E+03  0.95457875424E+03  0.00000000000E+00 0. -1.
         -1    1    6    6    0  503  0.25042444228E+01  0.32046839368E+00  0.75546300786E+01  0.79653233296E+01  0.00000000000E+00 0.  1.
<mgrwt>
<rscale>  0 0.20562469E+04</rscale>
<asrwt>0</asrwt>
<pdfrwt beam="1">  1        1 0.31379309E+00 0.20562469E+04</pdfrwt>
<pdfrwt beam="2">  1       -2 0.79729754E-01 0.20562469E+04</pdfrwt>
<totfact> 0.31630925E+00</totfact>
</mgrwt>
</event>
<event>
12    4  0.4424320E-008  0.1258015E+04  0.7818608E-02  0.9063538E-01
         -2   -1    0    0    0  501 -0.00000000000E+00  0.00000000000E+00  0.15461331362E+03  0.15461331362E+03  0.00000000000E+00 0.  1.
          1   -1    0    0  501    0  0.00000000000E+00 -0.00000000000E+00 -0.25589692254E+04  0.25589692254E+04  0.00000000000E+00 0. -1.
        -24    2    1    2    0    0  0.34712919793E+02  0.29732573103E+03 -0.59868861419E+03  0.67396599330E+03  0.78705312630E+02 0.  0.
        254    2    1    2    0    0 -0.34712919793E+02 -0.29732573103E+03 -0.18056672976E+04  0.20396165457E+04  0.89999649269E+03 0.  0.
         23    2    4    4    0    0  0.34986309549E+03 -0.16956963237E+03 -0.14115023161E+04  0.14668669663E+04  0.90564136450E+02 0.  0.
         23    2    4    4    0    0 -0.38457601529E+03 -0.12775609867E+03 -0.39416498150E+03  0.57274957937E+03  0.91954965900E+02 0.  0.
          3    1    3    3  502    0 -0.11732446443E+01  0.13574840674E+03 -0.34826080062E+03  0.37378415119E+03  0.00000000000E+00 0. -1.
         -4    1    3    3    0  502  0.35886164438E+02  0.16157732429E+03 -0.25042781357E+03  0.30018184211E+03  0.00000000000E+00 0.  1.
         11    1    5    5    0    0  0.18650273418E+03 -0.11817478012E+03 -0.65459646492E+03  0.69082927008E+03  0.00000000000E+00 0. -1.
        -11    1    5    5    0    0  0.16336036131E+03 -0.51394852247E+02 -0.75690585116E+03  0.77603769626E+03  0.00000000000E+00 0.  1.
          1    1    6    6  503    0 -0.10314508696E+03 -0.64863752425E+01 -0.14349896516E+03  0.17684155346E+03  0.00000000000E+00 0. -1.
         -1    1    6    6    0  503 -0.28143092832E+03 -0.12126972342E+03 -0.25066601634E+03  0.39590802592E+03  0.00000000000E+00 0.  1.
<mgrwt>
<rscale>  0 0.12580154E+04</rscale>
<asrwt>0</asrwt>
<pdfrwt beam="1">  1        1 0.39368756E+00 0.12580154E+04</pdfrwt>
<pdfrwt beam="2">  1       -2 0.23786664E-01 0.12580154E+04</pdfrwt>
<totfact> 0.16840603E+01</totfact>
</mgrwt>
</event>
<event>
12    4  0.4424320E-008  0.1708296E+04  0.7818608E-02  0.8756647E-01
         -2   -1    0    0    0  501 -0.00000000000E+00  0.00000000000E+00  0.14986389366E+04  0.14986389366E+04  0.00000000000E+00 0.  1.
          1   -1    0    0  501    0  0.00000000000E+00 -0.00000000000E+00 -0.48682091436E+03  0.48682091436E+03  0.00000000000E+00 0. -1.
        -24    2    1    2    0    0 -0.49754883448E+03 -0.34517890973E+03  0.46396225560E+03  0.76694247443E+03  0.78971273525E+02 0.  0.
        254    2    1    2    0    0  0.49754883448E+03  0.34517890973E+03  0.54785576662E+03  0.12185173765E+04  0.90439777390E+03 0.  0.
         23    2    4    4    0    0 -0.13196746660E+02 -0.36865750963E+02  0.56478927662E+03  0.57403682237E+03  0.94858361426E+02 0.  0.
         23    2    4    4    0    0  0.51074558114E+03  0.38204466069E+03 -0.16933510004E+02  0.64448055414E+03  0.90825489202E+02 0.  0.
          1    1    3    3  502    0 -0.24553626392E+03 -0.15483111940E+03  0.26923939123E+03  0.39591739318E+03  0.00000000000E+00 0. -1.
         -2    1    3    3    0  502 -0.25201257056E+03 -0.19034779033E+03  0.19472286437E+03  0.37102508125E+03  0.00000000000E+00 0.  1.
         11    1    5    5    0    0 -0.47307025581E+02  0.57404693319E+01  0.28835197791E+03  0.29226318759E+03  0.00000000000E+00 0. -1.
        -11    1    5    5    0    0  0.34110278921E+02 -0.42606220295E+02  0.27643729871E+03  0.28177363478E+03  0.00000000000E+00 0.  1.
          4    1    6    6  503    0  0.49339000253E+03  0.37923737892E+03 -0.34221981603E+01  0.62230731605E+03  0.00000000000E+00 0. -1.
         -4    1    6    6    0  503  0.17355578614E+02  0.28072817720E+01 -0.13511311844E+02  0.22173238097E+02  0.00000000000E+00 0.  1.
<mgrwt>
<rscale>  0 0.17082960E+04</rscale>
<asrwt>0</asrwt>
<pdfrwt beam="1">  1        1 0.74895526E-01 0.17082960E+04</pdfrwt>
<pdfrwt beam="2">  1       -2 0.23055983E+00 0.17082960E+04</pdfrwt>
<totfact> 0.32432198E+00</totfact>
</mgrwt>
</event>
<event>
12    4  0.4424320E-008  0.2104181E+04  0.7818608E-02  0.8559404E-01
         -2   -1    0    0    0  501 -0.00000000000E+00  0.00000000000E+00  0.10488002055E+04  0.10488002055E+04  0.00000000000E+00 0.  1.
          1   -1    0    0  501    0  0.00000000000E+00 -0.00000000000E+00 -0.10553908209E+04  0.10553908209E+04  0.00000000000E+00 0. -1.
        -24    2    1    2    0    0 -0.62172675496E+03 -0.58997976485E+03  0.93180214429E+02  0.86585787749E+03  0.80043930934E+02 0.  0.
        254    2    1    2    0    0  0.62172675496E+03  0.58997976485E+03 -0.99770829861E+02  0.12383331489E+04  0.88819732518E+03 0.  0.
         23    2    4    4    0    0  0.56859605313E+03  0.80543999746E+03 -0.37414423306E+02  0.99105853134E+03  0.93606155348E+02 0.  0.
         23    2    4    4    0    0  0.53130701830E+02 -0.21546023261E+03 -0.62356406555E+02  0.24727461758E+03  0.89501015330E+02 0.  0.
          1    1    3    3  502    0 -0.18536758261E+03 -0.18684590909E+03 -0.75378347718E+01  0.26330467785E+03  0.00000000000E+00 0. -1.
         -2    1    3    3    0  502 -0.43635917236E+03 -0.40313385576E+03  0.10071804920E+03  0.60255319964E+03  0.00000000000E+00 0.  1.
         11    1    5    5    0    0  0.38098625682E+03  0.60879860013E+03 -0.39513122975E+02  0.71926876082E+03  0.00000000000E+00 0.  1.
        -11    1    5    5    0    0  0.18760979632E+03  0.19664139733E+03  0.20986996696E+01  0.27178977052E+03  0.00000000000E+00 0. -1.
          2    1    6    6  503    0 -0.18844524914E+02 -0.36006997504E+02  0.81906008691E+01  0.41457278385E+02  0.00000000000E+00 0. -1.
         -2    1    6    6    0  503  0.71975226744E+02 -0.17945323511E+03 -0.70547007424E+02  0.20581733919E+03  0.00000000000E+00 0.  1.
<mgrwt>
<rscale>  0 0.21041807E+04</rscale>
<asrwt>0</asrwt>
<pdfrwt beam="1">  1        1 0.16236782E+00 0.21041807E+04</pdfrwt>
<pdfrwt beam="2">  1       -2 0.16135388E+00 0.21041807E+04</pdfrwt>
<totfact> 0.27200522E+00</totfact>
</mgrwt>
</event>
<event>
12    4  0.4424320E-008  0.1071161E+04  0.7818608E-02  0.9233765E-01
          1   -1    0    0  501    0  0.00000000000E+00  0.00000000000E+00  0.18302925557E+04  0.18302925557E+04  0.00000000000E+00 0. -1.
         -2   -1    0    0    0  501 -0.00000000000E+00 -0.00000000000E+00 -0.15672163381E+03  0.15672163381E+03  0.00000000000E+00 0.  1.
        -24    2    1    2    0    0 -0.10071083016E+03 -0.54758621314E+02  0.10552904018E+03  0.17535850357E+03  0.80455257963E+02 0.  0.
        254    2    1    2    0    0  0.10071083016E+03  0.54758621314E+02  0.15680418817E+04  0.18116556859E+04  0.90011099519E+03 0.  0.
         23    2    4    4    0    0 -0.31655602984E+02  0.41655680280E+03  0.42975831177E+03  0.60638924064E+03  0.92163211050E+02 0.  0.
         23    2    4    4    0    0  0.13236643315E+03 -0.36179818148E+03  0.11382835699E+04  0.12052664453E+04  0.92514441084E+02 0.  0.
          3    1    3    3  502    0 -0.54726991941E+02 -0.42143402902E+02  0.10733688878E+03  0.12764136378E+03  0.00000000000E+00 0. -1.
         -4    1    3    3    0  502 -0.45983838221E+02 -0.12615218412E+02 -0.18078486027E+01  0.47717139789E+02  0.00000000000E+00 0.  1.
         11    1    5    5    0    0 -0.22039667663E+02  0.10071167917E+03  0.16294094455E+03  0.19281685788E+03  0.00000000000E+00 0.  1.
        -11    1    5    5    0    0 -0.96159353215E+01  0.31584512363E+03  0.26681736723E+03  0.41357238276E+03  0.00000000000E+00 0. -1.
          3    1    6    6  503    0  0.79547856296E+02 -0.17813420477E+03  0.70929741512E+03  0.73563746469E+03  0.00000000000E+00 0. -1.
         -3    1    6    6    0  503  0.52818576849E+02 -0.18366397671E+03  0.42898615483E+03  0.46962898062E+03  0.00000000000E+00 0.  1.
<mgrwt>
<rscale>  0 0.10711609E+04</rscale>
<asrwt>0</asrwt>
<pdfrwt beam="1">  1        1 0.28158346E+00 0.10711609E+04</pdfrwt>
<pdfrwt beam="2">  1       -2 0.24111022E-01 0.10711609E+04</pdfrwt>
<totfact> 0.52248705E+01</totfact>
</mgrwt>
</event>
<event>
12    4  0.4424320E-008  0.1556054E+04  0.7818608E-02  0.8848010E-01
         -2   -1    0    0    0  501 -0.00000000000E+00  0.00000000000E+00  0.62059100710E+03  0.62059100710E+03  0.00000000000E+00 0.  1.
          1   -1    0    0  501    0  0.00000000000E+00 -0.00000000000E+00 -0.97540307284E+03  0.97540307284E+03  0.00000000000E+00 0. -1.
        -24    2    1    2    0    0 -0.11051955000E+03  0.29625397722E+03 -0.53386909369E+03  0.62566272299E+03  0.80353243788E+02 0.  0.
        254    2    1    2    0    0  0.11051955000E+03 -0.29625397722E+03  0.17905702796E+03  0.97033135695E+03  0.89972247558E+03 0.  0.
         23    2    4    4    0    0  0.35016404780E+03  0.15686688773E+02 -0.20226606255E+03  0.41480225788E+03  0.91040762872E+02 0.  0.
         23    2    4    4    0    0 -0.23964449779E+03 -0.31194066599E+03  0.38132309051E+03  0.55552909908E+03  0.92026170957E+02 0.  0.
          1    1    3    3  502    0 -0.74304449922E+02  0.15854143335E+03 -0.36462244614E+03  0.40448246636E+03  0.00000000000E+00 0. -1.
         -2    1    3    3    0  502 -0.36215100083E+02  0.13771254387E+03 -0.16924664756E+03  0.22118025663E+03  0.00000000000E+00 0.  1.
         11    1    5    5    0    0  0.35561782826E+03  0.12544581170E+02 -0.19919086441E+03  0.40779701661E+03  0.00000000000E+00 0. -1.
        -11    1    5    5    0    0 -0.54537804641E+01  0.31421076032E+01 -0.30751981430E+01  0.70052412635E+01  0.00000000000E+00 0.  1.
          1    1    6    6  503    0 -0.10063407513E+03 -0.63435344249E+02  0.10297379837E+03  0.15733678250E+03  0.00000000000E+00 0. -1.
         -1    1    6    6    0  503 -0.13901042266E+03 -0.24850532174E+03  0.27834929214E+03  0.39819231658E+03  0.00000000000E+00 0.  1.
<mgrwt>
<rscale>  0 0.15560545E+04</rscale>
<asrwt>0</asrwt>
<pdfrwt beam="1">  1        1 0.15006201E+00 0.15560545E+04</pdfrwt>
<pdfrwt beam="2">  1       -2 0.95475540E-01 0.15560545E+04</pdfrwt>
<totfact> 0.12302541E+01</totfact>
</mgrwt>
</event>
<event>
12    4  0.4424320E-008  0.1578917E+04  0.7818608E-02  0.8833606E-01
         -2   -1    0    0    0  501 -0.00000000000E+00  0.00000000000E+00  0.13883414343E+04  0.13883414343E+04  0.00000000000E+00 0.  1.
          1   -1    0    0  501    0  0.00000000000E+00 -0.00000000000E+00 -0.44891303404E+03  0.44891303404E+03  0.00000000000E+00 0. -1.
        -24    2    1    2    0    0  0.11747005210E+03 -0.17118298464E+03 -0.24609010311E+03  0.33141564414E+03  0.78569478521E+02 0.  0.
        254    2    1    2    0    0 -0.11747005210E+03  0.17118298464E+03  0.11855185033E+04  0.15058388242E+04  0.90498266019E+03 0.  0.
         23    2    4    4    0    0  0.74583788921E+02  0.10800321141E+03 -0.10836726664E+03  0.19313066518E+03  0.91260912277E+02 0.  0.
         23    2    4    4    0    0 -0.19205384102E+03  0.63179773232E+02  0.12938857700E+04  0.13127081590E+04  0.90476313573E+02 0.  0.
          3    1    3    3  502    0  0.11492502619E+03 -0.16774993259E+03 -0.25219722459E+03  0.32396179037E+03  0.00000000000E+00 0. -1.
         -4    1    3    3    0  502  0.25450259145E+01 -0.34330520536E+01  0.61071214739E+01  0.74538537687E+01  0.00000000000E+00 0.  1.
         11    1    5    5    0    0  0.77690658051E+02  0.76751070531E+02 -0.11750892795E+03  0.16042105013E+03  0.00000000000E+00 0.  1.
        -11    1    5    5    0    0 -0.31068691304E+01  0.31252140878E+02  0.91416613124E+01  0.32709615051E+02  0.00000000000E+00 0. -1.
          2    1    6    6  503    0 -0.14724365625E+03  0.13459251565E+02  0.10253790232E+04  0.10359845496E+04  0.00000000000E+00 0. -1.
         -2    1    6    6    0  503 -0.44810184778E+02  0.49720521667E+02  0.26850674674E+03  0.27672360937E+03  0.00000000000E+00 0.  1.
<mgrwt>
<rscale>  0 0.15789168E+04</rscale>
<asrwt>0</asrwt>
<pdfrwt beam="1">  1        1 0.69063544E-01 0.15789168E+04</pdfrwt>
<pdfrwt beam="2">  1       -2 0.21359099E+00 0.15789168E+04</pdfrwt>
<totfact> 0.46849470E+00</totfact>
</mgrwt>
</event>
<event>
12    4  0.4424320E-008  0.2173341E+04  0.7818608E-02  0.8529607E-01
          1   -1    0    0  501    0  0.00000000000E+00  0.00000000000E+00  0.26344852093E+04  0.26344852093E+04  0.00000000000E+00 0. -1.
         -2   -1    0    0    0  501 -0.00000000000E+00 -0.00000000000E+00 -0.44822912590E+03  0.44822912590E+03  0.00000000000E+00 0.  1.
        -24    2    1    2    0    0 -0.30525959256E+03 -0.84443365028E+03  0.99695592146E+03  0.13443668243E+04  0.84554363447E+02 0.  0.
        254    2    1    2    0    0  0.30525959256E+03  0.84443365028E+03  0.11893001620E+04  0.17383475109E+04  0.89507853559E+03 0.  0.
         23    2    4    4    0    0 -0.13492246868E+03  0.24185511741E+03  0.87771094251E+03  0.92480063764E+03  0.90453028769E+02 0.  0.
         23    2    4    4    0    0  0.44018206124E+03  0.60257853288E+03  0.31158921944E+03  0.81354687327E+03  0.88935583464E+02 0.  0.
          3    1    3    3  502    0 -0.80914426118E+02 -0.14281297222E+03  0.15647557485E+03  0.22677586933E+03  0.00000000000E+00 0. -1.
         -4    1    3    3    0  502 -0.22434516644E+03 -0.70162067806E+03  0.84048034661E+03  0.11175909550E+04  0.00000000000E+00 0.  1.
         11    1    5    5    0    0 -0.26732658139E+02  0.14017398229E+03  0.44588265654E+03  0.46816100193E+03  0.00000000000E+00 0. -1.
        -11    1    5    5    0    0 -0.10818981054E+03  0.10168113512E+03  0.43182828597E+03  0.45663963572E+03  0.00000000000E+00 0.  1.
          2    1    6    6  503    0  0.12029002434E+03  0.20601531623E+03  0.63586246570E+02  0.24689109184E+03  0.00000000000E+00 0. -1.
         -2    1    6    6    0  503  0.31989203690E+03  0.39656321665E+03  0.24800297287E+03  0.56665578143E+03  0.00000000000E+00 0.  1.
<mgrwt>
<rscale>  0 0.21733412E+04</rscale>
<asrwt>0</asrwt>
<pdfrwt beam="1">  1        1 0.40530541E+00 0.21733412E+04</pdfrwt>
<pdfrwt beam="2">  1       -2 0.68958329E-01 0.21733412E+04</pdfrwt>
<totfact> 0.16838268E+00</totfact>
</mgrwt>
</event>
<event>
12    4  0.4424320E-008  0.1626767E+04  0.7818608E-02  0.8804271E-01
         -2   -1    0    0    0  501 -0.00000000000E+00  0.00000000000E+00  0.92175370898E+03  0.92175370898E+03  0.00000000000E+00 0.  1.
          1   -1    0    0  501    0  0.00000000000E+00 -0.00000000000E+00 -0.71775406654E+03  0.71775406654E+03  0.00000000000E+00 0. -1.
        -24    2    1    2    0    0  0.47849615088E+03  0.24248677254E+03 -0.73730143469E+02  0.54769890312E+03  0.82338042036E+02 0.  0.
        254    2    1    2    0    0 -0.47849615088E+03 -0.24248677254E+03  0.27772978591E+03  0.10918088724E+04  0.90948027938E+03 0.  0.
         23    2    4    4    0    0  0.11044099727E+03 -0.41024170647E+03  0.10365033106E+03  0.44877043630E+03  0.10077718869E+03 0.  0.
         23    2    4    4    0    0 -0.58893714815E+03  0.16775493394E+03  0.17407945485E+03  0.64303843609E+03  0.90587479051E+02 0.  0.
          3    1    3    3  502    0  0.82383078618E+01 -0.32578610569E+01 -0.98865121247E+01  0.13275032847E+02  0.00000000000E+00 0. -1.
         -4    1    3    3    0  502  0.47025784302E+03  0.24574463359E+03 -0.63843631344E+02  0.53442387028E+03  0.00000000000E+00 0.  1.
         11    1    5    5    0    0  0.59863205103E+02 -0.12820033926E+03  0.76765051571E+02  0.16097143676E+03  0.00000000000E+00 0.  1.
        -11    1    5    5    0    0  0.50577792168E+02 -0.28204136721E+03  0.26885279493E+02  0.28779899953E+03  0.00000000000E+00 0. -1.
          4    1    6    6  503    0 -0.55019022015E+03  0.14285607900E+03  0.13910559725E+03  0.58520723239E+03  0.00000000000E+00 0. -1.
         -4    1    6    6    0  503 -0.38746928003E+02  0.24898854935E+02  0.34973857594E+02  0.57831203703E+02  0.00000000000E+00 0.  1.
<mgrwt>
<rscale>  0 0.16267667E+04</rscale>
<asrwt>0</asrwt>
<pdfrwt beam="1">  1        1 0.11042370E+00 0.16267667E+04</pdfrwt>
<pdfrwt beam="2">  1       -2 0.14180826E+00 0.16267667E+04</pdfrwt>
<totfact> 0.76321586E+00</totfact>
</mgrwt>
</event>
<event>
12    4  0.4424320E-008  0.2540315E+04  0.7818608E-02  0.8388762E-01
          1   -1    0    0  501    0  0.00000000000E+00  0.00000000000E+00  0.11818160936E+04  0.11818160936E+04  0.00000000000E+00 0. -1.
         -2   -1    0    0    0  501 -0.00000000000E+00 -0.00000000000E+00 -0.13651027805E+04  0.13651027805E+04  0.00000000000E+00 0.  1.
        -24    2    1    2    0    0  0.54040725977E+03  0.96385423740E+03 -0.17182501057E+03  0.11211452965E+04  0.79924615239E+02 0.  0.
        254    2    1    2    0    0 -0.54040725977E+03 -0.96385423740E+03 -0.11461676360E+02  0.14257735777E+04  0.90091283006E+03 0.  0.
         23    2    4    4    0    0 -0.15619550917E+03 -0.75423907313E+03  0.34971999940E+03  0.85088462301E+03  0.91798405070E+02 0.  0.
         23    2    4    4    0    0 -0.38421175060E+03 -0.20961516427E+03 -0.36118167576E+03  0.57488895466E+03  0.92129913116E+02 0.  0.
          1    1    3    3  502    0  0.98647947213E+02  0.16130196908E+03 -0.59311958905E+02  0.19816067013E+03  0.00000000000E+00 0. -1.
         -2    1    3    3    0  502  0.44175931256E+03  0.80255226832E+03 -0.11251305167E+03  0.92298462632E+03  0.00000000000E+00 0.  1.
         11    1    5    5    0    0  0.71552390624E+01 -0.13627614696E+02 -0.74951902797E+00  0.15410097570E+02  0.00000000000E+00 0. -1.
        -11    1    5    5    0    0 -0.16335074824E+03 -0.74061145844E+03  0.35046951843E+03  0.83547452544E+03  0.00000000000E+00 0.  1.
          2    1    6    6  503    0 -0.16521538990E+03 -0.63537315703E+02 -0.96587789329E+02  0.20164899353E+03  0.00000000000E+00 0. -1.
         -2    1    6    6    0  503 -0.21899636070E+03 -0.14607784857E+03 -0.26459388643E+03  0.37323996112E+03  0.00000000000E+00 0.  1.
<mgrwt>
<rscale>  0 0.25403153E+04</rscale>
<asrwt>0</asrwt>
<pdfrwt beam="1">  1        1 0.18181786E+00 0.25403153E+04</pdfrwt>
<pdfrwt beam="2">  1       -2 0.21001581E+00 0.25403153E+04</pdfrwt>
<totfact> 0.97990526E-01</totfact>
</mgrwt>
</event>
<event>
12    4  0.4424320E-008  0.1402903E+04  0.7818608E-02  0.8951720E-01
         -2   -1    0    0    0  501 -0.00000000000E+00  0.00000000000E+00  0.71148396878E+03  0.71148396878E+03  0.00000000000E+00 0.  1.
          1   -1    0    0  501    0  0.00000000000E+00 -0.00000000000E+00 -0.69156081024E+03  0.69156081024E+03  0.00000000000E+00 0. -1.
        -24    2    1    2    0    0 -0.37174826115E+03  0.68622673184E+02 -0.13648838946E+03  0.41114461980E+03  0.86631270283E+02 0.  0.
        254    2    1    2    0    0  0.37174826115E+03 -0.68622673184E+02  0.15641154801E+03  0.99190015922E+03  0.90360141244E+03 0.  0.
         23    2    4    4    0    0  0.37188176750E+03  0.18879450945E+03 -0.25559437050E+03  0.49761598377E+03  0.91398956647E+02 0.  0.
         23    2    4    4    0    0 -0.13350635788E+00 -0.25741718264E+03  0.41200591850E+03  0.49428417544E+03  0.91128181554E+02 0.  0.
          1    1    3    3  502    0 -0.21744518730E+03  0.80180800396E+02 -0.65042583199E+02  0.24071125412E+03  0.00000000000E+00 0. -1.
         -2    1    3    3    0  502 -0.15430307385E+03 -0.11558127212E+02 -0.71445806261E+02  0.17043336568E+03  0.00000000000E+00 0.  1.
         11    1    5    5    0    0  0.20529762671E+03  0.68025484735E+02 -0.16859113339E+03  0.27422172117E+03  0.00000000000E+00 0. -1.
        -11    1    5    5    0    0  0.16658414080E+03  0.12076902472E+03 -0.87003237108E+02  0.22339426260E+03  0.00000000000E+00 0.  1.
          3    1    6    6  503    0 -0.59696134969E+01 -0.23262181042E+02  0.47581439839E+01  0.24482754875E+02  0.00000000000E+00 0. -1.
         -3    1    6    6    0  503  0.58361071390E+01 -0.23415500159E+03  0.40724777452E+03  0.46980142057E+03  0.00000000000E+00 0.  1.
<mgrwt>
<rscale>  0 0.14029033E+04</rscale>
<asrwt>0</asrwt>
<pdfrwt beam="1">  1        1 0.10639397E+00 0.14029033E+04</pdfrwt>
<pdfrwt beam="2">  1       -2 0.10945907E+00 0.14029033E+04</pdfrwt>
<totfact> 0.15748759E+01</totfact>
</mgrwt>
</event>
<event>
12    4  0.4424320E-008  0.1467730E+04  0.7818608E-02  0.8906200E-01
          1   -1    0    0  501    0  0.00000000000E+00  0.00000000000E+00  0.11656462994E+04  0.11656462994E+04  0.00000000000E+00 0. -1.
         -2   -1    0    0    0  501 -0.00000000000E+00 -0.00000000000E+00 -0.46202538709E+03  0.46202538709E+03  0.00000000000E+00 0.  1.
        -24    2    1    2    0    0  0.34937801652E+03 -0.11131536286E+03  0.52359121481E+03  0.64432861592E+03  0.80966021446E+02 0.  0.
        254    2    1    2    0    0 -0.34937801652E+03  0.11131536286E+03  0.18002969746E+03  0.98334307053E+03  0.89448129884E+03 0.  0.
         23    2    4    4    0    0  0.28230595521E+03  0.92361934638E+02  0.14287597608E+03  0.34380355743E+03  0.97775059435E+02 0.  0.
         23    2    4    4    0    0 -0.63168397173E+03  0.18953428218E+02  0.37153721381E+02  0.63953951310E+03  0.90810336562E+02 0.  0.
          1    1    3    3  502    0  0.31836216168E+03 -0.10869499991E+03  0.43162524896E+03  0.54723799624E+03  0.00000000000E+00 0. -1.
         -2    1    3    3    0  502  0.31015854837E+02 -0.26203629478E+01  0.91965965854E+02  0.97090619675E+02  0.00000000000E+00 0.  1.
         11    1    5    5    0    0  0.28892293978E+03  0.86568341147E+02  0.14514569749E+03  0.33472050478E+03  0.00000000000E+00 0.  1.
        -11    1    5    5    0    0 -0.66169845683E+01  0.57935934908E+01 -0.22697214090E+01  0.90830526580E+01  0.00000000000E+00 0. -1.
          2    1    6    6  503    0 -0.99728692752E+02  0.36433526401E+02  0.88990539887E+01  0.10654767555E+03  0.00000000000E+00 0. -1.
         -2    1    6    6    0  503 -0.53195527897E+03 -0.17480098183E+02  0.28254667393E+02  0.53299183755E+03  0.00000000000E+00 0.  1.
<mgrwt>
<rscale>  0 0.14677305E+04</rscale>
<asrwt>0</asrwt>
<pdfrwt beam="1">  1        1 0.17933020E+00 0.14677305E+04</pdfrwt>
<pdfrwt beam="2">  1       -2 0.71080829E-01 0.14677305E+04</pdfrwt>
<totfact> 0.17317129E+01</totfact>
</mgrwt>
</event>
<event>
12    4  0.4424320E-008  0.1342401E+04  0.7818608E-02  0.8996601E-01
         -4   -1    0    0    0  501 -0.00000000000E+00  0.00000000000E+00  0.36373820713E+03  0.36373820713E+03  0.00000000000E+00 0.  1.
          1   -1    0    0  501    0  0.00000000000E+00 -0.00000000000E+00 -0.12385558071E+04  0.12385558071E+04  0.00000000000E+00 0. -1.
        -24    2    1    2    0    0  0.23538402499E+03 -0.13138385070E+03 -0.53512941047E+03  0.60467048436E+03  0.81213011611E+02 0.  0.
        254    2    1    2    0    0 -0.23538402499E+03  0.13138385070E+03 -0.33968818953E+03  0.99762352991E+03  0.89844158735E+03 0.  0.
         23    2    4    4    0    0 -0.22312148808E+03  0.47505689197E+03 -0.41239480959E+02  0.53396490882E+03  0.89194058116E+02 0.  0.
         23    2    4    4    0    0 -0.12262536903E+02 -0.34367304127E+03 -0.29844870857E+03  0.46365862109E+03  0.87442301866E+02 0.  0.
          3    1    3    3  502    0  0.17785512478E+03 -0.13589059644E+03 -0.42676520012E+03  0.48189961159E+03  0.00000000000E+00 0. -1.
         -4    1    3    3    0  502  0.57528900209E+02  0.45067457351E+01 -0.10836421035E+03  0.12277087277E+03  0.00000000000E+00 0.  1.
         11    1    5    5    0    0 -0.18722846197E+03  0.44377324576E+03 -0.54004460715E+02  0.48467068449E+03  0.00000000000E+00 0. -1.
        -11    1    5    5    0    0 -0.35893026116E+02  0.31283646209E+02  0.12764979756E+02  0.49294224328E+02  0.00000000000E+00 0.  1.
          1    1    6    6  503    0 -0.41080741754E+02 -0.25969709855E+03 -0.19506463365E+03  0.32738421104E+03  0.00000000000E+00 0.  1.
         -1    1    6    6    0  503  0.28818204851E+02 -0.83975942725E+02 -0.10338407493E+03  0.13627441005E+03  0.00000000000E+00 0. -1.
<mgrwt>
<rscale>  0 0.13424009E+04</rscale>
<asrwt>0</asrwt>
<pdfrwt beam="1">  1        1 0.19054705E+00 0.13424009E+04</pdfrwt>
<pdfrwt beam="2">  1       -4 0.55959724E-01 0.13424009E+04</pdfrwt>
<totfact> 0.14615166E+01</totfact>
</mgrwt>
</event>
<event>
12    4  0.4424320E-008  0.1803679E+04  0.7818608E-02  0.8704345E-01
         -2   -1    0    0    0  501 -0.00000000000E+00  0.00000000000E+00  0.79784392582E+03  0.79784392582E+03  0.00000000000E+00 0.  1.
          1   -1    0    0  501    0  0.00000000000E+00 -0.00000000000E+00 -0.10193910059E+04  0.10193910059E+04  0.00000000000E+00 0. -1.
        -24    2    1    2    0    0  0.33715187083E+03 -0.55335787586E+03 -0.27386774440E+03  0.70791322707E+03  0.79128205218E+02 0.  0.
        254    2    1    2    0    0 -0.33715187083E+03  0.55335787586E+03  0.52320664330E+02  0.11093217046E+04  0.89887756102E+03 0.  0.
         23    2    4    4    0    0  0.17443334811E+03  0.52331379343E+03 -0.98694324432E+02  0.56756358571E+03  0.90019635735E+02 0.  0.
         23    2    4    4    0    0 -0.51158521894E+03  0.30044082434E+02  0.15101498876E+03  0.54175811894E+03  0.89856827694E+02 0.  0.
          3    1    3    3  502    0  0.43595646443E+02 -0.88444250534E+02 -0.13429820121E+02  0.99515455633E+02  0.00000000000E+00 0. -1.
         -4    1    3    3    0  502  0.29355622438E+03 -0.46491362533E+03 -0.26043792428E+03  0.60839777144E+03  0.00000000000E+00 0.  1.
         11    1    5    5    0    0  0.32129932214E+01  0.13415346111E+02  0.12150562801E+02  0.18382900019E+02  0.00000000000E+00 0. -1.
        -11    1    5    5    0    0  0.17122035489E+03  0.50989844732E+03 -0.11084488723E+03  0.54918068569E+03  0.00000000000E+00 0.  1.
          4    1    6    6  503    0 -0.10840268938E+03 -0.24217163254E+02  0.54132947819E+02  0.12356370867E+03  0.00000000000E+00 0. -1.
         -4    1    6    6    0  503 -0.40318252956E+03  0.54261245688E+02  0.96882040943E+02  0.41819441027E+03  0.00000000000E+00 0.  1.
<mgrwt>
<rscale>  0 0.18036795E+04</rscale>
<asrwt>0</asrwt>
<pdfrwt beam="1">  1        1 0.15682938E+00 0.18036795E+04</pdfrwt>
<pdfrwt beam="2">  1       -2 0.12274522E+00 0.18036795E+04</pdfrwt>
<totfact> 0.60648942E+00</totfact>
</mgrwt>
</event>
<event>
12    4  0.4424320E-008  0.1699794E+04  0.7818608E-02  0.8761482E-01
          1   -1    0    0  501    0  0.00000000000E+00  0.00000000000E+00  0.29894625096E+04  0.29894625096E+04  0.00000000000E+00 0. -1.
         -2   -1    0    0    0  501 -0.00000000000E+00 -0.00000000000E+00 -0.24162368554E+03  0.24162368554E+03  0.00000000000E+00 0.  1.
        -24    2    1    2    0    0  0.47224307512E+03 -0.33718782136E+03  0.64142228744E+03  0.86867926639E+03  0.80448543485E+02 0.  0.
        254    2    1    2    0    0 -0.47224307512E+03  0.33718782136E+03  0.21064165366E+04  0.23624069288E+04  0.89848022928E+03 0.  0.
         23    2    4    4    0    0  0.84298785178E+02 -0.19272220284E+03  0.91092713984E+03  0.93857322972E+03  0.82965780926E+02 0.  0.
         23    2    4    4    0    0 -0.55654186030E+03  0.52991002420E+03  0.11954893968E+04  0.14238336991E+04  0.86971424475E+02 0.  0.
          3    1    3    3  502    0  0.54039394955E+02 -0.10315052726E+02  0.58796772731E+02  0.80521531303E+02  0.00000000000E+00 0. -1.
         -4    1    3    3    0  502  0.41820368017E+03 -0.32687276863E+03  0.58262551471E+03  0.78815773508E+03  0.00000000000E+00 0.  1.
         11    1    5    5    0    0 -0.38541933900E+01  0.49963372340E+01  0.67987734045E+02  0.68279939756E+02  0.00000000000E+00 0. -1.
        -11    1    5    5    0    0  0.88152978568E+02 -0.19771854007E+03  0.84293940579E+03  0.87029328996E+03  0.00000000000E+00 0.  1.
          1    1    6    6  503    0 -0.21193277297E+03  0.15607592738E+03  0.45384224925E+03  0.52464081291E+03  0.00000000000E+00 0. -1.
         -1    1    6    6    0  503 -0.34460908733E+03  0.37383409682E+03  0.74164714756E+03  0.89919288615E+03  0.00000000000E+00 0.  1.
<mgrwt>
<rscale>  0 0.16997940E+04</rscale>
<asrwt>0</asrwt>
<pdfrwt beam="1">  1        1 0.45991728E+00 0.16997940E+04</pdfrwt>
<pdfrwt beam="2">  1       -2 0.37172877E-01 0.16997940E+04</pdfrwt>
<totfact> 0.34827652E+00</totfact>
</mgrwt>
</event>
<event>
12    4  0.4424320E-008  0.1832478E+04  0.7818608E-02  0.8689216E-01
          1   -1    0    0  501    0  0.00000000000E+00  0.00000000000E+00  0.29665922734E+04  0.29665922734E+04  0.00000000000E+00 0. -1.
         -2   -1    0    0    0  501 -0.00000000000E+00 -0.00000000000E+00 -0.28298259809E+03  0.28298259809E+03  0.00000000000E+00 0.  1.
        -24    2    1    2    0    0 -0.88783941169E+02 -0.69389145273E+03  0.83908085233E+03  0.10953205107E+04  0.79387707578E+02 0.  0.
        254    2    1    2    0    0  0.88783941169E+02  0.69389145273E+03  0.18445288229E+04  0.21542543607E+04  0.86553875451E+03 0.  0.
         23    2    4    4    0    0  0.90882955696E+01 -0.17554014572E+03  0.15857244925E+03  0.25365010250E+03  0.91083549326E+02 0.  0.
         23    2    4    4    0    0  0.79695645599E+02  0.86943159846E+03  0.16859563737E+04  0.19006042582E+04  0.87091629915E+02 0.  0.
          1    1    3    3  502    0 -0.13831615425E+02 -0.18129794846E+03  0.27266134776E+03  0.32772621236E+03  0.00000000000E+00 0. -1.
         -2    1    3    3    0  502 -0.74952325744E+02 -0.51259350427E+03  0.56641950457E+03  0.76759429839E+03  0.00000000000E+00 0.  1.
         11    1    5    5    0    0  0.31467576522E+02 -0.42796610977E+02  0.11651902562E+02  0.54383132648E+02  0.00000000000E+00 0.  1.
        -11    1    5    5    0    0 -0.22379280953E+02 -0.13274353475E+03  0.14692054669E+03  0.19926696985E+03  0.00000000000E+00 0. -1.
          3    1    6    6  503    0  0.25021117230E+02  0.20820089109E+03  0.32939038001E+03  0.39047623462E+03  0.00000000000E+00 0. -1.
         -3    1    6    6    0  503  0.54674528369E+02  0.66123070737E+03  0.13565659937E+04  0.15101280236E+04  0.00000000000E+00 0.  1.
<mgrwt>
<rscale>  0 0.18324781E+04</rscale>
<asrwt>0</asrwt>
<pdfrwt beam="1">  1        1 0.45639879E+00 0.18324781E+04</pdfrwt>
<pdfrwt beam="2">  1       -2 0.43535786E-01 0.18324781E+04</pdfrwt>
<totfact> 0.26214905E+00</totfact>
</mgrwt>
</event>
<event>
12    4  0.4424320E-008  0.2352663E+04  0.7818608E-02  0.8457441E-01
         -2   -1    0    0    0  501 -0.00000000000E+00  0.00000000000E+00  0.83858342088E+03  0.83858342088E+03  0.00000000000E+00 0.  1.
          1   -1    0    0  501    0  0.00000000000E+00 -0.00000000000E+00 -0.16501112483E+04  0.16501112483E+04  0.00000000000E+00 0. -1.
        -24    2    1    2    0    0  0.87621129424E+02 -0.97478482649E+03 -0.11556617346E+03  0.98889897712E+03  0.81747943234E+02 0.  0.
        254    2    1    2    0    0 -0.87621129424E+02  0.97478482649E+03 -0.69596165398E+03  0.14997956921E+04  0.89841058203E+03 0.  0.
         23    2    4    4    0    0  0.98582189624E+02  0.93708863982E+03 -0.82446098332E+03  0.12552685267E+04  0.90053284479E+02 0.  0.
         23    2    4    4    0    0 -0.18620331905E+03  0.37696186672E+02  0.12849932934E+03  0.24452716541E+03  0.84786664442E+02 0.  0.
          3    1    3    3  502    0  0.28972837722E+02 -0.49988086326E+03 -0.96990460927E+02  0.51002691330E+03  0.00000000000E+00 0. -1.
         -4    1    3    3    0  502  0.58648291702E+02 -0.47490396323E+03 -0.18575712537E+02  0.47887206382E+03  0.00000000000E+00 0.  1.
         11    1    5    5    0    0 -0.11753650253E+02  0.27571435000E+03 -0.23328813286E+03  0.36135841491E+03  0.00000000000E+00 0. -1.
        -11    1    5    5    0    0  0.11033583988E+03  0.66137428982E+03 -0.59117285046E+03  0.89391011176E+03  0.00000000000E+00 0.  1.
          1    1    6    6  503    0 -0.29449611809E+02 -0.17398828248E+02  0.50455360949E+02  0.60956888935E+02  0.00000000000E+00 0. -1.
         -1    1    6    6    0  503 -0.15675370724E+03  0.55095014920E+02  0.78043968396E+02  0.18357027647E+03  0.00000000000E+00 0.  1.
<mgrwt>
<rscale>  0 0.23526631E+04</rscale>
<asrwt>0</asrwt>
<pdfrwt beam="1">  1        1 0.25386327E+00 0.23526631E+04</pdfrwt>
<pdfrwt beam="2">  1       -2 0.12901283E+00 0.23526631E+04</pdfrwt>
<totfact> 0.18038385E+00</totfact>
</mgrwt>
</event>
<event>
12    4  0.4424320E-008  0.1993994E+04  0.7818608E-02  0.8609434E-01
          1   -1    0    0  501    0  0.00000000000E+00  0.00000000000E+00  0.80893685283E+03  0.80893685283E+03  0.00000000000E+00 0. -1.
         -2   -1    0    0    0  501 -0.00000000000E+00 -0.00000000000E+00 -0.12287775025E+04  0.12287775025E+04  0.00000000000E+00 0.  1.
        -24    2    1    2    0    0  0.12973672492E+03  0.42281017718E+03 -0.83743688710E+03  0.95121805011E+03  0.88967270814E+02 0.  0.
        254    2    1    2    0    0 -0.12973672492E+03 -0.42281017718E+03  0.41759623740E+03  0.10864963052E+04  0.90027081487E+03 0.  0.
         23    2    4    4    0    0 -0.48857058117E+03 -0.38915413187E+03  0.25753085333E+03  0.68166430915E+03  0.90564556063E+02 0.  0.
         23    2    4    4    0    0  0.35883385625E+03 -0.33656045304E+02  0.16006538407E+03  0.40483199609E+03  0.91507115047E+02 0.  0.
          1    1    3    3  502    0  0.58918113271E+02  0.78649038058E+02 -0.15265735075E+03  0.18155242218E+03  0.00000000000E+00 0. -1.
         -2    1    3    3    0  502  0.70818611647E+02  0.34416113912E+03 -0.68477953634E+03  0.76966562794E+03  0.00000000000E+00 0.  1.
         11    1    5    5    0    0 -0.30629293486E+02 -0.33975113275E+02 -0.38617173625E+01  0.45906152120E+02  0.00000000000E+00 0. -1.
        -11    1    5    5    0    0 -0.45794128769E+03 -0.35517901860E+03  0.26139257069E+03  0.63575815703E+03  0.00000000000E+00 0.  1.
          1    1    6    6  503    0  0.11195822836E+03 -0.34105061254E+02  0.13719069312E+02  0.11783892805E+03  0.00000000000E+00 0. -1.
         -1    1    6    6    0  503  0.24687562790E+03  0.44901594984E+00  0.14634631476E+03  0.28699306805E+03  0.00000000000E+00 0.  1.
<mgrwt>
<rscale>  0 0.19939944E+04</rscale>
<asrwt>0</asrwt>
<pdfrwt beam="1">  1        1 0.12445182E+00 0.19939944E+04</pdfrwt>
<pdfrwt beam="2">  1       -2 0.18904269E+00 0.19939944E+04</pdfrwt>
<totfact> 0.27770066E+00</totfact>
</mgrwt>
</event>
<event>
12    4  0.4424320E-008  0.1563522E+04  0.7818608E-02  0.8843276E-01
          1   -1    0    0  501    0  0.00000000000E+00  0.00000000000E+00  0.86808053282E+03  0.86808053282E+03  0.00000000000E+00 0. -1.
         -2   -1    0    0    0  501 -0.00000000000E+00 -0.00000000000E+00 -0.70402526147E+03  0.70402526147E+03  0.00000000000E+00 0.  1.
        -24    2    1    2    0    0  0.14178873762E+03 -0.36335891667E+03  0.39099421962E+03  0.55822460353E+03  0.81267950466E+02 0.  0.
        254    2    1    2    0    0 -0.14178873762E+03  0.36335891667E+03 -0.22693894826E+03  0.10138811908E+04  0.90792072027E+03 0.  0.
         23    2    4    4    0    0 -0.47906023261E+03  0.33149877627E+03 -0.29098303196E+03  0.65685465467E+03  0.86004461134E+02 0.  0.
         23    2    4    4    0    0  0.33727149499E+03  0.31860140399E+02  0.64044083695E+02  0.35702653609E+03  0.92731725610E+02 0.  0.
          3    1    3    3  502    0  0.57512979114E+02 -0.23425820499E+03  0.27141712468E+03  0.36311417618E+03  0.00000000000E+00 0. -1.
         -4    1    3    3    0  502  0.84275758504E+02 -0.12910071168E+03  0.11957709493E+03  0.19511042735E+03  0.00000000000E+00 0.  1.
         11    1    5    5    0    0 -0.65628811022E+02  0.85567601360E+02 -0.53255027029E+02  0.12027074932E+03  0.00000000000E+00 0. -1.
        -11    1    5    5    0    0 -0.41343142159E+03  0.24593117491E+03 -0.23772800493E+03  0.53658390535E+03  0.00000000000E+00 0.  1.
          3    1    6    6  503    0  0.12090457669E+03 -0.16280950159E+02  0.58506152371E+02  0.13529950431E+03  0.00000000000E+00 0. -1.
         -3    1    6    6    0  503  0.21636691830E+03  0.48141090558E+02  0.55379313247E+01  0.22172703178E+03  0.00000000000E+00 0.  1.
<mgrwt>
<rscale>  0 0.15635225E+04</rscale>
<asrwt>0</asrwt>
<pdfrwt beam="1">  1        1 0.13355085E+00 0.15635225E+04</pdfrwt>
<pdfrwt beam="2">  1       -2 0.10831158E+00 0.15635225E+04</pdfrwt>
<totfact> 0.11123572E+01</totfact>
</mgrwt>
</event>
<event>
12    4  0.4424320E-008  0.1889405E+04  0.7818608E-02  0.8660148E-01
          1   -1    0    0  501    0  0.00000000000E+00  0.00000000000E+00  0.12385748465E+04  0.12385748465E+04  0.00000000000E+00 0. -1.
         -2   -1    0    0    0  501 -0.00000000000E+00 -0.00000000000E+00 -0.72055615019E+03  0.72055615019E+03  0.00000000000E+00 0.  1.
        -24    2    1    2    0    0  0.42189518296E+02  0.10736575949E+03 -0.54576739379E+03  0.56419762709E+03  0.84555026599E+02 0.  0.
        254    2    1    2    0    0 -0.42189518296E+02 -0.10736575949E+03  0.10637860901E+04  0.13949333696E+04  0.89492507976E+03 0.  0.
         23    2    4    4    0    0  0.41122881967E+03  0.21159811224E+02  0.51714286149E+03  0.66755312424E+03  0.92916923982E+02 0.  0.
         23    2    4    4    0    0 -0.45341833796E+03 -0.12852557071E+03  0.54664322862E+03  0.72738024537E+03  0.90311629550E+02 0.  0.
          1    1    3    3  502    0  0.25805946310E+02  0.16273913583E+01 -0.21511368331E+03  0.21666216101E+03  0.00000000000E+00 0. -1.
         -2    1    3    3    0  502  0.16383571986E+02  0.10573836813E+03 -0.33065371048E+03  0.34753546607E+03  0.00000000000E+00 0.  1.
         11    1    5    5    0    0  0.34135398254E+03  0.50417027885E+02  0.40273672352E+03  0.53034072686E+03  0.00000000000E+00 0.  1.
        -11    1    5    5    0    0  0.69874837129E+02 -0.29257216661E+02  0.11440613797E+03  0.13721239738E+03  0.00000000000E+00 0. -1.
          1    1    6    6  503    0 -0.11505136643E+03 -0.67777421858E+02  0.18785855362E+03  0.23048087122E+03  0.00000000000E+00 0. -1.
         -1    1    6    6    0  503 -0.33836697154E+03 -0.60748148856E+02  0.35878467499E+03  0.49689937415E+03  0.00000000000E+00 0.  1.
<mgrwt>
<rscale>  0 0.18894049E+04</rscale>
<asrwt>0</asrwt>
<pdfrwt beam="1">  1        1 0.19054998E+00 0.18894049E+04</pdfrwt>
<pdfrwt beam="2">  1       -2 0.11085479E+00 0.18894049E+04</pdfrwt>
<totfact> 0.53055456E+00</totfact>
</mgrwt>
</event>
<event>
12    4  0.4424320E-008  0.1957064E+04  0.7818608E-02  0.8626962E-01
          1   -1    0    0  501    0  0.00000000000E+00  0.00000000000E+00  0.67862863138E+03  0.67862863138E+03  0.00000000000E+00 0. -1.
         -2   -1    0    0    0  501 -0.00000000000E+00 -0.00000000000E+00 -0.14109706516E+04  0.14109706516E+04  0.00000000000E+00 0.  1.
        -24    2    1    2    0    0  0.23350617773E+03  0.23698016776E+02 -0.95110098606E+03  0.98263034962E+03  0.76698026494E+02 0.  0.
        254    2    1    2    0    0 -0.23350617773E+03 -0.23698016776E+02  0.21875896582E+03  0.11069689334E+04  0.10594517466E+04 0.  0.
         23    2    4    4    0    0 -0.51321559389E+03  0.10436728377E+03  0.46167752602E+03  0.70408218386E+03  0.91119744638E+02 0.  0.
         23    2    4    4    0    0  0.27970941616E+03 -0.12806530054E+03 -0.24291856020E+03  0.40288674952E+03  0.93114055651E+02 0.  0.
          1    1    3    3  502    0  0.13314488995E+01  0.55506502678E+01 -0.32063066070E+01  0.65469746162E+01  0.00000000000E+00 0. -1.
         -4    1    3    3    0  502  0.23217472883E+03  0.18147366508E+02 -0.94789467945E+03  0.97608337500E+03  0.00000000000E+00 0.  1.
         11    1    5    5    0    0 -0.39840789753E+03  0.53626089627E+02  0.38709901159E+03  0.55807728414E+03  0.00000000000E+00 0. -1.
        -11    1    5    5    0    0 -0.11480769636E+03  0.50741194139E+02  0.74578514426E+02  0.14600489971E+03  0.00000000000E+00 0.  1.
          2    1    6    6  503    0  0.21968003911E+03 -0.68343935344E+02 -0.21167904072E+03  0.31263113946E+03  0.00000000000E+00 0. -1.
         -2    1    6    6    0  503  0.60029377053E+02 -0.59721365197E+02 -0.31239519481E+02  0.90255610062E+02  0.00000000000E+00 0.  1.
<mgrwt>
<rscale>  0 0.19570642E+04</rscale>
<asrwt>0</asrwt>
<pdfrwt beam="1">  1        1 0.10440441E+00 0.19570642E+04</pdfrwt>
<pdfrwt beam="2">  1       -2 0.21707240E+00 0.19570642E+04</pdfrwt>
<totfact> 0.24008021E+00</totfact>
</mgrwt>
</event>
<event>
12    4  0.4424320E-008  0.1052326E+04  0.7818608E-02  0.9252946E-01
          1   -1    0    0  501    0  0.00000000000E+00  0.00000000000E+00  0.13908190268E+04  0.13908190268E+04  0.00000000000E+00 0. -1.
         -2   -1    0    0    0  501 -0.00000000000E+00 -0.00000000000E+00 -0.19905369024E+03  0.19905369024E+03  0.00000000000E+00 0.  1.
        -24    2    1    2    0    0 -0.17701141656E+02 -0.71558499088E+02  0.40136285760E+03  0.41556600176E+03  0.78543040094E+02 0.  0.
        254    2    1    2    0    0  0.17701141656E+02  0.71558499088E+02  0.79040247901E+03  0.11743067153E+04  0.86534746411E+03 0.  0.
         23    2    4    4    0    0  0.89906741163E+02  0.45151910322E+03  0.39095298389E+03  0.61087112016E+03  0.91468940927E+02 0.  0.
         23    2    4    4    0    0 -0.72205599506E+02 -0.37996060414E+03  0.39944949512E+03  0.56343559517E+03  0.91192441883E+02 0.  0.
          1    1    3    3  502    0 -0.11630781635E+02  0.12086944926E+02  0.14185193341E+03  0.14284026159E+03  0.00000000000E+00 0. -1.
         -2    1    3    3    0  502 -0.60703600215E+01 -0.83645444014E+02  0.25951092419E+03  0.27272574017E+03  0.00000000000E+00 0.  1.
         11    1    5    5    0    0 -0.44052952666E+01  0.14234542671E+02  0.38765579192E+02  0.41530699026E+02  0.00000000000E+00 0.  1.
        -11    1    5    5    0    0  0.94312036429E+02  0.43728456055E+03  0.35218740470E+03  0.56934042114E+03  0.00000000000E+00 0. -1.
          2    1    6    6  503    0 -0.67326493331E-01 -0.23121753905E+03  0.21477534691E+03  0.31557884045E+03  0.00000000000E+00 0. -1.
         -2    1    6    6    0  503 -0.72138273013E+02 -0.14874306508E+03  0.18467414821E+03  0.24785675472E+03  0.00000000000E+00 0.  1.
<mgrwt>
<rscale>  0 0.10523263E+04</rscale>
<asrwt>0</asrwt>
<pdfrwt beam="1">  1        1 0.21397215E+00 0.10523263E+04</pdfrwt>
<pdfrwt beam="2">  1       -2 0.30623646E-01 0.10523263E+04</pdfrwt>
<totfact> 0.67448398E+01</totfact>
</mgrwt>
</event>
<event>
12    4  0.4424320E-008  0.4570619E+04  0.7818608E-02  0.7898389E-01
          1   -1    0    0  501    0  0.00000000000E+00  0.00000000000E+00  0.23329405787E+04  0.23329405787E+04  0.00000000000E+00 0. -1.
         -2   -1    0    0    0  501 -0.00000000000E+00 -0.00000000000E+00 -0.22386507765E+04  0.22386507765E+04  0.00000000000E+00 0.  1.
        -24    2    1    2    0    0 -0.15825358936E+04  0.15230297385E+04 -0.20887079504E+02  0.21979050194E+04  0.79440326897E+02 0.  0.
        254    2    1    2    0    0  0.15825358936E+04 -0.15230297385E+04  0.11517688165E+03  0.23736863358E+04  0.89279430315E+03 0.  0.
         23    2    4    4    0    0  0.61560147744E+02  0.80711802163E+02  0.81163518902E+02  0.16123035793E+03  0.95413126557E+02 0.  0.
         23    2    4    4    0    0  0.15209757459E+04 -0.16037415406E+04  0.34013362750E+02  0.22124559778E+04  0.91926037530E+02 0.  0.
          1    1    3    3  502    0 -0.92508060899E+03  0.88544430933E+03 -0.51190345428E+02  0.12815639701E+04  0.00000000000E+00 0. -1.
         -2    1    3    3    0  502 -0.65745528462E+03  0.63758542915E+03  0.30303265924E+02  0.91634104932E+03  0.00000000000E+00 0.  1.
         11    1    5    5    0    0  0.29329012958E+02  0.44021715697E+02 -0.13604886960E+02  0.54618636043E+02  0.00000000000E+00 0. -1.
        -11    1    5    5    0    0  0.32231134787E+02  0.36690086466E+02  0.94768405862E+02  0.10661172189E+03  0.00000000000E+00 0.  1.
          1    1    6    6  503    0  0.30013213193E+03 -0.30014872309E+03  0.40992351526E+02  0.42643748132E+03  0.00000000000E+00 0. -1.
         -1    1    6    6    0  503  0.12208436139E+04 -0.13035928176E+04 -0.69789887759E+01  0.17860184965E+04  0.00000000000E+00 0.  1.
<mgrwt>
<rscale>  0 0.45706189E+04</rscale>
<asrwt>0</asrwt>
<pdfrwt beam="1">  1        1 0.35891394E+00 0.45706189E+04</pdfrwt>
<pdfrwt beam="2">  1       -2 0.34440781E+00 0.45706189E+04</pdfrwt>
<totfact> 0.19578739E-02</totfact>
</mgrwt>
</event>
<event>
12    4  0.4424320E-008  0.1618849E+04  0.7818608E-02  0.8809051E-01
         -2   -1    0    0    0  501 -0.00000000000E+00  0.00000000000E+00  0.61770576782E+03  0.61770576782E+03  0.00000000000E+00 0.  1.
          1   -1    0    0  501    0  0.00000000000E+00 -0.00000000000E+00 -0.10606470549E+04  0.10606470549E+04  0.00000000000E+00 0. -1.
        -24    2    1    2    0    0  0.88383476993E+01 -0.14898246770E+03 -0.70852609171E+03  0.72855407501E+03  0.80671714437E+02 0.  0.
        254    2    1    2    0    0 -0.88383476993E+01  0.14898246770E+03  0.26558480465E+03  0.94979874770E+03  0.89961574053E+03 0.  0.
         23    2    4    4    0    0 -0.40460486706E+03 -0.95453462724E+02  0.20244777758E+03  0.47131411586E+03  0.91298582509E+02 0.  0.
         23    2    4    4    0    0  0.39576651936E+03  0.24443593043E+03  0.63137027066E+02  0.47848463184E+03  0.92634749397E+02 0.  0.
          1    1    3    3  502    0 -0.27208442231E+02 -0.76723706234E+02 -0.46265323484E+03  0.46976040929E+03  0.00000000000E+00 0. -1.
         -2    1    3    3    0  502  0.36046789930E+02 -0.72258761470E+02 -0.24587285687E+03  0.25879366572E+03  0.00000000000E+00 0.  1.
         11    1    5    5    0    0 -0.21776464688E+03 -0.75446561922E+02  0.15425781914E+03  0.27732489953E+03  0.00000000000E+00 0. -1.
        -11    1    5    5    0    0 -0.18684022018E+03 -0.20006900801E+02  0.48189958444E+02  0.19398921632E+03  0.00000000000E+00 0.  1.
          1    1    6    6  503    0  0.38686386784E+03  0.24593464075E+03  0.48085896174E+02  0.46093356698E+03  0.00000000000E+00 0. -1.
         -1    1    6    6    0  503  0.89026515206E+01 -0.14987103224E+01  0.15051130891E+02  0.17551064863E+02  0.00000000000E+00 0.  1.
<mgrwt>
<rscale>  0 0.16188487E+04</rscale>
<asrwt>0</asrwt>
<pdfrwt beam="1">  1        1 0.16317647E+00 0.16188487E+04</pdfrwt>
<pdfrwt beam="2">  1       -2 0.95031658E-01 0.16188487E+04</pdfrwt>
<totfact> 0.10625099E+01</totfact>
</mgrwt>
</event>
<event>
12    4  0.4424320E-008  0.1326132E+04  0.7818608E-02  0.9009095E-01
         -2   -1    0    0    0  501 -0.00000000000E+00  0.00000000000E+00  0.11225634828E+04  0.11225634828E+04  0.00000000000E+00 0.  1.
          1   -1    0    0  501    0  0.00000000000E+00 -0.00000000000E+00 -0.39165380590E+03  0.39165380590E+03  0.00000000000E+00 0. -1.
        -24    2    1    2    0    0 -0.11667584498E+03 -0.32601661736E+03  0.24784644921E+03  0.43394497872E+03  0.83548157228E+02 0.  0.
        254    2    1    2    0    0  0.11667584498E+03  0.32601661736E+03  0.48306322768E+03  0.10802723100E+04  0.90207432850E+03 0.  0.
         23    2    4    4    0    0  0.37945724236E+03 -0.14700384410E+03  0.19108834286E+03  0.45875639078E+03  0.91349561293E+02 0.  0.
         23    2    4    4    0    0 -0.26278139737E+03  0.47302046146E+03  0.29197488482E+03  0.62151591918E+03  0.90720916356E+02 0.  0.
          3    1    3    3  502    0 -0.59869937002E+02 -0.78866280383E+02  0.42998899199E+02  0.10795001098E+03  0.00000000000E+00 0. -1.
         -4    1    3    3    0  502 -0.56805907982E+02 -0.24715033697E+03  0.20484755001E+03  0.32599496774E+03  0.00000000000E+00 0.  1.
         11    1    5    5    0    0  0.84908664665E+02  0.59298176175E+01  0.35781674284E+02  0.92330776488E+02  0.00000000000E+00 0. -1.
        -11    1    5    5    0    0  0.29454857769E+03 -0.15293366172E+03  0.15530666857E+03  0.36642561429E+03  0.00000000000E+00 0.  1.
          4    1    6    6  503    0 -0.19600158945E+03  0.27247033772E+03  0.15553527768E+03  0.36992962927E+03  0.00000000000E+00 0. -1.
         -4    1    6    6    0  503 -0.66779807928E+02  0.20055012373E+03  0.13643960714E+03  0.25158628992E+03  0.00000000000E+00 0.  1.
<mgrwt>
<rscale>  0 0.13261316E+04</rscale>
<asrwt>0</asrwt>
<pdfrwt beam="1">  1        1 0.60254432E-01 0.13261316E+04</pdfrwt>
<pdfrwt beam="2">  1       -2 0.17270207E+00 0.13261316E+04</pdfrwt>
<totfact> 0.10769845E+01</totfact>
</mgrwt>
</event>
<event>
12    4  0.4424320E-008  0.1380577E+04  0.7818608E-02  0.8967999E-01
          1   -1    0    0  501    0  0.00000000000E+00  0.00000000000E+00  0.46156801228E+03  0.46156801228E+03  0.00000000000E+00 0. -1.
         -2   -1    0    0    0  501 -0.00000000000E+00 -0.00000000000E+00 -0.10323463964E+04  0.10323463964E+04  0.00000000000E+00 0.  1.
        -24    2    1    2    0    0  0.19833491669E+03 -0.61629012258E+02 -0.51348687150E+03  0.55965734406E+03  0.80079343305E+02 0.  0.
        254    2    1    2    0    0 -0.19833491669E+03  0.61629012258E+02 -0.57291512616E+02  0.93425706462E+03  0.90907594350E+03 0.  0.
         23    2    4    4    0    0 -0.28798520492E+02  0.37822511581E+03  0.24021403065E+03  0.45868395404E+03  0.93832809613E+02 0.  0.
         23    2    4    4    0    0 -0.16953639620E+03 -0.31659610356E+03 -0.29750554326E+03  0.47557311058E+03  0.93190948121E+02 0.  0.
          1    1    3    3  502    0  0.72110803315E+02 -0.27367138600E+02 -0.29589397308E+03  0.30578124785E+03  0.00000000000E+00 0. -1.
         -2    1    3    3    0  502  0.12622411338E+03 -0.34261873658E+02 -0.21759289842E+03  0.25387609621E+03  0.00000000000E+00 0.  1.
         11    1    5    5    0    0 -0.17948447434E+02  0.32897806946E+03  0.16590876843E+03  0.36888268649E+03  0.00000000000E+00 0.  1.
        -11    1    5    5    0    0 -0.10850073058E+02  0.49247046350E+02  0.74305262221E+02  0.89801267548E+02  0.00000000000E+00 0. -1.
          4    1    6    6  503    0 -0.65792856932E+02 -0.85365375275E+02 -0.14185970112E+03  0.17815757666E+03  0.00000000000E+00 0. -1.
         -4    1    6    6    0  503 -0.10374353927E+03 -0.23123072828E+03 -0.15564584214E+03  0.29741553392E+03  0.00000000000E+00 0.  1.
<mgrwt>
<rscale>  0 0.13805768E+04</rscale>
<asrwt>0</asrwt>
<pdfrwt beam="1">  1        1 0.71010465E-01 0.13805768E+04</pdfrwt>
<pdfrwt beam="2">  1       -2 0.15882252E+00 0.13805768E+04</pdfrwt>
<totfact> 0.10843124E+01</totfact>
</mgrwt>
</event>
<event>
12    4  0.4424320E-008  0.2202813E+04  0.7818608E-02  0.8517258E-01
         -2   -1    0    0    0  501 -0.00000000000E+00  0.00000000000E+00  0.18224862448E+04  0.18224862448E+04  0.00000000000E+00 0.  1.
          1   -1    0    0  501    0  0.00000000000E+00 -0.00000000000E+00 -0.66562709996E+03  0.66562709996E+03  0.00000000000E+00 0. -1.
        -24    2    1    2    0    0  0.12529382613E+03 -0.45868935302E+03  0.13633113323E+04  0.14460055861E+04  0.78866346987E+02 0.  0.
        254    2    1    2    0    0 -0.12529382613E+03  0.45868935302E+03 -0.20645218752E+03  0.10421077587E+04  0.90403075693E+03 0.  0.
         23    2    4    4    0    0 -0.30104818940E+03  0.66598369223E+03 -0.14314356878E+03  0.75022591968E+03  0.90468550392E+02 0.  0.
         23    2    4    4    0    0  0.17575436327E+03 -0.20729433921E+03 -0.63308618740E+02  0.29188183898E+03  0.85594903111E+02 0.  0.
          1    1    3    3  502    0  0.19485661044E+02 -0.56819672278E+02  0.10649251953E+03  0.12226537883E+03  0.00000000000E+00 0. -1.
         -2    1    3    3    0  502  0.10580816508E+03 -0.40186968074E+03  0.12568188128E+04  0.13237402073E+04  0.00000000000E+00 0.  1.
         11    1    5    5    0    0 -0.12693504015E+03  0.23833458939E+03 -0.93821372366E+02  0.28586418249E+03  0.00000000000E+00 0.  1.
        -11    1    5    5    0    0 -0.17411314925E+03  0.42764910284E+03 -0.49322196410E+02  0.46436173719E+03  0.00000000000E+00 0. -1.
          1    1    6    6  503    0 -0.74690398808E+01 -0.26881754515E+01 -0.88371888621E+01  0.11878920447E+02  0.00000000000E+00 0. -1.
         -1    1    6    6    0  503  0.18322340315E+03 -0.20460616376E+03 -0.54471429877E+02  0.28000291853E+03  0.00000000000E+00 0.  1.
<mgrwt>
<rscale>  0 0.22028130E+04</rscale>
<asrwt>0</asrwt>
<pdfrwt beam="1">  1        1 0.10240417E+00 0.22028130E+04</pdfrwt>
<pdfrwt beam="2">  1       -2 0.28038250E+00 0.22028130E+04</pdfrwt>
<totfact> 0.98355016E-01</totfact>
</mgrwt>
</event>
<event>
12    4  0.4424320E-008  0.1442218E+04  0.7818608E-02  0.8923813E-01
         -2   -1    0    0    0  501 -0.00000000000E+00  0.00000000000E+00  0.48978763185E+03  0.48978763185E+03  0.00000000000E+00 0.  1.
          1   -1    0    0  501    0  0.00000000000E+00 -0.00000000000E+00 -0.10616812993E+04  0.10616812993E+04  0.00000000000E+00 0. -1.
        -24    2    1    2    0    0  0.29970928799E+03 -0.20401496463E+03 -0.42916095142E+03  0.56758162919E+03  0.80759027124E+02 0.  0.
        254    2    1    2    0    0 -0.29970928799E+03  0.20401496463E+03 -0.14273271604E+03  0.98388730197E+03  0.90344553330E+03 0.  0.
         23    2    4    4    0    0 -0.30931823625E+03  0.33286718286E+03 -0.44500815936E+03  0.64278503415E+03  0.93069895925E+02 0.  0.
         23    2    4    4    0    0  0.96089482593E+01 -0.12885221823E+03  0.30227544332E+03  0.34110226782E+03  0.91022455758E+02 0.  0.
          1    1    3    3  502    0  0.29176331102E+03 -0.17408870060E+03 -0.40247353572E+03  0.52670452086E+03  0.00000000000E+00 0. -1.
         -2    1    3    3    0  502  0.79459769744E+01 -0.29926264026E+02 -0.26687415700E+02  0.40877108329E+02  0.00000000000E+00 0.  1.
         11    1    5    5    0    0 -0.19988176034E+03  0.19822444491E+03 -0.21266929140E+03  0.35280855458E+03  0.00000000000E+00 0.  1.
        -11    1    5    5    0    0 -0.10943647591E+03  0.13464273795E+03 -0.23233886795E+03  0.28997647957E+03  0.00000000000E+00 0. -1.
          4    1    6    6  503    0  0.13841565087E+02 -0.73024574851E+01  0.12583605328E+03  0.12680546958E+03  0.00000000000E+00 0. -1.
         -4    1    6    6    0  503 -0.42326168274E+01 -0.12154976074E+03  0.17643939003E+03  0.21429679824E+03  0.00000000000E+00 0.  1.
<mgrwt>
<rscale>  0 0.14422182E+04</rscale>
<asrwt>0</asrwt>
<pdfrwt beam="1">  1        1 0.16333558E+00 0.14422182E+04</pdfrwt>
<pdfrwt beam="2">  1       -2 0.75351944E-01 0.14422182E+04</pdfrwt>
<totfact> 0.18256343E+01</totfact>
</mgrwt>
</event>
<event>
12    4  0.4424320E-008  0.1244732E+04  0.7818608E-02  0.9074579E-01
          1   -1    0    0  501    0  0.00000000000E+00  0.00000000000E+00  0.48858615393E+03  0.48858615393E+03  0.00000000000E+00 0. -1.
         -2   -1    0    0    0  501 -0.00000000000E+00 -0.00000000000E+00 -0.79277624533E+03  0.79277624533E+03  0.00000000000E+00 0.  1.
        -24    2    1    2    0    0 -0.40477434640E+02  0.31850475458E+02 -0.36219221768E+03  0.37431766252E+03  0.79231524162E+02 0.  0.
        254    2    1    2    0    0  0.40477434640E+02 -0.31850475458E+02  0.58002126284E+02  0.90704473674E+03  0.90372176708E+03 0.  0.
         23    2    4    4    0    0 -0.22014625708E+03  0.27309137820E+03 -0.20725277821E+03  0.41841621767E+03  0.95263538587E+02 0.  0.
         23    2    4    4    0    0  0.26062369172E+03 -0.30494185366E+03  0.26525490449E+03  0.48862851907E+03  0.86506777147E+02 0.  0.
          1    1    3    3  502    0  0.15761388838E+02 -0.14145935254E+02 -0.10180650478E+03  0.10398602444E+03  0.00000000000E+00 0. -1.
         -2    1    3    3    0  502 -0.56238823478E+02  0.45996410712E+02 -0.26038571290E+03  0.27033163808E+03  0.00000000000E+00 0.  1.
         11    1    5    5    0    0 -0.24388678705E+02  0.16725946037E+02 -0.53404391924E+02  0.61045835211E+02  0.00000000000E+00 0. -1.
        -11    1    5    5    0    0 -0.19575757837E+03  0.25636543217E+03 -0.15384838628E+03  0.35737038246E+03  0.00000000000E+00 0.  1.
          1    1    6    6  503    0  0.38324722420E+02 -0.90732520122E+02  0.39231099320E+02  0.10602006277E+03  0.00000000000E+00 0. -1.
         -1    1    6    6    0  503  0.22229896930E+03 -0.21420933354E+03  0.22602380517E+03  0.38260845630E+03  0.00000000000E+00 0.  1.
<mgrwt>
<rscale>  0 0.12447321E+04</rscale>
<asrwt>0</asrwt>
<pdfrwt beam="1">  1        1 0.75167100E-01 0.12447321E+04</pdfrwt>
<pdfrwt beam="2">  1       -2 0.12196558E+00 0.12447321E+04</pdfrwt>
<totfact> 0.20120191E+01</totfact>
</mgrwt>
</event>
<event>
12    4  0.4424320E-008  0.2661995E+04  0.7818608E-02  0.8347443E-01
          1   -1    0    0  501    0  0.00000000000E+00  0.00000000000E+00  0.29594493291E+04  0.29594493291E+04  0.00000000000E+00 0. -1.
         -2   -1    0    0    0  501 -0.00000000000E+00 -0.00000000000E+00 -0.59860923514E+03  0.59860923514E+03  0.00000000000E+00 0.  1.
        -24    2    1    2    0    0 -0.10807741812E+04 -0.46696278294E+03  0.10852838075E+04  0.16031713306E+04  0.78678466593E+02 0.  0.
        254    2    1    2    0    0  0.10807741812E+04  0.46696278294E+03  0.12755562865E+04  0.19548872336E+04  0.89911800374E+03 0.  0.
         23    2    4    4    0    0  0.38861773289E+03  0.63884320445E+03  0.76001421892E+03  0.10704035803E+04  0.94856890188E+02 0.  0.
         23    2    4    4    0    0  0.69215644834E+03 -0.17188042152E+03  0.51554206755E+03  0.88448365327E+03  0.88906024572E+02 0.  0.
          1    1    3    3  502    0 -0.86521724796E+03 -0.36494476586E+03  0.90569735710E+03  0.13046353019E+04  0.00000000000E+00 0. -1.
         -2    1    3    3    0  502 -0.21555693327E+03 -0.10201801707E+03  0.17958645035E+03  0.29853602871E+03  0.00000000000E+00 0.  1.
         11    1    5    5    0    0  0.23321289660E+03  0.45575035861E+03  0.54969891921E+03  0.75117610871E+03  0.00000000000E+00 0. -1.
        -11    1    5    5    0    0  0.15540483629E+03  0.18309284584E+03  0.21031529971E+03  0.31922747162E+03  0.00000000000E+00 0.  1.
          3    1    6    6  503    0  0.27925565568E+03 -0.10635360929E+03  0.18419247563E+03  0.35102945677E+03  0.00000000000E+00 0. -1.
         -3    1    6    6    0  503  0.41290079266E+03 -0.65526812224E+02  0.33134959192E+03  0.53345419650E+03  0.00000000000E+00 0.  1.
<mgrwt>
<rscale>  0 0.26619945E+04</rscale>
<asrwt>0</asrwt>
<pdfrwt beam="1">  1        1 0.45529989E+00 0.26619945E+04</pdfrwt>
<pdfrwt beam="2">  1       -2 0.92093730E-01 0.26619945E+04</pdfrwt>
<totfact> 0.49379629E-01</totfact>
</mgrwt>
</event>
<event>
12    4  0.4424320E-008  0.1043684E+04  0.7818608E-02  0.9261889E-01
          1   -1    0    0  501    0  0.00000000000E+00  0.00000000000E+00  0.55632768761E+03  0.55632768761E+03  0.00000000000E+00 0. -1.
         -2   -1    0    0    0  501 -0.00000000000E+00 -0.00000000000E+00 -0.48949424139E+03  0.48949424139E+03  0.00000000000E+00 0.  1.
        -24    2    1    2    0    0  0.11719681758E+03  0.99267207867E+01  0.40220583455E+02  0.14668679290E+03  0.77882514348E+02 0.  0.
        254    2    1    2    0    0 -0.11719681758E+03 -0.99267207867E+01  0.26612862759E+02  0.89913513610E+03  0.89101184878E+03 0.  0.
         23    2    4    4    0    0 -0.15338765939E+03 -0.19813326680E+03  0.39318042989E+03  0.47512636042E+03  0.91485749998E+02 0.  0.
         23    2    4    4    0    0  0.36190841807E+02  0.18820654601E+03 -0.36656756713E+03  0.42400877568E+03  0.93167481425E+02 0.  0.
          3    1    3    3  502    0  0.75621350006E+02  0.86643860330E+01  0.63406999702E+02  0.99066178755E+02  0.00000000000E+00 0. -1.
         -4    1    3    3    0  502  0.41575467579E+02  0.12623347537E+01 -0.23186416246E+02  0.47620614148E+02  0.00000000000E+00 0.  1.
         11    1    5    5    0    0 -0.87058666559E+02 -0.84549855972E+02  0.26499856657E+03  0.29146548656E+03  0.00000000000E+00 0. -1.
        -11    1    5    5    0    0 -0.66328992832E+02 -0.11358341083E+03  0.12818186331E+03  0.18366087386E+03  0.00000000000E+00 0.  1.
          1    1    6    6  503    0  0.40153515094E+02  0.12207950648E+03 -0.31452002673E+03  0.33976250219E+03  0.00000000000E+00 0. -1.
         -1    1    6    6    0  503 -0.39626732875E+01  0.66127039532E+02 -0.52047540393E+02  0.84246273496E+02  0.00000000000E+00 0.  1.
<mgrwt>
<rscale>  0 0.10436842E+04</rscale>
<asrwt>0</asrwt>
<pdfrwt beam="1">  1        1 0.85588875E-01 0.10436842E+04</pdfrwt>
<pdfrwt beam="2">  1       -2 0.75306807E-01 0.10436842E+04</pdfrwt>
<totfact> 0.52875535E+01</totfact>
</mgrwt>
</event>
<event>
12    4  0.4424320E-008  0.2731877E+04  0.7818608E-02  0.8324736E-01
          1   -1    0    0  501    0  0.00000000000E+00  0.00000000000E+00  0.16525037679E+04  0.16525037679E+04  0.00000000000E+00 0. -1.
         -2   -1    0    0    0  501 -0.00000000000E+00 -0.00000000000E+00 -0.11290669587E+04  0.11290669587E+04  0.00000000000E+00 0.  1.
        -24    2    1    2    0    0 -0.29019717838E+03  0.82096141108E+03 -0.62592138919E+03  0.10754566933E+04  0.81470687242E+02 0.  0.
        254    2    1    2    0    0  0.29019717838E+03 -0.82096141108E+03  0.11493581984E+04  0.17061140334E+04  0.91192586633E+03 0.  0.
         23    2    4    4    0    0  0.38448890086E+03 -0.59306478327E+03  0.22829266122E+03  0.74830740359E+03  0.91043281187E+02 0.  0.
         23    2    4    4    0    0 -0.94291722482E+02 -0.22789662780E+03  0.92106553721E+03  0.95780662977E+03  0.90576013886E+02 0.  0.
          1    1    3    3  502    0 -0.33251708040E+02  0.49870925249E+02 -0.61819936847E+02  0.86107432109E+02  0.00000000000E+00 0. -1.
         -4    1    3    3    0  502 -0.25694547034E+03  0.77109048583E+03 -0.56410145235E+03  0.98934926118E+03  0.00000000000E+00 0.  1.
         11    1    5    5    0    0  0.37758016526E+03 -0.59561696140E+03  0.22497661231E+03  0.74023024931E+03  0.00000000000E+00 0. -1.
        -11    1    5    5    0    0  0.69087356086E+01  0.25521781260E+01  0.33160489152E+01  0.80771542826E+01  0.00000000000E+00 0.  1.
          4    1    6    6  503    0 -0.90799274431E+02 -0.10152430040E+03  0.46358528213E+03  0.48318009646E+03  0.00000000000E+00 0. -1.
         -4    1    6    6    0  503 -0.34924480516E+01 -0.12637232741E+03  0.45748025509E+03  0.47462653331E+03  0.00000000000E+00 0.  1.
<mgrwt>
<rscale>  0 0.27318766E+04</rscale>
<asrwt>0</asrwt>
<pdfrwt beam="1">  1        1 0.25423135E+00 0.27318766E+04</pdfrwt>
<pdfrwt beam="2">  1       -2 0.17370261E+00 0.27318766E+04</pdfrwt>
<totfact> 0.78838012E-01</totfact>
</mgrwt>
</event>
<event>
12    4  0.4424320E-008  0.1651564E+04  0.7818608E-02  0.8789482E-01
          1   -1    0    0  501    0  0.00000000000E+00  0.00000000000E+00  0.20149373661E+04  0.20149373661E+04  0.00000000000E+00 0. -1.
         -2   -1    0    0    0  501 -0.00000000000E+00 -0.00000000000E+00 -0.33843042832E+03  0.33843042832E+03  0.00000000000E+00 0.  1.
        -24    2    1    2    0    0  0.47474770900E+03  0.30652703522E+03  0.76514631982E+03  0.95443468325E+03  0.78437639793E+02 0.  0.
        254    2    1    2    0    0 -0.47474770900E+03 -0.30652703522E+03  0.91136061801E+03  0.13989331112E+04  0.89838269301E+03 0.  0.
         23    2    4    4    0    0 -0.77672987471E+02 -0.56608783008E+03  0.48521120692E+03  0.75511342286E+03  0.90982645129E+02 0.  0.
         23    2    4    4    0    0 -0.39707472153E+03  0.25956079486E+03  0.42614941108E+03  0.64381968836E+03  0.88658501270E+02 0.  0.
          3    1    3    3  502    0  0.27860691871E+03  0.14927953385E+03  0.47469280789E+03  0.57029769090E+03  0.00000000000E+00 0. -1.
         -4    1    3    3    0  502  0.19614079029E+03  0.15724750136E+03  0.29045351193E+03  0.38413699235E+03  0.00000000000E+00 0.  1.
         11    1    5    5    0    0 -0.13971823285E+02 -0.65382529858E+01  0.13014461317E+02  0.20182586588E+02  0.00000000000E+00 0. -1.
        -11    1    5    5    0    0 -0.63701164186E+02 -0.55954957709E+03  0.47219674561E+03  0.73493083627E+03  0.00000000000E+00 0.  1.
          2    1    6    6  503    0 -0.19372472786E+02  0.27810242203E+02  0.86237674283E+01  0.34972441120E+02  0.00000000000E+00 0. -1.
         -2    1    6    6    0  503 -0.37770224874E+03  0.23175055266E+03  0.41752564365E+03  0.60884724724E+03  0.00000000000E+00 0.  1.
<mgrwt>
<rscale>  0 0.16515642E+04</rscale>
<asrwt>0</asrwt>
<pdfrwt beam="1">  1        1 0.30999036E+00 0.16515642E+04</pdfrwt>
<pdfrwt beam="2">  1       -2 0.52066221E-01 0.16515642E+04</pdfrwt>
<totfact> 0.85081725E+00</totfact>
</mgrwt>
</event>
<event>
12    4  0.4424320E-008  0.1057729E+04  0.7818608E-02  0.9247400E-01
         -2   -1    0    0    0  501 -0.00000000000E+00  0.00000000000E+00  0.17716200163E+03  0.17716200163E+03  0.00000000000E+00 0.  1.
          1   -1    0    0  501    0  0.00000000000E+00 -0.00000000000E+00 -0.15787680633E+04  0.15787680633E+04  0.00000000000E+00 0. -1.
        -24    2    1    2    0    0  0.12703282774E+03 -0.19726169508E+02 -0.22392763812E+03  0.27048713955E+03  0.80580670486E+02 0.  0.
        254    2    1    2    0    0 -0.12703282774E+03  0.19726169508E+02 -0.11776784236E+04  0.14854429254E+04  0.89615163572E+03 0.  0.
         23    2    4    4    0    0 -0.34025019193E+03 -0.23191601141E+03 -0.10281347315E+04  0.11111483685E+04  0.89635044702E+02 0.  0.
         23    2    4    4    0    0  0.21321736418E+03  0.25164218092E+03 -0.14954369205E+03  0.37429455689E+03  0.94592113203E+02 0.  0.
          3    1    3    3  502    0  0.54967492950E+01 -0.24386461890E+01 -0.84519913172E+02  0.84733564605E+02  0.00000000000E+00 0. -1.
         -4    1    3    3    0  502  0.12153607845E+03 -0.17287523319E+02 -0.13940772495E+03  0.18575357494E+03  0.00000000000E+00 0.  1.
         11    1    5    5    0    0 -0.15102834042E+03 -0.15696330392E+03 -0.54122161654E+03  0.58341055578E+03  0.00000000000E+00 0.  1.
        -11    1    5    5    0    0 -0.18922185151E+03 -0.74952707495E+02 -0.48691311496E+03  0.52773781271E+03  0.00000000000E+00 0. -1.
          3    1    6    6  503    0  0.14468736387E+03  0.22912802936E+03 -0.11859684015E+03  0.29580280187E+03  0.00000000000E+00 0. -1.
         -3    1    6    6    0  503  0.68530000316E+02  0.22514151559E+02 -0.30946851901E+02  0.78491755022E+02  0.00000000000E+00 0.  1.
<mgrwt>
<rscale>  0 0.10577291E+04</rscale>
<asrwt>0</asrwt>
<pdfrwt beam="1">  1        1 0.24288739E+00 0.10577291E+04</pdfrwt>
<pdfrwt beam="2">  1       -2 0.27255693E-01 0.10577291E+04</pdfrwt>
<totfact> 0.62010213E+01</totfact>
</mgrwt>
</event>
<event>
12    4  0.4424320E-008  0.1549559E+04  0.7818608E-02  0.8852149E-01
         -2   -1    0    0    0  501 -0.00000000000E+00  0.00000000000E+00  0.44001969716E+03  0.44001969716E+03  0.00000000000E+00 0.  1.
          1   -1    0    0  501    0  0.00000000000E+00 -0.00000000000E+00 -0.13642197770E+04  0.13642197770E+04  0.00000000000E+00 0. -1.
        -24    2    1    2    0    0  0.42631194431E+03 -0.15211115652E+03 -0.56394849386E+03  0.72740015328E+03  0.78698166874E+02 0.  0.
        254    2    1    2    0    0 -0.42631194431E+03  0.15211115652E+03 -0.36025158595E+03  0.10768393208E+04  0.90825218962E+03 0.  0.
         23    2    4    4    0    0  0.17000225654E+03  0.10501477198E+03 -0.41397802485E+03  0.46907628271E+03  0.93412442357E+02 0.  0.
         23    2    4    4    0    0 -0.59631420084E+03  0.47096384538E+02  0.53726438898E+02  0.60776303813E+03  0.93170192245E+02 0.  0.
          3    1    3    3  502    0  0.39282560086E+03 -0.13246880853E+03 -0.47571120960E+03  0.63100007359E+03  0.00000000000E+00 0. -1.
         -4    1    3    3    0  502  0.33486343444E+02 -0.19642347986E+02 -0.88237284252E+02  0.96400079688E+02  0.00000000000E+00 0.  1.
         11    1    5    5    0    0 -0.20916177980E+01  0.31765366840E+02 -0.41767985068E+02  0.52516454299E+02  0.00000000000E+00 0. -1.
        -11    1    5    5    0    0  0.17209387433E+03  0.73249405139E+02 -0.37221003978E+03  0.41655982841E+03  0.00000000000E+00 0.  1.
          1    1    6    6  503    0 -0.10511868921E+03  0.31756451459E+01  0.45373125645E+02  0.11453708603E+03  0.00000000000E+00 0. -1.
         -1    1    6    6    0  503 -0.49119551163E+03  0.43920739392E+02  0.83533132527E+01  0.49322595211E+03  0.00000000000E+00 0.  1.
<mgrwt>
<rscale>  0 0.15495594E+04</rscale>
<asrwt>0</asrwt>
<pdfrwt beam="1">  1        1 0.20987997E+00 0.15495594E+04</pdfrwt>
<pdfrwt beam="2">  1       -2 0.67695338E-01 0.15495594E+04</pdfrwt>
<totfact> 0.13761960E+01</totfact>
</mgrwt>
</event>
<event>
12    4  0.4424320E-008  0.2007905E+04  0.7818608E-02  0.8602933E-01
          1   -1    0    0  501    0  0.00000000000E+00  0.00000000000E+00  0.21548712923E+04  0.21548712923E+04  0.00000000000E+00 0. -1.
         -2   -1    0    0    0  501 -0.00000000000E+00 -0.00000000000E+00 -0.46774075183E+03  0.46774075183E+03  0.00000000000E+00 0.  1.
        -24    2    1    2    0    0  0.25417109440E+02  0.61990945055E+03  0.21008553963E+02  0.62540223829E+03  0.75847504771E+02 0.  0.
        254    2    1    2    0    0 -0.25417109440E+02 -0.61990945055E+03  0.16661219865E+04  0.19972098058E+04  0.90991800635E+03 0.  0.
         23    2    4    4    0    0  0.15372368212E+03 -0.17757566698E+03  0.14378882098E+04  0.14597569227E+04  0.90574177363E+02 0.  0.
         23    2    4    4    0    0 -0.17914079156E+03 -0.44233378357E+03  0.22823377671E+03  0.53745288313E+03  0.94943906882E+02 0.  0.
          3    1    3    3  502    0  0.50510384484E+01  0.17023610839E+03  0.39711591166E+02  0.17487954729E+03  0.00000000000E+00 0. -1.
         -4    1    3    3    0  502  0.20366070991E+02  0.44967334217E+03 -0.18703037204E+02  0.45052269100E+03  0.00000000000E+00 0.  1.
         11    1    5    5    0    0  0.12070927069E+03 -0.86881394478E+02  0.10252739906E+04  0.10360047590E+04  0.00000000000E+00 0.  1.
        -11    1    5    5    0    0  0.33014411435E+02 -0.90694272500E+02  0.41261421912E+03  0.42375216371E+03  0.00000000000E+00 0. -1.
          1    1    6    6  503    0  0.10906081428E+02 -0.23196800933E+02  0.19025005310E+02  0.31921544648E+02  0.00000000000E+00 0. -1.
         -1    1    6    6    0  503 -0.19004687299E+03 -0.41913698264E+03  0.20920877140E+03  0.50553133848E+03  0.00000000000E+00 0.  1.
<mgrwt>
<rscale>  0 0.20079055E+04</rscale>
<asrwt>0</asrwt>
<pdfrwt beam="1">  1        1 0.33151866E+00 0.20079055E+04</pdfrwt>
<pdfrwt beam="2">  1       -2 0.71960117E-01 0.20079055E+04</pdfrwt>
<totfact> 0.33316508E+00</totfact>
</mgrwt>
</event>
<event>
12    4  0.4424320E-008  0.1311430E+04  0.7818608E-02  0.9020550E-01
          1   -1    0    0  501    0  0.00000000000E+00  0.00000000000E+00  0.22830886857E+03  0.22830886857E+03  0.00000000000E+00 0. -1.
         -2   -1    0    0    0  501 -0.00000000000E+00 -0.00000000000E+00 -0.18832481148E+04  0.18832481148E+04  0.00000000000E+00 0.  1.
        -24    2    1    2    0    0 -0.92228121666E+02  0.11414949381E+03  0.54012896083E+02  0.17694303593E+03  0.82796809464E+02 0.  0.
        254    2    1    2    0    0  0.92228121666E+02 -0.11414949381E+03 -0.17089521423E+04  0.19346139475E+04  0.89480588260E+03 0.  0.
         23    2    4    4    0    0 -0.22688291166E+03  0.15143019971E+03 -0.16439479042E+03  0.33242045804E+03  0.95240499897E+02 0.  0.
         23    2    4    4    0    0  0.31911103332E+03 -0.26557969352E+03 -0.15445573519E+04  0.16021934894E+04  0.94879602464E+02 0.  0.
          1    1    3    3  502    0 -0.82055643818E+02  0.11485079479E+03  0.70329425410E+02  0.15770244711E+03  0.00000000000E+00 0. -1.
         -2    1    3    3    0  502 -0.10172477848E+02 -0.70130098541E+00 -0.16316529327E+02  0.19240588814E+02  0.00000000000E+00 0.  1.
         11    1    5    5    0    0 -0.17809940726E+03  0.82924368209E+02 -0.14981980054E+03  0.24706643306E+03  0.00000000000E+00 0. -1.
        -11    1    5    5    0    0 -0.48783504393E+02  0.68505831505E+02 -0.14574989882E+02  0.85354024985E+02  0.00000000000E+00 0.  1.
          3    1    6    6  503    0  0.92271013340E+01 -0.42152352303E+02 -0.13113953725E+03  0.13805628719E+03  0.00000000000E+00 0. -1.
         -3    1    6    6    0  503  0.30988393199E+03 -0.22342734122E+03 -0.14134178147E+04  0.14641372022E+04  0.00000000000E+00 0.  1.
<mgrwt>
<rscale>  0 0.13114301E+04</rscale>
<asrwt>0</asrwt>
<pdfrwt beam="1">  1        1 0.35124442E-01 0.13114301E+04</pdfrwt>
<pdfrwt beam="2">  1       -2 0.28973047E+00 0.13114301E+04</pdfrwt>
<totfact> 0.39566888E+00</totfact>
</mgrwt>
</event>
<event>
12    4  0.4424320E-008  0.2752094E+04  0.7818608E-02  0.8318297E-01
          1   -1    0    0  501    0  0.00000000000E+00  0.00000000000E+00  0.36894606415E+04  0.36894606415E+04  0.00000000000E+00 0. -1.
         -2   -1    0    0    0  501 -0.00000000000E+00 -0.00000000000E+00 -0.51322015551E+03  0.51322015551E+03  0.00000000000E+00 0.  1.
        -24    2    1    2    0    0 -0.21808770410E+03  0.11478442208E+04  0.84305253885E+03  0.14429911740E+04  0.79858269094E+02 0.  0.
        254    2    1    2    0    0  0.21808770410E+03 -0.11478442208E+04  0.23331879472E+04  0.27596896230E+04  0.89833858688E+03 0.  0.
         23    2    4    4    0    0  0.20958733989E+03 -0.12089723571E+04  0.23468611364E+04  0.26499095254E+04  0.93393178398E+02 0.  0.
         23    2    4    4    0    0  0.85003642097E+01  0.61128136281E+02 -0.13673189250E+02  0.10978009765E+03  0.89754155887E+02 0.  0.
          3    1    3    3  502    0 -0.63632332329E+02  0.30116282366E+03  0.26565595166E+03  0.40659710368E+03  0.00000000000E+00 0. -1.
         -4    1    3    3    0  502 -0.15445537177E+03  0.84668139714E+03  0.57739658719E+03  0.10363940703E+04  0.00000000000E+00 0.  1.
         11    1    5    5    0    0  0.56702858063E+02 -0.56041265300E+03  0.10235134193E+04  0.11682710624E+04  0.00000000000E+00 0. -1.
        -11    1    5    5    0    0  0.15288448183E+03 -0.64855970408E+03  0.13233477171E+04  0.14816384629E+04  0.00000000000E+00 0.  1.
          1    1    6    6  503    0  0.44116308169E+02  0.17734051970E+02  0.10443203642E+02  0.48680650653E+02  0.00000000000E+00 0. -1.
         -1    1    6    6    0  503 -0.35615943959E+02  0.43394084310E+02 -0.24116392891E+02  0.61099446997E+02  0.00000000000E+00 0.  1.
<mgrwt>
<rscale>  0 0.27520942E+04</rscale>
<asrwt>0</asrwt>
<pdfrwt beam="1">  1        1 0.56760931E+00 0.27520942E+04</pdfrwt>
<pdfrwt beam="2">  1       -2 0.78956949E-01 0.27520942E+04</pdfrwt>
<totfact> 0.19164200E-01</totfact>
</mgrwt>
</event>
<event>
12    4  0.4424320E-008  0.1144535E+04  0.7818608E-02  0.9162840E-01
          1   -1    0    0  501    0  0.00000000000E+00  0.00000000000E+00  0.14061406130E+04  0.14061406130E+04  0.00000000000E+00 0. -1.
         -2   -1    0    0    0  501 -0.00000000000E+00 -0.00000000000E+00 -0.23290009356E+03  0.23290009356E+03  0.00000000000E+00 0.  1.
        -24    2    1    2    0    0 -0.54285565853E+01 -0.19893888868E+03  0.29523599263E+03  0.36496958029E+03  0.80201948503E+02 0.  0.
        254    2    1    2    0    0  0.54285565853E+01  0.19893888868E+03  0.87800452684E+03  0.12740711263E+04  0.90153154966E+03 0.  0.
         23    2    4    4    0    0 -0.66953151386E+02 -0.24445160033E+03  0.75196557450E+03  0.79901213008E+03  0.93428311552E+02 0.  0.
         23    2    4    4    0    0  0.72381707971E+02  0.44339048901E+03  0.12603895234E+03  0.47505899621E+03  0.89224407983E+02 0.  0.
          3    1    3    3  502    0  0.17489626135E+02 -0.14897240361E+03  0.25845720665E+03  0.29882903428E+03  0.00000000000E+00 0. -1.
         -4    1    3    3    0  502 -0.22918182721E+02 -0.49966485064E+02  0.36778785975E+02  0.66140546012E+02  0.00000000000E+00 0.  1.
         11    1    5    5    0    0  0.54486893948E+01 -0.50775176310E+01  0.10178001405E+01  0.75170019649E+01  0.00000000000E+00 0.  1.
        -11    1    5    5    0    0 -0.72401840781E+02 -0.23937408270E+03  0.75094777436E+03  0.79149512811E+03  0.00000000000E+00 0. -1.
          1    1    6    6  503    0  0.68905373320E+02  0.19488689194E+03  0.83399566646E+02  0.22289984037E+03  0.00000000000E+00 0. -1.
         -1    1    6    6    0  503  0.34763346513E+01  0.24850359707E+03  0.42639385697E+02  0.25215915584E+03  0.00000000000E+00 0.  1.
<mgrwt>
<rscale>  0 0.11445353E+04</rscale>
<asrwt>0</asrwt>
<pdfrwt beam="1">  1        1 0.21632932E+00 0.11445353E+04</pdfrwt>
<pdfrwt beam="2">  1       -2 0.35830784E-01 0.11445353E+04</pdfrwt>
<totfact> 0.48547602E+01</totfact>
</mgrwt>
</event>
<event>
12    4  0.4424320E-008  0.1989587E+04  0.7818608E-02  0.8611504E-01
         -2   -1    0    0    0  501 -0.00000000000E+00  0.00000000000E+00  0.83033074442E+03  0.83033074442E+03  0.00000000000E+00 0.  1.
          1   -1    0    0  501    0  0.00000000000E+00 -0.00000000000E+00 -0.11918316126E+04  0.11918316126E+04  0.00000000000E+00 0. -1.
        -24    2    1    2    0    0 -0.62090160341E+03 -0.20039303195E+03 -0.58877079946E+03  0.88212966939E+03  0.76325165874E+02 0.  0.
        254    2    1    2    0    0  0.62090160341E+03  0.20039303195E+03  0.22726993133E+03  0.11400326876E+04  0.90683335775E+03 0.  0.
         23    2    4    4    0    0  0.59985743646E+03  0.90546687264E+02 -0.23363758130E+03  0.65653456947E+03  0.91779490399E+02 0.  0.
         23    2    4    4    0    0  0.21044166946E+02  0.10984634469E+03  0.46090751262E+03  0.48349811813E+03  0.93944763747E+02 0.  0.
          3    1    3    3  502    0 -0.10663413682E+03 -0.99566315712E+01 -0.11831790239E+03  0.15959041222E+03  0.00000000000E+00 0. -1.
         -4    1    3    3    0  502 -0.51426746659E+03 -0.19043640038E+03 -0.47045289707E+03  0.72253925716E+03  0.00000000000E+00 0.  1.
         11    1    5    5    0    0  0.28035444828E+03  0.38367413093E+02 -0.15796039580E+03  0.32407122936E+03  0.00000000000E+00 0.  1.
        -11    1    5    5    0    0  0.31950298818E+03  0.52179274171E+02 -0.75677185496E+02  0.33246334010E+03  0.00000000000E+00 0. -1.
          4    1    6    6  503    0 -0.26553616851E+02  0.49039394139E+02  0.10074103262E+03  0.11514648236E+03  0.00000000000E+00 0. -1.
         -4    1    6    6    0  503  0.47597783797E+02  0.60806950547E+02  0.36016648000E+03  0.36835163577E+03  0.00000000000E+00 0.  1.
<mgrwt>
<rscale>  0 0.19895873E+04</rscale>
<asrwt>0</asrwt>
<pdfrwt beam="1">  1        1 0.18335871E+00 0.19895873E+04</pdfrwt>
<pdfrwt beam="2">  1       -2 0.12774319E+00 0.19895873E+04</pdfrwt>
<totfact> 0.40057142E+00</totfact>
</mgrwt>
</event>
<event>
12    4  0.4424320E-008  0.1788414E+04  0.7818608E-02  0.8712485E-01
          1   -1    0    0  501    0  0.00000000000E+00  0.00000000000E+00  0.16097291030E+04  0.16097291030E+04  0.00000000000E+00 0. -1.
         -2   -1    0    0    0  501 -0.00000000000E+00 -0.00000000000E+00 -0.49673335355E+03  0.49673335355E+03  0.00000000000E+00 0.  1.
        -24    2    1    2    0    0 -0.45638835145E+03 -0.29366100066E+03  0.89449630167E+03  0.10492343577E+04  0.79006284404E+02 0.  0.
        254    2    1    2    0    0  0.45638835145E+03  0.29366100066E+03  0.21849944774E+03  0.10572280988E+04  0.88060327825E+03 0.  0.
         23    2    4    4    0    0  0.47024484057E+03 -0.14868212845E+03  0.32017770006E+03  0.59496362151E+03  0.90726875292E+02 0.  0.
         23    2    4    4    0    0 -0.13856489122E+02  0.44234312911E+03 -0.10167825231E+03  0.46226447733E+03  0.86547870223E+02 0.  0.
          3    1    3    3  502    0 -0.23358424854E+03 -0.16023418424E+03  0.39247502345E+03  0.48401780856E+03  0.00000000000E+00 0. -1.
         -4    1    3    3    0  502 -0.22280410290E+03 -0.13342681642E+03  0.50202127822E+03  0.56521654912E+03  0.00000000000E+00 0.  1.
         11    1    5    5    0    0  0.37273340464E+03 -0.14755497604E+03  0.28251374114E+03  0.49042499510E+03  0.00000000000E+00 0. -1.
        -11    1    5    5    0    0  0.97511435933E+02 -0.11271524165E+01  0.37663958923E+02  0.10453862641E+03  0.00000000000E+00 0.  1.
          2    1    6    6  503    0  0.28097490484E+02  0.31559825179E+03 -0.60693643295E+02  0.32260725944E+03  0.00000000000E+00 0. -1.
         -2    1    6    6    0  503 -0.41953979606E+02  0.12674487732E+03 -0.40984609020E+02  0.13965721789E+03  0.00000000000E+00 0.  1.
<mgrwt>
<rscale>  0 0.17884140E+04</rscale>
<asrwt>0</asrwt>
<pdfrwt beam="1">  1        1 0.24765063E+00 0.17884140E+04</pdfrwt>
<pdfrwt beam="2">  1       -2 0.76420517E-01 0.17884140E+04</pdfrwt>
<totfact> 0.69766130E+00</totfact>
</mgrwt>
</event>
<event>
12    4  0.4424320E-008  0.1362774E+04  0.7818608E-02  0.8981214E-01
          1   -1    0    0  501    0  0.00000000000E+00  0.00000000000E+00  0.21258871784E+04  0.21258871784E+04  0.00000000000E+00 0. -1.
         -4   -1    0    0    0  501 -0.00000000000E+00 -0.00000000000E+00 -0.21839734326E+03  0.21839734326E+03  0.00000000000E+00 0.  1.
        -24    2    1    2    0    0 -0.92155613629E+02 -0.16671916463E+03  0.10942296005E+04  0.11138807884E+04  0.84285556777E+02 0.  0.
        254    2    1    2    0    0  0.92155613629E+02  0.16671916463E+03  0.81326023467E+03  0.12304037333E+04  0.90344518413E+03 0.  0.
         23    2    4    4    0    0 -0.19398649426E+03 -0.24784016995E+03  0.82628775875E+02  0.33832633985E+03  0.92637399780E+02 0.  0.
         23    2    4    4    0    0  0.28614210789E+03  0.41455933458E+03  0.73063145880E+03  0.89207739348E+03  0.90790966408E+02 0.  0.
          1    1    3    3  502    0 -0.50567773277E+02 -0.11819172823E+03  0.50146644586E+03  0.51768231633E+03  0.00000000000E+00 0. -1.
         -2    1    3    3    0  502 -0.41587840352E+02 -0.48527436395E+02  0.59276315465E+03  0.59619847204E+03  0.00000000000E+00 0.  1.
         11    1    5    5    0    0 -0.17328180530E+03 -0.15497303067E+03  0.66732367465E+02  0.24186035878E+03  0.00000000000E+00 0.  1.
        -11    1    5    5    0    0 -0.20704688962E+02 -0.92867139283E+02  0.15896408410E+02  0.96465981071E+02  0.00000000000E+00 0. -1.
          4    1    6    6  503    0  0.15643528871E+03  0.29543408827E+03  0.44616418844E+03  0.55750854981E+03  0.00000000000E+00 0. -1.
         -4    1    6    6    0  503  0.12970681918E+03  0.11912524630E+03  0.28446727036E+03  0.33456884367E+03  0.00000000000E+00 0.  1.
<mgrwt>
<rscale>  0 0.13627738E+04</rscale>
<asrwt>0</asrwt>
<pdfrwt beam="1">  1        1 0.32705955E+00 0.13627738E+04</pdfrwt>
<pdfrwt beam="2">  1       -4 0.33599593E-01 0.13627738E+04</pdfrwt>
<totfact> 0.10264161E+01</totfact>
</mgrwt>
</event>
<event>
12    4  0.4424320E-008  0.2825740E+04  0.7818608E-02  0.8295322E-01
          1   -1    0    0  501    0  0.00000000000E+00  0.00000000000E+00  0.21885814819E+04  0.21885814819E+04  0.00000000000E+00 0. -1.
         -2   -1    0    0    0  501 -0.00000000000E+00 -0.00000000000E+00 -0.91209809610E+03  0.91209809610E+03  0.00000000000E+00 0.  1.
        -24    2    1    2    0    0 -0.99987863941E+03  0.71934132502E+03  0.93065227502E+03  0.15459185736E+04  0.80878574014E+02 0.  0.
        254    2    1    2    0    0  0.99987863941E+03 -0.71934132502E+03  0.34583111080E+03  0.15547610044E+04  0.88344404932E+03 0.  0.
         23    2    4    4    0    0  0.10124135226E+04 -0.26485760121E+03  0.20838428818E+03  0.10709631446E+04  0.91691634867E+02 0.  0.
         23    2    4    4    0    0 -0.12534883176E+02 -0.45448372381E+03  0.13744682262E+03  0.48379785983E+03  0.91957390269E+02 0.  0.
          3    1    3    3  502    0 -0.75972290837E+03  0.54482939890E+03  0.74864153274E+03  0.11976986749E+04  0.00000000000E+00 0. -1.
         -4    1    3    3    0  502 -0.24015573104E+03  0.17451192612E+03  0.18201074228E+03  0.34821989865E+03  0.00000000000E+00 0.  1.
         11    1    5    5    0    0  0.42308455868E+03 -0.14837668869E+03  0.11659844516E+03  0.46326167870E+03  0.00000000000E+00 0. -1.
        -11    1    5    5    0    0  0.58932896391E+03 -0.11648091253E+03  0.91785843022E+02  0.60770146591E+03  0.00000000000E+00 0.  1.
          1    1    6    6  503    0 -0.15889518008E+02 -0.24185273624E+03  0.26161407249E+02  0.24378195593E+03  0.00000000000E+00 0. -1.
         -1    1    6    6    0  503  0.33546348326E+01 -0.21263098757E+03  0.11128541537E+03  0.24001590390E+03  0.00000000000E+00 0.  1.
<mgrwt>
<rscale>  0 0.28257396E+04</rscale>
<asrwt>0</asrwt>
<pdfrwt beam="1">  1        1 0.33670484E+00 0.28257396E+04</pdfrwt>
<pdfrwt beam="2">  1       -2 0.14032278E+00 0.28257396E+04</pdfrwt>
<totfact> 0.60136751E-01</totfact>
</mgrwt>
</event>
<event>
12    4  0.4424320E-008  0.1423270E+04  0.7818608E-02  0.8937145E-01
         -2   -1    0    0    0  501 -0.00000000000E+00  0.00000000000E+00  0.25349207432E+03  0.25349207432E+03  0.00000000000E+00 0.  1.
          1   -1    0    0  501    0  0.00000000000E+00 -0.00000000000E+00 -0.19977914059E+04  0.19977914059E+04  0.00000000000E+00 0. -1.
        -24    2    1    2    0    0 -0.37571250366E+03  0.14698288002E+03 -0.33633616669E+03  0.53097504823E+03  0.77772954100E+02 0.  0.
        254    2    1    2    0    0  0.37571250366E+03 -0.14698288002E+03 -0.14079631648E+04  0.17203084319E+04  0.90240621399E+03 0.  0.
         23    2    4    4    0    0  0.96684792563E+02  0.27531038843E+03 -0.10503585788E+04  0.10939796158E+04  0.91621486029E+02 0.  0.
         23    2    4    4    0    0  0.27902771110E+03 -0.42229326846E+03 -0.35760458608E+03  0.62632881615E+03  0.90656923686E+02 0.  0.
          3    1    3    3  502    0 -0.21963067537E+03  0.10414508247E+03 -0.24503252318E+03  0.34514456273E+03  0.00000000000E+00 0. -1.
         -4    1    3    3    0  502 -0.15608182829E+03  0.42837797555E+02 -0.91303643510E+02  0.18583048550E+03  0.00000000000E+00 0.  1.
         11    1    5    5    0    0  0.70555669815E+02  0.72525075270E+02 -0.36635291616E+03  0.38006900461E+03  0.00000000000E+00 0.  1.
        -11    1    5    5    0    0  0.26129122748E+02  0.20278531316E+03 -0.68400566260E+03  0.71391061118E+03  0.00000000000E+00 0. -1.
          2    1    6    6  503    0  0.26247161881E+03 -0.34318954494E+03 -0.31708102196E+03  0.53592050616E+03  0.00000000000E+00 0. -1.
         -2    1    6    6    0  503  0.16556092284E+02 -0.79103723518E+02 -0.40523564117E+02  0.90408309988E+02  0.00000000000E+00 0.  1.
<mgrwt>
<rscale>  0 0.14232699E+04</rscale>
<asrwt>0</asrwt>
<pdfrwt beam="1">  1        1 0.30735254E+00 0.14232699E+04</pdfrwt>
<pdfrwt beam="2">  1       -2 0.38998778E-01 0.14232699E+04</pdfrwt>
<totfact> 0.15892345E+01</totfact>
</mgrwt>
</event>
<event>
12    4  0.4424320E-008  0.1256326E+04  0.7818608E-02  0.9064935E-01
         -2   -1    0    0    0  501 -0.00000000000E+00  0.00000000000E+00  0.79601827674E+03  0.79601827674E+03  0.00000000000E+00 0.  1.
          1   -1    0    0  501    0  0.00000000000E+00 -0.00000000000E+00 -0.49570283429E+03  0.49570283429E+03  0.00000000000E+00 0. -1.
        -24    2    1    2    0    0  0.17568563282E+03  0.80044722008E+02  0.32435786252E+03  0.38582679164E+03  0.79885487215E+02 0.  0.
        254    2    1    2    0    0 -0.17568563282E+03 -0.80044722008E+02 -0.24042420060E+02  0.90589431939E+03  0.88475639633E+03 0.  0.
         23    2    4    4    0    0 -0.48993321500E+03 -0.12467708324E+03  0.14622677674E+03  0.53417812483E+03  0.91570020007E+02 0.  0.
         23    2    4    4    0    0  0.31424758218E+03  0.44632361230E+02 -0.17026919680E+03  0.37171619457E+03  0.91857168210E+02 0.  0.
          3    1    3    3  502    0  0.85463658201E+02 -0.39098635435E+01  0.12595251462E+03  0.15226082834E+03  0.00000000000E+00 0. -1.
         -4    1    3    3    0  502  0.90221974620E+02  0.83954585552E+02  0.19840534790E+03  0.23356596330E+03  0.00000000000E+00 0.  1.
         11    1    5    5    0    0 -0.46839984745E+03 -0.96498039996E+02  0.13383108069E+03  0.49660955184E+03  0.00000000000E+00 0.  1.
        -11    1    5    5    0    0 -0.21533367545E+02 -0.28179043242E+02  0.12395696052E+02  0.37568572990E+02  0.00000000000E+00 0. -1.
          2    1    6    6  503    0  0.14086087564E+03 -0.10694786698E+02 -0.36680181008E+02  0.14595067806E+03  0.00000000000E+00 0. -1.
         -2    1    6    6    0  503  0.17338670654E+03  0.55327147928E+02 -0.13358901579E+03  0.22576551650E+03  0.00000000000E+00 0.  1.
<mgrwt>
<rscale>  0 0.12563256E+04</rscale>
<asrwt>0</asrwt>
<pdfrwt beam="1">  1        1 0.76261975E-01 0.12563256E+04</pdfrwt>
<pdfrwt beam="2">  1       -2 0.12246435E+00 0.12563256E+04</pdfrwt>
<totfact> 0.19507262E+01</totfact>
</mgrwt>
</event>
<event>
12    4  0.4424320E-008  0.2510932E+04  0.7818608E-02  0.8399101E-01
          1   -1    0    0  501    0  0.00000000000E+00  0.00000000000E+00  0.40079273161E+04  0.40079273161E+04  0.00000000000E+00 0. -1.
         -2   -1    0    0    0  501 -0.00000000000E+00 -0.00000000000E+00 -0.39326932713E+03  0.39326932713E+03  0.00000000000E+00 0.  1.
        -24    2    1    2    0    0  0.98727742481E+03 -0.30273231456E+03  0.21101934256E+04  0.23508152805E+04  0.83979888604E+02 0.  0.
        254    2    1    2    0    0 -0.98727742481E+03  0.30273231456E+03  0.15044645634E+04  0.20503813627E+04  0.93503290981E+03 0.  0.
         23    2    4    4    0    0 -0.77398355522E+02  0.29736815770E+02 -0.11994550170E+03  0.16681714536E+03  0.81032419182E+02 0.  0.
         23    2    4    4    0    0 -0.90987906928E+03  0.27299549879E+03  0.16244100651E+04  0.18835642174E+04  0.81851319133E+02 0.  0.
          3    1    3    3  502    0  0.21363697743E+03 -0.87888361044E+02  0.41104678229E+03  0.47151307444E+03  0.00000000000E+00 0. -1.
         -4    1    3    3    0  502  0.77364044737E+03 -0.21484395351E+03  0.16991466433E+04  0.18793022060E+04  0.00000000000E+00 0.  1.
         11    1    5    5    0    0 -0.58605912764E+02 -0.15887884389E+01 -0.11612811873E+03  0.13008811329E+03  0.00000000000E+00 0.  1.
        -11    1    5    5    0    0 -0.18792442758E+02  0.31325604209E+02 -0.38173829655E+01  0.36729032066E+02  0.00000000000E+00 0. -1.
          1    1    6    6  503    0 -0.37600741843E+03  0.86347415069E+02  0.72102018058E+03  0.81774541002E+03  0.00000000000E+00 0. -1.
         -1    1    6    6    0  503 -0.53387165086E+03  0.18664808372E+03  0.90338988447E+03  0.10658188074E+04  0.00000000000E+00 0.  1.
<mgrwt>
<rscale>  0 0.25109320E+04</rscale>
<asrwt>0</asrwt>
<pdfrwt beam="1">  1        1 0.61660418E+00 0.25109320E+04</pdfrwt>
<pdfrwt beam="2">  1       -2 0.60502976E-01 0.25109320E+04</pdfrwt>
<totfact> 0.18798159E-01</totfact>
</mgrwt>
</event>
<event>
12    4  0.4424320E-008  0.2056295E+04  0.7818608E-02  0.8580744E-01
          1   -1    0    0  501    0  0.00000000000E+00  0.00000000000E+00  0.29426590486E+04  0.29426590486E+04  0.00000000000E+00 0. -1.
         -2   -1    0    0    0  501 -0.00000000000E+00 -0.00000000000E+00 -0.35922857034E+03  0.35922857034E+03  0.00000000000E+00 0.  1.
        -24    2    1    2    0    0 -0.57124708110E+03 -0.44081968674E+03  0.17024110907E+04  0.18507168834E+04  0.79399225840E+02 0.  0.
        254    2    1    2    0    0  0.57124708110E+03  0.44081968674E+03  0.88101938765E+03  0.14511707356E+04  0.89947546854E+03 0.  0.
         23    2    4    4    0    0 -0.16340533845E+01  0.50089905504E+02  0.72723650842E+03  0.73470739382E+03  0.91707941865E+02 0.  0.
         23    2    4    4    0    0  0.57288113449E+03  0.39072978123E+03  0.15378287924E+03  0.71646334176E+03  0.93850892064E+02 0.  0.
          3    1    3    3  502    0 -0.34742180388E+03 -0.24110142029E+03  0.10782720898E+04  0.11582324915E+04  0.00000000000E+00 0. -1.
         -4    1    3    3    0  502 -0.22382527722E+03 -0.19971826644E+03  0.62413900084E+03  0.69248439192E+03  0.00000000000E+00 0.  1.
         11    1    5    5    0    0  0.89999073735E-01  0.68797091535E+02  0.68542846509E+03  0.68887243279E+03  0.00000000000E+00 0.  1.
        -11    1    5    5    0    0 -0.17240524582E+01 -0.18707186031E+02  0.41808043326E+02  0.45834961032E+02  0.00000000000E+00 0. -1.
          3    1    6    6  503    0  0.14448876421E+03  0.61838557942E+02  0.95624150932E+01  0.15745618443E+03  0.00000000000E+00 0. -1.
         -3    1    6    6    0  503  0.42839237027E+03  0.32889122329E+03  0.14422046414E+03  0.55900715733E+03  0.00000000000E+00 0.  1.
<mgrwt>
<rscale>  0 0.20562949E+04</rscale>
<asrwt>0</asrwt>
<pdfrwt beam="1">  1        1 0.45271676E+00 0.20562949E+04</pdfrwt>
<pdfrwt beam="2">  1       -2 0.55265936E-01 0.20562949E+04</pdfrwt>
<totfact> 0.16451161E+00</totfact>
</mgrwt>
</event>
<event>
12    4  0.4424320E-008  0.1175386E+04  0.7818608E-02  0.9134678E-01
          1   -1    0    0  501    0  0.00000000000E+00  0.00000000000E+00  0.11082196670E+04  0.11082196670E+04  0.00000000000E+00 0. -1.
         -2   -1    0    0    0  501 -0.00000000000E+00 -0.00000000000E+00 -0.31165561912E+03  0.31165561912E+03  0.00000000000E+00 0.  1.
        -24    2    1    2    0    0 -0.20165267695E+03 -0.24247891745E+03  0.29277764535E+03  0.43785138542E+03  0.80840946126E+02 0.  0.
        254    2    1    2    0    0  0.20165267695E+03  0.24247891745E+03  0.50378640252E+03  0.98202390068E+03  0.78173548892E+03 0.  0.
         23    2    4    4    0    0  0.23639794766E+03  0.93197252430E+02 -0.14705977727E+03  0.30722176347E+03  0.90492631424E+02 0.  0.
         23    2    4    4    0    0 -0.34745270709E+02  0.14928166502E+03  0.65084617979E+03  0.67480213721E+03  0.90911634513E+02 0.  0.
          3    1    3    3  502    0 -0.19950154358E+03 -0.20030944617E+03  0.24509791965E+03  0.37416270569E+03  0.00000000000E+00 0. -1.
         -4    1    3    3    0  502 -0.21511333734E+01 -0.42169471278E+02  0.47679725706E+02  0.63688679733E+02  0.00000000000E+00 0.  1.
         11    1    5    5    0    0  0.19960287303E+03  0.85198558427E+02 -0.15749201416E+03  0.26814890603E+03  0.00000000000E+00 0. -1.
        -11    1    5    5    0    0  0.36795074631E+02  0.79986940032E+01  0.10432236883E+02  0.39072857449E+02  0.00000000000E+00 0.  1.
          3    1    6    6  503    0  0.26231168709E+02  0.31605298710E+02  0.22805214391E+03  0.23172127537E+03  0.00000000000E+00 0. -1.
         -3    1    6    6    0  503 -0.60976439418E+02  0.11767636631E+03  0.42279403588E+03  0.44308086184E+03  0.00000000000E+00 0.  1.
<mgrwt>
<rscale>  0 0.11753857E+04</rscale>
<asrwt>0</asrwt>
<pdfrwt beam="1">  1        1 0.17049533E+00 0.11753857E+04</pdfrwt>
<pdfrwt beam="2">  1       -2 0.47947019E-01 0.11753857E+04</pdfrwt>
<totfact> 0.44776379E+01</totfact>
</mgrwt>
</event>
<event>
12    4  0.4424320E-008  0.2141365E+04  0.7818608E-02  0.8543237E-01
          1   -1    0    0  501    0  0.00000000000E+00  0.00000000000E+00  0.10270226768E+04  0.10270226768E+04  0.00000000000E+00 0. -1.
         -2   -1    0    0    0  501 -0.00000000000E+00 -0.00000000000E+00 -0.11161985681E+04  0.11161985681E+04  0.00000000000E+00 0.  1.
        -24    2    1    2    0    0 -0.64926224764E+02 -0.87546888535E+03 -0.33858222568E+02  0.88213853942E+03  0.79754872111E+02 0.  0.
        254    2    1    2    0    0  0.64926224764E+02  0.87546888535E+03 -0.55317668768E+02  0.12610827055E+04  0.90366385443E+03 0.  0.
         23    2    4    4    0    0  0.63715644556E+00 -0.15632985197E+03  0.10696177516E+03  0.20983740754E+03  0.90285589508E+02 0.  0.
         23    2    4    4    0    0  0.64289068319E+02  0.10317987373E+04 -0.16227944393E+03  0.10512452980E+04  0.10020149683E+03 0.  0.
          3    1    3    3  502    0 -0.62069421145E+02 -0.87556744639E+03 -0.31332092723E+02  0.87832378213E+03  0.00000000000E+00 0. -1.
         -4    1    3    3    0  502 -0.28568036194E+01  0.98561044046E-01 -0.25261298458E+01  0.38147572920E+01  0.00000000000E+00 0.  1.
         11    1    5    5    0    0 -0.43078145076E+02 -0.65677779764E+02  0.59659346412E+02  0.98633335907E+02  0.00000000000E+00 0.  1.
        -11    1    5    5    0    0  0.43715301521E+02 -0.90652072206E+02  0.47302428746E+02  0.11120407163E+03  0.00000000000E+00 0. -1.
          4    1    6    6  503    0  0.76976069992E+02  0.82397095972E+03 -0.16074082168E+03  0.84302495192E+03  0.00000000000E+00 0. -1.
         -4    1    6    6    0  503 -0.12687001673E+02  0.20782777760E+03 -0.15386222476E+01  0.20822034605E+03  0.00000000000E+00 0.  1.
<mgrwt>
<rscale>  0 0.21413652E+04</rscale>
<asrwt>0</asrwt>
<pdfrwt beam="1">  1        1 0.15800349E+00 0.21413652E+04</pdfrwt>
<pdfrwt beam="2">  1       -2 0.17172286E+00 0.21413652E+04</pdfrwt>
<totfact> 0.23998371E+00</totfact>
</mgrwt>
</event>
<event>
12    4  0.4424320E-008  0.1910946E+04  0.7818608E-02  0.8649427E-01
          1   -1    0    0  501    0  0.00000000000E+00  0.00000000000E+00  0.29007572604E+04  0.29007572604E+04  0.00000000000E+00 0. -1.
         -2   -1    0    0    0  501 -0.00000000000E+00 -0.00000000000E+00 -0.31472066905E+03  0.31472066905E+03  0.00000000000E+00 0.  1.
        -24    2    1    2    0    0 -0.67761988427E+03 -0.28297581652E+03  0.86573517843E+03  0.11386364261E+04  0.88042554284E+02 0.  0.
        254    2    1    2    0    0  0.67761988427E+03  0.28297581652E+03  0.17203014129E+04  0.20768415034E+04  0.90254620850E+03 0.  0.
         23    2    4    4    0    0  0.20298687724E+03  0.46211231327E+03  0.37185331807E+03  0.63340490691E+03  0.90418048689E+02 0.  0.
         23    2    4    4    0    0  0.47463300703E+03 -0.17913649674E+03  0.13484480949E+04  0.14434365965E+04  0.88490494669E+02 0.  0.
          1    1    3    3  502    0 -0.30107215164E+03 -0.10766621384E+03  0.43935816924E+03  0.54338941375E+03  0.00000000000E+00 0. -1.
         -2    1    3    3    0  502 -0.37654773262E+03 -0.17530960269E+03  0.42637700918E+03  0.59524701234E+03  0.00000000000E+00 0.  1.
         11    1    5    5    0    0  0.71663479082E+02  0.15108589816E+03  0.17742659834E+03  0.24380894293E+03  0.00000000000E+00 0.  1.
        -11    1    5    5    0    0  0.13132339815E+03  0.31102641511E+03  0.19442671974E+03  0.38959596397E+03  0.00000000000E+00 0. -1.
          1    1    6    6  503    0  0.37121455741E+03 -0.16788548791E+03  0.11368762588E+04  0.12076727257E+04  0.00000000000E+00 0. -1.
         -1    1    6    6    0  503  0.10341844962E+03 -0.11251008828E+02  0.21157183605E+03  0.23576387071E+03  0.00000000000E+00 0.  1.
<mgrwt>
<rscale>  0 0.19109456E+04</rscale>
<asrwt>0</asrwt>
<pdfrwt beam="1">  1        1 0.44627033E+00 0.19109456E+04</pdfrwt>
<pdfrwt beam="2">  1       -2 0.48418567E-01 0.19109456E+04</pdfrwt>
<totfact> 0.23455305E+00</totfact>
</mgrwt>
</event>
<event>
12    4  0.4424320E-008  0.3105121E+04  0.7818608E-02  0.8214334E-01
          1   -1    0    0  501    0  0.00000000000E+00  0.00000000000E+00  0.10727967000E+04  0.10727967000E+04  0.00000000000E+00 0. -1.
         -2   -1    0    0    0  501 -0.00000000000E+00 -0.00000000000E+00 -0.22468788343E+04  0.22468788343E+04  0.00000000000E+00 0.  1.
        -24    2    1    2    0    0  0.55513169437E+03 -0.37589233149E+03 -0.18765183203E+04  0.19942027040E+04  0.77827854555E+02 0.  0.
        254    2    1    2    0    0 -0.55513169437E+03  0.37589233149E+03  0.70243618601E+03  0.13254728304E+04  0.90221692825E+03 0.  0.
         23    2    4    4    0    0 -0.73333034380E+02  0.47733775231E+03  0.66085708476E+03  0.82323050236E+03  0.88018803770E+02 0.  0.
         23    2    4    4    0    0 -0.48179865999E+03 -0.10144542082E+03  0.41579101246E+02  0.50224232799E+03  0.89985622151E+02 0.  0.
          1    1    3    3  502    0  0.16861840289E+03 -0.98205151830E+02 -0.64710910642E+03  0.67588949781E+03  0.00000000000E+00 0. -1.
         -2    1    3    3    0  502  0.38651329148E+03 -0.27768717966E+03 -0.12294092139E+04  0.13183132062E+04  0.00000000000E+00 0.  1.
         11    1    5    5    0    0 -0.81042399069E+02  0.24545000504E+03  0.33175812779E+03  0.42056751036E+03  0.00000000000E+00 0. -1.
        -11    1    5    5    0    0  0.77093646889E+01  0.23188774728E+03  0.32909895698E+03  0.40266299200E+03  0.00000000000E+00 0.  1.
          2    1    6    6  503    0 -0.21955363585E+03 -0.89642705479E+02  0.50519803770E+01  0.23720273221E+03  0.00000000000E+00 0. -1.
         -2    1    6    6    0  503 -0.26224502414E+03 -0.11802715340E+02  0.36527120869E+02  0.26503959578E+03  0.00000000000E+00 0.  1.
<mgrwt>
<rscale>  0 0.31051211E+04</rscale>
<asrwt>0</asrwt>
<pdfrwt beam="1">  1        1 0.16504565E+00 0.31051211E+04</pdfrwt>
<pdfrwt beam="2">  1       -2 0.34567367E+00 0.31051211E+04</pdfrwt>
<totfact> 0.16297423E-01</totfact>
</mgrwt>
</event>
<event>
12    4  0.4424320E-008  0.1355041E+04  0.7818608E-02  0.8987021E-01
          1   -1    0    0  501    0  0.00000000000E+00  0.00000000000E+00  0.37355601960E+03  0.37355601960E+03  0.00000000000E+00 0. -1.
         -2   -1    0    0    0  501 -0.00000000000E+00 -0.00000000000E+00 -0.12288223916E+04  0.12288223916E+04  0.00000000000E+00 0.  1.
        -24    2    1    2    0    0  0.15523529232E+03  0.32373916347E+03 -0.11825714590E+03  0.38659123079E+03  0.81012253522E+02 0.  0.
        254    2    1    2    0    0 -0.15523529232E+03 -0.32373916347E+03 -0.73700922607E+03  0.12157871804E+04  0.89780333410E+03 0.  0.
         23    2    4    4    0    0 -0.49645141055E+03 -0.60408486128E+02 -0.27582743163E+03  0.57801305274E+03  0.88910791629E+02 0.  0.
         23    2    4    4    0    0  0.34121611822E+03 -0.26333067734E+03 -0.46118179444E+03  0.63777412765E+03  0.91080763085E+02 0.  0.
          1    1    3    3  502    0  0.44570930068E+02  0.88993495806E+02  0.42181170915E+01  0.99620292184E+02  0.00000000000E+00 0. -1.
         -2    1    3    3    0  502  0.11066436225E+03  0.23474566766E+03 -0.12247526299E+03  0.28697093860E+03  0.00000000000E+00 0.  1.
         11    1    5    5    0    0 -0.28204581968E+03 -0.74669450978E+02 -0.13820567636E+03  0.32284079712E+03  0.00000000000E+00 0. -1.
        -11    1    5    5    0    0 -0.21440559086E+03  0.14260964850E+02 -0.13762175527E+03  0.25517225561E+03  0.00000000000E+00 0.  1.
          3    1    6    6  503    0  0.29043687928E+03 -0.25925217587E+03 -0.40039709470E+03  0.55846495413E+03  0.00000000000E+00 0. -1.
         -3    1    6    6    0  503  0.50779238941E+02 -0.40785014686E+01 -0.60784699743E+02  0.79309173520E+02  0.00000000000E+00 0.  1.
<mgrwt>
<rscale>  0 0.13550410E+04</rscale>
<asrwt>0</asrwt>
<pdfrwt beam="1">  1        1 0.57470156E-01 0.13550410E+04</pdfrwt>
<pdfrwt beam="2">  1       -2 0.18904960E+00 0.13550410E+04</pdfrwt>
<totfact> 0.88259578E+00</totfact>
</mgrwt>
</event>
<event>
12    4  0.4424320E-008  0.1570416E+04  0.7818608E-02  0.8838932E-01
          1   -1    0    0  501    0  0.00000000000E+00  0.00000000000E+00  0.72090199572E+03  0.72090199572E+03  0.00000000000E+00 0. -1.
         -2   -1    0    0    0  501 -0.00000000000E+00 -0.00000000000E+00 -0.85525027329E+03  0.85525027329E+03  0.00000000000E+00 0.  1.
        -24    2    1    2    0    0  0.28497726360E+03 -0.46933399424E+03  0.22377954019E+02  0.55533403372E+03  0.80054214540E+02 0.  0.
        254    2    1    2    0    0 -0.28497726360E+03  0.46933399424E+03 -0.15672623159E+03  0.10208182353E+04  0.84617983840E+03 0.  0.
         23    2    4    4    0    0 -0.39774044120E+03 -0.10009955892E+03 -0.66365834545E+02  0.42597739026E+03  0.93994322958E+02 0.  0.
         23    2    4    4    0    0  0.11276317761E+03  0.56943355317E+03 -0.90360397046E+02  0.59484084504E+03  0.93276598743E+02 0.  0.
          3    1    3    3  502    0  0.37022106873E+01 -0.18591227203E+02 -0.12788632018E+02  0.22866770690E+02  0.00000000000E+00 0. -1.
         -4    1    3    3    0  502  0.28127505291E+03 -0.45074276704E+03  0.35166586037E+02  0.53246726303E+03  0.00000000000E+00 0.  1.
         11    1    5    5    0    0 -0.24768873613E+03 -0.21670489912E+02 -0.63609476990E+02  0.25664271994E+03  0.00000000000E+00 0. -1.
        -11    1    5    5    0    0 -0.15005170508E+03 -0.78429069013E+02 -0.27563575548E+01  0.16933467031E+03  0.00000000000E+00 0.  1.
          3    1    6    6  503    0  0.55162363755E+02  0.11151047406E+03  0.70721513962E+00  0.12441049937E+03  0.00000000000E+00 0. -1.
         -3    1    6    6    0  503  0.57600813851E+02  0.45792307911E+03 -0.91067612186E+02  0.47043034567E+03  0.00000000000E+00 0.  1.
<mgrwt>
<rscale>  0 0.15704160E+04</rscale>
<asrwt>0</asrwt>
<pdfrwt beam="1">  1        1 0.11090800E+00 0.15704160E+04</pdfrwt>
<pdfrwt beam="2">  1       -2 0.13157696E+00 0.15704160E+04</pdfrwt>
<totfact> 0.92366531E+00</totfact>
</mgrwt>
</event>
<event>
12    4  0.4424320E-008  0.1324524E+04  0.7818608E-02  0.9010340E-01
          1   -1    0    0  501    0  0.00000000000E+00  0.00000000000E+00  0.31112909660E+03  0.31112909660E+03  0.00000000000E+00 0. -1.
         -2   -1    0    0    0  501 -0.00000000000E+00 -0.00000000000E+00 -0.14096747391E+04  0.14096747391E+04  0.00000000000E+00 0.  1.
        -24    2    1    2    0    0  0.62026924103E+02 -0.20988764287E+03  0.18840356059E+02  0.23349649233E+03  0.79154854396E+02 0.  0.
        254    2    1    2    0    0 -0.62026924103E+02  0.20988764287E+03 -0.11173859985E+04  0.14873073434E+04  0.95688635789E+03 0.  0.
         23    2    4    4    0    0 -0.40914861802E+03  0.85210415543E+02 -0.10005997564E+04  0.10883767586E+04  0.93277487377E+02 0.  0.
         23    2    4    4    0    0  0.34712169392E+03  0.12467722732E+03 -0.11678624214E+03  0.39893058473E+03  0.97307264262E+02 0.  0.
          3    1    3    3  502    0  0.42227037689E+02 -0.39668134767E+02  0.22336852959E+02  0.62093627918E+02  0.00000000000E+00 0. -1.
         -4    1    3    3    0  502  0.19799886414E+02 -0.17021950810E+03 -0.34964969005E+01  0.17140286442E+03  0.00000000000E+00 0.  1.
         11    1    5    5    0    0 -0.41729172831E+02  0.20378091387E+02 -0.55913098608E+02  0.72683320436E+02  0.00000000000E+00 0.  1.
        -11    1    5    5    0    0 -0.36741944519E+03  0.64832324157E+02 -0.94468665780E+03  0.10156934382E+04  0.00000000000E+00 0. -1.
          1    1    6    6  503    0  0.21157285056E+03  0.68055427768E+02 -0.11881866930E+03  0.25201684173E+03  0.00000000000E+00 0. -1.
         -1    1    6    6    0  503  0.13554884336E+03  0.56621799554E+02  0.20324271637E+01  0.14691374300E+03  0.00000000000E+00 0.  1.
<mgrwt>
<rscale>  0 0.13245238E+04</rscale>
<asrwt>0</asrwt>
<pdfrwt beam="1">  1        1 0.47866015E-01 0.13245238E+04</pdfrwt>
<pdfrwt beam="2">  1       -2 0.21687304E+00 0.13245238E+04</pdfrwt>
<totfact> 0.74034553E+00</totfact>
</mgrwt>
</event>
<event>
12    4  0.4424320E-008  0.2182400E+04  0.7818608E-02  0.8525789E-01
          1   -1    0    0  501    0  0.00000000000E+00  0.00000000000E+00  0.33565236687E+04  0.33565236687E+04  0.00000000000E+00 0. -1.
         -2   -1    0    0    0  501 -0.00000000000E+00 -0.00000000000E+00 -0.35474724859E+03  0.35474724859E+03  0.00000000000E+00 0.  1.
        -24    2    1    2    0    0 -0.38720866122E+03 -0.73110550179E+03  0.18669602108E+04  0.20438884379E+04  0.86566249401E+02 0.  0.
        254    2    1    2    0    0  0.38720866122E+03  0.73110550179E+03  0.11348162092E+04  0.16673824794E+04  0.89883852928E+03 0.  0.
         23    2    4    4    0    0 -0.22639125982E+03 -0.16884500216E+02  0.15466487983E+03  0.28728469373E+03  0.84102207633E+02 0.  0.
         23    2    4    4    0    0  0.61359992104E+03  0.74799000201E+03  0.98015132941E+03  0.13800977857E+04  0.89327281475E+02 0.  0.
          3    1    3    3  502    0 -0.29268330520E+03 -0.46893348551E+03  0.12693216532E+04  0.13844636471E+04  0.00000000000E+00 0. -1.
         -4    1    3    3    0  502 -0.94525356026E+02 -0.26217201629E+03  0.59763855763E+03  0.65942479072E+03  0.00000000000E+00 0.  1.
         11    1    5    5    0    0 -0.92331659127E+02 -0.41340989269E+02  0.38579289004E+02  0.10827083731E+03  0.00000000000E+00 0. -1.
        -11    1    5    5    0    0 -0.13405960069E+03  0.24456489053E+02  0.11608559082E+03  0.17901385642E+03  0.00000000000E+00 0.  1.
          2    1    6    6  503    0  0.13192334230E+03  0.22294173606E+03  0.25846393378E+03  0.36593768730E+03  0.00000000000E+00 0. -1.
         -2    1    6    6    0  503  0.48167657874E+03  0.52504826595E+03  0.72168739562E+03  0.10141600984E+04  0.00000000000E+00 0.  1.
<mgrwt>
<rscale>  0 0.21824001E+04</rscale>
<asrwt>0</asrwt>
<pdfrwt beam="1">  1        1 0.51638824E+00 0.21824001E+04</pdfrwt>
<pdfrwt beam="2">  1       -2 0.54576502E-01 0.21824001E+04</pdfrwt>
<totfact> 0.82134168E-01</totfact>
</mgrwt>
</event>
<event>
12    4  0.4424320E-008  0.1594029E+04  0.7818608E-02  0.8824224E-01
          1   -1    0    0  501    0  0.00000000000E+00  0.00000000000E+00  0.10267285558E+04  0.10267285558E+04  0.00000000000E+00 0. -1.
         -2   -1    0    0    0  501 -0.00000000000E+00 -0.00000000000E+00 -0.61869550832E+03  0.61869550832E+03  0.00000000000E+00 0.  1.
        -24    2    1    2    0    0 -0.53087526529E+02  0.20247335583E+03  0.64646336487E+03  0.68417794203E+03  0.79817472702E+02 0.  0.
        254    2    1    2    0    0  0.53087526529E+02 -0.20247335583E+03 -0.23843031737E+03  0.96124612212E+03  0.90737607735E+03 0.  0.
         23    2    4    4    0    0 -0.40914437178E+03 -0.10352125797E+02 -0.68946834030E+02  0.42503145324E+03  0.91606696578E+02 0.  0.
         23    2    4    4    0    0  0.46223189831E+03 -0.19212123003E+03 -0.16948348334E+03  0.53621466887E+03  0.90733814813E+02 0.  0.
          3    1    3    3  502    0 -0.53354509535E+02  0.20989821523E+03  0.62350152309E+03  0.66004402409E+03  0.00000000000E+00 0. -1.
         -4    1    3    3    0  502  0.26698300614E+00 -0.74248594033E+01  0.22961841780E+02  0.24133917937E+02  0.00000000000E+00 0.  1.
         11    1    5    5    0    0 -0.29878668541E+03 -0.41384957900E+02 -0.72907377528E+02  0.31032512598E+03  0.00000000000E+00 0.  1.
        -11    1    5    5    0    0 -0.11035768637E+03  0.31032832103E+02  0.39605434983E+01  0.11470632726E+03  0.00000000000E+00 0. -1.
          3    1    6    6  503    0  0.18673102329E+03 -0.12344051245E+03 -0.58497618833E+02  0.23136120371E+03  0.00000000000E+00 0. -1.
         -3    1    6    6    0  503  0.27550087501E+03 -0.68680717578E+02 -0.11098586450E+03  0.30485346516E+03  0.00000000000E+00 0.  1.
<mgrwt>
<rscale>  0 0.15940293E+04</rscale>
<asrwt>0</asrwt>
<pdfrwt beam="1">  1        1 0.15795824E+00 0.15940293E+04</pdfrwt>
<pdfrwt beam="2">  1       -2 0.95183924E-01 0.15940293E+04</pdfrwt>
<totfact> 0.11262927E+01</totfact>
</mgrwt>
</event>
<event>
12    4  0.4424320E-008  0.1540168E+04  0.7818608E-02  0.8858173E-01
         -2   -1    0    0    0  501 -0.00000000000E+00  0.00000000000E+00  0.28800253206E+03  0.28800253206E+03  0.00000000000E+00 0.  1.
          1   -1    0    0  501    0  0.00000000000E+00 -0.00000000000E+00 -0.20591103231E+04  0.20591103231E+04  0.00000000000E+00 0. -1.
        -24    2    1    2    0    0 -0.34130983707E+03 -0.58351833048E+01 -0.31299522194E+02  0.35210408238E+03  0.80443585803E+02 0.  0.
        254    2    1    2    0    0  0.34130983707E+03  0.58351833048E+01 -0.17398082689E+04  0.19950087728E+04  0.91465880903E+03 0.  0.
         23    2    4    4    0    0  0.73945849632E+02 -0.38793305742E+03 -0.39670175908E+03  0.56722842465E+03  0.91737420699E+02 0.  0.
         23    2    4    4    0    0  0.26736398743E+03  0.39376824072E+03 -0.13431065098E+04  0.14277803482E+04  0.89914942005E+02 0.  0.
          1    1    3    3  502    0 -0.11277719765E+03  0.30995209030E+02 -0.29473573355E+02  0.12061546675E+03  0.00000000000E+00 0. -1.
         -2    1    3    3    0  502 -0.22853263941E+03 -0.36830392335E+02 -0.18259488384E+01  0.23148861563E+03  0.00000000000E+00 0.  1.
         11    1    5    5    0    0  0.66998543991E+02 -0.23216817717E+03 -0.18511824955E+03  0.30440044958E+03  0.00000000000E+00 0. -1.
        -11    1    5    5    0    0  0.69473056405E+01 -0.15576488025E+03 -0.21158350953E+03  0.26282797507E+03  0.00000000000E+00 0.  1.
          3    1    6    6  503    0  0.33905305169E+02  0.97590402791E+02 -0.36996393876E+03  0.38411817507E+03  0.00000000000E+00 0. -1.
         -3    1    6    6    0  503  0.23345868226E+03  0.29617783793E+03 -0.97314257104E+03  0.10436621731E+04  0.00000000000E+00 0.  1.
<mgrwt>
<rscale>  0 0.15401675E+04</rscale>
<asrwt>0</asrwt>
<pdfrwt beam="1">  1        1 0.31678620E+00 0.15401675E+04</pdfrwt>
<pdfrwt beam="2">  1       -2 0.44308082E-01 0.15401675E+04</pdfrwt>
<totfact> 0.11117476E+01</totfact>
</mgrwt>
</event>
<event>
12    4  0.4424320E-008  0.1559877E+04  0.7818608E-02  0.8845583E-01
          1   -1    0    0  501    0  0.00000000000E+00  0.00000000000E+00  0.18105064738E+04  0.18105064738E+04  0.00000000000E+00 0. -1.
         -2   -1    0    0    0  501 -0.00000000000E+00 -0.00000000000E+00 -0.33598557749E+03  0.33598557749E+03  0.00000000000E+00 0.  1.
        -24    2    1    2    0    0 -0.11975015715E+03 -0.45900620208E+03  0.79716651096E+03  0.93129338615E+03  0.82499280018E+02 0.  0.
        254    2    1    2    0    0  0.11975015715E+03  0.45900620208E+03  0.67735438539E+03  0.12151986652E+04  0.89043362400E+03 0.  0.
         23    2    4    4    0    0  0.34403573379E+03  0.17261266570E+03  0.73448196640E+03  0.83404437876E+03  0.89501666419E+02 0.  0.
         23    2    4    4    0    0 -0.22428557664E+03  0.28639353638E+03 -0.57127581008E+02  0.38115428642E+03  0.98436537801E+02 0.  0.
          3    1    3    3  502    0 -0.11708277661E+03 -0.45243163675E+03  0.79733072052E+03  0.92419642955E+03  0.00000000000E+00 0. -1.
         -4    1    3    3    0  502 -0.26673805416E+01 -0.65745653259E+01 -0.16420955705E+00  0.70969565982E+01  0.00000000000E+00 0.  1.
         11    1    5    5    0    0 -0.52568885517E+01 -0.26540218361E+00  0.13040203755E+02  0.14062440383E+02  0.00000000000E+00 0. -1.
        -11    1    5    5    0    0  0.34929262234E+03  0.17287806788E+03  0.72144176265E+03  0.81998193838E+03  0.00000000000E+00 0.  1.
          3    1    6    6  503    0  0.48849784915E+01  0.37506681947E+02  0.11788140966E+01  0.37841826174E+02  0.00000000000E+00 0. -1.
         -3    1    6    6    0  503 -0.22917055513E+03  0.24888685443E+03 -0.58306395104E+02  0.34331246024E+03  0.00000000000E+00 0.  1.
<mgrwt>
<rscale>  0 0.15598770E+04</rscale>
<asrwt>0</asrwt>
<pdfrwt beam="1">  1        1 0.27853945E+00 0.15598770E+04</pdfrwt>
<pdfrwt beam="2">  1       -2 0.51690090E-01 0.15598770E+04</pdfrwt>
<totfact> 0.11973248E+01</totfact>
</mgrwt>
</event>
<event>
12    4  0.4424320E-008  0.1885507E+04  0.7818608E-02  0.8662104E-01
          1   -1    0    0  501    0  0.00000000000E+00  0.00000000000E+00  0.19190126709E+04  0.19190126709E+04  0.00000000000E+00 0. -1.
         -2   -1    0    0    0  501 -0.00000000000E+00 -0.00000000000E+00 -0.46314675068E+03  0.46314675068E+03  0.00000000000E+00 0.  1.
        -24    2    1    2    0    0 -0.15778721590E+03  0.69300337181E+03  0.81120642534E+03  0.10816250550E+04  0.81892711975E+02 0.  0.
        254    2    1    2    0    0  0.15778721590E+03 -0.69300337181E+03  0.64465949491E+03  0.13005343666E+04  0.87786860948E+03 0.  0.
         23    2    4    4    0    0  0.18949541949E+03 -0.28576512658E+03 -0.16381843197E+03  0.39024013657E+03  0.88773103793E+02 0.  0.
         23    2    4    4    0    0 -0.31708203594E+02 -0.40723824523E+03  0.80847792688E+03  0.91029423004E+03  0.90280830936E+02 0.  0.
          1    1    3    3  502    0 -0.12278498732E+03  0.63997381147E+03  0.73065968616E+03  0.97903330355E+03  0.00000000000E+00 0. -1.
         -2    1    3    3    0  502 -0.35002228584E+02  0.53029560337E+02  0.80546739173E+02  0.10259175146E+03  0.00000000000E+00 0.  1.
         11    1    5    5    0    0  0.58226242397E+02 -0.55984962011E+02 -0.35367584155E+01  0.80852457817E+02  0.00000000000E+00 0. -1.
        -11    1    5    5    0    0  0.13126917710E+03 -0.22978016457E+03 -0.16028167356E+03  0.30938767875E+03  0.00000000000E+00 0.  1.
          1    1    6    6  503    0 -0.56936916403E+02 -0.16383085809E+03  0.32243466009E+03  0.36612357550E+03  0.00000000000E+00 0. -1.
         -1    1    6    6    0  503  0.25228712809E+02 -0.24340738713E+03  0.48604326680E+03  0.54417065454E+03  0.00000000000E+00 0.  1.
<mgrwt>
<rscale>  0 0.18855073E+04</rscale>
<asrwt>0</asrwt>
<pdfrwt beam="1">  1        1 0.29523271E+00 0.18855073E+04</pdfrwt>
<pdfrwt beam="2">  1       -2 0.71253347E-01 0.18855073E+04</pdfrwt>
<totfact> 0.49741841E+00</totfact>
</mgrwt>
</event>
<event>
12    4  0.4424320E-008  0.1997514E+04  0.7818608E-02  0.8607784E-01
         -2   -1    0    0    0  501 -0.00000000000E+00  0.00000000000E+00  0.55649024426E+03  0.55649024426E+03  0.00000000000E+00 0.  1.
          1   -1    0    0  501    0  0.00000000000E+00 -0.00000000000E+00 -0.17925120947E+04  0.17925120947E+04  0.00000000000E+00 0. -1.
        -24    2    1    2    0    0 -0.60990495198E+03  0.44836390566E+03 -0.79380101171E+03  0.10997053051E+04  0.78850932525E+02 0.  0.
        254    2    1    2    0    0  0.60990495198E+03 -0.44836390566E+03 -0.44222083875E+03  0.12492970339E+04  0.89003908133E+03 0.  0.
         23    2    4    4    0    0  0.68282956463E+03 -0.61819888121E+03 -0.47720668768E+03  0.10410974335E+04  0.87929358946E+02 0.  0.
         23    2    4    4    0    0 -0.72924612652E+02  0.16983497556E+03  0.34985848931E+02  0.20819960040E+03  0.89225253862E+02 0.  0.
          3    1    3    3  502    0 -0.22680556136E+03  0.15119805444E+03 -0.23510906093E+03  0.35996928322E+03  0.00000000000E+00 0. -1.
         -4    1    3    3    0  502 -0.38309939062E+03  0.29716585122E+03 -0.55869195078E+03  0.73973602190E+03  0.00000000000E+00 0.  1.
         11    1    5    5    0    0  0.66848432583E+03 -0.59303672597E+03 -0.47506898209E+03  0.10120545390E+04  0.00000000000E+00 0. -1.
        -11    1    5    5    0    0  0.14345238799E+02 -0.25162155247E+02 -0.21377055922E+01  0.29042894450E+02  0.00000000000E+00 0.  1.
          3    1    6    6  503    0 -0.65931260177E+02  0.17264973970E+03  0.13354424980E+02  0.18529221342E+03  0.00000000000E+00 0. -1.
         -3    1    6    6    0  503 -0.69933524751E+01 -0.28147641416E+01  0.21631423952E+02  0.22907386979E+02  0.00000000000E+00 0.  1.
<mgrwt>
<rscale>  0 0.19975139E+04</rscale>
<asrwt>0</asrwt>
<pdfrwt beam="1">  1        1 0.27577110E+00 0.19975139E+04</pdfrwt>
<pdfrwt beam="2">  1       -2 0.85613882E-01 0.19975139E+04</pdfrwt>
<totfact> 0.39803407E+00</totfact>
</mgrwt>
</event>
<event>
12    4  0.4424320E-008  0.2990149E+04  0.7818608E-02  0.8246549E-01
         -2   -1    0    0    0  501 -0.00000000000E+00  0.00000000000E+00  0.58480524083E+03  0.58480524083E+03  0.00000000000E+00 0.  1.
          1   -1    0    0  501    0  0.00000000000E+00 -0.00000000000E+00 -0.38222098747E+04  0.38222098747E+04  0.00000000000E+00 0. -1.
        -24    2    1    2    0    0  0.67149486671E+03  0.11442778636E+04 -0.10529802338E+04  0.16953070251E+04  0.70861493520E+02 0.  0.
        254    2    1    2    0    0 -0.67149486671E+03 -0.11442778636E+04 -0.21844244001E+04  0.27117080905E+04  0.90629665287E+03 0.  0.
         23    2    4    4    0    0 -0.83350670103E+02  0.82293529829E+02 -0.61325027698E+03  0.63144195515E+03  0.94464179689E+02 0.  0.
         23    2    4    4    0    0 -0.58814419661E+03 -0.12265713935E+04 -0.15711741231E+04  0.20802661353E+04  0.92347654961E+02 0.  0.
          3    1    3    3  502    0  0.17975767272E+03  0.36554824976E+03 -0.30642884063E+03  0.50974207024E+03  0.00000000000E+00 0. -1.
         -4    1    3    3    0  502  0.49173719399E+03  0.77872961387E+03 -0.74655139315E+03  0.11855649548E+04  0.00000000000E+00 0.  1.
         11    1    5    5    0    0 -0.70026373307E+02  0.11110001604E+02 -0.20749352442E+03  0.21927308948E+03  0.00000000000E+00 0.  1.
        -11    1    5    5    0    0 -0.13324296796E+02  0.71183528225E+02 -0.40575675256E+03  0.41216886567E+03  0.00000000000E+00 0. -1.
          2    1    6    6  503    0 -0.55294798515E+03 -0.11757593925E+04 -0.14719484356E+04  0.19633628856E+04  0.00000000000E+00 0. -1.
         -2    1    6    6    0  503 -0.35196211459E+02 -0.50812000934E+02 -0.99225687472E+02  0.11690324972E+03  0.00000000000E+00 0.  1.
<mgrwt>
<rscale>  0 0.29901494E+04</rscale>
<asrwt>0</asrwt>
<pdfrwt beam="1">  1        1 0.58803229E+00 0.29901494E+04</pdfrwt>
<pdfrwt beam="2">  1       -2 0.89970037E-01 0.29901494E+04</pdfrwt>
<totfact> 0.10817670E-01</totfact>
</mgrwt>
</event>
<event>
12    4  0.4424320E-008  0.2335515E+04  0.7818608E-02  0.8464048E-01
          1   -1    0    0  501    0  0.00000000000E+00  0.00000000000E+00  0.12014268019E+04  0.12014268019E+04  0.00000000000E+00 0. -1.
         -2   -1    0    0    0  501 -0.00000000000E+00 -0.00000000000E+00 -0.11350321063E+04  0.11350321063E+04  0.00000000000E+00 0.  1.
        -24    2    1    2    0    0  0.74260721274E+02 -0.84554574297E+03  0.54187722261E+03  0.10100671943E+04  0.78374449642E+02 0.  0.
        254    2    1    2    0    0 -0.74260721274E+02  0.84554574297E+03 -0.47548252701E+03  0.13263917139E+04  0.90153706917E+03 0.  0.
         23    2    4    4    0    0 -0.21346016766E+03  0.84593018461E+03 -0.59892739346E+02  0.87882298580E+03  0.87060781881E+02 0.  0.
         23    2    4    4    0    0  0.13919944638E+03 -0.38444163569E+00 -0.41558978766E+03  0.44756872812E+03  0.90698738229E+02 0.  0.
          3    1    3    3  502    0  0.41342699341E+02 -0.64613234596E+03  0.37686145797E+03  0.74914670512E+03  0.00000000000E+00 0. -1.
         -4    1    3    3    0  502  0.32918021933E+02 -0.19941339701E+03  0.16501576463E+03  0.26092048914E+03  0.00000000000E+00 0.  1.
         11    1    5    5    0    0  0.31638952303E+01  0.24088736325E+02  0.94922240160E+01  0.26084090314E+02  0.00000000000E+00 0. -1.
        -11    1    5    5    0    0 -0.21662406289E+03  0.82184144828E+03 -0.69384963362E+02  0.85273889549E+03  0.00000000000E+00 0.  1.
          3    1    6    6  503    0  0.10354188047E+03 -0.13387330207E+02 -0.17326143870E+03  0.20228610373E+03  0.00000000000E+00 0. -1.
         -3    1    6    6    0  503  0.35657565907E+02  0.13002888572E+02 -0.24232834897E+03  0.24528262440E+03  0.00000000000E+00 0.  1.
<mgrwt>
<rscale>  0 0.23355154E+04</rscale>
<asrwt>0</asrwt>
<pdfrwt beam="1">  1        1 0.18483489E+00 0.23355154E+04</pdfrwt>
<pdfrwt beam="2">  1       -2 0.17462032E+00 0.23355154E+04</pdfrwt>
<totfact> 0.16660746E+00</totfact>
</mgrwt>
</event>
<event>
12    4  0.4424320E-008  0.1643102E+04  0.7818608E-02  0.8794498E-01
          1   -1    0    0  501    0  0.00000000000E+00  0.00000000000E+00  0.35457997525E+04  0.35457997525E+04  0.00000000000E+00 0. -1.
         -2   -1    0    0    0  501 -0.00000000000E+00 -0.00000000000E+00 -0.19035085409E+03  0.19035085409E+03  0.00000000000E+00 0.  1.
        -24    2    1    2    0    0 -0.43917627085E+03 -0.15029671960E+03  0.41075941184E+03  0.62487852996E+03  0.79277878346E+02 0.  0.
        254    2    1    2    0    0  0.43917627085E+03  0.15029671960E+03  0.29446894866E+04  0.31112720766E+04  0.89070357678E+03 0.  0.
         23    2    4    4    0    0  0.57240882900E+03 -0.15116993541E+03  0.23507985181E+04  0.24259486242E+04  0.92026289113E+02 0.  0.
         23    2    4    4    0    0 -0.13323255814E+03  0.30146665500E+03  0.59389096852E+03  0.68532345243E+03  0.91261675071E+02 0.  0.
          1    1    3    3  502    0 -0.11592046468E+03 -0.76164517785E+01  0.12295913150E+03  0.16915824688E+03  0.00000000000E+00 0. -1.
         -2    1    3    3    0  502 -0.32325580617E+03 -0.14268026782E+03  0.28780028034E+03  0.45572028308E+03  0.00000000000E+00 0.  1.
         11    1    5    5    0    0  0.20211809509E+03 -0.67846643775E+02  0.68277347386E+03  0.71528631194E+03  0.00000000000E+00 0.  1.
        -11    1    5    5    0    0  0.37029073391E+03 -0.83323291630E+02  0.16680250442E+04  0.17106623123E+04  0.00000000000E+00 0. -1.
          4    1    6    6  503    0 -0.10016762360E+03  0.28948947021E+03  0.52075661050E+03  0.60417311556E+03  0.00000000000E+00 0. -1.
         -4    1    6    6    0  503 -0.33064934549E+02  0.11977184789E+02  0.73134358022E+02  0.81150336879E+02  0.00000000000E+00 0.  1.
<mgrwt>
<rscale>  0 0.16431020E+04</rscale>
<asrwt>0</asrwt>
<pdfrwt beam="1">  1        1 0.54550761E+00 0.16431020E+04</pdfrwt>
<pdfrwt beam="2">  1       -2 0.29284749E-01 0.16431020E+04</pdfrwt>
<totfact> 0.20900611E+00</totfact>
</mgrwt>
</event>
<event>
12    4  0.4424320E-008  0.1454629E+04  0.7818608E-02  0.8915198E-01
          1   -1    0    0  501    0  0.00000000000E+00  0.00000000000E+00  0.21327884560E+04  0.21327884560E+04  0.00000000000E+00 0. -1.
         -2   -1    0    0    0  501 -0.00000000000E+00 -0.00000000000E+00 -0.24802562113E+03  0.24802562113E+03  0.00000000000E+00 0.  1.
        -24    2    1    2    0    0  0.11343666554E+03 -0.19417580686E+03 -0.42972510881E+02  0.24272414866E+03  0.80599346091E+02 0.  0.
        254    2    1    2    0    0 -0.11343666554E+03  0.19417580686E+03  0.19277353458E+04  0.21380899285E+04  0.89704674231E+03 0.  0.
         23    2    4    4    0    0  0.23845500673E+03  0.10650438622E+03  0.16467553715E+04  0.16697753126E+04  0.90235061361E+02 0.  0.
         23    2    4    4    0    0 -0.35189167227E+03  0.87671420643E+02  0.28097997425E+03  0.46831461592E+03  0.94099981627E+02 0.  0.
          1    1    3    3  502    0 -0.23687416225E+01 -0.47708260576E+01 -0.18647007612E+02  0.19392849482E+02  0.00000000000E+00 0. -1.
         -2    1    3    3    0  502  0.11580540716E+03 -0.18940498080E+03 -0.24325503269E+02  0.22333129917E+03  0.00000000000E+00 0.  1.
         11    1    5    5    0    0  0.20599881291E+03  0.51916056326E+02  0.13024978146E+04  0.13197088106E+04  0.00000000000E+00 0.  1.
        -11    1    5    5    0    0  0.32456193826E+02  0.54588329892E+02  0.34425755696E+03  0.35006650197E+03  0.00000000000E+00 0. -1.
          2    1    6    6  503    0 -0.34322540263E+03  0.88643516799E+02  0.28830505205E+03  0.45692576325E+03  0.00000000000E+00 0.  1.
         -2    1    6    6    0  503 -0.86662696432E+01 -0.97209615662E+00 -0.73250777991E+01  0.11388852674E+02  0.00000000000E+00 0. -1.
<mgrwt>
<rscale>  0 0.14546287E+04</rscale>
<asrwt>0</asrwt>
<pdfrwt beam="1">  1        1 0.32812129E+00 0.14546287E+04</pdfrwt>
<pdfrwt beam="2">  1       -2 0.38157789E-01 0.14546287E+04</pdfrwt>
<totfact> 0.13396728E+01</totfact>
</mgrwt>
</event>
<event>
12    4  0.4424320E-008  0.1836421E+04  0.7818608E-02  0.8687167E-01
         -2   -1    0    0    0  501 -0.00000000000E+00  0.00000000000E+00  0.11964583446E+04  0.11964583446E+04  0.00000000000E+00 0.  1.
          1   -1    0    0  501    0  0.00000000000E+00 -0.00000000000E+00 -0.70467198711E+03  0.70467198711E+03  0.00000000000E+00 0. -1.
        -24    2    1    2    0    0 -0.64054684499E+03 -0.28183626215E+03  0.15953624802E+03  0.72226308175E+03  0.80499723850E+02 0.  0.
        254    2    1    2    0    0  0.64054684499E+03  0.28183626215E+03  0.33225010947E+03  0.11788672500E+04  0.88859772593E+03 0.  0.
         23    2    4    4    0    0  0.17845998000E+03 -0.30747401835E+02 -0.27976816615E+03  0.34598703420E+03  0.92970069717E+02 0.  0.
         23    2    4    4    0    0  0.46208686498E+03  0.31258366398E+03  0.61201827562E+03  0.83288021577E+03  0.88827171179E+02 0.  0.
          3    1    3    3  502    0 -0.39393690107E+03 -0.16285797501E+03  0.57853216840E+02  0.43018135333E+03  0.00000000000E+00 0. -1.
         -4    1    3    3    0  502 -0.24660994391E+03 -0.11897828714E+03  0.10168303118E+03  0.29208172842E+03  0.00000000000E+00 0.  1.
         11    1    5    5    0    0  0.33153880846E+02  0.12885366480E+02 -0.12211460249E+03  0.12718957751E+03  0.00000000000E+00 0. -1.
        -11    1    5    5    0    0  0.14530609916E+03 -0.43632768316E+02 -0.15765356366E+03  0.21879745670E+03  0.00000000000E+00 0.  1.
          4    1    6    6  503    0  0.12903808066E+03  0.78444887715E+02  0.22629599610E+03  0.27205570114E+03  0.00000000000E+00 0. -1.
         -4    1    6    6    0  503  0.33304878432E+03  0.23413877627E+03  0.38572227952E+03  0.56082451463E+03  0.00000000000E+00 0.  1.
<mgrwt>
<rscale>  0 0.18364212E+04</rscale>
<asrwt>0</asrwt>
<pdfrwt beam="1">  1        1 0.10841107E+00 0.18364212E+04</pdfrwt>
<pdfrwt beam="2">  1       -2 0.18407051E+00 0.18364212E+04</pdfrwt>
<totfact> 0.37749034E+00</totfact>
</mgrwt>
</event>
<event>
12    4  0.4424320E-008  0.1283273E+04  0.7818608E-02  0.9042936E-01
          1   -1    0    0  501    0  0.00000000000E+00  0.00000000000E+00  0.16270033409E+04  0.16270033409E+04  0.00000000000E+00 0. -1.
         -2   -1    0    0    0  501 -0.00000000000E+00 -0.00000000000E+00 -0.25304042656E+03  0.25304042656E+03  0.00000000000E+00 0.  1.
        -24    2    1    2    0    0  0.16206867590E+03 -0.16075983759E+03  0.30666556781E+02  0.24378018348E+03  0.79864629601E+02 0.  0.
        254    2    1    2    0    0 -0.16206867590E+03  0.16075983759E+03  0.13432963575E+04  0.16362635839E+04  0.90598202572E+03 0.  0.
         23    2    4    4    0    0 -0.34658071500E+03  0.33606963649E+03  0.34124463376E+03  0.59837038079E+03  0.92402488882E+02 0.  0.
         23    2    4    4    0    0  0.18451203910E+03 -0.17530979890E+03  0.10020517238E+04  0.10378932032E+04  0.91304030012E+02 0.  0.
          1    1    3    3  502    0 -0.91279362889E+01 -0.54448222025E+01  0.20810988278E+00  0.10630551229E+02  0.00000000000E+00 0. -1.
         -2    1    3    3    0  502  0.17119661219E+03 -0.15531501539E+03  0.30458446898E+02  0.23314963225E+03  0.00000000000E+00 0.  1.
         11    1    5    5    0    0 -0.15443978648E+03  0.11389937119E+03  0.90487312652E+02  0.21216189139E+03  0.00000000000E+00 0. -1.
        -11    1    5    5    0    0 -0.19214092852E+03  0.22217026530E+03  0.25075732111E+03  0.38620848940E+03  0.00000000000E+00 0.  1.
          3    1    6    6  503    0  0.10623661233E+03 -0.38939263272E+02  0.41480507044E+03  0.42996014988E+03  0.00000000000E+00 0. -1.
         -3    1    6    6    0  503  0.78275426772E+02 -0.13637053563E+03  0.58724665332E+03  0.60793305327E+03  0.00000000000E+00 0.  1.
<mgrwt>
<rscale>  0 0.12832733E+04</rscale>
<asrwt>0</asrwt>
<pdfrwt beam="1">  1        1 0.25030820E+00 0.12832733E+04</pdfrwt>
<pdfrwt beam="2">  1       -2 0.38929297E-01 0.12832733E+04</pdfrwt>
<totfact> 0.28791778E+01</totfact>
</mgrwt>
</event>
<event>
12    4  0.4424320E-008  0.2248666E+04  0.7818608E-02  0.8498441E-01
         -2   -1    0    0    0  501 -0.00000000000E+00  0.00000000000E+00  0.89986402752E+03  0.89986402752E+03  0.00000000000E+00 0.  1.
          1   -1    0    0  501    0  0.00000000000E+00 -0.00000000000E+00 -0.14047948553E+04  0.14047948553E+04  0.00000000000E+00 0. -1.
        -24    2    1    2    0    0  0.76665018539E+03 -0.33720324990E+03  0.11330291521E+03  0.84899750787E+03  0.80626790018E+02 0.  0.
        254    2    1    2    0    0 -0.76665018539E+03  0.33720324990E+03 -0.61823374294E+03  0.14556613749E+04  0.10174863827E+04 0.  0.
         23    2    4    4    0    0 -0.11070576563E+03 -0.32729745186E+03 -0.51987381577E+02  0.35981245076E+03  0.85923939278E+02 0.  0.
         23    2    4    4    0    0 -0.65594441976E+03  0.66450070176E+03 -0.56624636137E+03  0.10958489241E+04  0.91791384764E+02 0.  0.
          3    1    3    3  502    0  0.10293725964E+03 -0.71480233848E+02  0.11626172751E+01  0.12532699204E+03  0.00000000000E+00 0. -1.
         -4    1    3    3    0  502  0.66371292575E+03 -0.26572301605E+03  0.11214029793E+03  0.72367051583E+03  0.00000000000E+00 0.  1.
         11    1    5    5    0    0 -0.10781498663E+02 -0.12033218267E+03  0.11553932762E+02  0.12136543273E+03  0.00000000000E+00 0.  1.
        -11    1    5    5    0    0 -0.99924266968E+02 -0.20696526920E+03 -0.63541314338E+02  0.23844701804E+03  0.00000000000E+00 0. -1.
          2    1    6    6  503    0 -0.30206135893E+03  0.33295283529E+03 -0.22369951852E+03  0.50213556902E+03  0.00000000000E+00 0. -1.
         -2    1    6    6    0  503 -0.35388306083E+03  0.33154786647E+03 -0.34254684284E+03  0.59371335512E+03  0.00000000000E+00 0.  1.
<mgrwt>
<rscale>  0 0.22486657E+04</rscale>
<asrwt>0</asrwt>
<pdfrwt beam="1">  1        1 0.21612229E+00 0.22486657E+04</pdfrwt>
<pdfrwt beam="2">  1       -2 0.13844062E+00 0.22486657E+04</pdfrwt>
<totfact> 0.22464510E+00</totfact>
</mgrwt>
</event>
<event>
12    4  0.4424320E-008  0.2450496E+04  0.7818608E-02  0.8420837E-01
         -4   -1    0    0    0  501 -0.00000000000E+00  0.00000000000E+00  0.20281113238E+04  0.20281113238E+04  0.00000000000E+00 0.  1.
          3   -1    0    0  501    0  0.00000000000E+00 -0.00000000000E+00 -0.74021195872E+03  0.74021195872E+03  0.00000000000E+00 0. -1.
        -24    2    1    2    0    0 -0.10076457894E+04  0.53529165048E+02  0.42188548933E+03  0.10966442025E+04  0.80160666865E+02 0.  0.
        254    2    1    2    0    0  0.10076457894E+04 -0.53529165048E+02  0.86601387573E+03  0.16716790800E+04  0.10130723099E+04 0.  0.
         23    2    4    4    0    0  0.87755802801E+03  0.19967652824E+03  0.17892090393E+03  0.92229547749E+03  0.92937879737E+02 0.  0.
         23    2    4    4    0    0  0.13008776135E+03 -0.25320569329E+03  0.68709297179E+03  0.74938360247E+03  0.91886250318E+02 0.  0.
          1    1    3    3  502    0 -0.97250157160E+03  0.41073850255E+02  0.39401264307E+03  0.10500915821E+04  0.00000000000E+00 0. -1.
         -2    1    3    3    0  502 -0.35144217755E+02  0.12455314793E+02  0.27872846256E+02  0.46552620406E+02  0.00000000000E+00 0.  1.
         11    1    5    5    0    0  0.20596794278E+03  0.97647931783E+01  0.55541130858E+02  0.21354850001E+03  0.00000000000E+00 0. -1.
        -11    1    5    5    0    0  0.67159008523E+03  0.18991173506E+03  0.12337977307E+03  0.70874697748E+03  0.00000000000E+00 0.  1.
          3    1    6    6  503    0  0.26114302303E+01 -0.31357002312E+02  0.27091923557E+02  0.41521723036E+02  0.00000000000E+00 0. -1.
         -3    1    6    6    0  503  0.12747633112E+03 -0.22184869097E+03  0.66000104824E+03  0.70786187944E+03  0.00000000000E+00 0.  1.
<mgrwt>
<rscale>  0 0.24504957E+04</rscale>
<asrwt>0</asrwt>
<pdfrwt beam="1">  1        3 0.11387876E+00 0.24504957E+04</pdfrwt>
<pdfrwt beam="2">  1       -4 0.31201712E+00 0.24504957E+04</pdfrwt>
<totfact> 0.34030533E-02</totfact>
</mgrwt>
</event>
<event>
12    4  0.4424320E-008  0.1353970E+04  0.7818608E-02  0.8987829E-01
         -2   -1    0    0    0  501 -0.00000000000E+00  0.00000000000E+00  0.65431253149E+03  0.65431253149E+03  0.00000000000E+00 0.  1.
          1   -1    0    0  501    0  0.00000000000E+00 -0.00000000000E+00 -0.70044261915E+03  0.70044261915E+03  0.00000000000E+00 0. -1.
        -24    2    1    2    0    0  0.20145469456E+03  0.27783466290E+03  0.12524864254E+03  0.37411994335E+03  0.80637557517E+02 0.  0.
        254    2    1    2    0    0 -0.20145469456E+03 -0.27783466290E+03 -0.17137873020E+03  0.98063520729E+03  0.90249578766E+03 0.  0.
         23    2    4    4    0    0 -0.90134665145E+02  0.32118661031E+03 -0.29141072333E+02  0.34760395370E+03  0.93242747847E+02 0.  0.
         23    2    4    4    0    0 -0.11132002941E+03 -0.59902127321E+03 -0.14223765787E+03  0.63303125360E+03  0.96324358298E+02 0.  0.
          1    1    3    3  502    0  0.12440895813E+03  0.18784248421E+03  0.41642191771E+02  0.22912105943E+03  0.00000000000E+00 0. -1.
         -4    1    3    3    0  502  0.77045736423E+02  0.89992178689E+02  0.83606450773E+02  0.14499888392E+03  0.00000000000E+00 0.  1.
         11    1    5    5    0    0 -0.38900744548E+02  0.27379096726E+03 -0.21014447537E+02  0.27733800441E+03  0.00000000000E+00 0. -1.
        -11    1    5    5    0    0 -0.51233920597E+02  0.47395643046E+02 -0.81266247961E+01  0.70265949293E+02  0.00000000000E+00 0.  1.
          2    1    6    6  503    0 -0.61886205936E+02 -0.40619376254E+03 -0.13960628581E+03  0.43395067721E+03  0.00000000000E+00 0. -1.
         -2    1    6    6    0  503 -0.49433823474E+02 -0.19282751067E+03 -0.26313720600E+01  0.19908057638E+03  0.00000000000E+00 0.  1.
<mgrwt>
<rscale>  0 0.13539695E+04</rscale>
<asrwt>0</asrwt>
<pdfrwt beam="1">  1        1 0.10776040E+00 0.13539695E+04</pdfrwt>
<pdfrwt beam="2">  1       -2 0.10066347E+00 0.13539695E+04</pdfrwt>
<totfact> 0.18964121E+01</totfact>
</mgrwt>
</event>
<event>
12    4  0.4424320E-008  0.2439821E+04  0.7818608E-02  0.8424744E-01
         -2   -1    0    0    0  501 -0.00000000000E+00  0.00000000000E+00  0.16121541231E+04  0.16121541231E+04  0.00000000000E+00 0.  1.
          1   -1    0    0  501    0  0.00000000000E+00 -0.00000000000E+00 -0.92310113064E+03  0.92310113064E+03  0.00000000000E+00 0. -1.
        -24    2    1    2    0    0  0.70028408818E+03 -0.40658795936E+03 -0.39341480521E+03  0.90397493946E+03  0.81755179412E+02 0.  0.
        254    2    1    2    0    0 -0.70028408818E+03  0.40658795936E+03  0.10824677977E+04  0.16312803143E+04  0.91303195887E+03 0.  0.
         23    2    4    4    0    0 -0.83351327214E+03  0.49507532599E+03  0.10701751433E+04  0.14468619594E+04  0.91053495587E+02 0.  0.
         23    2    4    4    0    0  0.13322918396E+03 -0.88487366639E+02  0.12292654360E+02  0.18441835485E+03  0.90988959443E+02 0.  0.
          3    1    3    3  502    0  0.56669407991E+03 -0.36398424973E+03 -0.31925422286E+03  0.74535224765E+03  0.00000000000E+00 0. -1.
         -2    1    3    3    0  502  0.13359000827E+03 -0.42603709623E+02 -0.74160582344E+02  0.15862269181E+03  0.00000000000E+00 0.  1.
         11    1    5    5    0    0 -0.82117685226E+03  0.48430787274E+03  0.10656815079E+04  0.14298820282E+04  0.00000000000E+00 0. -1.
        -11    1    5    5    0    0 -0.12336419880E+02  0.10767453249E+02  0.44936353736E+01  0.16979931207E+02  0.00000000000E+00 0.  1.
          2    1    6    6  503    0  0.14165761812E+03 -0.79362883948E+02 -0.57935226272E+01  0.16247742312E+03  0.00000000000E+00 0. -1.
         -2    1    6    6    0  503 -0.84284341646E+01 -0.91244826908E+01  0.18086176988E+02  0.21940931723E+02  0.00000000000E+00 0.  1.
<mgrwt>
<rscale>  0 0.24398207E+04</rscale>
<asrwt>0</asrwt>
<pdfrwt beam="1">  1        1 0.14201556E+00 0.24398207E+04</pdfrwt>
<pdfrwt beam="2">  1       -2 0.24802371E+00 0.24398207E+04</pdfrwt>
<totfact> 0.90162027E-01</totfact>
</mgrwt>
</event>
<event>
12    4  0.4424320E-008  0.2851384E+04  0.7818608E-02  0.8287491E-01
         -2   -1    0    0    0  501 -0.00000000000E+00  0.00000000000E+00  0.10545928202E+04  0.10545928202E+04  0.00000000000E+00 0.  1.
          1   -1    0    0  501    0  0.00000000000E+00 -0.00000000000E+00 -0.19273774214E+04  0.19273774214E+04  0.00000000000E+00 0. -1.
        -24    2    1    2    0    0 -0.14253228614E+03  0.44510304903E+03 -0.16494185982E+04  0.17163233759E+04  0.82170809503E+02 0.  0.
        254    2    1    2    0    0  0.14253228614E+03 -0.44510304903E+03  0.77663399699E+03  0.12656468657E+04  0.88332861750E+03 0.  0.
         23    2    4    4    0    0 -0.26674074090E+03 -0.11530075513E+03 -0.22583256809E+02  0.30544222656E+03  0.91323946964E+02 0.  0.
         23    2    4    4    0    0  0.40927302704E+03 -0.32980229391E+03  0.79921725380E+03  0.96020463913E+03  0.83491116268E+02 0.  0.
          3    1    3    3  502    0 -0.12711336343E+03  0.28617298018E+03 -0.11596292625E+04  0.12011631064E+04  0.00000000000E+00 0. -1.
         -4    1    3    3    0  502 -0.15418922717E+02  0.15893006885E+03 -0.48978933570E+03  0.51516026956E+03  0.00000000000E+00 0.  1.
         11    1    5    5    0    0 -0.12190446105E+03 -0.13898567595E+02  0.18086509806E+02  0.12402011789E+03  0.00000000000E+00 0. -1.
        -11    1    5    5    0    0 -0.14483627985E+03 -0.10140218753E+03 -0.40669766615E+02  0.18142210867E+03  0.00000000000E+00 0.  1.
          1    1    6    6  503    0  0.12554562137E+03 -0.14570097196E+03  0.25401362090E+03  0.31861166940E+03  0.00000000000E+00 0. -1.
         -1    1    6    6    0  503  0.28372740567E+03 -0.18410132194E+03  0.54520363290E+03  0.64159296973E+03  0.00000000000E+00 0.  1.
<mgrwt>
<rscale>  0 0.28513845E+04</rscale>
<asrwt>0</asrwt>
<pdfrwt beam="1">  1        1 0.29651960E+00 0.28513845E+04</pdfrwt>
<pdfrwt beam="2">  1       -2 0.16224505E+00 0.28513845E+04</pdfrwt>
<totfact> 0.61324588E-01</totfact>
</mgrwt>
</event>
<event>
12    4  0.4424320E-008  0.2243097E+04  0.7818608E-02  0.8500701E-01
          1   -1    0    0  501    0  0.00000000000E+00  0.00000000000E+00  0.14534232401E+04  0.14534232401E+04  0.00000000000E+00 0. -1.
         -2   -1    0    0    0  501 -0.00000000000E+00 -0.00000000000E+00 -0.86545437215E+03  0.86545437215E+03  0.00000000000E+00 0.  1.
        -24    2    1    2    0    0 -0.91601640312E+02 -0.18335535875E+03 -0.69797194131E+03  0.73110872121E+03  0.73110076442E+02 0.  0.
        254    2    1    2    0    0  0.91601640312E+02  0.18335535875E+03  0.12859408092E+04  0.15877688910E+04  0.90849118779E+03 0.  0.
         23    2    4    4    0    0 -0.10411747448E+02  0.49406620796E+03  0.41285360736E+03  0.65071535559E+03  0.93661894924E+02 0.  0.
         23    2    4    4    0    0  0.10201338776E+03 -0.31071084921E+03  0.87308720185E+03  0.93705353540E+03  0.94021822263E+02 0.  0.
          3    1    3    3  502    0 -0.43108953461E+02 -0.20687885154E+02 -0.14671817974E+03  0.15431330055E+03  0.00000000000E+00 0. -1.
         -4    1    3    3    0  502 -0.48492686852E+02 -0.16266747359E+03 -0.55125376157E+03  0.57679542065E+03  0.00000000000E+00 0.  1.
         11    1    5    5    0    0  0.28058933606E+02  0.22503029185E+03  0.23102612149E+03  0.32372674406E+03  0.00000000000E+00 0. -1.
        -11    1    5    5    0    0 -0.38470681054E+02  0.26903591611E+03  0.18182748587E+03  0.32698861154E+03  0.00000000000E+00 0.  1.
          4    1    6    6  503    0  0.93968538967E+02 -0.14753261505E+03  0.40078343457E+03  0.43729088745E+03  0.00000000000E+00 0.  1.
         -4    1    6    6    0  503  0.80448487929E+01 -0.16317823416E+03  0.47230376728E+03  0.49976264795E+03  0.00000000000E+00 0. -1.
<mgrwt>
<rscale>  0 0.22430974E+04</rscale>
<asrwt>0</asrwt>
<pdfrwt beam="1">  1        1 0.22360357E+00 0.22430974E+04</pdfrwt>
<pdfrwt beam="2">  1       -2 0.13314683E+00 0.22430974E+04</pdfrwt>
<totfact> 0.22970148E+00</totfact>
</mgrwt>
</event>
<event>
12    4  0.4424320E-008  0.1060903E+04  0.7818608E-02  0.9244159E-01
          1   -1    0    0  501    0  0.00000000000E+00  0.00000000000E+00  0.61456065081E+03  0.61456065081E+03  0.00000000000E+00 0. -1.
         -2   -1    0    0    0  501 -0.00000000000E+00 -0.00000000000E+00 -0.45785366413E+03  0.45785366413E+03  0.00000000000E+00 0.  1.
        -24    2    1    2    0    0  0.58461950558E+02 -0.11675250401E+03 -0.72389075160E+01  0.15291785527E+03  0.79262360708E+02 0.  0.
        254    2    1    2    0    0 -0.58461950558E+02  0.11675250401E+03  0.16394589419E+03  0.91949645967E+03  0.89529131363E+03 0.  0.
         23    2    4    4    0    0  0.34235652315E+02  0.16638196795E+02 -0.35833081400E+03  0.37161427032E+03  0.90814559209E+02 0.  0.
         23    2    4    4    0    0 -0.92697602873E+02  0.10011430721E+03  0.52227670819E+03  0.54788218935E+03  0.93734803556E+02 0.  0.
          1    1    3    3  502    0 -0.47617286487E+01 -0.49405742401E+02 -0.29714775077E+02  0.57849540187E+02  0.00000000000E+00 0. -1.
         -2    1    3    3    0  502  0.63223679206E+02 -0.67346761604E+02  0.22475867561E+02  0.95068315087E+02  0.00000000000E+00 0.  1.
         11    1    5    5    0    0  0.50726459408E+02 -0.14912073435E+02 -0.28770889407E+03  0.29252683868E+03  0.00000000000E+00 0.  1.
        -11    1    5    5    0    0 -0.16490807093E+02  0.31550270230E+02 -0.70621919927E+02  0.79087431646E+02  0.00000000000E+00 0. -1.
          3    1    6    6  503    0 -0.21207111993E+01 -0.14998513913E+02  0.22819153867E+02  0.27389169736E+02  0.00000000000E+00 0. -1.
         -3    1    6    6    0  503 -0.90576891674E+02  0.11511282112E+03  0.49945755432E+03  0.52049301961E+03  0.00000000000E+00 0.  1.
<mgrwt>
<rscale>  0 0.10609031E+04</rscale>
<asrwt>0</asrwt>
<pdfrwt beam="1">  1        1 0.94547793E-01 0.10609031E+04</pdfrwt>
<pdfrwt beam="2">  1       -2 0.70439025E-01 0.10609031E+04</pdfrwt>
<totfact> 0.53059808E+01</totfact>
</mgrwt>
</event>
<event>
12    4  0.4424320E-008  0.2234296E+04  0.7818608E-02  0.8504287E-01
         -2   -1    0    0    0  501 -0.00000000000E+00  0.00000000000E+00  0.17254079490E+04  0.17254079490E+04  0.00000000000E+00 0.  1.
          1   -1    0    0  501    0  0.00000000000E+00 -0.00000000000E+00 -0.72331870927E+03  0.72331870927E+03  0.00000000000E+00 0. -1.
        -24    2    1    2    0    0  0.17008814616E+03 -0.35133339156E+03  0.13503846651E+04  0.14095747199E+04  0.10486666630E+03 0.  0.
        254    2    1    2    0    0 -0.17008814616E+03  0.35133339156E+03 -0.34829542534E+03  0.10391519384E+04  0.89786520053E+03 0.  0.
         23    2    4    4    0    0 -0.80506347424E+02  0.60445943291E+03 -0.42096091078E+03  0.74714571281E+03  0.95740011247E+02 0.  0.
         23    2    4    4    0    0 -0.89581798740E+02 -0.25312604135E+03  0.72665485446E+02  0.29200622561E+03  0.88823823048E+02 0.  0.
          3    1    3    3  502    0  0.29891796265E+02 -0.17144296798E+03  0.65618939566E+03  0.67887460825E+03  0.00000000000E+00 0. -1.
         -4    1    3    3    0  502  0.14019634990E+03 -0.17989042357E+03  0.69419526944E+03  0.73070011162E+03  0.00000000000E+00 0.  1.
         11    1    5    5    0    0 -0.78422292278E+01  0.16860263508E+02 -0.37170862338E+02  0.41562507766E+02  0.00000000000E+00 0. -1.
        -11    1    5    5    0    0 -0.72664118196E+02  0.58759916940E+03 -0.38379004844E+03  0.70558320504E+03  0.00000000000E+00 0.  1.
          4    1    6    6  503    0 -0.75110625127E+02 -0.95485881329E+02  0.52787443251E+02  0.13246008344E+03  0.00000000000E+00 0. -1.
         -4    1    6    6    0  503 -0.14471173613E+02 -0.15764016003E+03  0.19878042195E+02  0.15954614217E+03  0.00000000000E+00 0.  1.
<mgrwt>
<rscale>  0 0.22342962E+04</rscale>
<asrwt>0</asrwt>
<pdfrwt beam="1">  1        1 0.11127980E+00 0.22342962E+04</pdfrwt>
<pdfrwt beam="2">  1       -2 0.26544738E+00 0.22342962E+04</pdfrwt>
<totfact> 0.10664779E+00</totfact>
</mgrwt>
</event>
<event>
12    4  0.4424320E-008  0.1420853E+04  0.7818608E-02  0.8938861E-01
          1   -1    0    0  501    0  0.00000000000E+00  0.00000000000E+00  0.24905401646E+04  0.24905401646E+04  0.00000000000E+00 0. -1.
         -2   -1    0    0    0  501 -0.00000000000E+00 -0.00000000000E+00 -0.20264920784E+03  0.20264920784E+03  0.00000000000E+00 0.  1.
        -24    2    1    2    0    0 -0.39447574753E+02  0.30333724502E+03  0.16352225361E+03  0.35608219827E+03  0.80532037884E+02 0.  0.
        254    2    1    2    0    0  0.39447574753E+02 -0.30333724502E+03  0.21243687031E+04  0.23371071742E+04  0.92496376211E+03 0.  0.
         23    2    4    4    0    0  0.28938139762E+03  0.22839462435E+03  0.85554527542E+03  0.93605792839E+03  0.91329235683E+02 0.  0.
         23    2    4    4    0    0 -0.24993382287E+03 -0.53173186937E+03  0.12688234277E+04  0.14010492458E+04  0.88433034520E+02 0.  0.
          1    1    3    3  502    0  0.54540202769E+01  0.19635282082E+02  0.36951275274E+02  0.42198191715E+02  0.00000000000E+00 0. -1.
         -2    1    3    3    0  502 -0.44901595030E+02  0.28370196294E+03  0.12657097833E+03  0.31388400655E+03  0.00000000000E+00 0.  1.
         11    1    5    5    0    0  0.31705369819E+02  0.35481293347E+02  0.52247272484E+02  0.70667744657E+02  0.00000000000E+00 0.  1.
        -11    1    5    5    0    0  0.25767602780E+03  0.19291333100E+03  0.80329800294E+03  0.86539018374E+03  0.00000000000E+00 0. -1.
          3    1    6    6  503    0 -0.18855801388E+03 -0.47259281392E+03  0.10772422350E+04  0.11913643126E+04  0.00000000000E+00 0. -1.
         -3    1    6    6    0  503 -0.61375808983E+02 -0.59139055453E+02  0.19158119269E+03  0.20968493318E+03  0.00000000000E+00 0.  1.
<mgrwt>
<rscale>  0 0.14208533E+04</rscale>
<asrwt>0</asrwt>
<pdfrwt beam="1">  1        1 0.38316000E+00 0.14208533E+04</pdfrwt>
<pdfrwt beam="2">  1       -2 0.31176803E-01 0.14208533E+04</pdfrwt>
<totfact> 0.11253093E+01</totfact>
</mgrwt>
</event>
<event>
12    4  0.4424320E-008  0.1649726E+04  0.7818608E-02  0.8790569E-01
         -2   -1    0    0    0  501 -0.00000000000E+00  0.00000000000E+00  0.60894425355E+03  0.60894425355E+03  0.00000000000E+00 0.  1.
          1   -1    0    0  501    0  0.00000000000E+00 -0.00000000000E+00 -0.11173417868E+04  0.11173417868E+04  0.00000000000E+00 0. -1.
        -24    2    1    2    0    0 -0.12250698309E+03 -0.39596588525E+03 -0.58342276518E+03  0.71997776328E+03  0.78669647880E+02 0.  0.
        254    2    1    2    0    0  0.12250698309E+03  0.39596588525E+03  0.75025231963E+02  0.10063082770E+04  0.91390952497E+03 0.  0.
         23    2    4    4    0    0 -0.17880779292E+03  0.20081308330E+03 -0.34474738235E+03  0.44652775367E+03  0.90764287745E+02 0.  0.
         23    2    4    4    0    0  0.30131477601E+03  0.19515280195E+03  0.41977261431E+03  0.55978052337E+03  0.90939409904E+02 0.  0.
          3    1    3    3  502    0 -0.12588126934E+03 -0.37539274211E+03 -0.57347426248E+03  0.69687770414E+03  0.00000000000E+00 0. -1.
         -4    1    3    3    0  502  0.33742862540E+01 -0.20573143135E+02 -0.99485027042E+01  0.23100059139E+02  0.00000000000E+00 0.  1.
         11    1    5    5    0    0 -0.10065096679E+03  0.17425994121E+03 -0.24316695007E+03  0.31563794105E+03  0.00000000000E+00 0.  1.
        -11    1    5    5    0    0 -0.78156826127E+02  0.26553142090E+02 -0.10158043228E+03  0.13088981262E+03  0.00000000000E+00 0. -1.
          1    1    6    6  503    0  0.34725752263E+02  0.13728764368E+02  0.10605718581E+02  0.38818012673E+02  0.00000000000E+00 0. -1.
         -1    1    6    6    0  503  0.26658902375E+03  0.18142403758E+03  0.40916689573E+03  0.52096251070E+03  0.00000000000E+00 0.  1.
<mgrwt>
<rscale>  0 0.16497259E+04</rscale>
<asrwt>0</asrwt>
<pdfrwt beam="1">  1        1 0.17189874E+00 0.16497259E+04</pdfrwt>
<pdfrwt beam="2">  1       -2 0.93683731E-01 0.16497259E+04</pdfrwt>
<totfact> 0.99278786E+00</totfact>
</mgrwt>
</event>
<event>
12    4  0.4424320E-008  0.1964049E+04  0.7818608E-02  0.8623616E-01
         -2   -1    0    0    0  501 -0.00000000000E+00  0.00000000000E+00  0.93531336113E+03  0.93531336113E+03  0.00000000000E+00 0.  1.
          1   -1    0    0  501    0  0.00000000000E+00 -0.00000000000E+00 -0.10310683136E+04  0.10310683136E+04  0.00000000000E+00 0. -1.
        -24    2    1    2    0    0 -0.33707200307E+03 -0.55881430152E+03  0.37101377449E+03  0.75506451302E+03  0.81118673071E+02 0.  0.
        254    2    1    2    0    0  0.33707200307E+03  0.55881430152E+03 -0.46676872692E+03  0.12113171617E+04  0.90748292704E+03 0.  0.
         23    2    4    4    0    0 -0.25126247889E+02  0.70557244465E+03 -0.35154606868E+03  0.79377546826E+03  0.89616140401E+02 0.  0.
         23    2    4    4    0    0  0.36219825096E+03 -0.14675814313E+03 -0.11522265824E+03  0.41754169340E+03  0.91319653884E+02 0.  0.
          1    1    3    3  502    0 -0.59265065892E+02 -0.82543554833E+02  0.26877176549E+02  0.10511027114E+03  0.00000000000E+00 0. -1.
         -2    1    3    3    0  502 -0.27780693718E+03 -0.47627074669E+03  0.34413659795E+03  0.64995424188E+03  0.00000000000E+00 0.  1.
         11    1    5    5    0    0 -0.45209953804E+01  0.66705981009E+03 -0.31974893142E+03  0.73974901742E+03  0.00000000000E+00 0. -1.
        -11    1    5    5    0    0 -0.20605252508E+02  0.38512634562E+02 -0.31797137259E+02  0.54026450834E+02  0.00000000000E+00 0.  1.
          3    1    6    6  503    0  0.35873803858E+03 -0.12615872973E+03 -0.11185182870E+03  0.39638344693E+03  0.00000000000E+00 0. -1.
         -3    1    6    6    0  503  0.34602123750E+01 -0.20599413402E+02 -0.33708295378E+01  0.21158246476E+02  0.00000000000E+00 0.  1.
<mgrwt>
<rscale>  0 0.19640488E+04</rscale>
<asrwt>0</asrwt>
<pdfrwt beam="1">  1        1 0.15862589E+00 0.19640488E+04</pdfrwt>
<pdfrwt beam="2">  1       -2 0.14389436E+00 0.19640488E+04</pdfrwt>
<totfact> 0.39032894E+00</totfact>
</mgrwt>
</event>
<event>
12    4  0.4424320E-008  0.1686362E+04  0.7818608E-02  0.8769181E-01
          1   -1    0    0  501    0  0.00000000000E+00  0.00000000000E+00  0.12669072878E+04  0.12669072878E+04  0.00000000000E+00 0. -1.
         -2   -1    0    0    0  501 -0.00000000000E+00 -0.00000000000E+00 -0.56117280981E+03  0.56117280981E+03  0.00000000000E+00 0.  1.
        -24    2    1    2    0    0 -0.32399767576E+03 -0.32120746441E+03  0.68118076253E+03  0.82371003363E+03  0.79638302232E+02 0.  0.
        254    2    1    2    0    0  0.32399767576E+03  0.32120746441E+03  0.24553715411E+02  0.10043700639E+04  0.89443144583E+03 0.  0.
         23    2    4    4    0    0  0.60058291658E+03  0.22218099861E+03  0.16323745248E+03  0.66729442048E+03  0.92580461652E+02 0.  0.
         23    2    4    4    0    0 -0.27658524082E+03  0.99026465801E+02 -0.13868373707E+03  0.33707564345E+03  0.89895350917E+02 0.  0.
          1    1    3    3  502    0 -0.18632681192E+03 -0.20997494968E+03  0.35478947120E+03  0.45241875427E+03  0.00000000000E+00 0. -1.
         -2    1    3    3    0  502 -0.13767086384E+03 -0.11123251473E+03  0.32639129133E+03  0.37129127937E+03  0.00000000000E+00 0.  1.
         11    1    5    5    0    0  0.25413726912E+02  0.10918677080E+01  0.25237401833E+02  0.35832612826E+02  0.00000000000E+00 0.  1.
        -11    1    5    5    0    0  0.57516918967E+03  0.22108913090E+03  0.13800005064E+03  0.63146180765E+03  0.00000000000E+00 0. -1.
          1    1    6    6  503    0 -0.21543360525E+03  0.35380809051E+02 -0.10850210563E+03  0.24379529702E+03  0.00000000000E+00 0. -1.
         -1    1    6    6    0  503 -0.61151635565E+02  0.63645656751E+02 -0.30181631438E+02  0.93280346439E+02  0.00000000000E+00 0.  1.
<mgrwt>
<rscale>  0 0.16863617E+04</rscale>
<asrwt>0</asrwt>
<pdfrwt beam="1">  1        1 0.19490881E+00 0.16863617E+04</pdfrwt>
<pdfrwt beam="2">  1       -2 0.86334279E-01 0.16863617E+04</pdfrwt>
<totfact> 0.92848340E+00</totfact>
</mgrwt>
</event>
<event>
12    4  0.4424320E-008  0.2084604E+04  0.7818608E-02  0.8568056E-01
         -2   -1    0    0    0  501 -0.00000000000E+00  0.00000000000E+00  0.10810346547E+04  0.10810346547E+04  0.00000000000E+00 0.  1.
          1   -1    0    0  501    0  0.00000000000E+00 -0.00000000000E+00 -0.10049574720E+04  0.10049574720E+04  0.00000000000E+00 0. -1.
        -24    2    1    2    0    0  0.27816342811E+03 -0.79603883006E+03 -0.51471077942E+02  0.84854799777E+03  0.79572111589E+02 0.  0.
        254    2    1    2    0    0 -0.27816342811E+03  0.79603883006E+03  0.12754826056E+03  0.12374441289E+04  0.89663074996E+03 0.  0.
         23    2    4    4    0    0 -0.59464165133E+01  0.56415160250E+03  0.46573495692E+03  0.73684678011E+03  0.87930295090E+02 0.  0.
         23    2    4    4    0    0 -0.27221701160E+03  0.23188722757E+03 -0.33818669636E+03  0.50059734883E+03  0.91398448277E+02 0.  0.
          3    1    3    3  502    0  0.12269109122E+03 -0.39989320456E+03  0.10936906762E+02  0.41843433756E+03  0.00000000000E+00 0. -1.
         -4    1    3    3    0  502  0.15547233688E+03 -0.39614562550E+03 -0.62407984704E+02  0.43011366020E+03  0.00000000000E+00 0.  1.
         11    1    5    5    0    0 -0.80807544813E+01  0.25141150594E+03  0.26417045288E+03  0.36477263067E+03  0.00000000000E+00 0.  1.
        -11    1    5    5    0    0  0.21343379680E+01  0.31274009656E+03  0.20156450405E+03  0.37207414945E+03  0.00000000000E+00 0. -1.
          3    1    6    6  503    0 -0.99257585574E+02  0.57526132865E+02 -0.16128345995E+03  0.19792341627E+03  0.00000000000E+00 0. -1.
         -3    1    6    6    0  503 -0.17295942602E+03  0.17436109470E+03 -0.17690323641E+03  0.30267393256E+03  0.00000000000E+00 0.  1.
<mgrwt>
<rscale>  0 0.20846044E+04</rscale>
<asrwt>0</asrwt>
<pdfrwt beam="1">  1        1 0.15460884E+00 0.20846044E+04</pdfrwt>
<pdfrwt beam="2">  1       -2 0.16631302E+00 0.20846044E+04</pdfrwt>
<totfact> 0.27421610E+00</totfact>
</mgrwt>
</event>
<event>
12    4  0.4424320E-008  0.1882374E+04  0.7818608E-02  0.8663680E-01
          1   -1    0    0  501    0  0.00000000000E+00  0.00000000000E+00  0.19363430628E+04  0.19363430628E+04  0.00000000000E+00 0. -1.
         -2   -1    0    0    0  501 -0.00000000000E+00 -0.00000000000E+00 -0.45747741846E+03  0.45747741846E+03  0.00000000000E+00 0.  1.
        -24    2    1    2    0    0 -0.13248105953E+03 -0.49113953812E+03  0.12302090195E+04  0.13336076036E+04  0.79534468298E+02 0.  0.
        254    2    1    2    0    0  0.13248105953E+03  0.49113953812E+03  0.24865662483E+03  0.10602128777E+04  0.89635481359E+03 0.  0.
         23    2    4    4    0    0  0.74160010884E+02 -0.15531566793E+03  0.34700741782E+03  0.39755493323E+03  0.89515992943E+02 0.  0.
         23    2    4    4    0    0  0.58321048648E+02  0.64645520605E+03 -0.98350792985E+02  0.66265794444E+03  0.90205291973E+02 0.  0.
          3    1    3    3  502    0 -0.91080498967E+02 -0.39424230308E+03  0.10437302010E+04  0.11194174304E+04  0.00000000000E+00 0. -1.
         -4    1    3    3    0  502 -0.41400560566E+02 -0.96897235040E+02  0.18647881848E+03  0.21419017325E+03  0.00000000000E+00 0.  1.
         11    1    5    5    0    0  0.32674610884E+02 -0.14488203117E+03  0.23904493804E+03  0.28142657222E+03  0.00000000000E+00 0. -1.
        -11    1    5    5    0    0  0.41485400000E+02 -0.10433636766E+02  0.10796247978E+03  0.11612836100E+03  0.00000000000E+00 0.  1.
          3    1    6    6  503    0  0.20900326965E+02  0.55108311935E+03 -0.67096759502E+02  0.55554604061E+03  0.00000000000E+00 0. -1.
         -3    1    6    6    0  503  0.37420721683E+02  0.95372086696E+02 -0.31254033483E+02  0.10711190382E+03  0.00000000000E+00 0.  1.
<mgrwt>
<rscale>  0 0.18823743E+04</rscale>
<asrwt>0</asrwt>
<pdfrwt beam="1">  1        1 0.29789893E+00 0.18823743E+04</pdfrwt>
<pdfrwt beam="2">  1       -2 0.70381142E-01 0.18823743E+04</pdfrwt>
<totfact> 0.49751893E+00</totfact>
</mgrwt>
</event>
<event>
12    4  0.4424320E-008  0.1078741E+04  0.7818608E-02  0.9226163E-01
         -2   -1    0    0    0  501 -0.00000000000E+00  0.00000000000E+00  0.42752609984E+03  0.42752609984E+03  0.00000000000E+00 0.  1.
          1   -1    0    0  501    0  0.00000000000E+00 -0.00000000000E+00 -0.68047469861E+03  0.68047469861E+03  0.00000000000E+00 0. -1.
        -24    2    1    2    0    0 -0.77880365019E+02 -0.77019404922E+02  0.55407117760E+02  0.14636736274E+03  0.79725254385E+02 0.  0.
        254    2    1    2    0    0  0.77880365019E+02  0.77019404922E+02 -0.30835571654E+03  0.96163343571E+03  0.90424458902E+03 0.  0.
         23    2    4    4    0    0  0.33419380626E+03 -0.60702629901E+02  0.17281068760E+03  0.39199962925E+03  0.91814302596E+02 0.  0.
         23    2    4    4    0    0 -0.25631344124E+03  0.13772203482E+03 -0.48116640414E+03  0.56963380647E+03  0.91091305643E+02 0.  0.
          3    1    3    3  502    0 -0.50436478470E+02  0.33247353790E+01  0.19266219238E+02  0.54093247541E+02  0.00000000000E+00 0. -1.
         -4    1    3    3    0  502 -0.27443886549E+02 -0.80344140301E+02  0.36140898522E+02  0.92274115198E+02  0.00000000000E+00 0.  1.
         11    1    5    5    0    0  0.15676804176E+03 -0.73586661664E+02  0.72209524838E+02  0.18763110395E+03  0.00000000000E+00 0.  1.
        -11    1    5    5    0    0  0.17742576450E+03  0.12884031763E+02  0.10060116276E+03  0.20436852530E+03  0.00000000000E+00 0. -1.
          4    1    6    6  503    0 -0.50336486624E+02 -0.76614949339E+01 -0.10641320869E+03  0.11796707750E+03  0.00000000000E+00 0. -1.
         -4    1    6    6    0  503 -0.20597695462E+03  0.14538352976E+03 -0.37475319544E+03  0.45166672896E+03  0.00000000000E+00 0.  1.
<mgrwt>
<rscale>  0 0.10787413E+04</rscale>
<asrwt>0</asrwt>
<pdfrwt beam="1">  1        1 0.10468841E+00 0.10787413E+04</pdfrwt>
<pdfrwt beam="2">  1       -2 0.65773247E-01 0.10787413E+04</pdfrwt>
<totfact> 0.52904287E+01</totfact>
</mgrwt>
</event>
<event>
12    4  0.4424320E-008  0.1492664E+04  0.7818608E-02  0.8889346E-01
          1   -1    0    0  501    0  0.00000000000E+00  0.00000000000E+00  0.13304018552E+04  0.13304018552E+04  0.00000000000E+00 0. -1.
         -2   -1    0    0    0  501 -0.00000000000E+00 -0.00000000000E+00 -0.41867913520E+03  0.41867913520E+03  0.00000000000E+00 0.  1.
        -24    2    1    2    0    0 -0.10199013338E+03 -0.15374764316E+03  0.79900963181E+03  0.82385631942E+03  0.79262338019E+02 0.  0.
        254    2    1    2    0    0  0.10199013338E+03  0.15374764316E+03  0.11271308818E+03  0.92522467098E+03  0.89960887416E+03 0.  0.
         23    2    4    4    0    0 -0.13600812774E+03 -0.31807570381E+03  0.15043083296E+03  0.38763701064E+03  0.89233695149E+02 0.  0.
         23    2    4    4    0    0  0.23799826112E+03  0.47182334697E+03 -0.37717744780E+02  0.53758766034E+03  0.91199897122E+02 0.  0.
          3    1    3    3  502    0 -0.64394087769E+02 -0.64295266976E+02  0.53278552612E+03  0.54050059827E+03  0.00000000000E+00 0. -1.
         -4    1    3    3    0  502 -0.37596045613E+02 -0.89452376181E+02  0.26622410570E+03  0.28335572114E+03  0.00000000000E+00 0.  1.
         11    1    5    5    0    0 -0.14857176330E+03 -0.28100167354E+03  0.13840545880E+03  0.34668657374E+03  0.00000000000E+00 0. -1.
        -11    1    5    5    0    0  0.12563635566E+02 -0.37074030270E+02  0.12025374158E+02  0.40950436905E+02  0.00000000000E+00 0.  1.
          1    1    6    6  503    0  0.14889842096E+03  0.37623623947E+03 -0.14654473908E+02  0.40489406177E+03  0.00000000000E+00 0. -1.
         -1    1    6    6    0  503  0.89099840159E+02  0.95587107502E+02 -0.23063270872E+02  0.13269359857E+03  0.00000000000E+00 0.  1.
<mgrwt>
<rscale>  0 0.14926641E+04</rscale>
<asrwt>0</asrwt>
<pdfrwt beam="1">  1        1 0.20467721E+00 0.14926641E+04</pdfrwt>
<pdfrwt beam="2">  1       -2 0.64412175E-01 0.14926641E+04</pdfrwt>
<totfact> 0.16265514E+01</totfact>
</mgrwt>
</event>
<event>
12    4  0.4424320E-008  0.1848979E+04  0.7818608E-02  0.8680678E-01
         -2   -1    0    0    0  501 -0.00000000000E+00  0.00000000000E+00  0.10337669498E+04  0.10337669498E+04  0.00000000000E+00 0.  1.
          1   -1    0    0  501    0  0.00000000000E+00 -0.00000000000E+00 -0.82676399831E+03  0.82676399831E+03  0.00000000000E+00 0. -1.
        -24    2    1    2    0    0  0.65428470585E+02 -0.67927859457E+03  0.25268099057E+03  0.73227503880E+03  0.81723654137E+02 0.  0.
        254    2    1    2    0    0 -0.65428470585E+02  0.67927859457E+03 -0.45678039100E+02  0.11282559093E+04  0.89731522877E+03 0.  0.
         23    2    4    4    0    0 -0.45751296444E+03  0.31291961796E+03 -0.12879849786E+03  0.57756212658E+03  0.98753010483E+02 0.  0.
         23    2    4    4    0    0  0.39208449385E+03  0.36635897662E+03  0.83120458755E+02  0.55069378271E+03  0.91681413512E+02 0.  0.
          3    1    3    3  502    0 -0.35475443626E+01 -0.32304717059E+02  0.30982561970E+02  0.44900990652E+02  0.00000000000E+00 0. -1.
         -4    1    3    3    0  502  0.68976014948E+02 -0.64697387751E+03  0.22169842860E+03  0.68737404815E+03  0.00000000000E+00 0.  1.
         11    1    5    5    0    0 -0.11540285443E+03  0.79316920557E+02  0.10717639956E+02  0.14044166228E+03  0.00000000000E+00 0. -1.
        -11    1    5    5    0    0 -0.34211011001E+03  0.23360269740E+03 -0.13951613781E+03  0.43712046430E+03  0.00000000000E+00 0.  1.
          3    1    6    6  503    0  0.19818401868E+03  0.17330091835E+03  0.86305172261E+02  0.27705359828E+03  0.00000000000E+00 0. -1.
         -3    1    6    6    0  503  0.19390047517E+03  0.19305805827E+03 -0.31847135060E+01  0.27364018443E+03  0.00000000000E+00 0.  1.
<mgrwt>
<rscale>  0 0.18489795E+04</rscale>
<asrwt>0</asrwt>
<pdfrwt beam="1">  1        1 0.12719446E+00 0.18489795E+04</pdfrwt>
<pdfrwt beam="2">  1       -2 0.15904107E+00 0.18489795E+04</pdfrwt>
<totfact> 0.44170076E+00</totfact>
</mgrwt>
</event>
<event>
12    4  0.4424320E-008  0.1212351E+04  0.7818608E-02  0.9102114E-01
         -4   -1    0    0    0  501 -0.00000000000E+00  0.00000000000E+00  0.40801883378E+03  0.40801883378E+03  0.00000000000E+00 0.  1.
          3   -1    0    0  501    0  0.00000000000E+00 -0.00000000000E+00 -0.90056769934E+03  0.90056769934E+03  0.00000000000E+00 0. -1.
        -24    2    1    2    0    0  0.86033072679E+02  0.42269424207E+02 -0.40911699937E+03  0.42755520277E+03  0.78983152833E+02 0.  0.
        254    2    1    2    0    0 -0.86033072679E+02 -0.42269424207E+02 -0.83431866193E+02  0.88103133034E+03  0.87181817768E+03 0.  0.
         23    2    4    4    0    0  0.29104088856E+03 -0.21135646119E+03 -0.22767977426E+03  0.43560039948E+03  0.92375732325E+02 0.  0.
         23    2    4    4    0    0 -0.37707396124E+03  0.16908703698E+03  0.14424790807E+03  0.44543093086E+03  0.82619954407E+02 0.  0.
          3    1    3    3  502    0  0.91913704074E+02  0.31732002585E+02 -0.40189741371E+03  0.41349314399E+03  0.00000000000E+00 0. -1.
         -4    1    3    3    0  502 -0.58806313951E+01  0.10537421622E+02 -0.72195856564E+01  0.14062058779E+02  0.00000000000E+00 0.  1.
         11    1    5    5    0    0 -0.16214692381E+01 -0.21085479935E+02 -0.21617182067E+02  0.30241183625E+02  0.00000000000E+00 0. -1.
        -11    1    5    5    0    0  0.29266235780E+03 -0.19027098125E+03 -0.20606259219E+03  0.40535921586E+03  0.00000000000E+00 0.  1.
          1    1    6    6  503    0  0.20152992651E+01  0.42963852683E+01  0.95775775806E+01  0.10688795527E+02  0.00000000000E+00 0. -1.
         -1    1    6    6    0  503 -0.37908926050E+03  0.16479065171E+03  0.13467033049E+03  0.43474213533E+03  0.00000000000E+00 0.  1.
<mgrwt>
<rscale>  0 0.12123507E+04</rscale>
<asrwt>0</asrwt>
<pdfrwt beam="1">  1        3 0.13854888E+00 0.12123507E+04</pdfrwt>
<pdfrwt beam="2">  1       -4 0.62772129E-01 0.12123507E+04</pdfrwt>
<totfact> 0.21278552E+00</totfact>
</mgrwt>
</event>
<event>
12    4  0.4424320E-008  0.1117928E+04  0.7818608E-02  0.9187892E-01
         -2   -1    0    0    0  501 -0.00000000000E+00  0.00000000000E+00  0.22291752280E+03  0.22291752280E+03  0.00000000000E+00 0.  1.
          1   -1    0    0  501    0  0.00000000000E+00 -0.00000000000E+00 -0.14015976673E+04  0.14015976673E+04  0.00000000000E+00 0. -1.
        -24    2    1    2    0    0  0.14115329455E+03  0.90139478943E+02 -0.32316314328E+03  0.37270110725E+03  0.80139378252E+02 0.  0.
        254    2    1    2    0    0 -0.14115329455E+03 -0.90139478943E+02 -0.85551700120E+03  0.12518140828E+04  0.89837619091E+03 0.  0.
         23    2    4    4    0    0  0.11052722993E+03 -0.25937223281E+03  0.43028428865E+02  0.29921193288E+03  0.90477131801E+02 0.  0.
         23    2    4    4    0    0 -0.25168052448E+03  0.16923275387E+03 -0.89854543006E+03  0.95260214995E+03  0.89911928059E+02 0.  0.
          3    1    3    3  502    0  0.13619564982E+03  0.95850411523E+02 -0.25789147000E+03  0.30699277958E+03  0.00000000000E+00 0. -1.
         -4    1    3    3    0  502  0.49576447342E+01 -0.57109325799E+01 -0.65271673281E+02  0.65708327670E+02  0.00000000000E+00 0.  1.
         11    1    5    5    0    0  0.11911702684E+03 -0.22196213928E+03  0.57161794204E+02  0.25830897792E+03  0.00000000000E+00 0. -1.
        -11    1    5    5    0    0 -0.85897969090E+01 -0.37410093533E+02 -0.14133365339E+02  0.40902954965E+02  0.00000000000E+00 0.  1.
          4    1    6    6  503    0 -0.22222905595E+03  0.10596510775E+03 -0.68103294727E+03  0.72416864930E+03  0.00000000000E+00 0. -1.
         -4    1    6    6    0  503 -0.29451468535E+02  0.63267646121E+02 -0.21751248280E+03  0.22843350065E+03  0.00000000000E+00 0.  1.
<mgrwt>
<rscale>  0 0.11179279E+04</rscale>
<asrwt>0</asrwt>
<pdfrwt beam="1">  1        1 0.21563041E+00 0.11179279E+04</pdfrwt>
<pdfrwt beam="2">  1       -2 0.34295004E-01 0.11179279E+04</pdfrwt>
<totfact> 0.53281621E+01</totfact>
</mgrwt>
</event>
<event>
12    4  0.4424320E-008  0.1137972E+04  0.7818608E-02  0.9168952E-01
          3   -1    0    0  501    0  0.00000000000E+00  0.00000000000E+00  0.30832231233E+03  0.30832231233E+03  0.00000000000E+00 0. -1.
         -4   -1    0    0    0  501 -0.00000000000E+00 -0.00000000000E+00 -0.10500213796E+04  0.10500213796E+04  0.00000000000E+00 0.  1.
        -24    2    1    2    0    0 -0.16872592641E+03 -0.62201466802E+02 -0.43828895657E+02  0.20566388925E+03  0.89661600097E+02 0.  0.
        254    2    1    2    0    0  0.16872592641E+03  0.62201466802E+02 -0.69787017161E+03  0.11526798027E+04  0.89961685753E+03 0.  0.
         23    2    4    4    0    0  0.49766027662E+03  0.19617663604E+03 -0.48526193918E+03  0.72810374268E+03  0.92221944399E+02 0.  0.
         23    2    4    4    0    0 -0.32893435022E+03 -0.13397516924E+03 -0.21260823243E+03  0.42457606000E+03  0.94421488537E+02 0.  0.
          3    1    3    3  502    0 -0.73154614598E+02 -0.12473576798E+02  0.24426954606E+02  0.78127228714E+02  0.00000000000E+00 0. -1.
         -4    1    3    3    0  502 -0.95571311808E+02 -0.49727890004E+02 -0.68255850263E+02  0.12753666053E+03  0.00000000000E+00 0.  1.
         11    1    5    5    0    0  0.49442735068E+03  0.18532125187E+03 -0.45948922645E+03  0.69995194172E+03  0.00000000000E+00 0. -1.
        -11    1    5    5    0    0  0.32329259424E+01  0.10855384173E+02 -0.25772712730E+02  0.28151800958E+02  0.00000000000E+00 0.  1.
          1    1    6    6  503    0 -0.31118883437E+03 -0.13249521351E+03 -0.17030624558E+03  0.37867887388E+03  0.00000000000E+00 0. -1.
         -1    1    6    6    0  503 -0.17745515848E+02 -0.14799557309E+01 -0.42301986853E+02  0.45897186117E+02  0.00000000000E+00 0.  1.
<mgrwt>
<rscale>  0 0.11379719E+04</rscale>
<asrwt>0</asrwt>
<pdfrwt beam="1">  1        3 0.47434202E-01 0.11379719E+04</pdfrwt>
<pdfrwt beam="2">  1       -4 0.16154175E+00 0.11379719E+04</pdfrwt>
<totfact> 0.24364746E+00</totfact>
</mgrwt>
</event>
<event>
12    4  0.4424320E-008  0.2729896E+04  0.7818608E-02  0.8325369E-01
         -2   -1    0    0    0  501 -0.00000000000E+00  0.00000000000E+00  0.11756632693E+04  0.11756632693E+04  0.00000000000E+00 0.  1.
          1   -1    0    0  501    0  0.00000000000E+00 -0.00000000000E+00 -0.15847083083E+04  0.15847083083E+04  0.00000000000E+00 0. -1.
        -24    2    1    2    0    0 -0.11249145012E+04  0.17661707850E+03 -0.61835223118E+03  0.12982379373E+04  0.80224887949E+02 0.  0.
        254    2    1    2    0    0  0.11249145012E+04 -0.17661707850E+03  0.20930719218E+03  0.14621336404E+04  0.89297203443E+03 0.  0.
         23    2    4    4    0    0  0.80568674342E+03 -0.35364814442E+03 -0.19897557494E+03  0.90683065056E+03  0.92479245224E+02 0.  0.
         23    2    4    4    0    0  0.31922775776E+03  0.17703106591E+03  0.40828276712E+03  0.55530298984E+03  0.91761827406E+02 0.  0.
          3    1    3    3  502    0 -0.44098819627E+03  0.45424653584E+02 -0.27627708504E+03  0.52236291611E+03  0.00000000000E+00 0. -1.
         -4    1    3    3    0  502 -0.68392630491E+03  0.13119242492E+03 -0.34207514614E+03  0.77587502120E+03  0.00000000000E+00 0.  1.
         11    1    5    5    0    0  0.79037339030E+02 -0.43458048643E+02  0.65964351112E+01  0.90437911901E+02  0.00000000000E+00 0. -1.
        -11    1    5    5    0    0  0.72664940439E+03 -0.31019009577E+03 -0.20557201005E+03  0.81639273866E+03  0.00000000000E+00 0.  1.
          4    1    6    6  503    0  0.85330511789E+02  0.96473865141E+02  0.13108361488E+03  0.18377001112E+03  0.00000000000E+00 0. -1.
         -4    1    6    6    0  503  0.23389724597E+03  0.80557200774E+02  0.27719915223E+03  0.37153297871E+03  0.00000000000E+00 0.  1.
<mgrwt>
<rscale>  0 0.27298962E+04</rscale>
<asrwt>0</asrwt>
<pdfrwt beam="1">  1        1 0.24380128E+00 0.27298962E+04</pdfrwt>
<pdfrwt beam="2">  1       -2 0.18087127E+00 0.27298962E+04</pdfrwt>
<totfact> 0.78212743E-01</totfact>
</mgrwt>
</event>
<event>
12    4  0.4424320E-008  0.3618671E+04  0.7818608E-02  0.8086228E-01
         -2   -1    0    0    0  501 -0.00000000000E+00  0.00000000000E+00  0.15131396305E+04  0.15131396305E+04  0.00000000000E+00 0.  1.
          1   -1    0    0  501    0  0.00000000000E+00 -0.00000000000E+00 -0.21635118451E+04  0.21635118451E+04  0.00000000000E+00 0. -1.
        -24    2    1    2    0    0  0.33006644618E+03 -0.59177793675E+03  0.12753668955E+04  0.14466147838E+04  0.83598022812E+02 0.  0.
        254    2    1    2    0    0 -0.33006644618E+03  0.59177793675E+03 -0.19257391100E+04  0.22300366917E+04  0.89746729254E+03 0.  0.
         23    2    4    4    0    0  0.92714253677E+02  0.67089579693E+03 -0.11376250367E+04  0.13271612800E+04  0.92028450231E+02 0.  0.
         23    2    4    4    0    0 -0.42278069986E+03 -0.79117860185E+02 -0.78811407331E+03  0.90287541176E+03  0.95168590620E+02 0.  0.
          1    1    3    3  502    0  0.19351678134E+03 -0.30338563546E+03  0.59943015295E+03  0.69914812216E+03  0.00000000000E+00 0. -1.
         -2    1    3    3    0  502  0.13654966485E+03 -0.28839230129E+03  0.67593674251E+03  0.74746666166E+03  0.00000000000E+00 0.  1.
         11    1    5    5    0    0  0.90135624545E+02  0.32769746552E+03 -0.54277668744E+03  0.64040346044E+03  0.00000000000E+00 0.  1.
        -11    1    5    5    0    0  0.25786291324E+01  0.34319833142E+03 -0.59484834929E+03  0.68675781951E+03  0.00000000000E+00 0. -1.
          3    1    6    6  503    0 -0.28253104999E+02  0.82792607521E+01 -0.10637505418E+03  0.11037407419E+03  0.00000000000E+00 0. -1.
         -3    1    6    6    0  503 -0.39452759486E+03 -0.87397120937E+02 -0.68173901913E+03  0.79250133758E+03  0.00000000000E+00 0.  1.
<mgrwt>
<rscale>  0 0.36186713E+04</rscale>
<asrwt>0</asrwt>
<pdfrwt beam="1">  1        1 0.33284797E+00 0.36186713E+04</pdfrwt>
<pdfrwt beam="2">  1       -2 0.23279071E+00 0.36186713E+04</pdfrwt>
<totfact> 0.13461113E-01</totfact>
</mgrwt>
</event>
<event>
12    4  0.4424320E-008  0.1218056E+04  0.7818608E-02  0.9097197E-01
         -4   -1    0    0    0  501 -0.00000000000E+00  0.00000000000E+00  0.13205717633E+03  0.13205717633E+03  0.00000000000E+00 0.  1.
          3   -1    0    0  501    0  0.00000000000E+00 -0.00000000000E+00 -0.28087458296E+04  0.28087458296E+04  0.00000000000E+00 0. -1.
        -24    2    1    2    0    0 -0.11669163537E+03 -0.14820158990E+03 -0.15326536690E+03  0.25560035455E+03  0.79124076871E+02 0.  0.
        254    2    1    2    0    0  0.11669163537E+03  0.14820158990E+03 -0.25234232863E+04  0.26852026513E+04  0.89836938269E+03 0.  0.
         23    2    4    4    0    0  0.30334759991E+03  0.45084064679E+03 -0.15081678577E+04  0.16056379046E+04  0.90695856936E+02 0.  0.
         23    2    4    4    0    0 -0.18665596454E+03 -0.30263905690E+03 -0.10152554286E+04  0.10795647468E+04  0.91025321840E+02 0.  0.
          1    1    3    3  502    0 -0.49942314132E+02 -0.13030282064E+02 -0.23598632904E+02  0.56753136182E+02  0.00000000000E+00 0. -1.
         -2    1    3    3    0  502 -0.66749321239E+02 -0.13517130783E+03 -0.12966673399E+03  0.19884721837E+03  0.00000000000E+00 0.  1.
         11    1    5    5    0    0  0.25406084592E+03  0.39762452305E+03 -0.13790314757E+04  0.14575252950E+04  0.00000000000E+00 0. -1.
        -11    1    5    5    0    0  0.49286753994E+02  0.53216123746E+02 -0.12913638203E+03  0.14811260955E+03  0.00000000000E+00 0.  1.
          2    1    6    6  503    0 -0.97721661911E+02 -0.20635257264E+03 -0.74498013333E+03  0.77918310203E+03  0.00000000000E+00 0. -1.
         -2    1    6    6    0  503 -0.88934302632E+02 -0.96286484259E+02 -0.27027529531E+03  0.30038164473E+03  0.00000000000E+00 0.  1.
<mgrwt>
<rscale>  0 0.12180559E+04</rscale>
<asrwt>0</asrwt>
<pdfrwt beam="1">  1        3 0.43211471E+00 0.12180559E+04</pdfrwt>
<pdfrwt beam="2">  1       -4 0.20316490E-01 0.12180559E+04</pdfrwt>
<totfact> 0.39080367E-01</totfact>
</mgrwt>
</event>
<event>
12    4  0.4424320E-008  0.1602426E+04  0.7818608E-02  0.8819059E-01
          1   -1    0    0  501    0  0.00000000000E+00  0.00000000000E+00  0.13656414998E+04  0.13656414998E+04  0.00000000000E+00 0. -1.
         -2   -1    0    0    0  501 -0.00000000000E+00 -0.00000000000E+00 -0.47006656278E+03  0.47006656278E+03  0.00000000000E+00 0.  1.
        -24    2    1    2    0    0 -0.29965005840E+02  0.35768140314E+03  0.77227409708E+03  0.85579322408E+03  0.84503690014E+02 0.  0.
        254    2    1    2    0    0  0.29965005840E+02 -0.35768140314E+03  0.12330083993E+03  0.97991483850E+03  0.90343572315E+03 0.  0.
         23    2    4    4    0    0  0.38844200841E+03  0.55667486875E+02 -0.32704358255E+02  0.40395143432E+03  0.90117274934E+02 0.  0.
         23    2    4    4    0    0 -0.35847700257E+03 -0.41334889001E+03  0.15600519818E+03  0.57596340419E+03  0.89627868736E+02 0.  0.
          3    1    3    3  502    0  0.26177585313E+02  0.18830829018E+03  0.41219713414E+03  0.45392924065E+03  0.00000000000E+00 0. -1.
         -4    1    3    3    0  502 -0.56142591153E+02  0.16937311296E+03  0.36007696294E+03  0.40186398343E+03  0.00000000000E+00 0.  1.
         11    1    5    5    0    0  0.36029239815E+03  0.46122436224E+02 -0.49230217179E+01  0.36326591835E+03  0.00000000000E+00 0. -1.
        -11    1    5    5    0    0  0.28149610258E+02  0.95450506508E+01 -0.27781336537E+02  0.40685515966E+02  0.00000000000E+00 0.  1.
          3    1    6    6  503    0 -0.16211920227E+03 -0.15051597283E+03  0.24744347067E+02  0.22259824019E+03  0.00000000000E+00 0. -1.
         -3    1    6    6    0  503 -0.19635780030E+03 -0.26283291718E+03  0.13126085111E+03  0.35336516400E+03  0.00000000000E+00 0.  1.
<mgrwt>
<rscale>  0 0.16024262E+04</rscale>
<asrwt>0</asrwt>
<pdfrwt beam="1">  1        1 0.21009869E+00 0.16024262E+04</pdfrwt>
<pdfrwt beam="2">  1       -2 0.72317933E-01 0.16024262E+04</pdfrwt>
<totfact> 0.11832906E+01</totfact>
</mgrwt>
</event>
<event>
12    4  0.4424320E-008  0.2037409E+04  0.7818608E-02  0.8589328E-01
         -2   -1    0    0    0  501 -0.00000000000E+00  0.00000000000E+00  0.34571158884E+03  0.34571158884E+03  0.00000000000E+00 0.  1.
          1   -1    0    0  501    0  0.00000000000E+00 -0.00000000000E+00 -0.30018045063E+04  0.30018045063E+04  0.00000000000E+00 0. -1.
        -24    2    1    2    0    0  0.67306381202E+03  0.35589937295E+03 -0.57369655097E+03  0.95690536689E+03  0.82830488680E+02 0.  0.
        254    2    1    2    0    0 -0.67306381202E+03 -0.35589937295E+03 -0.20823963665E+04  0.23906107282E+04  0.89384885083E+03 0.  0.
         23    2    4    4    0    0 -0.46757924624E+02  0.24461111646E+03 -0.26587615581E+03  0.37538257969E+03  0.90559643857E+02 0.  0.
         23    2    4    4    0    0 -0.62630588740E+03 -0.60051048941E+03 -0.18165202107E+04  0.20152281485E+04  0.92341228429E+02 0.  0.
          3    1    3    3  502    0  0.47862048641E+03  0.27630449775E+03 -0.45312561557E+03  0.71466395528E+03  0.00000000000E+00 0. -1.
         -4    1    3    3    0  502  0.19444332561E+03  0.79594875203E+02 -0.12057093540E+03  0.24224141161E+03  0.00000000000E+00 0.  1.
         11    1    5    5    0    0 -0.37676411372E+02  0.20860670820E+03 -0.26348657384E+03  0.33817369098E+03  0.00000000000E+00 0. -1.
        -11    1    5    5    0    0 -0.90815132517E+01  0.36004408253E+02 -0.23895819732E+01  0.37208888704E+02  0.00000000000E+00 0.  1.
          1    1    6    6  503    0 -0.57927805421E+03 -0.56446039008E+03 -0.16320330143E+04  0.18214583047E+04  0.00000000000E+00 0. -1.
         -1    1    6    6    0  503 -0.47027833185E+02 -0.36050099333E+02 -0.18448719635E+03  0.19376984382E+03  0.00000000000E+00 0.  1.
<mgrwt>
<rscale>  0 0.20374088E+04</rscale>
<asrwt>0</asrwt>
<pdfrwt beam="1">  1        1 0.46181608E+00 0.20374088E+04</pdfrwt>
<pdfrwt beam="2">  1       -2 0.53186398E-01 0.20374088E+04</pdfrwt>
<totfact> 0.16164076E+00</totfact>
</mgrwt>
</event>
<event>
12    4  0.4424320E-008  0.3760610E+04  0.7818608E-02  0.8054661E-01
         -2   -1    0    0    0  501 -0.00000000000E+00  0.00000000000E+00  0.12757892414E+04  0.12757892414E+04  0.00000000000E+00 0.  1.
          1   -1    0    0  501    0  0.00000000000E+00 -0.00000000000E+00 -0.27712627701E+04  0.27712627701E+04  0.00000000000E+00 0. -1.
        -24    2    1    2    0    0  0.11364416457E+04  0.28042715339E+03  0.72178336684E+03  0.13774083774E+04  0.78381165333E+02 0.  0.
        254    2    1    2    0    0 -0.11364416457E+04 -0.28042715339E+03 -0.22172568956E+04  0.26696436340E+04  0.91685876201E+03 0.  0.
         23    2    4    4    0    0 -0.15494732273E+03 -0.25296322444E+02 -0.12575412699E+04  0.12704723262E+04  0.89673347743E+02 0.  0.
         23    2    4    4    0    0 -0.98149432297E+03 -0.25513083094E+03 -0.95971562566E+03  0.13991713079E+04  0.90572731870E+02 0.  0.
          3    1    3    3  502    0  0.23263076091E+03  0.90001621762E+02  0.15933716523E+03  0.29598259250E+03  0.00000000000E+00 0. -1.
         -4    1    3    3    0  502  0.90381088479E+03  0.19042553162E+03  0.56244620161E+03  0.10814257849E+04  0.00000000000E+00 0.  1.
         11    1    5    5    0    0 -0.53195363995E+01  0.17483726628E+02 -0.28244144922E+03  0.28303206603E+03  0.00000000000E+00 0.  1.
        -11    1    5    5    0    0 -0.14962778633E+03 -0.42780049071E+02 -0.97509982067E+03  0.98744026012E+03  0.00000000000E+00 0. -1.
          1    1    6    6  503    0 -0.85885288460E+03 -0.22852051290E+03 -0.79760896843E+03  0.11941649671E+04  0.00000000000E+00 0. -1.
         -1    1    6    6    0  503 -0.12264143837E+03 -0.26610318044E+02 -0.16210665723E+03  0.20500634076E+03  0.00000000000E+00 0.  1.
<mgrwt>
<rscale>  0 0.37606102E+04</rscale>
<asrwt>0</asrwt>
<pdfrwt beam="1">  1        1 0.42634812E+00 0.37606102E+04</pdfrwt>
<pdfrwt beam="2">  1       -2 0.19627527E+00 0.37606102E+04</pdfrwt>
<totfact> 0.86381467E-02</totfact>
</mgrwt>
</event>
<event>
12    4  0.4424320E-008  0.1580177E+04  0.7818608E-02  0.8832820E-01
         -2   -1    0    0    0  501 -0.00000000000E+00  0.00000000000E+00  0.89893005745E+03  0.89893005745E+03  0.00000000000E+00 0.  1.
          1   -1    0    0  501    0  0.00000000000E+00 -0.00000000000E+00 -0.69442507253E+03  0.69442507253E+03  0.00000000000E+00 0. -1.
        -24    2    1    2    0    0 -0.49402262463E+02  0.36416161275E+03  0.45512618609E+03  0.59335234817E+03  0.99362468136E+02 0.  0.
        254    2    1    2    0    0  0.49402262463E+02 -0.36416161275E+03 -0.25062120117E+03  0.10000027818E+04  0.89562286339E+03 0.  0.
         23    2    4    4    0    0 -0.65557988390E+02  0.28253320348E+03 -0.96119655534E+02  0.31903460543E+03  0.91767261976E+02 0.  0.
         23    2    4    4    0    0  0.11496025085E+03 -0.64669481624E+03 -0.15450154563E+03  0.68096817638E+03  0.91743582993E+02 0.  0.
          1    1    3    3  502    0 -0.41703125619E+02  0.44812770796E+02  0.76213459316E+02  0.97753907818E+02  0.00000000000E+00 0. -1.
         -2    1    3    3    0  502 -0.76991368443E+01  0.31934884196E+03  0.37891272677E+03  0.49559844035E+03  0.00000000000E+00 0.  1.
         11    1    5    5    0    0 -0.15206084811E+02  0.24438257960E+02  0.16269943307E+02  0.33063038617E+02  0.00000000000E+00 0. -1.
        -11    1    5    5    0    0 -0.50351903579E+02  0.25809494552E+03 -0.11238959884E+03  0.28597156682E+03  0.00000000000E+00 0.  1.
          1    1    6    6  503    0  0.13415259703E+02 -0.11142501459E+03 -0.62434329974E+02  0.12842721140E+03  0.00000000000E+00 0. -1.
         -1    1    6    6    0  503  0.10154499115E+03 -0.53526980165E+03 -0.92067215659E+02  0.55254096499E+03  0.00000000000E+00 0.  1.
<mgrwt>
<rscale>  0 0.15801767E+04</rscale>
<asrwt>0</asrwt>
<pdfrwt beam="1">  1        1 0.10683463E+00 0.15801767E+04</pdfrwt>
<pdfrwt beam="2">  1       -2 0.13829693E+00 0.15801767E+04</pdfrwt>
<totfact> 0.86002820E+00</totfact>
</mgrwt>
</event>
<event>
12    4  0.4424320E-008  0.1361787E+04  0.7818608E-02  0.8981954E-01
          1   -1    0    0  501    0  0.00000000000E+00  0.00000000000E+00  0.66106511788E+03  0.66106511788E+03  0.00000000000E+00 0. -1.
         -2   -1    0    0    0  501 -0.00000000000E+00 -0.00000000000E+00 -0.70131616120E+03  0.70131616120E+03  0.00000000000E+00 0.  1.
        -24    2    1    2    0    0  0.17286730633E+02  0.90471055399E+02  0.32956147752E+03  0.35185788491E+03  0.81910687866E+02 0.  0.
        254    2    1    2    0    0 -0.17286730633E+02 -0.90471055399E+02 -0.36981252084E+03  0.10105233942E+04  0.93590191082E+03 0.  0.
         23    2    4    4    0    0  0.85632251805E+02 -0.11108323783E+03 -0.66392031022E+03  0.68495941729E+03  0.93310539312E+02 0.  0.
         23    2    4    4    0    0 -0.10291898244E+03  0.20612182430E+02  0.29410778938E+03  0.32556397688E+03  0.92061567743E+02 0.  0.
          3    1    3    3  502    0  0.61029295019E+01  0.10374805939E+03  0.30097756612E+03  0.31841545327E+03  0.00000000000E+00 0. -1.
         -4    1    3    3    0  502  0.11183801131E+02 -0.13277003994E+02  0.28583911406E+02  0.33442431641E+02  0.00000000000E+00 0.  1.
         11    1    5    5    0    0  0.10313069999E+03 -0.91888497785E+02 -0.48948804093E+03  0.50860395154E+03  0.00000000000E+00 0.  1.
        -11    1    5    5    0    0 -0.17498448184E+02 -0.19194740044E+02 -0.17443226929E+03  0.17635546576E+03  0.00000000000E+00 0. -1.
          4    1    6    6  503    0 -0.88313933787E+02  0.52078574608E+02  0.24353793990E+03  0.26423901492E+03  0.00000000000E+00 0.  1.
         -4    1    6    6    0  503 -0.14605048650E+02 -0.31466392178E+02  0.50569849477E+02  0.61324961956E+02  0.00000000000E+00 0. -1.
<mgrwt>
<rscale>  0 0.13617865E+04</rscale>
<asrwt>0</asrwt>
<pdfrwt beam="1">  1        1 0.10170233E+00 0.13617865E+04</pdfrwt>
<pdfrwt beam="2">  1       -2 0.10789479E+00 0.13617865E+04</pdfrwt>
<totfact> 0.17505239E+01</totfact>
</mgrwt>
</event>
<event>
12    4  0.4424320E-008  0.1408956E+04  0.7818608E-02  0.8947361E-01
          1   -1    0    0  501    0  0.00000000000E+00  0.00000000000E+00  0.16307398384E+04  0.16307398384E+04  0.00000000000E+00 0. -1.
         -2   -1    0    0    0  501 -0.00000000000E+00 -0.00000000000E+00 -0.30433377623E+03  0.30433377623E+03  0.00000000000E+00 0.  1.
        -24    2    1    2    0    0  0.25194603617E+03 -0.18118464325E+03  0.27104341134E+02  0.32204147580E+03  0.81678557368E+02 0.  0.
        254    2    1    2    0    0 -0.25194603617E+03  0.18118464325E+03  0.12993017211E+04  0.16130321389E+04  0.90409238387E+03 0.  0.
         23    2    4    4    0    0 -0.45714040834E+03  0.18281936386E+03  0.12943885677E+04  0.13878611889E+04  0.91195628853E+02 0.  0.
         23    2    4    4    0    0  0.20519437217E+03 -0.16347206101E+01  0.49131533817E+01  0.22517094998E+03  0.92576535670E+02 0.  0.
          1    1    3    3  502    0  0.33481097937E+02 -0.55804958348E+02  0.26196604967E+02  0.70152971477E+02  0.00000000000E+00 0. -1.
         -2    1    3    3    0  502  0.21846493823E+03 -0.12537968490E+03  0.90773616679E+00  0.25188850432E+03  0.00000000000E+00 0.  1.
         11    1    5    5    0    0 -0.17691239986E+03  0.25613353983E+02  0.42935929654E+03  0.46508434359E+03  0.00000000000E+00 0. -1.
        -11    1    5    5    0    0 -0.28022800849E+03  0.15720600988E+03  0.86502927115E+03  0.92277684530E+03  0.00000000000E+00 0.  1.
          4    1    6    6  503    0  0.39381758078E+02  0.16263104758E+02 -0.33295835678E+02  0.54074246358E+02  0.00000000000E+00 0. -1.
         -4    1    6    6    0  503  0.16581261410E+03 -0.17897825368E+02  0.38208989060E+02  0.17109670362E+03  0.00000000000E+00 0.  1.
<mgrwt>
<rscale>  0 0.14089559E+04</rscale>
<asrwt>0</asrwt>
<pdfrwt beam="1">  1        1 0.25088305E+00 0.14089559E+04</pdfrwt>
<pdfrwt beam="2">  1       -2 0.46820582E-01 0.14089559E+04</pdfrwt>
<totfact> 0.19656635E+01</totfact>
</mgrwt>
</event>
<event>
12    4  0.4424320E-008  0.4845949E+04  0.7818608E-02  0.7852720E-01
          1   -1    0    0  501    0  0.00000000000E+00  0.00000000000E+00  0.20839932490E+04  0.20839932490E+04  0.00000000000E+00 0. -1.
         -2   -1    0    0    0  501 -0.00000000000E+00 -0.00000000000E+00 -0.28170947317E+04  0.28170947317E+04  0.00000000000E+00 0.  1.
        -24    2    1    2    0    0  0.23140766031E+04 -0.33896779659E+03 -0.35604705459E+03  0.23674495444E+04  0.90543623731E+02 0.  0.
        254    2    1    2    0    0 -0.23140766031E+04  0.33896779659E+03 -0.37705442812E+03  0.25336384363E+04  0.89850096939E+03 0.  0.
         23    2    4    4    0    0 -0.69903818446E+02 -0.16066753946E+03 -0.82284205259E+02  0.21389563935E+03  0.90994791216E+02 0.  0.
         23    2    4    4    0    0 -0.22441727847E+04  0.49963533605E+03 -0.29477022287E+03  0.23197427970E+04  0.91488815166E+02 0.  0.
          1    1    3    3  502    0  0.14641914966E+04 -0.20507792220E+03 -0.18185116108E+03  0.14896253011E+04  0.00000000000E+00 0. -1.
         -2    1    3    3    0  502  0.84988510654E+03 -0.13388987439E+03 -0.17419589351E+03  0.87782424329E+03  0.00000000000E+00 0.  1.
         11    1    5    5    0    0 -0.13073307099E+02 -0.13156501101E+03 -0.43474940803E+02  0.13917734715E+03  0.00000000000E+00 0.  1.
        -11    1    5    5    0    0 -0.56830511347E+02 -0.29102528447E+02 -0.38809264456E+02  0.74718292202E+02  0.00000000000E+00 0. -1.
          3    1    6    6  503    0 -0.11450876248E+03  0.13614306379E+02  0.14945863231E+01  0.11532493143E+03  0.00000000000E+00 0. -1.
         -3    1    6    6    0  503 -0.21296640222E+04  0.48602102967E+03 -0.29626480919E+03  0.22044178656E+04  0.00000000000E+00 0.  1.
<mgrwt>
<rscale>  0 0.48459494E+04</rscale>
<asrwt>0</asrwt>
<pdfrwt beam="1">  1        1 0.32061434E+00 0.48459494E+04</pdfrwt>
<pdfrwt beam="2">  1       -2 0.43339919E+00 0.48459494E+04</pdfrwt>
<totfact> 0.75094100E-03</totfact>
</mgrwt>
</event>
<event>
12    4  0.4424320E-008  0.1601920E+04  0.7818608E-02  0.8819369E-01
          1   -1    0    0  501    0  0.00000000000E+00  0.00000000000E+00  0.22717502077E+04  0.22717502077E+04  0.00000000000E+00 0. -1.
         -2   -1    0    0    0  501 -0.00000000000E+00 -0.00000000000E+00 -0.28239756635E+03  0.28239756635E+03  0.00000000000E+00 0.  1.
        -24    2    1    2    0    0  0.17738264400E+03 -0.50000004973E+03  0.90196642643E+03  0.10494949523E+04  0.80197059173E+02 0.  0.
        254    2    1    2    0    0 -0.17738264400E+03  0.50000004973E+03  0.10873862149E+04  0.15046528218E+04  0.89448682585E+03 0.  0.
         23    2    4    4    0    0  0.19689750805E+03 -0.15593828057E+03  0.18116154487E+03  0.32159012410E+03  0.86690983121E+02 0.  0.
         23    2    4    4    0    0 -0.37428015205E+03  0.65593833030E+03  0.90622467005E+03  0.11830626977E+04  0.89741120470E+02 0.  0.
          1    1    3    3  502    0  0.37304892769E+02 -0.18538679078E+03  0.37485190446E+03  0.41984981541E+03  0.00000000000E+00 0. -1.
         -2    1    3    3    0  502  0.14007775123E+03 -0.31461325895E+03  0.52711452197E+03  0.62964513686E+03  0.00000000000E+00 0.  1.
         11    1    5    5    0    0  0.54828145605E+02 -0.14474300606E+02  0.77087939600E+02  0.95698387449E+02  0.00000000000E+00 0.  1.
        -11    1    5    5    0    0  0.14206936244E+03 -0.14146397997E+03  0.10407360527E+03  0.22589173665E+03  0.00000000000E+00 0. -1.
          3    1    6    6  503    0 -0.36417226123E+03  0.64507364956E+03  0.86280950853E+03  0.11371814707E+04  0.00000000000E+00 0. -1.
         -3    1    6    6    0  503 -0.10107890816E+02  0.10864680737E+02  0.43415161524E+02  0.45881227037E+02  0.00000000000E+00 0.  1.
<mgrwt>
<rscale>  0 0.16019198E+04</rscale>
<asrwt>0</asrwt>
<pdfrwt beam="1">  1        1 0.34950002E+00 0.16019198E+04</pdfrwt>
<pdfrwt beam="2">  1       -2 0.43445781E-01 0.16019198E+04</pdfrwt>
<totfact> 0.82443627E+00</totfact>
</mgrwt>
</event>
<event>
12    4  0.4424320E-008  0.2291307E+04  0.7818608E-02  0.8481356E-01
         -4   -1    0    0    0  501 -0.00000000000E+00  0.00000000000E+00  0.11194473280E+04  0.11194473280E+04  0.00000000000E+00 0.  1.
          3   -1    0    0  501    0  0.00000000000E+00 -0.00000000000E+00 -0.11724734374E+04  0.11724734374E+04  0.00000000000E+00 0. -1.
        -24    2    1    2    0    0 -0.12411729582E+03 -0.56629661951E+02 -0.97974837809E+03  0.99247765967E+03  0.80579146375E+02 0.  0.
        254    2    1    2    0    0  0.12411729582E+03  0.56629661951E+02  0.92672226869E+03  0.12994431057E+04  0.90062544934E+03 0.  0.
         23    2    4    4    0    0  0.22631192056E+03  0.21421456488E+03  0.10188945698E+04  0.10692755275E+04  0.89994689746E+02 0.  0.
         23    2    4    4    0    0 -0.10219462474E+03 -0.15758490293E+03 -0.92172301124E+02  0.23016757819E+03  0.95940804658E+02 0.  0.
          1    1    3    3  502    0 -0.11685760879E+03 -0.71012928606E+02 -0.93439147647E+03  0.94434420000E+03  0.00000000000E+00 0. -1.
         -2    1    3    3    0  502 -0.72596870252E+01  0.14383266655E+02 -0.45356901621E+02  0.48133459672E+02  0.00000000000E+00 0.  1.
         11    1    5    5    0    0  0.48295172593E+02  0.53130065145E+02  0.38082524756E+03  0.38753463935E+03  0.00000000000E+00 0. -1.
        -11    1    5    5    0    0  0.17801674797E+03  0.16108449974E+03  0.63806932225E+03  0.68174088818E+03  0.00000000000E+00 0.  1.
          3    1    6    6  503    0  0.12362759061E+02 -0.57408610240E+02 -0.25256257326E+02  0.63925463435E+02  0.00000000000E+00 0. -1.
         -3    1    6    6    0  503 -0.11455738380E+03 -0.10017629269E+03 -0.66916043799E+02  0.16624211476E+03  0.00000000000E+00 0.  1.
<mgrwt>
<rscale>  0 0.22913073E+04</rscale>
<asrwt>0</asrwt>
<pdfrwt beam="1">  1        3 0.18038053E+00 0.22913073E+04</pdfrwt>
<pdfrwt beam="2">  1       -4 0.17222267E+00 0.22913073E+04</pdfrwt>
<totfact> 0.83419721E-02</totfact>
</mgrwt>
</event>
<event>
12    4  0.4424320E-008  0.3863817E+04  0.7818608E-02  0.8032597E-01
          1   -1    0    0  501    0  0.00000000000E+00  0.00000000000E+00  0.19733475747E+04  0.19733475747E+04  0.00000000000E+00 0. -1.
         -2   -1    0    0    0  501 -0.00000000000E+00 -0.00000000000E+00 -0.18913391596E+04  0.18913391596E+04  0.00000000000E+00 0.  1.
        -24    2    1    2    0    0  0.24139676071E+03 -0.13868897863E+02 -0.17769256339E+04  0.17951313591E+04  0.81037926750E+02 0.  0.
        254    2    1    2    0    0 -0.24139676071E+03  0.13868897863E+02  0.18589340490E+04  0.20695553752E+04  0.87690302200E+03 0.  0.
         23    2    4    4    0    0  0.18264066757E+03 -0.28397444106E+03  0.10279755822E+04  0.10859986741E+04  0.93060334359E+02 0.  0.
         23    2    4    4    0    0 -0.42403742828E+03  0.29784333893E+03  0.83095846680E+03  0.98355670113E+03  0.91506369454E+02 0.  0.
          1    1    3    3  502    0  0.22978271977E+02 -0.93042810467E+00 -0.42434635999E+03  0.42496905760E+03  0.00000000000E+00 0. -1.
         -2    1    3    3    0  502  0.21841848873E+03 -0.12938469759E+02 -0.13525792739E+04  0.13701623015E+04  0.00000000000E+00 0.  1.
         11    1    5    5    0    0  0.43883404294E+02 -0.65646671460E+02  0.13593610011E+03  0.15720643104E+03  0.00000000000E+00 0.  1.
        -11    1    5    5    0    0  0.13875726327E+03 -0.21832776960E+03  0.89203948208E+03  0.92879224301E+03  0.00000000000E+00 0. -1.
          2    1    6    6  503    0 -0.34558974741E+03  0.20438345669E+03  0.67704578927E+03  0.78714412381E+03  0.00000000000E+00 0. -1.
         -2    1    6    6    0  503 -0.78447680873E+02  0.93459882236E+02  0.15391267754E+03  0.19641257732E+03  0.00000000000E+00 0.  1.
<mgrwt>
<rscale>  0 0.38638165E+04</rscale>
<asrwt>0</asrwt>
<pdfrwt beam="1">  1        1 0.30359193E+00 0.38638165E+04</pdfrwt>
<pdfrwt beam="2">  1       -2 0.29097526E+00 0.38638165E+04</pdfrwt>
<totfact> 0.78006030E-02</totfact>
</mgrwt>
</event>
<event>
12    4  0.4424320E-008  0.1305858E+04  0.7818608E-02  0.9024933E-01
          1   -1    0    0  501    0  0.00000000000E+00  0.00000000000E+00  0.12408230780E+04  0.12408230780E+04  0.00000000000E+00 0. -1.
         -2   -1    0    0    0  501 -0.00000000000E+00 -0.00000000000E+00 -0.34357522471E+03  0.34357522471E+03  0.00000000000E+00 0.  1.
        -24    2    1    2    0    0 -0.15970762491E+03 -0.11777108427E+03  0.55052462589E+03  0.59011945099E+03  0.76072655960E+02 0.  0.
        254    2    1    2    0    0  0.15970762491E+03  0.11777108427E+03  0.34672322738E+03  0.99427885168E+03  0.91049266046E+03 0.  0.
         23    2    4    4    0    0  0.51045440468E+03  0.22834578862E+02  0.59754680393E+02  0.52246157284E+03  0.91161154132E+02 0.  0.
         23    2    4    4    0    0 -0.35074677976E+03  0.94936505410E+02  0.28696854698E+03  0.47181727884E+03  0.90688224607E+02 0.  0.
          3    1    3    3  502    0 -0.15856383809E+03 -0.11824839774E+03  0.55302187232E+03  0.58733156358E+03  0.00000000000E+00 0. -1.
         -4    1    3    3    0  502 -0.11437868208E+01  0.47731346298E+00 -0.24972464349E+01  0.27878874063E+01  0.00000000000E+00 0.  1.
         11    1    5    5    0    0  0.48431102747E+03  0.14902956185E+01  0.63689429080E+02  0.48848309662E+03  0.00000000000E+00 0. -1.
        -11    1    5    5    0    0  0.26143377205E+02  0.21344283243E+02 -0.39347486873E+01  0.33978476218E+02  0.00000000000E+00 0.  1.
          3    1    6    6  503    0 -0.34691944036E+03  0.10604347013E+03  0.27776737853E+03  0.45689499037E+03  0.00000000000E+00 0. -1.
         -3    1    6    6    0  503 -0.38273394055E+01 -0.11106964718E+02  0.92011684557E+01  0.14922288468E+02  0.00000000000E+00 0.  1.
<mgrwt>
<rscale>  0 0.13058577E+04</rscale>
<asrwt>0</asrwt>
<pdfrwt beam="1">  1        1 0.19089586E+00 0.13058577E+04</pdfrwt>
<pdfrwt beam="2">  1       -2 0.52857728E-01 0.13058577E+04</pdfrwt>
<totfact> 0.29015134E+01</totfact>
</mgrwt>
</event>
<event>
12    4  0.4424320E-008  0.1546230E+04  0.7818608E-02  0.8854279E-01
          1   -1    0    0  501    0  0.00000000000E+00  0.00000000000E+00  0.60839668175E+03  0.60839668175E+03  0.00000000000E+00 0. -1.
         -2   -1    0    0    0  501 -0.00000000000E+00 -0.00000000000E+00 -0.98242967116E+03  0.98242967116E+03  0.00000000000E+00 0.  1.
        -24    2    1    2    0    0 -0.41750468438E+03  0.29058363422E+03 -0.10695136463E+03  0.52600083687E+03  0.80556042819E+02 0.  0.
        254    2    1    2    0    0  0.41750468438E+03 -0.29058363422E+03 -0.26708162478E+03  0.10648255160E+04  0.89653319813E+03 0.  0.
         23    2    4    4    0    0 -0.23725439169E+03  0.80366592598E+02 -0.12261417224E+03  0.29311234100E+03  0.90178565225E+02 0.  0.
         23    2    4    4    0    0  0.65475907608E+03 -0.37095022681E+03 -0.14446745254E+03  0.77171317504E+03  0.91415869531E+02 0.  0.
          1    1    3    3  502    0 -0.44382991484E+02  0.77421276863E+01  0.26650930751E+01  0.45131953151E+02  0.00000000000E+00 0. -1.
         -2    1    3    3    0  502 -0.37312169290E+03  0.28284150653E+03 -0.10961645770E+03  0.48086888372E+03  0.00000000000E+00 0.  1.
         11    1    5    5    0    0 -0.24071754127E+02  0.15211255809E+02 -0.51986369394E+02  0.59274060540E+02  0.00000000000E+00 0. -1.
        -11    1    5    5    0    0 -0.21318263757E+03  0.65155336788E+02 -0.70627802846E+02  0.23383828046E+03  0.00000000000E+00 0.  1.
          1    1    6    6  503    0  0.43345828772E+03 -0.19478579761E+03 -0.90834984726E+02  0.48381668904E+03  0.00000000000E+00 0.  1.
         -1    1    6    6    0  503  0.22130078835E+03 -0.17616442921E+03 -0.53632467813E+02  0.28789648599E+03  0.00000000000E+00 0. -1.
<mgrwt>
<rscale>  0 0.15462302E+04</rscale>
<asrwt>0</asrwt>
<pdfrwt beam="1">  1        1 0.93599490E-01 0.15462302E+04</pdfrwt>
<pdfrwt beam="2">  1       -2 0.15114302E+00 0.15462302E+04</pdfrwt>
<totfact> 0.83071215E+00</totfact>
</mgrwt>
</event>
<event>
12    4  0.4424320E-008  0.1356136E+04  0.7818608E-02  0.8986197E-01
          1   -1    0    0  501    0  0.00000000000E+00  0.00000000000E+00  0.43755351674E+03  0.43755351674E+03  0.00000000000E+00 0. -1.
         -2   -1    0    0    0  501 -0.00000000000E+00 -0.00000000000E+00 -0.10507877487E+04  0.10507877487E+04  0.00000000000E+00 0.  1.
        -24    2    1    2    0    0  0.11604963115E+03  0.11233760349E+03 -0.52995317922E+03  0.55981180043E+03  0.80322012468E+02 0.  0.
        254    2    1    2    0    0 -0.11604963115E+03 -0.11233760349E+03 -0.83281052739E+02  0.92852946500E+03  0.91057343448E+03 0.  0.
         23    2    4    4    0    0 -0.43927856103E+03  0.17551730462E+03 -0.23554364951E+02  0.48240320085E+03  0.91575442590E+02 0.  0.
         23    2    4    4    0    0  0.32322892988E+03 -0.28785490811E+03 -0.59726687788E+02  0.44612626415E+03  0.90133107657E+02 0.  0.
          1    1    3    3  502    0  0.20665899479E+02 -0.41919401341E+01 -0.24115814425E+02  0.32034735347E+02  0.00000000000E+00 0. -1.
         -2    1    3    3    0  502  0.95383731671E+02  0.11652954362E+03 -0.50583736480E+03  0.52777706509E+03  0.00000000000E+00 0.  1.
         11    1    5    5    0    0 -0.33311253018E+03  0.93626182770E+02 -0.35268403619E+02  0.34781270845E+03  0.00000000000E+00 0.  1.
        -11    1    5    5    0    0 -0.10616603084E+03  0.81891121855E+02  0.11714038668E+02  0.13459049240E+03  0.00000000000E+00 0. -1.
          1    1    6    6  503    0  0.64750771083E+02 -0.11232483344E+03 -0.15915565186E+02  0.13062479006E+03  0.00000000000E+00 0. -1.
         -1    1    6    6    0  503  0.25847815879E+03 -0.17553007467E+03 -0.43811122602E+02  0.31550147409E+03  0.00000000000E+00 0.  1.
<mgrwt>
<rscale>  0 0.13561355E+04</rscale>
<asrwt>0</asrwt>
<pdfrwt beam="1">  1        1 0.67315927E-01 0.13561355E+04</pdfrwt>
<pdfrwt beam="2">  1       -2 0.16165965E+00 0.13561355E+04</pdfrwt>
<totfact> 0.11126871E+01</totfact>
</mgrwt>
</event>
<event>
12    4  0.4424320E-008  0.1429779E+04  0.7818608E-02  0.8932541E-01
          1   -1    0    0  501    0  0.00000000000E+00  0.00000000000E+00  0.19636407257E+04  0.19636407257E+04  0.00000000000E+00 0. -1.
         -2   -1    0    0    0  501 -0.00000000000E+00 -0.00000000000E+00 -0.26026489762E+03  0.26026489762E+03  0.00000000000E+00 0.  1.
        -24    2    1    2    0    0 -0.18636403616E+03 -0.31551919429E+03  0.85659824990E+03  0.93530675437E+03  0.82184226627E+02 0.  0.
        254    2    1    2    0    0  0.18636403616E+03  0.31551919429E+03  0.84677757816E+03  0.12885988689E+04  0.89953924995E+03 0.  0.
         23    2    4    4    0    0  0.33758905255E+03  0.18495222968E+03  0.96242975486E+03  0.10406851350E+04  0.92632724299E+02 0.  0.
         23    2    4    4    0    0 -0.15122501639E+03  0.13056696460E+03 -0.11565217670E+03  0.24791373388E+03  0.90382828260E+02 0.  0.
          3    1    3    3  502    0 -0.10884856500E+03 -0.24337867547E+03  0.66385335888E+03  0.71538973426E+03  0.00000000000E+00 0. -1.
         -4    1    3    3    0  502 -0.77515471164E+02 -0.72140518815E+02  0.19274489102E+03  0.21991702012E+03  0.00000000000E+00 0.  1.
         11    1    5    5    0    0  0.22392158092E+02  0.44955987688E+02  0.10158571908E+03  0.11332302455E+03  0.00000000000E+00 0.  1.
        -11    1    5    5    0    0  0.31519689446E+03  0.13999624199E+03  0.86084403578E+03  0.92736211050E+03  0.00000000000E+00 0. -1.
          1    1    6    6  503    0 -0.48482350616E+02  0.85936491318E+02 -0.20137889592E+02  0.10070329418E+03  0.00000000000E+00 0. -1.
         -1    1    6    6    0  503 -0.10274266577E+03  0.44630473286E+02 -0.95514287108E+02  0.14721043970E+03  0.00000000000E+00 0.  1.
<mgrwt>
<rscale>  0 0.14297787E+04</rscale>
<asrwt>0</asrwt>
<pdfrwt beam="1">  1        1 0.30209856E+00 0.14297787E+04</pdfrwt>
<pdfrwt beam="2">  1       -2 0.40040755E-01 0.14297787E+04</pdfrwt>
<totfact> 0.15910410E+01</totfact>
</mgrwt>
</event>
<event>
12    4  0.4424320E-008  0.2172458E+04  0.7818608E-02  0.8529980E-01
          1   -1    0    0  501    0  0.00000000000E+00  0.00000000000E+00  0.14579790378E+04  0.14579790378E+04  0.00000000000E+00 0. -1.
         -2   -1    0    0    0  501 -0.00000000000E+00 -0.00000000000E+00 -0.80926676063E+03  0.80926676063E+03  0.00000000000E+00 0.  1.
        -24    2    1    2    0    0  0.27632931424E+03 -0.40954406244E+03  0.10666580435E+04  0.11780843295E+04  0.77711497363E+02 0.  0.
        254    2    1    2    0    0 -0.27632931424E+03  0.40954406244E+03 -0.41794576633E+03  0.10891614689E+04  0.87607637377E+03 0.  0.
         23    2    4    4    0    0 -0.46686508396E+02  0.38767199623E+02 -0.59988906156E+03  0.60886223913E+03  0.84639318437E+02 0.  0.
         23    2    4    4    0    0 -0.22964280584E+03  0.37077686281E+03  0.18194329523E+03  0.48029922973E+03  0.85864353065E+02 0.  0.
          1    1    3    3  502    0  0.19693083759E+03 -0.29964018093E+03  0.84954978711E+03  0.92211758122E+03  0.00000000000E+00 0. -1.
         -4    1    3    3    0  502  0.79398476653E+02 -0.10990388150E+03  0.21710825637E+03  0.25596674833E+03  0.00000000000E+00 0.  1.
         11    1    5    5    0    0 -0.46091411775E+02  0.58928675272E+02 -0.33718103780E+03  0.34538103489E+03  0.00000000000E+00 0. -1.
        -11    1    5    5    0    0 -0.59509662094E+00 -0.20161475649E+02 -0.26270802376E+03  0.26348120424E+03  0.00000000000E+00 0.  1.
          3    1    6    6  503    0 -0.13472614588E+03  0.14920373240E+03  0.10778718227E+03  0.22810296975E+03  0.00000000000E+00 0. -1.
         -3    1    6    6    0  503 -0.94916659961E+02  0.22157313042E+03  0.74156112965E+02  0.25219625999E+03  0.00000000000E+00 0.  1.
<mgrwt>
<rscale>  0 0.21724585E+04</rscale>
<asrwt>0</asrwt>
<pdfrwt beam="1">  1        1 0.22430447E+00 0.21724585E+04</pdfrwt>
<pdfrwt beam="2">  1       -2 0.12450258E+00 0.21724585E+04</pdfrwt>
<totfact> 0.27186571E+00</totfact>
</mgrwt>
</event>
<event>
12    4  0.4424320E-008  0.1745943E+04  0.7818608E-02  0.8735587E-01
         -2   -1    0    0    0  501 -0.00000000000E+00  0.00000000000E+00  0.48151285683E+03  0.48151285683E+03  0.00000000000E+00 0.  1.
          1   -1    0    0  501    0  0.00000000000E+00 -0.00000000000E+00 -0.15826768538E+04  0.15826768538E+04  0.00000000000E+00 0. -1.
        -24    2    1    2    0    0 -0.13795428303E+02 -0.53625164589E+03  0.38049274150E+01  0.54235985739E+03  0.79897408389E+02 0.  0.
        254    2    1    2    0    0  0.13795428303E+02  0.53625164589E+03 -0.11049689244E+04  0.15218298533E+04  0.89847294719E+03 0.  0.
         23    2    4    4    0    0  0.16094061753E+03  0.70399260662E+03 -0.53490736595E+03  0.90266308718E+03  0.84659826700E+02 0.  0.
         23    2    4    4    0    0 -0.14714518923E+03 -0.16774096072E+03 -0.57006155845E+03  0.61916676609E+03  0.92782364617E+02 0.  0.
          3    1    3    3  502    0 -0.39263077125E+02 -0.23483537563E+03 -0.20004860435E+02  0.23893396015E+03  0.00000000000E+00 0. -1.
         -4    1    3    3    0  502  0.25467648822E+02 -0.30141627027E+03  0.23809787850E+02  0.30342589724E+03  0.00000000000E+00 0.  1.
         11    1    5    5    0    0  0.13040589967E+03  0.63422039199E+03 -0.44944615526E+03  0.78818973018E+03  0.00000000000E+00 0.  1.
        -11    1    5    5    0    0  0.30534717861E+02  0.69772214627E+02 -0.85461210688E+02  0.11447335699E+03  0.00000000000E+00 0. -1.
          4    1    6    6  503    0 -0.52652347941E+02 -0.18590982414E+02 -0.74584878085E+02  0.93170802345E+02  0.00000000000E+00 0. -1.
         -4    1    6    6    0  503 -0.94492841291E+02 -0.14914997831E+03 -0.49547668037E+03  0.52599596374E+03  0.00000000000E+00 0.  1.
<mgrwt>
<rscale>  0 0.17459430E+04</rscale>
<asrwt>0</asrwt>
<pdfrwt beam="1">  1        1 0.24348875E+00 0.17459430E+04</pdfrwt>
<pdfrwt beam="2">  1       -2 0.74078901E-01 0.17459430E+04</pdfrwt>
<totfact> 0.78306790E+00</totfact>
</mgrwt>
</event>
<event>
12    4  0.4424320E-008  0.1023200E+04  0.7818608E-02  0.9283459E-01
          1   -1    0    0  501    0  0.00000000000E+00  0.00000000000E+00  0.15480188344E+04  0.15480188344E+04  0.00000000000E+00 0. -1.
         -2   -1    0    0    0  501 -0.00000000000E+00 -0.00000000000E+00 -0.16907705289E+03  0.16907705289E+03  0.00000000000E+00 0.  1.
        -24    2    1    2    0    0  0.35015989328E+02  0.72963127703E+02  0.18468923014E+03  0.21732866602E+03  0.81067254976E+02 0.  0.
        254    2    1    2    0    0 -0.35015989328E+02 -0.72963127703E+02  0.11942525514E+04  0.14997672213E+04  0.90361099156E+03 0.  0.
         23    2    4    4    0    0  0.30688723387E+03  0.26690400895E+03  0.52117970103E+03  0.66701546730E+03  0.88678230409E+02 0.  0.
         23    2    4    4    0    0 -0.34190322320E+03 -0.33986713666E+03  0.67307285037E+03  0.83275175400E+03  0.89671273416E+02 0.  0.
          1    1    3    3  502    0 -0.25383993575E+02  0.34795396522E+02  0.71899128405E+02  0.83812596991E+02  0.00000000000E+00 0. -1.
         -2    1    3    3    0  502  0.60399982903E+02  0.38167731181E+02  0.11279010174E+03  0.13351606903E+03  0.00000000000E+00 0.  1.
         11    1    5    5    0    0  0.13666366322E+03  0.17465263819E+03  0.29992316113E+03  0.37300724316E+03  0.00000000000E+00 0. -1.
        -11    1    5    5    0    0  0.17022357065E+03  0.92251370768E+02  0.22125653990E+03  0.29400822414E+03  0.00000000000E+00 0.  1.
          3    1    6    6  503    0 -0.38732632706E+01 -0.13762689261E+02  0.52858996323E+02  0.54758444794E+02  0.00000000000E+00 0. -1.
         -3    1    6    6    0  503 -0.33802995993E+03 -0.32610444740E+03  0.62021385405E+03  0.77799330921E+03  0.00000000000E+00 0.  1.
<mgrwt>
<rscale>  0 0.10231998E+04</rscale>
<asrwt>0</asrwt>
<pdfrwt beam="1">  1        1 0.23815673E+00 0.10231998E+04</pdfrwt>
<pdfrwt beam="2">  1       -2 0.26011855E-01 0.10231998E+04</pdfrwt>
<totfact> 0.71080730E+01</totfact>
</mgrwt>
</event>
<event>
12    4  0.4424320E-008  0.1154745E+04  0.7818608E-02  0.9153417E-01
         -2   -1    0    0    0  501 -0.00000000000E+00  0.00000000000E+00  0.18025298588E+03  0.18025298588E+03  0.00000000000E+00 0.  1.
          1   -1    0    0  501    0  0.00000000000E+00 -0.00000000000E+00 -0.18493957650E+04  0.18493957650E+04  0.00000000000E+00 0. -1.
        -24    2    1    2    0    0  0.46663337761E+01  0.39982132817E+02 -0.74091898238E+03  0.74621130171E+03  0.79057085293E+02 0.  0.
        254    2    1    2    0    0 -0.46663337761E+01 -0.39982132817E+02 -0.92822379677E+03  0.12834374492E+04  0.88543318411E+03 0.  0.
         23    2    4    4    0    0  0.42433188645E+03 -0.89012215043E+02 -0.43517907567E+03  0.62066897479E+03  0.88704137930E+02 0.  0.
         23    2    4    4    0    0 -0.42899822022E+03  0.49030082226E+02 -0.49304472110E+03  0.66276847442E+03  0.98618110708E+02 0.  0.
          3    1    3    3  502    0 -0.79385849308E+01  0.39297224248E+02 -0.72396330516E+03  0.72507252063E+03  0.00000000000E+00 0. -1.
         -4    1    3    3    0  502  0.12604918707E+02  0.68490856881E+00 -0.16955677223E+02  0.21138781078E+02  0.00000000000E+00 0.  1.
         11    1    5    5    0    0  0.96253752809E+02 -0.72587883003E+01 -0.14987531671E+03  0.17826969877E+03  0.00000000000E+00 0. -1.
        -11    1    5    5    0    0  0.32807813364E+03 -0.81753426743E+02 -0.28530375896E+03  0.44239927603E+03  0.00000000000E+00 0.  1.
          2    1    6    6  503    0 -0.42671675390E+03  0.51705482746E+02 -0.49725395022E+03  0.65728390823E+03  0.00000000000E+00 0.  1.
         -2    1    6    6    0  503 -0.22814663184E+01 -0.26754005194E+01  0.42092291187E+01  0.54845661884E+01  0.00000000000E+00 0. -1.
<mgrwt>
<rscale>  0 0.11547452E+04</rscale>
<asrwt>0</asrwt>
<pdfrwt beam="1">  1        1 0.28452241E+00 0.11547452E+04</pdfrwt>
<pdfrwt beam="2">  1       -2 0.27731230E-01 0.11547452E+04</pdfrwt>
<totfact> 0.39047950E+01</totfact>
</mgrwt>
</event>
<event>
12    4  0.4424320E-008  0.2066870E+04  0.7818608E-02  0.8575979E-01
         -2   -1    0    0    0  501 -0.00000000000E+00  0.00000000000E+00  0.39659813219E+03  0.39659813219E+03  0.00000000000E+00 0.  1.
          1   -1    0    0  501    0  0.00000000000E+00 -0.00000000000E+00 -0.26928729984E+04  0.26928729984E+04  0.00000000000E+00 0. -1.
        -24    2    1    2    0    0 -0.17894619831E+03  0.77892184126E+03 -0.12921189218E+04  0.15213792053E+04  0.79261601862E+02 0.  0.
        254    2    1    2    0    0  0.17894619831E+03 -0.77892184126E+03 -0.10041559444E+04  0.15680919253E+04  0.90102283479E+03 0.  0.
         23    2    4    4    0    0  0.41384227484E+03 -0.83142315689E+03 -0.88345226240E+03  0.12851554512E+04  0.92772514807E+02 0.  0.
         23    2    4    4    0    0 -0.23489607653E+03  0.52501315631E+02 -0.12070368198E+03  0.28293647410E+03  0.86897149660E+02 0.  0.
          1    1    3    3  502    0 -0.14148644611E+03  0.68221528422E+03 -0.10795296338E+04  0.12848425346E+04  0.00000000000E+00 0. -1.
         -2    1    3    3    0  502 -0.37459752206E+02  0.96706557036E+02 -0.21258928800E+03  0.23653667069E+03  0.00000000000E+00 0.  1.
         11    1    5    5    0    0  0.17337185012E+03 -0.31047946977E+03 -0.39651421233E+03  0.53261507690E+03  0.00000000000E+00 0.  1.
        -11    1    5    5    0    0  0.24047042472E+03 -0.52094368712E+03 -0.48693805007E+03  0.75254037428E+03  0.00000000000E+00 0. -1.
          3    1    6    6  503    0 -0.15856112827E+03 -0.72970136546E+01 -0.80339217774E+02  0.17790241067E+03  0.00000000000E+00 0. -1.
         -3    1    6    6    0  503 -0.76334948257E+02  0.59798329286E+02 -0.40364464206E+02  0.10503406343E+03  0.00000000000E+00 0.  1.
<mgrwt>
<rscale>  0 0.20668705E+04</rscale>
<asrwt>0</asrwt>
<pdfrwt beam="1">  1        1 0.41428816E+00 0.20668705E+04</pdfrwt>
<pdfrwt beam="2">  1       -2 0.61015097E-01 0.20668705E+04</pdfrwt>
<totfact> 0.20122592E+00</totfact>
</mgrwt>
</event>
<event>
12    4  0.4424320E-008  0.2051122E+04  0.7818608E-02  0.8583085E-01
         -4   -1    0    0    0  501 -0.00000000000E+00  0.00000000000E+00  0.15309080670E+04  0.15309080670E+04  0.00000000000E+00 0.  1.
          3   -1    0    0  501    0  0.00000000000E+00 -0.00000000000E+00 -0.68702744581E+03  0.68702744581E+03  0.00000000000E+00 0. -1.
        -24    2    1    2    0    0 -0.50235009473E+03 -0.17883320877E+03 -0.34081080091E+03  0.63823353956E+03  0.82783541690E+02 0.  0.
        254    2    1    2    0    0  0.50235009473E+03  0.17883320877E+03  0.11846914221E+04  0.15797019733E+04  0.89868104711E+03 0.  0.
         23    2    4    4    0    0  0.50221754387E+03  0.49563252055E+03  0.74564716397E+03  0.10307496228E+04  0.92633875861E+02 0.  0.
         23    2    4    4    0    0  0.13255085955E+00 -0.31679931178E+03  0.43904425817E+03  0.54895235048E+03  0.90702816672E+02 0.  0.
          3    1    3    3  502    0 -0.26227715684E+03 -0.95003735907E+02 -0.22697318677E+03  0.35962736874E+03  0.00000000000E+00 0. -1.
         -4    1    3    3    0  502 -0.24007293789E+03 -0.83829472862E+02 -0.11383761414E+03  0.27860617082E+03  0.00000000000E+00 0.  1.
         11    1    5    5    0    0  0.47508415259E+03  0.43677162129E+03  0.69562492362E+03  0.94887746078E+03  0.00000000000E+00 0.  1.
        -11    1    5    5    0    0  0.27133391280E+02  0.58860899256E+02  0.50022240342E+02  0.81872162011E+02  0.00000000000E+00 0. -1.
          3    1    6    6  503    0  0.32596127211E+02 -0.50629905375E+02  0.63564592580E+02  0.87557708155E+02  0.00000000000E+00 0. -1.
         -3    1    6    6    0  503 -0.32463576352E+02 -0.26616940641E+03  0.37547966559E+03  0.46139464233E+03  0.00000000000E+00 0.  1.
<mgrwt>
<rscale>  0 0.20511225E+04</rscale>
<asrwt>0</asrwt>
<pdfrwt beam="1">  1        3 0.10569653E+00 0.20511225E+04</pdfrwt>
<pdfrwt beam="2">  1       -4 0.23552432E+00 0.20511225E+04</pdfrwt>
<totfact> 0.12618556E-01</totfact>
</mgrwt>
</event>
<event>
12    4  0.4424320E-008  0.1758290E+04  0.7818608E-02  0.8728801E-01
          1   -1    0    0  501    0  0.00000000000E+00  0.00000000000E+00  0.13821923686E+04  0.13821923686E+04  0.00000000000E+00 0. -1.
         -2   -1    0    0    0  501 -0.00000000000E+00 -0.00000000000E+00 -0.55918092383E+03  0.55918092383E+03  0.00000000000E+00 0.  1.
        -24    2    1    2    0    0  0.31357140639E+03 -0.37717330800E+03  0.77288948981E+03  0.91911229119E+03  0.82598481743E+02 0.  0.
        254    2    1    2    0    0 -0.31357140639E+03  0.37717330800E+03  0.50121954995E+02  0.10222610013E+04  0.89549908610E+03 0.  0.
         23    2    4    4    0    0 -0.33581317570E+03  0.31607163258E+03 -0.36385821533E+03  0.59338130078E+03  0.83885644552E+02 0.  0.
         23    2    4    4    0    0  0.22241769315E+02  0.61101675428E+02  0.41398017032E+03  0.42887970050E+03  0.91269409115E+02 0.  0.
          1    1    3    3  502    0  0.31112611679E+03 -0.35807138978E+03  0.71448665338E+03  0.85761632365E+03  0.00000000000E+00 0. -1.
         -2    1    3    3    0  502  0.24452895970E+01 -0.19101918223E+02  0.58402836436E+02  0.61495967549E+02  0.00000000000E+00 0.  1.
         11    1    5    5    0    0 -0.17639459260E+03  0.21728105558E+03 -0.23944127422E+03  0.36831811416E+03  0.00000000000E+00 0.  1.
        -11    1    5    5    0    0 -0.15941858310E+03  0.98790576992E+02 -0.12441694110E+03  0.22506318662E+03  0.00000000000E+00 0. -1.
          3    1    6    6  503    0  0.25079527957E+02  0.83600699810E+02  0.29027885468E+03  0.30311692993E+03  0.00000000000E+00 0. -1.
         -3    1    6    6    0  503 -0.28377586422E+01 -0.22499024382E+02  0.12370131564E+03  0.12576277058E+03  0.00000000000E+00 0.  1.
<mgrwt>
<rscale>  0 0.17582896E+04</rscale>
<asrwt>0</asrwt>
<pdfrwt beam="1">  1        1 0.21264498E+00 0.17582896E+04</pdfrwt>
<pdfrwt beam="2">  1       -2 0.86027835E-01 0.17582896E+04</pdfrwt>
<totfact> 0.77025170E+00</totfact>
</mgrwt>
</event>
<event>
12    4  0.4424320E-008  0.2531725E+04  0.7818608E-02  0.8391770E-01
          1   -1    0    0  501    0  0.00000000000E+00  0.00000000000E+00  0.25897576279E+04  0.25897576279E+04  0.00000000000E+00 0. -1.
         -2   -1    0    0    0  501 -0.00000000000E+00 -0.00000000000E+00 -0.61874797397E+03  0.61874797397E+03  0.00000000000E+00 0.  1.
        -24    2    1    2    0    0 -0.24979429894E+03  0.87997776981E+03  0.14809642268E+03  0.93020628527E+03  0.81198002456E+02 0.  0.
        254    2    1    2    0    0  0.24979429894E+03 -0.87997776981E+03  0.18229132313E+04  0.22782993166E+04  0.10153211611E+04 0.  0.
         23    2    4    4    0    0  0.62960169178E+03 -0.41969158341E+03  0.10465603919E+04  0.12946174649E+04  0.90589244185E+02 0.  0.
         23    2    4    4    0    0 -0.37980739284E+03 -0.46028618641E+03  0.77635283940E+03  0.98368185170E+03  0.93750867110E+02 0.  0.
          1    1    3    3  502    0 -0.10581861184E+03  0.50995326806E+03  0.69171832022E+02  0.52539000425E+03  0.00000000000E+00 0. -1.
         -2    1    3    3    0  502 -0.14397568710E+03  0.37002450175E+03  0.78924590658E+02  0.40481628103E+03  0.00000000000E+00 0.  1.
         11    1    5    5    0    0  0.34677361535E+03 -0.26233360354E+03  0.53718664411E+03  0.69111529462E+03  0.00000000000E+00 0. -1.
        -11    1    5    5    0    0  0.28282807643E+03 -0.15735797987E+03  0.50937374776E+03  0.60350217030E+03  0.00000000000E+00 0.  1.
          2    1    6    6  503    0 -0.38392200589E+03 -0.46081324330E+03  0.77260147722E+03  0.97808895015E+03  0.00000000000E+00 0. -1.
         -2    1    6    6    0  503  0.41146130576E+01  0.52705689211E+00  0.37513621747E+01  0.55929015499E+01  0.00000000000E+00 0.  1.
<mgrwt>
<rscale>  0 0.25317245E+04</rscale>
<asrwt>0</asrwt>
<pdfrwt beam="1">  1        1 0.39842424E+00 0.25317245E+04</pdfrwt>
<pdfrwt beam="2">  1       -2 0.95191998E-01 0.25317245E+04</pdfrwt>
<totfact> 0.84741051E-01</totfact>
</mgrwt>
</event>
<event>
12    4  0.4424320E-008  0.2825695E+04  0.7818608E-02  0.8295335E-01
          1   -1    0    0  501    0  0.00000000000E+00  0.00000000000E+00  0.11101879542E+04  0.11101879542E+04  0.00000000000E+00 0. -1.
         -2   -1    0    0    0  501 -0.00000000000E+00 -0.00000000000E+00 -0.17980181878E+04  0.17980181878E+04  0.00000000000E+00 0.  1.
        -24    2    1    2    0    0 -0.12372433078E+04  0.65741886091E+02 -0.58252533235E+03  0.13714561197E+04  0.80393576688E+02 0.  0.
        254    2    1    2    0    0  0.12372433078E+04 -0.65741886091E+02 -0.10530490127E+03  0.15367500224E+04  0.90300526619E+03 0.  0.
         23    2    4    4    0    0 -0.94823868630E+02  0.10766836517E+03  0.61097553899E+02  0.17995340246E+03  0.89812432575E+02 0.  0.
         23    2    4    4    0    0  0.13320671764E+04 -0.17341025126E+03 -0.16640245517E+03  0.13567966199E+04  0.93451661205E+02 0.  0.
          3    1    3    3  502    0 -0.89137961057E+03  0.24682630529E+02 -0.38748173283E+03  0.97226999114E+03  0.00000000000E+00 0. -1.
         -4    1    3    3    0  502 -0.34586369721E+03  0.41059255562E+02 -0.19504359952E+03  0.39918612855E+03  0.00000000000E+00 0.  1.
         11    1    5    5    0    0 -0.86258924720E+02  0.84185582273E+02  0.74416682741E+01  0.12076089095E+03  0.00000000000E+00 0.  1.
        -11    1    5    5    0    0 -0.85649439099E+01  0.23482782893E+02  0.53655885625E+02  0.59192511509E+02  0.00000000000E+00 0. -1.
          4    1    6    6  503    0  0.30326712065E+03 -0.72244795001E+02 -0.61106892393E+02  0.31768586555E+03  0.00000000000E+00 0. -1.
         -4    1    6    6    0  503  0.10288000558E+04 -0.10116545626E+03 -0.10529556278E+03  0.10391107543E+04  0.00000000000E+00 0.  1.
<mgrwt>
<rscale>  0 0.28256951E+04</rscale>
<asrwt>0</asrwt>
<pdfrwt beam="1">  1        1 0.17079815E+00 0.28256951E+04</pdfrwt>
<pdfrwt beam="2">  1       -2 0.27661818E+00 0.28256951E+04</pdfrwt>
<totfact> 0.41698308E-01</totfact>
</mgrwt>
</event>
<event>
12    4  0.4424320E-008  0.1299032E+04  0.7818608E-02  0.9030333E-01
         -2   -1    0    0    0  501 -0.00000000000E+00  0.00000000000E+00  0.58594616877E+03  0.58594616877E+03  0.00000000000E+00 0.  1.
          1   -1    0    0  501    0  0.00000000000E+00 -0.00000000000E+00 -0.71998306779E+03  0.71998306779E+03  0.00000000000E+00 0. -1.
        -24    2    1    2    0    0 -0.13525911435E+03 -0.57223959080E+02  0.27418401831E+03  0.32095031610E+03  0.79136717181E+02 0.  0.
        254    2    1    2    0    0  0.13525911435E+03  0.57223959080E+02 -0.40822091733E+03  0.98497892046E+03  0.88429042000E+03 0.  0.
         23    2    4    4    0    0  0.44387748254E+03 -0.14529160986E+03 -0.37055532629E+03  0.60266706484E+03  0.88087852794E+02 0.  0.
         23    2    4    4    0    0 -0.30861836819E+03  0.20251556894E+03 -0.37665591041E+02  0.38231185562E+03  0.92118431110E+02 0.  0.
          1    1    3    3  502    0 -0.51873720030E+02 -0.23416921759E+02  0.38602794109E+02  0.68770711553E+02  0.00000000000E+00 0. -1.
         -4    1    3    3    0  502 -0.83385394318E+02 -0.33807037321E+02  0.23558122420E+03  0.25217960455E+03  0.00000000000E+00 0.  1.
         11    1    5    5    0    0  0.17252542890E+03 -0.29082599549E+02 -0.18166348394E+03  0.25221507214E+03  0.00000000000E+00 0. -1.
        -11    1    5    5    0    0  0.27135205363E+03 -0.11620901031E+03 -0.18889184235E+03  0.35045199271E+03  0.00000000000E+00 0.  1.
          4    1    6    6  503    0 -0.81553568362E+02  0.80056161168E+02  0.24654149551E+02  0.11690936893E+03  0.00000000000E+00 0.  1.
         -4    1    6    6    0  503 -0.22706479982E+03  0.12245940777E+03 -0.62319740592E+02  0.26540248669E+03  0.00000000000E+00 0. -1.
<mgrwt>
<rscale>  0 0.12990324E+04</rscale>
<asrwt>0</asrwt>
<pdfrwt beam="1">  1        1 0.11076663E+00 0.12990324E+04</pdfrwt>
<pdfrwt beam="2">  1       -2 0.90145564E-01 0.12990324E+04</pdfrwt>
<totfact> 0.23646255E+01</totfact>
</mgrwt>
</event>
<event>
12    4  0.4424320E-008  0.1225445E+04  0.7818608E-02  0.9090871E-01
          1   -1    0    0  501    0  0.00000000000E+00  0.00000000000E+00  0.48223486924E+03  0.48223486924E+03  0.00000000000E+00 0. -1.
         -2   -1    0    0    0  501 -0.00000000000E+00 -0.00000000000E+00 -0.77851930818E+03  0.77851930818E+03  0.00000000000E+00 0.  1.
        -24    2    1    2    0    0  0.17220994758E+03  0.17338510029E+03 -0.20040486362E+03  0.32588391741E+03  0.79495655314E+02 0.  0.
        254    2    1    2    0    0 -0.17220994758E+03 -0.17338510029E+03 -0.95879575317E+02  0.93487026001E+03  0.89725740512E+03 0.  0.
         23    2    4    4    0    0  0.19540328054E+03 -0.23972508083E+03  0.25765607519E+03  0.41275953567E+03  0.91286498374E+02 0.  0.
         23    2    4    4    0    0 -0.36761322812E+03  0.66339980541E+02 -0.35353565050E+03  0.52211072433E+03  0.89842494303E+02 0.  0.
          3    1    3    3  502    0  0.32587762985E+02  0.65678207142E+02 -0.25796261836E+02  0.77724103819E+02  0.00000000000E+00 0. -1.
         -4    1    3    3    0  502  0.13962218459E+03  0.10770689314E+03 -0.17460860179E+03  0.24815981359E+03  0.00000000000E+00 0.  1.
         11    1    5    5    0    0  0.57406190507E+02 -0.16643395894E+02  0.55809392583E+02  0.81775067324E+02  0.00000000000E+00 0. -1.
        -11    1    5    5    0    0  0.13799709003E+03 -0.22308168493E+03  0.20184668260E+03  0.33098446835E+03  0.00000000000E+00 0.  1.
          3    1    6    6  503    0 -0.22599899042E+01  0.14823718827E+02 -0.10417153561E+02  0.18258348297E+02  0.00000000000E+00 0. -1.
         -3    1    6    6    0  503 -0.36535323821E+03  0.51516261714E+02 -0.34311849694E+03  0.50385237604E+03  0.00000000000E+00 0.  1.
<mgrwt>
<rscale>  0 0.12254455E+04</rscale>
<asrwt>0</asrwt>
<pdfrwt beam="1">  1        1 0.74189980E-01 0.12254455E+04</pdfrwt>
<pdfrwt beam="2">  1       -2 0.11977220E+00 0.12254455E+04</pdfrwt>
<totfact> 0.21463084E+01</totfact>
</mgrwt>
</event>
<event>
12    4  0.4424320E-008  0.1479032E+04  0.7818608E-02  0.8898517E-01
          1   -1    0    0  501    0  0.00000000000E+00  0.00000000000E+00  0.11265401530E+04  0.11265401530E+04  0.00000000000E+00 0. -1.
         -2   -1    0    0    0  501 -0.00000000000E+00 -0.00000000000E+00 -0.48545455203E+03  0.48545455203E+03  0.00000000000E+00 0.  1.
        -24    2    1    2    0    0  0.76422624704E+02  0.68488006243E+02  0.69012746217E+03  0.70214293571E+03  0.78725876041E+02 0.  0.
        254    2    1    2    0    0 -0.76422624704E+02 -0.68488006243E+02 -0.49041861237E+02  0.90985176928E+03  0.90271485716E+03 0.  0.
         23    2    4    4    0    0 -0.35626618234E+03 -0.27786704330E+03  0.16403260012E+03  0.49026594449E+03  0.96531424932E+02 0.  0.
         23    2    4    4    0    0  0.27984355764E+03  0.20937903705E+03 -0.21307446135E+03  0.41958582478E+03  0.92192951830E+02 0.  0.
          3    1    3    3  502    0  0.39973013736E+02  0.69526590642E+01  0.44357094748E+03  0.44542268324E+03  0.00000000000E+00 0. -1.
         -4    1    3    3    0  502  0.36449610968E+02  0.61535347179E+02  0.24655651469E+03  0.25672025247E+03  0.00000000000E+00 0.  1.
         11    1    5    5    0    0 -0.26064284199E+03 -0.22631824684E+03  0.16273678376E+03  0.38162534078E+03  0.00000000000E+00 0. -1.
        -11    1    5    5    0    0 -0.95623340348E+02 -0.51548796454E+02  0.12958163529E+01  0.10864060371E+03  0.00000000000E+00 0.  1.
          1    1    6    6  503    0  0.26928898341E+03  0.20583704097E+03 -0.17811684778E+03  0.38289823123E+03  0.00000000000E+00 0. -1.
         -1    1    6    6    0  503  0.10554574229E+02  0.35419960873E+01 -0.34957613575E+02  0.36687593547E+02  0.00000000000E+00 0.  1.
<mgrwt>
<rscale>  0 0.14790322E+04</rscale>
<asrwt>0</asrwt>
<pdfrwt beam="1">  1        1 0.17331387E+00 0.14790322E+04</pdfrwt>
<pdfrwt beam="2">  1       -2 0.74685316E-01 0.14790322E+04</pdfrwt>
<totfact> 0.16586070E+01</totfact>
</mgrwt>
</event>
<event>
12    4  0.4424320E-008  0.1480112E+04  0.7818608E-02  0.8897787E-01
          1   -1    0    0  501    0  0.00000000000E+00  0.00000000000E+00  0.84949837470E+03  0.84949837470E+03  0.00000000000E+00 0. -1.
         -2   -1    0    0    0  501 -0.00000000000E+00 -0.00000000000E+00 -0.64471357882E+03  0.64471357882E+03  0.00000000000E+00 0.  1.
        -24    2    1    2    0    0  0.87056813549E+02  0.31811794222E+03 -0.26299819193E+03  0.43120157077E+03  0.89380264770E+02 0.  0.
        254    2    1    2    0    0 -0.87056813549E+02 -0.31811794222E+03  0.46778298781E+03  0.10630103828E+04  0.89576349346E+03 0.  0.
         23    2    4    4    0    0 -0.34164711239E+03 -0.32031892483E+03  0.59603728127E+03  0.76334904642E+03  0.90079759092E+02 0.  0.
         23    2    4    4    0    0  0.25459029884E+03  0.22009826085E+01 -0.12825429345E+03  0.29966133634E+03  0.92340067780E+02 0.  0.
          1    1    3    3  502    0 -0.18830244281E+02  0.47976786689E+02 -0.41328167721E+02  0.66063360555E+02  0.00000000000E+00 0. -1.
         -2    1    3    3    0  502  0.10588705783E+03  0.27014115553E+03 -0.22167002421E+03  0.36513821021E+03  0.00000000000E+00 0.  1.
         11    1    5    5    0    0 -0.20964120190E+03 -0.19058670374E+03  0.28811467694E+03  0.40408265522E+03  0.00000000000E+00 0. -1.
        -11    1    5    5    0    0 -0.13200591049E+03 -0.12973222108E+03  0.30792260432E+03  0.35926639120E+03  0.00000000000E+00 0.  1.
          2    1    6    6  503    0  0.15269272103E+03 -0.31993096984E+02 -0.41226085510E+02  0.16136361249E+03  0.00000000000E+00 0. -1.
         -2    1    6    6    0  503  0.10189757781E+03  0.34194079592E+02 -0.87028207941E+02  0.13829772384E+03  0.00000000000E+00 0.  1.
<mgrwt>
<rscale>  0 0.14801123E+04</rscale>
<asrwt>0</asrwt>
<pdfrwt beam="1">  1        1 0.13069206E+00 0.14801123E+04</pdfrwt>
<pdfrwt beam="2">  1       -2 0.99186705E-01 0.14801123E+04</pdfrwt>
<totfact> 0.14333068E+01</totfact>
</mgrwt>
</event>
<event>
12    4  0.4424320E-008  0.1856908E+04  0.7818608E-02  0.8676608E-01
         -2   -1    0    0    0  501 -0.00000000000E+00  0.00000000000E+00  0.11058059335E+04  0.11058059335E+04  0.00000000000E+00 0.  1.
          1   -1    0    0  501    0  0.00000000000E+00 -0.00000000000E+00 -0.77954624227E+03  0.77954624227E+03  0.00000000000E+00 0. -1.
        -24    2    1    2    0    0 -0.65210474844E+03 -0.12782553028E+03 -0.11847956830E+03  0.67945691462E+03  0.77745235214E+02 0.  0.
        254    2    1    2    0    0  0.65210474844E+03  0.12782553028E+03  0.44473925957E+03  0.12058952612E+04  0.90266848998E+03 0.  0.
         23    2    4    4    0    0  0.60794409878E+03  0.10643466721E+03  0.69578687083E+03  0.93451773548E+03  0.90992651737E+02 0.  0.
         23    2    4    4    0    0  0.44160649656E+02  0.21390863065E+02 -0.25104761126E+03  0.27137752570E+03  0.90626300474E+02 0.  0.
          1    1    3    3  502    0 -0.60281034378E+03 -0.13852348617E+03 -0.11237238052E+03  0.62864665647E+03  0.00000000000E+00 0. -1.
         -2    1    3    3    0  502 -0.49294404662E+02  0.10697955893E+02 -0.61071877832E+01  0.50810258156E+02  0.00000000000E+00 0.  1.
         11    1    5    5    0    0  0.30053446185E+02 -0.88172813269E+01  0.59763178128E+02  0.67472894836E+02  0.00000000000E+00 0.  1.
        -11    1    5    5    0    0  0.57789065260E+03  0.11525194854E+03  0.63602369270E+03  0.86704484064E+03  0.00000000000E+00 0. -1.
          3    1    6    6  503    0  0.67679250214E+02 -0.43871110051E+01 -0.17595751481E+03  0.18857564707E+03  0.00000000000E+00 0. -1.
         -3    1    6    6    0  503 -0.23518600558E+02  0.25777974071E+02 -0.75090096453E+02  0.82801878630E+02  0.00000000000E+00 0.  1.
<mgrwt>
<rscale>  0 0.18569080E+04</rscale>
<asrwt>0</asrwt>
<pdfrwt beam="1">  1        1 0.11993019E+00 0.18569080E+04</pdfrwt>
<pdfrwt beam="2">  1       -2 0.17012399E+00 0.18569080E+04</pdfrwt>
<totfact> 0.40301725E+00</totfact>
</mgrwt>
</event>
<event>
12    4  0.4424320E-008  0.1991256E+04  0.7818608E-02  0.8610720E-01
         -2   -1    0    0    0  501 -0.00000000000E+00  0.00000000000E+00  0.80507477818E+03  0.80507477818E+03  0.00000000000E+00 0.  1.
          1   -1    0    0  501    0  0.00000000000E+00 -0.00000000000E+00 -0.12312831669E+04  0.12312831669E+04  0.00000000000E+00 0. -1.
        -24    2    1    2    0    0 -0.47116668573E+03 -0.63449340081E+03 -0.33466231804E+03  0.86347763094E+03  0.94946461759E+02 0.  0.
        254    2    1    2    0    0  0.47116668573E+03  0.63449340081E+03 -0.91546070730E+02  0.11728803142E+04  0.86179326229E+03 0.  0.
         23    2    4    4    0    0  0.42731594218E+03  0.80554717019E+03 -0.21053323953E+03  0.94126258377E+03  0.10072660436E+03 0.  0.
         23    2    4    4    0    0  0.43850743553E+02 -0.17105376938E+03  0.11898716880E+03  0.23161773042E+03  0.91140259907E+02 0.  0.
          3    1    3    3  502    0 -0.83332135585E+02 -0.11215541160E+03 -0.10020023200E+03  0.17193943022E+03  0.00000000000E+00 0. -1.
         -4    1    3    3    0  502 -0.38783455015E+03 -0.52233798921E+03 -0.23446208604E+03  0.69153820071E+03  0.00000000000E+00 0.  1.
         11    1    5    5    0    0  0.50871690829E+02  0.85377933733E+02 -0.56006390362E+02  0.11407907897E+03  0.00000000000E+00 0. -1.
        -11    1    5    5    0    0  0.37644425135E+03  0.72016923645E+03 -0.15452684916E+03  0.82718350481E+03  0.00000000000E+00 0.  1.
          3    1    6    6  503    0  0.31560511334E+02 -0.42278121223E+02 -0.42781345494E+01  0.52932105994E+02  0.00000000000E+00 0. -1.
         -3    1    6    6    0  503  0.12290232219E+02 -0.12877564816E+03  0.12326530335E+03  0.17868562442E+03  0.00000000000E+00 0.  1.
<mgrwt>
<rscale>  0 0.19912559E+04</rscale>
<asrwt>0</asrwt>
<pdfrwt beam="1">  1        1 0.18942818E+00 0.19912559E+04</pdfrwt>
<pdfrwt beam="2">  1       -2 0.12385766E+00 0.19912559E+04</pdfrwt>
<totfact> 0.40514109E+00</totfact>
</mgrwt>
</event>
<event>
12    4  0.4424320E-008  0.1599406E+04  0.7818608E-02  0.8820913E-01
         -4   -1    0    0    0  501 -0.00000000000E+00  0.00000000000E+00  0.86700029906E+03  0.86700029906E+03  0.00000000000E+00 0.  1.
          3   -1    0    0  501    0  0.00000000000E+00 -0.00000000000E+00 -0.73762938169E+03  0.73762938169E+03  0.00000000000E+00 0. -1.
        -24    2    1    2    0    0 -0.41649611645E+03 -0.25493212132E+02 -0.30116866345E+03  0.52104046373E+03  0.81619128386E+02 0.  0.
        254    2    1    2    0    0  0.41649611645E+03  0.25493212132E+02  0.43053958082E+03  0.10835892170E+04  0.90259755245E+03 0.  0.
         23    2    4    4    0    0  0.17963567459E+03 -0.55765847992E+02  0.68449636995E+03  0.71570070105E+03  0.91177889971E+02 0.  0.
         23    2    4    4    0    0  0.23686044186E+03  0.81259060124E+02 -0.25395678913E+03  0.36788851596E+03  0.90233063004E+02 0.  0.
          1    1    3    3  502    0 -0.22957906165E+03 -0.21995931869E+02 -0.21456470925E+03  0.31500536665E+03  0.00000000000E+00 0. -1.
         -2    1    3    3    0  502 -0.18691705480E+03 -0.34972802633E+01 -0.86603954207E+02  0.20603509708E+03  0.00000000000E+00 0.  1.
         11    1    5    5    0    0  0.17973463617E+03 -0.30656676480E+02  0.62672233971E+03  0.65270610717E+03  0.00000000000E+00 0. -1.
        -11    1    5    5    0    0 -0.98961574419E-01 -0.25109171512E+02  0.57774030249E+02  0.62994593884E+02  0.00000000000E+00 0.  1.
          3    1    6    6  503    0  0.23688394343E+03  0.84965713284E+02 -0.25932676293E+03  0.36136345286E+03  0.00000000000E+00 0. -1.
         -3    1    6    6    0  503 -0.23501577290E-01 -0.37066531598E+01  0.53699737923E+01  0.65250631032E+01  0.00000000000E+00 0.  1.
<mgrwt>
<rscale>  0 0.15994060E+04</rscale>
<asrwt>0</asrwt>
<pdfrwt beam="1">  1        3 0.11348144E+00 0.15994060E+04</pdfrwt>
<pdfrwt beam="2">  1       -4 0.13338466E+00 0.15994060E+04</pdfrwt>
<totfact> 0.57641577E-01</totfact>
</mgrwt>
</event>
<event>
12    4  0.4424320E-008  0.2109259E+04  0.7818608E-02  0.8557176E-01
         -2   -1    0    0    0  501 -0.00000000000E+00  0.00000000000E+00  0.38546799887E+03  0.38546799887E+03  0.00000000000E+00 0.  1.
          1   -1    0    0  501    0  0.00000000000E+00 -0.00000000000E+00 -0.28854363477E+04  0.28854363477E+04  0.00000000000E+00 0. -1.
        -24    2    1    2    0    0 -0.30990564423E+01 -0.35314121353E+03  0.19083005510E+03  0.40951173942E+03  0.81027365428E+02 0.  0.
        254    2    1    2    0    0  0.30990564423E+01  0.35314121353E+03 -0.26907984039E+04  0.28613926071E+04  0.90689209985E+03 0.  0.
         23    2    4    4    0    0  0.33651844464E+03 -0.11892338521E+03 -0.13506932187E+04  0.13997413030E+04  0.86695496541E+02 0.  0.
         23    2    4    4    0    0 -0.33341938820E+03  0.47206459874E+03 -0.13401051852E+04  0.14616513041E+04  0.80803178348E+02 0.  0.
          1    1    3    3  502    0 -0.28230708471E+02 -0.17372881707E+03  0.59649316671E+02  0.18584056544E+03  0.00000000000E+00 0. -1.
         -2    1    3    3    0  502  0.25131652029E+02 -0.17941239646E+03  0.13118073843E+03  0.22367117398E+03  0.00000000000E+00 0.  1.
         11    1    5    5    0    0  0.23642036643E+03 -0.40034129862E+02 -0.89367239697E+03  0.92528248352E+03  0.00000000000E+00 0.  1.
        -11    1    5    5    0    0  0.10009807821E+03 -0.78889255350E+02 -0.45702082171E+03  0.47445881945E+03  0.00000000000E+00 0. -1.
          4    1    6    6  503    0 -0.16740779284E+02  0.68374560853E+02 -0.15364206863E+03  0.16900064946E+03  0.00000000000E+00 0. -1.
         -4    1    6    6    0  503 -0.31667860892E+03  0.40369003789E+03 -0.11864631166E+04  0.12926506547E+04  0.00000000000E+00 0.  1.
<mgrwt>
<rscale>  0 0.21092590E+04</rscale>
<asrwt>0</asrwt>
<pdfrwt beam="1">  1        1 0.44391330E+00 0.21092590E+04</pdfrwt>
<pdfrwt beam="2">  1       -2 0.59302767E-01 0.21092590E+04</pdfrwt>
<totfact> 0.15530613E+00</totfact>
</mgrwt>
</event>
<event>
12    4  0.4424320E-008  0.1863101E+04  0.7818608E-02  0.8673444E-01
          3   -1    0    0  501    0  0.00000000000E+00  0.00000000000E+00  0.11291448380E+04  0.11291448380E+04  0.00000000000E+00 0. -1.
         -4   -1    0    0    0  501 -0.00000000000E+00 -0.00000000000E+00 -0.76853429345E+03  0.76853429345E+03  0.00000000000E+00 0.  1.
        -24    2    1    2    0    0  0.38279979003E+02  0.26767504251E+03 -0.53454597022E+03  0.60247709386E+03  0.64218137391E+02 0.  0.
        254    2    1    2    0    0 -0.38279979003E+02 -0.26767504251E+03  0.89515651479E+03  0.12952020376E+04  0.89617400491E+03 0.  0.
         23    2    4    4    0    0  0.19484685269E+03 -0.49952540158E+03  0.74446457665E+03  0.92192488297E+03  0.90703148393E+02 0.  0.
         23    2    4    4    0    0 -0.23312683170E+03  0.23185035907E+03  0.15069193814E+03  0.37327715464E+03  0.92331280141E+02 0.  0.
          3    1    3    3  502    0 -0.37257834994E+01 -0.14401391865E+00 -0.77330669278E+00  0.38079135934E+01  0.00000000000E+00 0. -1.
         -4    1    3    3    0  502  0.42005762502E+02  0.26781905642E+03 -0.53377266353E+03  0.59866918027E+03  0.00000000000E+00 0.  1.
         11    1    5    5    0    0 -0.15851559008E+01 -0.56187437458E+02  0.52096346042E+02  0.76639220497E+02  0.00000000000E+00 0. -1.
        -11    1    5    5    0    0  0.19643200859E+03 -0.44333796412E+03  0.69236823061E+03  0.84528566248E+03  0.00000000000E+00 0.  1.
          2    1    6    6  503    0 -0.82090379747E+02  0.10505102290E+03  0.10782418755E+03  0.17146604119E+03  0.00000000000E+00 0. -1.
         -2    1    6    6    0  503 -0.15103645195E+03  0.12679933617E+03  0.42867750597E+02  0.20181111345E+03  0.00000000000E+00 0.  1.
<mgrwt>
<rscale>  0 0.18631012E+04</rscale>
<asrwt>0</asrwt>
<pdfrwt beam="1">  1        3 0.17371459E+00 0.18631012E+04</pdfrwt>
<pdfrwt beam="2">  1       -4 0.11823604E+00 0.18631012E+04</pdfrwt>
<totfact> 0.25879185E-01</totfact>
</mgrwt>
</event>
<event>
12    4  0.4424320E-008  0.2166512E+04  0.7818608E-02  0.8532497E-01
          1   -1    0    0  501    0  0.00000000000E+00  0.00000000000E+00  0.16146779320E+04  0.16146779320E+04  0.00000000000E+00 0. -1.
         -2   -1    0    0    0  501 -0.00000000000E+00 -0.00000000000E+00 -0.72673561804E+03  0.72673561804E+03  0.00000000000E+00 0.  1.
        -24    2    1    2    0    0  0.17716469791E+03 -0.81208442089E+03  0.17283166183E+02  0.83525678573E+03  0.80540383907E+02 0.  0.
        254    2    1    2    0    0 -0.17716469791E+03  0.81208442089E+03  0.87065914775E+03  0.15061567643E+04  0.90531343203E+03 0.  0.
         23    2    4    4    0    0  0.14680386479E+02  0.70074285832E+03  0.10062756514E+04  0.12297450038E+04  0.91793357780E+02 0.  0.
         23    2    4    4    0    0 -0.19184508439E+03  0.11134156257E+03 -0.13561650362E+03  0.27641176051E+03  0.93862374435E+02 0.  0.
          3    1    3    3  502    0 -0.13589148266E+01 -0.10439334422E+03  0.14394873136E+02  0.10538989202E+03  0.00000000000E+00 0. -1.
         -4    1    3    3    0  502  0.17852361273E+03 -0.70769107666E+03  0.28882930475E+01  0.72986689371E+03  0.00000000000E+00 0.  1.
         11    1    5    5    0    0  0.88417595384E+01  0.35313201741E+01  0.11053672001E+02  0.14588714769E+02  0.00000000000E+00 0.  1.
        -11    1    5    5    0    0  0.58386269408E+01  0.69721153814E+03  0.99522197937E+03  0.12151562890E+04  0.00000000000E+00 0. -1.
          4    1    6    6  503    0 -0.13863299407E+03  0.65462491097E+02 -0.41253580954E+02  0.15876492915E+03  0.00000000000E+00 0.  1.
         -4    1    6    6    0  503 -0.53212090316E+02  0.45879071473E+02 -0.94362922669E+02  0.11764683136E+03  0.00000000000E+00 0. -1.
<mgrwt>
<rscale>  0 0.21665124E+04</rscale>
<asrwt>0</asrwt>
<pdfrwt beam="1">  1        1 0.24841199E+00 0.21665124E+04</pdfrwt>
<pdfrwt beam="2">  1       -2 0.11180548E+00 0.21665124E+04</pdfrwt>
<totfact> 0.27644709E+00</totfact>
</mgrwt>
</event>
<event>
12    4  0.4424320E-008  0.1637242E+04  0.7818608E-02  0.8797990E-01
          1   -1    0    0  501    0  0.00000000000E+00  0.00000000000E+00  0.18611898472E+04  0.18611898472E+04  0.00000000000E+00 0. -1.
         -4   -1    0    0    0  501 -0.00000000000E+00 -0.00000000000E+00 -0.36006012206E+03  0.36006012206E+03  0.00000000000E+00 0.  1.
        -24    2    1    2    0    0 -0.53281200490E+03 -0.22773960548E+03  0.55182002675E+03  0.80401691402E+03  0.78637749423E+02 0.  0.
        254    2    1    2    0    0  0.53281200490E+03  0.22773960548E+03  0.94930969836E+03  0.14172330552E+04  0.87841144625E+03 0.  0.
         23    2    4    4    0    0 -0.21487250342E+03  0.51128840782E+02  0.40981360885E+03  0.47408020095E+03  0.89557198765E+02 0.  0.
         23    2    4    4    0    0  0.74768450833E+03  0.17661076469E+03  0.53949608951E+03  0.94315285426E+03  0.90872381372E+02 0.  0.
          1    1    3    3  502    0 -0.13503464345E+03 -0.94458287519E+02  0.16999449503E+03  0.23675905760E+03  0.00000000000E+00 0. -1.
         -2    1    3    3    0  502 -0.39777736145E+03 -0.13328131796E+03  0.38182553171E+03  0.56725785642E+03  0.00000000000E+00 0.  1.
         11    1    5    5    0    0 -0.17345101114E+02  0.34592152797E+02  0.87789875832E+02  0.95940251545E+02  0.00000000000E+00 0.  1.
        -11    1    5    5    0    0 -0.19752740231E+03  0.16536687985E+02  0.32202373302E+03  0.37813994941E+03  0.00000000000E+00 0. -1.
          1    1    6    6  503    0  0.63399452298E+03  0.16174026679E+03  0.41976044149E+03  0.77737236721E+03  0.00000000000E+00 0. -1.
         -1    1    6    6    0  503  0.11368998535E+03  0.14870497901E+02  0.11973564803E+03  0.16578048704E+03  0.00000000000E+00 0.  1.
<mgrwt>
<rscale>  0 0.16372419E+04</rscale>
<asrwt>0</asrwt>
<pdfrwt beam="1">  1        1 0.28633689E+00 0.16372419E+04</pdfrwt>
<pdfrwt beam="2">  1       -4 0.55393866E-01 0.16372419E+04</pdfrwt>
<totfact> 0.54328224E+00</totfact>
</mgrwt>
</event>
<event>
12    4  0.4424320E-008  0.1277843E+04  0.7818608E-02  0.9047322E-01
         -2   -1    0    0    0  501 -0.00000000000E+00  0.00000000000E+00  0.28295813945E+04  0.28295813945E+04  0.00000000000E+00 0.  1.
          1   -1    0    0  501    0  0.00000000000E+00 -0.00000000000E+00 -0.14426901491E+03  0.14426901491E+03  0.00000000000E+00 0. -1.
        -24    2    1    2    0    0 -0.98299453588E+01  0.15667313910E+03  0.53264869753E+02  0.18331667213E+03  0.78260817737E+02 0.  0.
        254    2    1    2    0    0  0.98299453588E+01 -0.15667313910E+03  0.26320475098E+04  0.27905337372E+04  0.91365274831E+03 0.  0.
         23    2    4    4    0    0  0.36587499977E+03 -0.83178568783E+02  0.53286142573E+03  0.65821459735E+03  0.92314502523E+02 0.  0.
         23    2    4    4    0    0 -0.35604505441E+03 -0.73494570313E+02  0.20991860841E+04  0.21323191399E+04  0.89627931745E+02 0.  0.
          1    1    3    3  502    0 -0.20797703710E+02  0.13367370832E+03  0.13319162953E+02  0.13593603230E+03  0.00000000000E+00 0. -1.
         -2    1    3    3    0  502  0.10967758351E+02  0.22999430772E+02  0.39945706800E+02  0.47380639832E+02  0.00000000000E+00 0.  1.
         11    1    5    5    0    0  0.42084201592E+02 -0.12944440994E+02  0.21747231754E+02  0.49107847287E+02  0.00000000000E+00 0. -1.
        -11    1    5    5    0    0  0.32379079818E+03 -0.70234127788E+02  0.51111419398E+03  0.60910675006E+03  0.00000000000E+00 0.  1.
          3    1    6    6  503    0 -0.24511262351E+02 -0.51733082093E+01  0.56898788468E+02  0.62169423586E+02  0.00000000000E+00 0. -1.
         -3    1    6    6    0  503 -0.33153379206E+03 -0.68321262104E+02  0.20422872956E+04  0.20701497163E+04  0.00000000000E+00 0.  1.
<mgrwt>
<rscale>  0 0.12778434E+04</rscale>
<asrwt>0</asrwt>
<pdfrwt beam="1">  1        1 0.22195235E-01 0.12778434E+04</pdfrwt>
<pdfrwt beam="2">  1       -2 0.43532017E+00 0.12778434E+04</pdfrwt>
<totfact> 0.86469639E-01</totfact>
</mgrwt>
</event>
<event>
12    4  0.4424320E-008  0.2774924E+04  0.7818608E-02  0.8311096E-01
          1   -1    0    0  501    0  0.00000000000E+00  0.00000000000E+00  0.14106063125E+04  0.14106063125E+04  0.00000000000E+00 0. -1.
         -2   -1    0    0    0  501 -0.00000000000E+00 -0.00000000000E+00 -0.13646974970E+04  0.13646974970E+04  0.00000000000E+00 0.  1.
        -24    2    1    2    0    0  0.37242685334E+03  0.76320971733E+02 -0.11384279395E+04  0.12032876491E+04  0.85769115533E+02 0.  0.
        254    2    1    2    0    0 -0.37242685334E+03 -0.76320971733E+02  0.11843367551E+04  0.15720161604E+04  0.96127759128E+03 0.  0.
         23    2    4    4    0    0 -0.67293128211E+03  0.46992537631E+02  0.91878571270E+03  0.11436790855E+04  0.93754230288E+02 0.  0.
         23    2    4    4    0    0  0.30050442877E+03 -0.12331350936E+03  0.26555104235E+03  0.42833707494E+03  0.86291137282E+02 0.  0.
          3    1    3    3  502    0  0.80779011819E+01  0.82403549556E+01 -0.91204834419E+01  0.14708472236E+02  0.00000000000E+00 0. -1.
         -4    1    3    3    0  502  0.36434895216E+03  0.68080616777E+02 -0.11293074560E+04  0.11885791768E+04  0.00000000000E+00 0.  1.
         11    1    5    5    0    0 -0.35501206594E+03  0.55846597149E+02  0.54601002994E+03  0.65366609379E+03  0.00000000000E+00 0. -1.
        -11    1    5    5    0    0 -0.31791921617E+03 -0.88540595175E+01  0.37277568276E+03  0.49001299171E+03  0.00000000000E+00 0.  1.
          1    1    6    6  503    0  0.24156581777E+03 -0.93638040785E+02  0.16203493142E+03  0.30557723410E+03  0.00000000000E+00 0. -1.
         -1    1    6    6    0  503  0.58938610996E+02 -0.29675468579E+02  0.10351611093E+03  0.12275984084E+03  0.00000000000E+00 0.  1.
<mgrwt>
<rscale>  0 0.27749241E+04</rscale>
<asrwt>0</asrwt>
<pdfrwt beam="1">  1        1 0.21701636E+00 0.27749241E+04</pdfrwt>
<pdfrwt beam="2">  1       -2 0.20995346E+00 0.27749241E+04</pdfrwt>
<totfact> 0.65923585E-01</totfact>
</mgrwt>
</event>
<event>
12    4  0.4424320E-008  0.1346731E+04  0.7818608E-02  0.8993306E-01
         -2   -1    0    0    0  501 -0.00000000000E+00  0.00000000000E+00  0.98410864048E+03  0.98410864048E+03  0.00000000000E+00 0.  1.
          1   -1    0    0  501    0  0.00000000000E+00 -0.00000000000E+00 -0.46074297589E+03  0.46074297589E+03  0.00000000000E+00 0. -1.
        -24    2    1    2    0    0 -0.54956716268E+02  0.14211382094E+03 -0.21602752082E+03  0.27628288951E+03  0.80297985784E+02 0.  0.
        254    2    1    2    0    0  0.54956716268E+02 -0.14211382094E+03  0.73939318541E+03  0.11685687269E+04  0.89198318818E+03 0.  0.
         23    2    4    4    0    0 -0.39236341764E+03 -0.14873872663E+03  0.23548691345E+03  0.48941856138E+03  0.89466091448E+02 0.  0.
         23    2    4    4    0    0  0.44732013390E+03  0.66249056944E+01  0.50390627196E+03  0.67915016547E+03  0.84759806330E+02 0.  0.
          3    1    3    3  502    0 -0.47551615554E+02  0.15001801060E+03 -0.18216010397E+03  0.24072570101E+03  0.00000000000E+00 0. -1.
         -4    1    3    3    0  502 -0.74051007135E+01 -0.79041896567E+01 -0.33867416843E+02  0.35557188504E+02  0.00000000000E+00 0.  1.
         11    1    5    5    0    0 -0.34488575559E+03 -0.10444797049E+03  0.22154200279E+03  0.42300877290E+03  0.00000000000E+00 0. -1.
        -11    1    5    5    0    0 -0.47477662046E+02 -0.44290756143E+02  0.13944910658E+02  0.66409788483E+02  0.00000000000E+00 0.  1.
          2    1    6    6  503    0  0.37018629636E+03  0.34501729416E+02  0.43315024844E+03  0.57083044862E+03  0.00000000000E+00 0. -1.
         -2    1    6    6    0  503  0.77133837543E+02 -0.27876823721E+02  0.70756023517E+02  0.10831971685E+03  0.00000000000E+00 0.  1.
<mgrwt>
<rscale>  0 0.13467311E+04</rscale>
<asrwt>0</asrwt>
<pdfrwt beam="1">  1        1 0.70883535E-01 0.13467311E+04</pdfrwt>
<pdfrwt beam="2">  1       -2 0.15140133E+00 0.13467311E+04</pdfrwt>
<totfact> 0.12395001E+01</totfact>
</mgrwt>
</event>
<event>
12    4  0.4424320E-008  0.1114194E+04  0.7818608E-02  0.9191467E-01
          1   -1    0    0  501    0  0.00000000000E+00  0.00000000000E+00  0.23529673480E+03  0.23529673480E+03  0.00000000000E+00 0. -1.
         -2   -1    0    0    0  501 -0.00000000000E+00 -0.00000000000E+00 -0.13190027217E+04  0.13190027217E+04  0.00000000000E+00 0.  1.
        -24    2    1    2    0    0  0.17401388506E+02 -0.12811631408E+03 -0.18884250353E+02  0.15442076335E+03  0.82295558740E+02 0.  0.
        254    2    1    2    0    0 -0.17401388506E+02  0.12811631408E+03 -0.10648217365E+04  0.13998786931E+04  0.89949898645E+03 0.  0.
         23    2    4    4    0    0  0.13889908386E+03  0.31226418029E+03 -0.10837220460E+04  0.11401253958E+04  0.92900868192E+02 0.  0.
         23    2    4    4    0    0 -0.15630047237E+03 -0.18414786622E+03  0.18900309515E+02  0.25975329731E+03  0.93671123995E+02 0.  0.
          3    1    3    3  502    0 -0.57356546064E+01 -0.44081815576E+02  0.30811432462E+02  0.54087415991E+02  0.00000000000E+00 0. -1.
         -4    1    3    3    0  502  0.23137043112E+02 -0.84034498500E+02 -0.49695682815E+02  0.10033334736E+03  0.00000000000E+00 0.  1.
         11    1    5    5    0    0  0.14203040126E+03  0.24853022105E+03 -0.94556680676E+03  0.98794559147E+03  0.00000000000E+00 0. -1.
        -11    1    5    5    0    0 -0.31313173969E+01  0.63733959241E+02 -0.13815523928E+03  0.15217980434E+03  0.00000000000E+00 0.  1.
          3    1    6    6  503    0 -0.25047508216E+02 -0.90284138395E+02  0.28988324856E+02  0.98076124982E+02  0.00000000000E+00 0. -1.
         -3    1    6    6    0  503 -0.13125296415E+03 -0.93863727821E+02 -0.10088015340E+02  0.16167717233E+03  0.00000000000E+00 0.  1.
<mgrwt>
<rscale>  0 0.11141939E+04</rscale>
<asrwt>0</asrwt>
<pdfrwt beam="1">  1        1 0.36199497E-01 0.11141939E+04</pdfrwt>
<pdfrwt beam="2">  1       -2 0.20292350E+00 0.11141939E+04</pdfrwt>
<totfact> 0.13294244E+01</totfact>
</mgrwt>
</event>
<event>
12    4  0.4424320E-008  0.1354789E+04  0.7818608E-02  0.8987211E-01
          1   -1    0    0  501    0  0.00000000000E+00  0.00000000000E+00  0.27745462505E+03  0.27745462505E+03  0.00000000000E+00 0. -1.
         -2   -1    0    0    0  501 -0.00000000000E+00 -0.00000000000E+00 -0.16538314501E+04  0.16538314501E+04  0.00000000000E+00 0.  1.
        -24    2    1    2    0    0 -0.21377105456E+03  0.11825084159E+03  0.38358237692E+01  0.26348125896E+03  0.98622182965E+02 0.  0.
        254    2    1    2    0    0  0.21377105456E+03 -0.11825084159E+03 -0.13802126488E+04  0.16678048162E+04  0.90382776215E+03 0.  0.
         23    2    4    4    0    0  0.12568374397E+03 -0.35303514258E+02  0.95954309296E+02  0.18400519574E+03  0.87223511567E+02 0.  0.
         23    2    4    4    0    0  0.88087310595E+02 -0.82947327336E+02 -0.14761669581E+04  0.14837996204E+04  0.89178428073E+02 0.  0.
          3    1    3    3  502    0 -0.14219363933E+03  0.94764483009E+02  0.46253986370E+02  0.17702759548E+03  0.00000000000E+00 0. -1.
         -4    1    3    3    0  502 -0.71577415229E+02  0.23486358585E+02 -0.42418162601E+02  0.86453663479E+02  0.00000000000E+00 0.  1.
         11    1    5    5    0    0  0.35484437837E+02 -0.54256143736E+02  0.40467628239E+02  0.76423186252E+02  0.00000000000E+00 0.  1.
        -11    1    5    5    0    0  0.90199306129E+02  0.18952629478E+02  0.55486681058E+02  0.10758200949E+03  0.00000000000E+00 0. -1.
          4    1    6    6  503    0  0.11109230071E+02 -0.70697681187E+02 -0.78309338464E+03  0.78635667873E+03  0.00000000000E+00 0. -1.
         -4    1    6    6    0  503  0.76978080524E+02 -0.12249646150E+02 -0.69307357346E+03  0.69744294171E+03  0.00000000000E+00 0.  1.
<mgrwt>
<rscale>  0 0.13547888E+04</rscale>
<asrwt>0</asrwt>
<pdfrwt beam="1">  1        1 0.42685327E-01 0.13547888E+04</pdfrwt>
<pdfrwt beam="2">  1       -2 0.25443561E+00 0.13547888E+04</pdfrwt>
<totfact> 0.50124999E+00</totfact>
</mgrwt>
</event>
<event>
12    4  0.4424320E-008  0.1516967E+04  0.7818608E-02  0.8873248E-01
          1   -1    0    0  501    0  0.00000000000E+00  0.00000000000E+00  0.25823277638E+04  0.25823277638E+04  0.00000000000E+00 0. -1.
         -2   -1    0    0    0  501 -0.00000000000E+00 -0.00000000000E+00 -0.22278254270E+03  0.22278254270E+03  0.00000000000E+00 0.  1.
        -24    2    1    2    0    0  0.36387534347E+03 -0.44623486544E+02  0.17196175150E+03  0.41243328221E+03  0.78318881205E+02 0.  0.
        254    2    1    2    0    0 -0.36387534347E+03  0.44623486544E+02  0.21875834696E+04  0.23926770243E+04  0.89720977759E+03 0.  0.
         23    2    4    4    0    0 -0.29441583578E+03 -0.11113188905E+03  0.21756070106E+04  0.22001361332E+04  0.91116184476E+02 0.  0.
         23    2    4    4    0    0 -0.69459507688E+02  0.15575537560E+03  0.11976459001E+02  0.19254089106E+03  0.88567482325E+02 0.  0.
          1    1    3    3  502    0  0.19816976294E+03 -0.53743550381E+02  0.12323557359E+03  0.23947156564E+03  0.00000000000E+00 0. -1.
         -2    1    3    3    0  502  0.16570558053E+03  0.91200638376E+01  0.48726177911E+02  0.17296171657E+03  0.00000000000E+00 0.  1.
         11    1    5    5    0    0 -0.20154454225E+02 -0.37507987402E+02  0.34885690834E+03  0.35144586161E+03  0.00000000000E+00 0. -1.
        -11    1    5    5    0    0 -0.27426138156E+03 -0.73623901653E+02  0.18267501023E+04  0.18486902716E+04  0.00000000000E+00 0.  1.
          1    1    6    6  503    0 -0.73272813501E+02  0.95168941616E+02  0.38733310407E+02  0.12619945318E+03  0.00000000000E+00 0. -1.
         -1    1    6    6    0  503  0.38133058128E+01  0.60586433983E+02 -0.26756851406E+02  0.66341437889E+02  0.00000000000E+00 0.  1.
<mgrwt>
<rscale>  0 0.15169674E+04</rscale>
<asrwt>0</asrwt>
<pdfrwt beam="1">  1        1 0.39728117E+00 0.15169674E+04</pdfrwt>
<pdfrwt beam="2">  1       -2 0.34274239E-01 0.15169674E+04</pdfrwt>
<totfact> 0.80539358E+00</totfact>
</mgrwt>
</event>
<event>
12    4  0.6073653E-008  0.2142176E+04  0.7818608E-02  0.8542889E-01
         -2   -1    0    0    0  501 -0.00000000000E+00  0.00000000000E+00  0.61215035269E+03  0.61215035269E+03  0.00000000000E+00 0.  1.
          1   -1    0    0  501    0  0.00000000000E+00 -0.00000000000E+00 -0.18740984421E+04  0.18740984421E+04  0.00000000000E+00 0. -1.
        -24    2    1    2    0    0 -0.56702708436E+03  0.42652266760E+03  0.92252128727E+02  0.71881520037E+03  0.68873337698E+02 0.  0.
        254    2    1    2    0    0  0.56702708436E+03 -0.42652266760E+03 -0.13542002182E+04  0.17674335944E+04  0.88686074416E+03 0.  0.
         23    2    4    4    0    0  0.51322268028E+03 -0.62605837847E+03 -0.69737465409E+03  0.10728646756E+04  0.96750148332E+02 0.  0.
         23    2    4    4    0    0  0.53804404077E+02  0.19953571086E+03 -0.65682556408E+03  0.69456891884E+03  0.91086484074E+02 0.  0.
          3    1    3    3  502    0 -0.74045463389E+02  0.40768240941E+02  0.30276350471E+02  0.89785508384E+02  0.00000000000E+00 0. -1.
         -4    1    3    3    0  502 -0.49298162097E+03  0.38575442666E+03  0.61975778255E+02  0.62902969198E+03  0.00000000000E+00 0.  1.
         11    1    5    5    0    0  0.17395827877E+03 -0.14520048758E+03 -0.18307512573E+03  0.29130939911E+03  0.00000000000E+00 0. -1.
        -11    1    5    5    0    0  0.33926440151E+03 -0.48085789089E+03 -0.51429952836E+03  0.78155527650E+03  0.00000000000E+00 0.  1.
          3    1    6    6  503    0 -0.19154485635E+02  0.78392363909E+01 -0.56622438701E+02  0.60286387449E+02  0.00000000000E+00 0. -1.
         -3    1    6    6    0  503  0.72958889711E+02  0.19169647447E+03 -0.60020312538E+03  0.63428253139E+03  0.00000000000E+00 0.  1.
<mgrwt>
<rscale>  0 0.21421765E+04</rscale>
<asrwt>0</asrwt>
<pdfrwt beam="1">  1        1 0.28832284E+00 0.21421765E+04</pdfrwt>
<pdfrwt beam="2">  1       -2 0.94176978E-01 0.21421765E+04</pdfrwt>
<totfact> 0.27770335E+00</totfact>
</mgrwt>
</event>
<event>
12    4  0.4424320E-008  0.1749836E+04  0.7818608E-02  0.8733441E-01
          1   -1    0    0  501    0  0.00000000000E+00  0.00000000000E+00  0.10812151417E+04  0.10812151417E+04  0.00000000000E+00 0. -1.
         -2   -1    0    0    0  501 -0.00000000000E+00 -0.00000000000E+00 -0.70798224478E+03  0.70798224478E+03  0.00000000000E+00 0.  1.
        -24    2    1    2    0    0 -0.29616577603E+02 -0.45730080636E+02 -0.48718617527E+03  0.49618380323E+03  0.76678649319E+02 0.  0.
        254    2    1    2    0    0  0.29616577603E+02  0.45730080636E+02  0.86041907220E+03  0.12930135833E+04  0.96363622012E+03 0.  0.
         23    2    4    4    0    0 -0.15437475525E+03  0.22301942622E+03 -0.93699383585E+02  0.30109692464E+03  0.91162240059E+02 0.  0.
         23    2    4    4    0    0  0.18399133285E+03 -0.17728934559E+03  0.95411845578E+03  0.99191665861E+03  0.90952225591E+02 0.  0.
          1    1    3    3  502    0 -0.11534651974E+02 -0.17557106022E+02 -0.24436722281E+02  0.32225045599E+02  0.00000000000E+00 0. -1.
         -2    1    3    3    0  502 -0.18081925629E+02 -0.28172974615E+02 -0.46274945299E+03  0.46395875763E+03  0.00000000000E+00 0.  1.
         11    1    5    5    0    0 -0.80233473891E+02  0.54651245231E+02 -0.59192688354E+01  0.97258453008E+02  0.00000000000E+00 0. -1.
        -11    1    5    5    0    0 -0.74141281356E+02  0.16836818099E+03 -0.87780114749E+02  0.20383847163E+03  0.00000000000E+00 0.  1.
          1    1    6    6  503    0  0.51099156595E+02 -0.38125200877E+02  0.11993538341E+03  0.13582765161E+03  0.00000000000E+00 0. -1.
         -1    1    6    6    0  503  0.13289217626E+03 -0.13916414471E+03  0.83418307237E+03  0.85608900701E+03  0.00000000000E+00 0.  1.
<mgrwt>
<rscale>  0 0.17498356E+04</rscale>
<asrwt>0</asrwt>
<pdfrwt beam="1">  1        1 0.16634079E+00 0.17498356E+04</pdfrwt>
<pdfrwt beam="2">  1       -2 0.10892035E+00 0.17498356E+04</pdfrwt>
<totfact> 0.73250382E+00</totfact>
</mgrwt>
</event>
<event>
12    4  0.4424320E-008  0.2526299E+04  0.7818608E-02  0.8393676E-01
         -2   -1    0    0    0  501 -0.00000000000E+00  0.00000000000E+00  0.35048185400E+04  0.35048185400E+04  0.00000000000E+00 0.  1.
          1   -1    0    0  501    0  0.00000000000E+00 -0.00000000000E+00 -0.45524387689E+03  0.45524387689E+03  0.00000000000E+00 0. -1.
        -24    2    1    2    0    0  0.49988645247E+03 -0.87846277100E+03  0.19970241840E+04  0.22397943584E+04  0.83605449016E+02 0.  0.
        254    2    1    2    0    0 -0.49988645247E+03  0.87846277100E+03  0.10525504791E+04  0.17202680585E+04  0.91097550824E+03 0.  0.
         23    2    4    4    0    0  0.24932537880E+03  0.12843359676E+03  0.26678172567E+03  0.39747104428E+03  0.90290689463E+02 0.  0.
         23    2    4    4    0    0 -0.74921183127E+03  0.75002917423E+03  0.78576875347E+03  0.13227970142E+04  0.92180673685E+02 0.  0.
          3    1    3    3  502    0  0.54839597809E+02 -0.57395847127E+02  0.18298067392E+03  0.19945824571E+03  0.00000000000E+00 0. -1.
         -4    1    3    3    0  502  0.44504685466E+03 -0.82106692387E+03  0.18140435101E+04  0.20403361127E+04  0.00000000000E+00 0.  1.
         11    1    5    5    0    0 -0.57764783274E+01  0.10736978441E+02  0.41282805267E+01  0.12872183498E+02  0.00000000000E+00 0. -1.
        -11    1    5    5    0    0  0.25510185713E+03  0.11769661832E+03  0.26265344514E+03  0.38459886079E+03  0.00000000000E+00 0.  1.
          2    1    6    6  503    0 -0.76583146875E+02  0.50206775303E+02  0.46688624257E+02  0.10278874601E+03  0.00000000000E+00 0. -1.
         -2    1    6    6    0  503 -0.67262868439E+03  0.69982239893E+03  0.73908012921E+03  0.12200082682E+04  0.00000000000E+00 0.  1.
<mgrwt>
<rscale>  0 0.25262994E+04</rscale>
<asrwt>0</asrwt>
<pdfrwt beam="1">  1        1 0.70037522E-01 0.25262994E+04</pdfrwt>
<pdfrwt beam="2">  1       -2 0.53920284E+00 0.25262994E+04</pdfrwt>
<totfact> 0.37758570E-02</totfact>
</mgrwt>
</event>
<event>
12    4  0.4424320E-008  0.1785776E+04  0.7818608E-02  0.8713901E-01
          1   -1    0    0  501    0  0.00000000000E+00  0.00000000000E+00  0.12906840957E+04  0.12906840957E+04  0.00000000000E+00 0. -1.
         -2   -1    0    0    0  501 -0.00000000000E+00 -0.00000000000E+00 -0.61769457122E+03  0.61769457122E+03  0.00000000000E+00 0.  1.
        -24    2    1    2    0    0 -0.58521400310E+03  0.38515910182E+02 -0.78556387135E+02  0.59707595447E+03  0.79810304386E+02 0.  0.
        254    2    1    2    0    0  0.58521400310E+03 -0.38515910182E+02  0.75154591161E+03  0.13113027124E+04  0.90040804174E+03 0.  0.
         23    2    4    4    0    0  0.72250785832E+03 -0.26242333854E+03  0.66512409327E+03  0.10204654619E+04  0.89867043929E+02 0.  0.
         23    2    4    4    0    0 -0.13729385522E+03  0.22390742835E+03  0.86421818340E+02  0.29083725051E+03  0.90185566734E+02 0.  0.
          3    1    3    3  502    0 -0.55950054965E+02 -0.41308449503E+00 -0.31724992553E+02  0.64319938136E+02  0.00000000000E+00 0. -1.
         -4    1    3    3    0  502 -0.52926394814E+03  0.38928994677E+02 -0.46831394582E+02  0.53275601634E+03  0.00000000000E+00 0.  1.
         11    1    5    5    0    0  0.70279285202E+03 -0.26900090366E+03  0.64005548116E+03  0.98790196780E+03  0.00000000000E+00 0. -1.
        -11    1    5    5    0    0  0.19715006299E+02  0.65775651204E+01  0.25068612114E+02  0.32563494125E+02  0.00000000000E+00 0.  1.
          3    1    6    6  503    0 -0.81130112852E+02  0.17555946762E+03  0.96345123863E+02  0.21606851870E+03  0.00000000000E+00 0.  1.
         -3    1    6    6    0  503 -0.56163742370E+02  0.48347960738E+02 -0.99233055225E+01  0.74768731814E+02  0.00000000000E+00 0. -1.
<mgrwt>
<rscale>  0 0.17857755E+04</rscale>
<asrwt>0</asrwt>
<pdfrwt beam="1">  1        1 0.19856678E+00 0.17857755E+04</pdfrwt>
<pdfrwt beam="2">  1       -2 0.95029934E-01 0.17857755E+04</pdfrwt>
<totfact> 0.70905354E+00</totfact>
</mgrwt>
</event>
<event>
12    4  0.4424320E-008  0.3480425E+04  0.7818608E-02  0.8118445E-01
         -2   -1    0    0    0  501 -0.00000000000E+00  0.00000000000E+00  0.10619499021E+04  0.10619499021E+04  0.00000000000E+00 0.  1.
          1   -1    0    0  501    0  0.00000000000E+00 -0.00000000000E+00 -0.28516786543E+04  0.28516786543E+04  0.00000000000E+00 0. -1.
        -24    2    1    2    0    0  0.76407779518E+03 -0.13335797121E+04 -0.25657328539E+03  0.15601260366E+04  0.76900414440E+02 0.  0.
        254    2    1    2    0    0 -0.76407779518E+03  0.13335797121E+04 -0.15331554669E+04  0.23535025198E+04  0.90893272537E+03 0.  0.
         23    2    4    4    0    0 -0.66103406480E+03  0.14510577806E+04 -0.13090079903E+04  0.20650826645E+04  0.92356780900E+02 0.  0.
         23    2    4    4    0    0 -0.10304373038E+03 -0.11747806847E+03 -0.22414747654E+03  0.28841985528E+03  0.92329923294E+02 0.  0.
          3    1    3    3  502    0  0.15079259641E+03 -0.29022015864E+03 -0.25871495806E+02  0.32807846913E+03  0.00000000000E+00 0. -1.
         -4    1    3    3    0  502  0.61328519877E+03 -0.10433595535E+04 -0.23070178958E+03  0.12320475675E+04  0.00000000000E+00 0.  1.
         11    1    5    5    0    0 -0.68712691192E+01  0.38913031546E+02 -0.20017015179E+02  0.44295815379E+02  0.00000000000E+00 0.  1.
        -11    1    5    5    0    0 -0.65416279568E+03  0.14121447490E+04 -0.12889909752E+04  0.20207868491E+04  0.00000000000E+00 0. -1.
          2    1    6    6  503    0 -0.10076728283E+03 -0.13229707311E+03 -0.20157287073E+03  0.26132007779E+03  0.00000000000E+00 0. -1.
         -2    1    6    6    0  503 -0.22764475430E+01  0.14819004642E+02 -0.22574605811E+02  0.27099777481E+02  0.00000000000E+00 0.  1.
<mgrwt>
<rscale>  0 0.34804252E+04</rscale>
<asrwt>0</asrwt>
<pdfrwt beam="1">  1        1 0.43871979E+00 0.34804252E+04</pdfrwt>
<pdfrwt beam="2">  1       -2 0.16337691E+00 0.34804252E+04</pdfrwt>
<totfact> 0.13092503E-01</totfact>
</mgrwt>
</event>
<event>
12    4  0.4424320E-008  0.2263215E+04  0.7818608E-02  0.8492568E-01
         -2   -1    0    0    0  501 -0.00000000000E+00  0.00000000000E+00  0.52198531326E+03  0.52198531326E+03  0.00000000000E+00 0.  1.
          1   -1    0    0  501    0  0.00000000000E+00 -0.00000000000E+00 -0.24532017883E+04  0.24532017883E+04  0.00000000000E+00 0. -1.
        -24    2    1    2    0    0 -0.80190146988E+03 -0.50012796588E+03 -0.67232120624E+03  0.11626014566E+04  0.80326788543E+02 0.  0.
        254    2    1    2    0    0  0.80190146988E+03  0.50012796588E+03 -0.12588952688E+04  0.18125856450E+04  0.89859639037E+03 0.  0.
         23    2    4    4    0    0  0.66411735395E+03  0.68965881068E+03 -0.12277393809E+04  0.15594429673E+04  0.88528220474E+02 0.  0.
         23    2    4    4    0    0  0.13778411593E+03 -0.18953084481E+03 -0.31155887922E+02  0.25314267768E+03  0.90576609414E+02 0.  0.
          1    1    3    3  502    0 -0.51196501094E+03 -0.35106159639E+03 -0.47356866509E+03  0.78078146587E+03  0.00000000000E+00 0. -1.
         -2    1    3    3    0  502 -0.28993645894E+03 -0.14906636949E+03 -0.19875254114E+03  0.38181999076E+03  0.00000000000E+00 0.  1.
         11    1    5    5    0    0  0.81687221570E+02  0.48667812821E+02 -0.13444021056E+03  0.16466793370E+03  0.00000000000E+00 0.  1.
        -11    1    5    5    0    0  0.58243013238E+03  0.64099099786E+03 -0.10932991703E+04  0.13947750336E+04  0.00000000000E+00 0. -1.
          2    1    6    6  503    0  0.14360230627E+03 -0.15526419086E+03 -0.44123943532E+02  0.21604516593E+03  0.00000000000E+00 0. -1.
         -2    1    6    6    0  503 -0.58181903369E+01 -0.34266653944E+02  0.12968055610E+02  0.37097511744E+02  0.00000000000E+00 0.  1.
<mgrwt>
<rscale>  0 0.22632148E+04</rscale>
<asrwt>0</asrwt>
<pdfrwt beam="1">  1        1 0.37741566E+00 0.22632148E+04</pdfrwt>
<pdfrwt beam="2">  1       -2 0.80305432E-01 0.22632148E+04</pdfrwt>
<totfact> 0.15941341E+00</totfact>
</mgrwt>
</event>
<event>
12    4  0.4424320E-008  0.1272814E+04  0.7818608E-02  0.9051406E-01
          1   -1    0    0  501    0  0.00000000000E+00  0.00000000000E+00  0.11772108702E+04  0.11772108702E+04  0.00000000000E+00 0. -1.
         -2   -1    0    0    0  501 -0.00000000000E+00 -0.00000000000E+00 -0.34404519914E+03  0.34404519914E+03  0.00000000000E+00 0.  1.
        -24    2    1    2    0    0 -0.47672664794E+01 -0.58426384805E+02 -0.15785481168E+03  0.18696617200E+03  0.81251699252E+02 0.  0.
        254    2    1    2    0    0  0.47672664794E+01  0.58426384805E+02  0.99102048271E+03  0.13342898973E+04  0.89149961505E+03 0.  0.
         23    2    4    4    0    0 -0.30370135947E+02  0.40508260258E+03  0.19173198201E+03  0.45783978540E+03  0.88554255116E+02 0.  0.
         23    2    4    4    0    0  0.35137402427E+02 -0.34665621778E+03  0.79928850070E+03  0.87645011191E+03  0.88867997262E+02 0.  0.
          1    1    3    3  502    0  0.19968745901E+02  0.11520037312E+02 -0.20476297718E+02  0.30834085697E+02  0.00000000000E+00 0. -1.
         -2    1    3    3    0  502 -0.24736012381E+02 -0.69946422117E+02 -0.13737851396E+03  0.15613208630E+03  0.00000000000E+00 0.  1.
         11    1    5    5    0    0  0.29867914746E+02  0.19031463325E+03  0.84984219488E+02  0.21055657084E+03  0.00000000000E+00 0. -1.
        -11    1    5    5    0    0 -0.60238050693E+02  0.21476796933E+03  0.10674776252E+03  0.24728321456E+03  0.00000000000E+00 0.  1.
          1    1    6    6  503    0 -0.24460343597E+02 -0.15141870383E+03  0.29703914534E+03  0.33430253685E+03  0.00000000000E+00 0. -1.
         -1    1    6    6    0  503  0.59597746024E+02 -0.19523751395E+03  0.50224935536E+03  0.54214757506E+03  0.00000000000E+00 0.  1.
<mgrwt>
<rscale>  0 0.12728138E+04</rscale>
<asrwt>0</asrwt>
<pdfrwt beam="1">  1        1 0.18110936E+00 0.12728138E+04</pdfrwt>
<pdfrwt beam="2">  1       -2 0.52930031E-01 0.12728138E+04</pdfrwt>
<totfact> 0.32277018E+01</totfact>
</mgrwt>
</event>
<event>
12    4  0.4424320E-008  0.1974724E+04  0.7818608E-02  0.8618530E-01
          1   -1    0    0  501    0  0.00000000000E+00  0.00000000000E+00  0.18926063374E+04  0.18926063374E+04  0.00000000000E+00 0. -1.
         -2   -1    0    0    0  501 -0.00000000000E+00 -0.00000000000E+00 -0.51510100772E+03  0.51510100772E+03  0.00000000000E+00 0.  1.
        -24    2    1    2    0    0  0.72956950194E+03 -0.23961156942E+03  0.51811422867E+03  0.92972506591E+03  0.79126366462E+02 0.  0.
        254    2    1    2    0    0 -0.72956950194E+03  0.23961156942E+03  0.85939110097E+03  0.14779822792E+04  0.92530707916E+03 0.  0.
         23    2    4    4    0    0 -0.83265370971E+03  0.39458902668E+03  0.47284809411E+03  0.10395426497E+04  0.89726808520E+02 0.  0.
         23    2    4    4    0    0  0.10308420777E+03 -0.15497745726E+03  0.38654300686E+03  0.43843962946E+03  0.90384989800E+02 0.  0.
          3    1    3    3  502    0  0.28393218639E+03 -0.90112096988E+02  0.24789636356E+03  0.38754391178E+03  0.00000000000E+00 0. -1.
         -4    1    3    3    0  502  0.44563731555E+03 -0.14949947243E+03  0.27021786511E+03  0.54218115413E+03  0.00000000000E+00 0.  1.
         11    1    5    5    0    0 -0.68729524173E+03  0.29532301298E+03  0.40699831272E+03  0.85160909921E+03  0.00000000000E+00 0.  1.
        -11    1    5    5    0    0 -0.14535846798E+03  0.99266013705E+02  0.65849781386E+02  0.18793355049E+03  0.00000000000E+00 0. -1.
          4    1    6    6  503    0  0.27294020244E+02 -0.11960615767E+03  0.24596754608E+03  0.27486474896E+03  0.00000000000E+00 0. -1.
         -4    1    6    6    0  503  0.75790187527E+02 -0.35371299596E+02  0.14057546078E+03  0.16357488051E+03  0.00000000000E+00 0.  1.
<mgrwt>
<rscale>  0 0.19747237E+04</rscale>
<asrwt>0</asrwt>
<pdfrwt beam="1">  1        1 0.29117020E+00 0.19747237E+04</pdfrwt>
<pdfrwt beam="2">  1       -2 0.79246310E-01 0.19747237E+04</pdfrwt>
<totfact> 0.40627607E+00</totfact>
</mgrwt>
</event>
<event>
12    4  0.4424320E-008  0.1891202E+04  0.7818608E-02  0.8659248E-01
         -2   -1    0    0    0  501 -0.00000000000E+00  0.00000000000E+00  0.95601117374E+03  0.95601117374E+03  0.00000000000E+00 0.  1.
          1   -1    0    0  501    0  0.00000000000E+00 -0.00000000000E+00 -0.93530436369E+03  0.93530436369E+03  0.00000000000E+00 0. -1.
        -24    2    1    2    0    0 -0.70621077174E+03  0.11243015807E+03  0.15725707472E+03  0.73631360649E+03  0.77805815866E+02 0.  0.
        254    2    1    2    0    0  0.70621077174E+03 -0.11243015807E+03 -0.13655026468E+03  0.11550019309E+04  0.89666565180E+03 0.  0.
         23    2    4    4    0    0  0.53176994600E+03  0.34058301323E+03  0.15900238939E+02  0.63830052936E+03  0.91644333247E+02 0.  0.
         23    2    4    4    0    0  0.17444082574E+03 -0.45301317130E+03 -0.15245050362E+03  0.51670140157E+03  0.89936907213E+02 0.  0.
          1    1    3    3  502    0 -0.18524908024E+03  0.40649556311E+02  0.87276202653E+01  0.18985726090E+03  0.00000000000E+00 0. -1.
         -2    1    3    3    0  502 -0.52096169150E+03  0.71780601762E+02  0.14852945446E+03  0.54645634559E+03  0.00000000000E+00 0.  1.
         11    1    5    5    0    0  0.28037546057E+03  0.18277761693E+03  0.54092936499E+02  0.33903407192E+03  0.00000000000E+00 0. -1.
        -11    1    5    5    0    0  0.25139448543E+03  0.15780539629E+03 -0.38192697560E+02  0.29926645745E+03  0.00000000000E+00 0.  1.
          4    1    6    6  503    0  0.15952712660E+03 -0.43040160544E+03 -0.12001864944E+03  0.47444591083E+03  0.00000000000E+00 0.  1.
         -4    1    6    6    0  503  0.14913699142E+02 -0.22611565859E+02 -0.32431854182E+02  0.42255490749E+02  0.00000000000E+00 0. -1.
<mgrwt>
<rscale>  0 0.18912022E+04</rscale>
<asrwt>0</asrwt>
<pdfrwt beam="1">  1        1 0.14389298E+00 0.18912022E+04</pdfrwt>
<pdfrwt beam="2">  1       -2 0.14707864E+00 0.18912022E+04</pdfrwt>
<totfact> 0.44107028E+00</totfact>
</mgrwt>
</event>
<event>
12    4  0.4911380E-008  0.1383464E+04  0.7818608E-02  0.8965876E-01
          1   -1    0    0  501    0  0.00000000000E+00  0.00000000000E+00  0.10558195540E+04  0.10558195540E+04  0.00000000000E+00 0. -1.
         -4   -1    0    0    0  501 -0.00000000000E+00 -0.00000000000E+00 -0.45319624868E+03  0.45319624868E+03  0.00000000000E+00 0.  1.
        -24    2    1    2    0    0 -0.14059108162E+03 -0.24970018885E+03 -0.18525894400E+03  0.35195616073E+03  0.86233556125E+02 0.  0.
        254    2    1    2    0    0  0.14059108162E+03  0.24970018885E+03  0.78788224936E+03  0.11570596420E+04  0.79744124532E+03 0.  0.
         23    2    4    4    0    0 -0.31911200054E+03  0.15570193927E+03  0.30955996095E+03  0.48074750809E+03  0.95996012034E+02 0.  0.
         23    2    4    4    0    0  0.45970308216E+03  0.93998249580E+02  0.47832228841E+03  0.67631213391E+03  0.91887410546E+02 0.  0.
          3    1    3    3  502    0  0.11485921960E+02 -0.16616205242E+02 -0.19213517114E+02  0.27878018578E+02  0.00000000000E+00 0. -1.
         -4    1    3    3    0  502 -0.15207700358E+03 -0.23308398361E+03 -0.16604542688E+03  0.32407814215E+03  0.00000000000E+00 0.  1.
         11    1    5    5    0    0 -0.17460348517E+02  0.12001372988E+02 -0.50826610758E+01  0.21788303458E+02  0.00000000000E+00 0. -1.
        -11    1    5    5    0    0 -0.30165165202E+03  0.14370056628E+03  0.31464262203E+03  0.45895920463E+03  0.00000000000E+00 0.  1.
          1    1    6    6  503    0  0.33438165993E+02  0.55446989914E+01  0.68381118968E+01  0.34577657616E+02  0.00000000000E+00 0. -1.
         -1    1    6    6    0  503  0.42626491616E+03  0.88453550589E+02  0.47148417651E+03  0.64173447629E+03  0.00000000000E+00 0.  1.
<mgrwt>
<rscale>  0 0.13834644E+04</rscale>
<asrwt>0</asrwt>
<pdfrwt beam="1">  1        1 0.16243378E+00 0.13834644E+04</pdfrwt>
<pdfrwt beam="2">  1       -4 0.69722500E-01 0.13834644E+04</pdfrwt>
<totfact> 0.12314942E+01</totfact>
</mgrwt>
</event>
<event>
12    4  0.4424320E-008  0.2399997E+04  0.7818608E-02  0.8439505E-01
         -2   -1    0    0    0  501 -0.00000000000E+00  0.00000000000E+00  0.77560971771E+03  0.77560971771E+03  0.00000000000E+00 0.  1.
          1   -1    0    0  501    0  0.00000000000E+00 -0.00000000000E+00 -0.18565997549E+04  0.18565997549E+04  0.00000000000E+00 0. -1.
        -24    2    1    2    0    0 -0.16829091661E+03 -0.58463225188E+03 -0.13934181057E+04  0.15217155823E+04  0.62350569370E+02 0.  0.
        254    2    1    2    0    0  0.16829091661E+03  0.58463225188E+03  0.31242806855E+03  0.11104938903E+04  0.87491066962E+03 0.  0.
         23    2    4    4    0    0 -0.26265641814E+03  0.26763591549E+03  0.40531625464E+03  0.55977505434E+03  0.91920987443E+02 0.  0.
         23    2    4    4    0    0  0.43094733475E+03  0.31699633639E+03 -0.92888186091E+02  0.55071883596E+03  0.91982273043E+02 0.  0.
          1    1    3    3  502    0 -0.82573214611E+02 -0.38881212887E+03 -0.88257968289E+03  0.96795666431E+03  0.00000000000E+00 0. -1.
         -2    1    3    3    0  502 -0.85717701997E+02 -0.19582012301E+03 -0.51083842280E+03  0.55375891796E+03  0.00000000000E+00 0.  1.
         11    1    5    5    0    0  0.17151236092E+01  0.31709531740E+02  0.33094426668E+02  0.45865860164E+02  0.00000000000E+00 0.  1.
        -11    1    5    5    0    0 -0.26437154175E+03  0.23592638375E+03  0.37222182797E+03  0.51390919417E+03  0.00000000000E+00 0. -1.
          3    1    6    6  503    0  0.27240964054E+03  0.23841145363E+03 -0.31273757158E+02  0.36335255795E+03  0.00000000000E+00 0. -1.
         -3    1    6    6    0  503  0.15853769421E+03  0.78584882763E+02 -0.61614428932E+02  0.18736627801E+03  0.00000000000E+00 0.  1.
<mgrwt>
<rscale>  0 0.23999973E+04</rscale>
<asrwt>0</asrwt>
<pdfrwt beam="1">  1        1 0.28563073E+00 0.23999973E+04</pdfrwt>
<pdfrwt beam="2">  1       -2 0.11932457E+00 0.23999973E+04</pdfrwt>
<totfact> 0.15807397E+00</totfact>
</mgrwt>
</event>
<event>
12    4  0.4424320E-008  0.1678012E+04  0.7818608E-02  0.8774005E-01
         -4   -1    0    0    0  501 -0.00000000000E+00  0.00000000000E+00  0.16196118645E+04  0.16196118645E+04  0.00000000000E+00 0.  1.
          3   -1    0    0  501    0  0.00000000000E+00 -0.00000000000E+00 -0.43462959866E+03  0.43462959866E+03  0.00000000000E+00 0. -1.
        -24    2    1    2    0    0  0.25235781335E+03  0.16791853603E+03 -0.20145628269E+03  0.37250157757E+03  0.79320178740E+02 0.  0.
        254    2    1    2    0    0 -0.25235781335E+03 -0.16791853603E+03  0.13864385485E+04  0.16817398856E+04  0.90230598646E+03 0.  0.
         23    2    4    4    0    0 -0.55675049362E+03 -0.59603239774E+02  0.59479500380E+03  0.82184605237E+03  0.90145321062E+02 0.  0.
         23    2    4    4    0    0  0.30439268027E+03 -0.10831529626E+03  0.79164354470E+03  0.85989383318E+03  0.91273190370E+02 0.  0.
          1    1    3    3  502    0  0.16806413631E+03  0.11994353148E+03 -0.17825295567E+03  0.27277485380E+03  0.00000000000E+00 0. -1.
         -2    1    3    3    0  502  0.84293677036E+02  0.47975004552E+02 -0.23203327024E+02  0.99726723776E+02  0.00000000000E+00 0.  1.
         11    1    5    5    0    0 -0.14588708736E+03 -0.39714248020E+02  0.20850548685E+03  0.25755543442E+03  0.00000000000E+00 0.  1.
        -11    1    5    5    0    0 -0.41086340626E+03 -0.19888991754E+02  0.38628951696E+03  0.56429061795E+03  0.00000000000E+00 0. -1.
          2    1    6    6  503    0  0.22040308832E+03 -0.94273241489E+02  0.66844754072E+03  0.71013173433E+03  0.00000000000E+00 0. -1.
         -2    1    6    6    0  503  0.83989591950E+02 -0.14042054768E+02  0.12319600397E+03  0.14976209885E+03  0.00000000000E+00 0.  1.
<mgrwt>
<rscale>  0 0.16780122E+04</rscale>
<asrwt>0</asrwt>
<pdfrwt beam="1">  1        3 0.66866093E-01 0.16780122E+04</pdfrwt>
<pdfrwt beam="2">  1       -4 0.24917105E+00 0.16780122E+04</pdfrwt>
<totfact> 0.30049224E-01</totfact>
</mgrwt>
</event>
<event>
12    4  0.4424320E-008  0.2010601E+04  0.7818608E-02  0.8601680E-01
          1   -1    0    0  501    0  0.00000000000E+00  0.00000000000E+00  0.10176960689E+04  0.10176960689E+04  0.00000000000E+00 0. -1.
         -2   -1    0    0    0  501 -0.00000000000E+00 -0.00000000000E+00 -0.99305586610E+03  0.99305586610E+03  0.00000000000E+00 0.  1.
        -24    2    1    2    0    0  0.33995693096E+03  0.34338782929E+03 -0.63260842944E+03  0.80008087469E+03  0.80312295607E+02 0.  0.
        254    2    1    2    0    0 -0.33995693096E+03 -0.34338782929E+03  0.65724863223E+03  0.12106710603E+04  0.89457405255E+03 0.  0.
         23    2    4    4    0    0 -0.32793715054E+03  0.20191843290E+03  0.49525814153E+03  0.63407562111E+03  0.91964331536E+02 0.  0.
         23    2    4    4    0    0 -0.12019780420E+02 -0.54530626220E+03  0.16199049070E+03  0.57659543921E+03  0.93370159725E+02 0.  0.
          1    1    3    3  502    0  0.72313912720E+02  0.62775472623E+02 -0.78854782688E+02  0.12404893667E+03  0.00000000000E+00 0. -1.
         -4    1    3    3    0  502  0.26764301825E+03  0.28061235667E+03 -0.55375364675E+03  0.67603193802E+03  0.00000000000E+00 0.  1.
         11    1    5    5    0    0 -0.30472081822E+02  0.11191372800E+02  0.10340286951E+02  0.34069284259E+02  0.00000000000E+00 0. -1.
        -11    1    5    5    0    0 -0.29746506872E+03  0.19072706010E+03  0.48491785458E+03  0.60000633685E+03  0.00000000000E+00 0.  1.
          4    1    6    6  503    0  0.21224090456E+02 -0.11232538539E+03  0.65502667291E+02  0.13174996638E+03  0.00000000000E+00 0. -1.
         -4    1    6    6    0  503 -0.33243870876E+02 -0.43298087680E+03  0.96487823408E+02  0.44484547283E+03  0.00000000000E+00 0.  1.
<mgrwt>
<rscale>  0 0.20106010E+04</rscale>
<asrwt>0</asrwt>
<pdfrwt beam="1">  1        1 0.15656863E+00 0.20106010E+04</pdfrwt>
<pdfrwt beam="2">  1       -2 0.15277783E+00 0.20106010E+04</pdfrwt>
<totfact> 0.33980289E+00</totfact>
</mgrwt>
</event>
<event>
12    4  0.4424320E-008  0.1889858E+04  0.7818608E-02  0.8659921E-01
         -2   -1    0    0    0  501 -0.00000000000E+00  0.00000000000E+00  0.97995562207E+03  0.97995562207E+03  0.00000000000E+00 0.  1.
          1   -1    0    0  501    0  0.00000000000E+00 -0.00000000000E+00 -0.91115477459E+03  0.91115477459E+03  0.00000000000E+00 0. -1.
        -24    2    1    2    0    0 -0.24100390869E+02 -0.71335714231E+03 -0.11410147667E+03  0.72716082389E+03  0.79274683828E+02 0.  0.
        254    2    1    2    0    0  0.24100390869E+02  0.71335714231E+03  0.18290232415E+03  0.11639495728E+04  0.90103612939E+03 0.  0.
         23    2    4    4    0    0  0.19724255015E+03  0.16291847825E+03  0.44700541176E+03  0.52321619232E+03  0.92164481294E+02 0.  0.
         23    2    4    4    0    0 -0.17314215929E+03  0.55043866405E+03 -0.26410308761E+03  0.64073338046E+03  0.88475384936E+02 0.  0.
          1    1    3    3  502    0 -0.13337633702E+02 -0.62449580339E+03 -0.12489364340E+03  0.63700182346E+03  0.00000000000E+00 0. -1.
         -2    1    3    3    0  502 -0.10762757166E+02 -0.88861338914E+02  0.10792166728E+02  0.90159000427E+02  0.00000000000E+00 0.  1.
         11    1    5    5    0    0  0.93818805339E+02  0.24351049115E+02  0.13048042698E+03  0.16254255951E+03  0.00000000000E+00 0. -1.
        -11    1    5    5    0    0  0.10342374482E+03  0.13856742914E+03  0.31652498478E+03  0.36067363281E+03  0.00000000000E+00 0.  1.
          2    1    6    6  503    0 -0.95654656138E+02  0.19879057163E+03 -0.68754886896E+02  0.23107301678E+03  0.00000000000E+00 0. -1.
         -2    1    6    6    0  503 -0.77487503148E+02  0.35164809242E+03 -0.19534820071E+03  0.40966036368E+03  0.00000000000E+00 0.  1.
<mgrwt>
<rscale>  0 0.18898585E+04</rscale>
<asrwt>0</asrwt>
<pdfrwt beam="1">  1        1 0.14017766E+00 0.18898585E+04</pdfrwt>
<pdfrwt beam="2">  1       -2 0.15076240E+00 0.18898585E+04</pdfrwt>
<totfact> 0.43216812E+00</totfact>
</mgrwt>
</event>
<event>
12    4  0.4424320E-008  0.1433125E+04  0.7818608E-02  0.8930184E-01
         -4   -1    0    0    0  501 -0.00000000000E+00  0.00000000000E+00  0.12641663892E+04  0.12641663892E+04  0.00000000000E+00 0.  1.
          1   -1    0    0  501    0  0.00000000000E+00 -0.00000000000E+00 -0.40616640824E+03  0.40616640824E+03  0.00000000000E+00 0. -1.
        -24    2    1    2    0    0 -0.11034943870E+03  0.45522812972E+03  0.18076831964E+03  0.50820792641E+03  0.78666780612E+02 0.  0.
        254    2    1    2    0    0  0.11034943870E+03 -0.45522812972E+03  0.67723166129E+03  0.11621248710E+04  0.82004990337E+03 0.  0.
         23    2    4    4    0    0 -0.54220548025E+02 -0.50947472381E+03  0.71235693482E+02  0.52518944158E+03  0.90802332028E+02 0.  0.
         23    2    4    4    0    0  0.16456998673E+03  0.54246594088E+02  0.60599596781E+03  0.63693542941E+03  0.91813151204E+02 0.  0.
          3    1    3    3  502    0 -0.71799372531E+02  0.39384976387E+03  0.13501591707E+03  0.42249507010E+03  0.00000000000E+00 0. -1.
         -4    1    3    3    0  502 -0.38550066173E+02  0.61378365848E+02  0.45752402565E+02  0.85712856308E+02  0.00000000000E+00 0.  1.
         11    1    5    5    0    0 -0.67417973848E+02 -0.23081235794E+03  0.17553784762E+02  0.24109679204E+03  0.00000000000E+00 0. -1.
        -11    1    5    5    0    0  0.13197425822E+02 -0.27866236587E+03  0.53681908720E+02  0.28409264954E+03  0.00000000000E+00 0.  1.
          1    1    6    6  503    0  0.57153284630E+02 -0.10224420132E+02  0.99735922070E+02  0.11540489965E+03  0.00000000000E+00 0. -1.
         -1    1    6    6    0  503  0.10741670210E+03  0.64471014220E+02  0.50626004574E+03  0.52153052976E+03  0.00000000000E+00 0.  1.
<mgrwt>
<rscale>  0 0.14331251E+04</rscale>
<asrwt>0</asrwt>
<pdfrwt beam="1">  1        1 0.62487141E-01 0.14331251E+04</pdfrwt>
<pdfrwt beam="2">  1       -4 0.19448713E+00 0.14331251E+04</pdfrwt>
<totfact> 0.39027280E+00</totfact>
</mgrwt>
</event>
<event>
12    4  0.4424320E-008  0.1695636E+04  0.7818608E-02  0.8763857E-01
         -2   -1    0    0    0  501 -0.00000000000E+00  0.00000000000E+00  0.13795864754E+04  0.13795864754E+04  0.00000000000E+00 0.  1.
          1   -1    0    0  501    0  0.00000000000E+00 -0.00000000000E+00 -0.52102249917E+03  0.52102249917E+03  0.00000000000E+00 0. -1.
        -24    2    1    2    0    0 -0.41926291173E+03  0.62910901883E+02  0.77941844444E+03  0.89080689946E+03  0.79401825337E+02 0.  0.
        254    2    1    2    0    0  0.41926291173E+03 -0.62910901883E+02  0.79145531805E+02  0.10098020751E+04  0.91307012053E+03 0.  0.
         23    2    4    4    0    0 -0.14180958686E+03  0.24434623799E+03  0.18959563280E+03  0.35427989634E+03  0.98755749355E+02 0.  0.
         23    2    4    4    0    0  0.56107249859E+03 -0.30725713987E+03 -0.11045010100E+03  0.65552217878E+03  0.91108744880E+02 0.  0.
          1    1    3    3  502    0 -0.32825678210E+02  0.18190887463E+02  0.37320584568E+02  0.52926926693E+02  0.00000000000E+00 0. -1.
         -2    1    3    3    0  502 -0.38643723352E+03  0.44720014419E+02  0.74209785987E+03  0.83787997277E+03  0.00000000000E+00 0.  1.
         11    1    5    5    0    0 -0.13926329195E+03  0.25264166409E+03  0.19026593370E+03  0.34557662023E+03  0.00000000000E+00 0.  1.
        -11    1    5    5    0    0 -0.25462949043E+01 -0.82954260996E+01 -0.67030089549E+00  0.87032761190E+01  0.00000000000E+00 0. -1.
          2    1    6    6  503    0  0.28494981094E+03 -0.17631712728E+03 -0.15227240455E+02  0.33543403670E+03  0.00000000000E+00 0. -1.
         -2    1    6    6    0  503  0.27612268764E+03 -0.13094001260E+03 -0.95222860543E+02  0.32008814208E+03  0.00000000000E+00 0.  1.
<mgrwt>
<rscale>  0 0.16956363E+04</rscale>
<asrwt>0</asrwt>
<pdfrwt beam="1">  1        1 0.80157308E-01 0.16956363E+04</pdfrwt>
<pdfrwt beam="2">  1       -2 0.21224407E+00 0.16956363E+04</pdfrwt>
<totfact> 0.38587071E+00</totfact>
</mgrwt>
</event>
<event>
12    4  0.4424320E-008  0.1706645E+04  0.7818608E-02  0.8757584E-01
         -2   -1    0    0    0  501 -0.00000000000E+00  0.00000000000E+00  0.19337298515E+04  0.19337298515E+04  0.00000000000E+00 0.  1.
          1   -1    0    0  501    0  0.00000000000E+00 -0.00000000000E+00 -0.37655686855E+03  0.37655686855E+03  0.00000000000E+00 0. -1.
        -24    2    1    2    0    0  0.49191533026E+03 -0.34502291455E+03  0.35531144120E+03  0.70258182819E+03  0.79708853657E+02 0.  0.
        254    2    1    2    0    0 -0.49191533026E+03  0.34502291455E+03  0.12018615417E+04  0.16077048919E+04  0.88273571926E+03 0.  0.
         23    2    4    4    0    0 -0.69875751354E+03  0.10114007560E+03  0.65506403571E+03  0.96741387010E+03  0.91045744344E+02 0.  0.
         23    2    4    4    0    0  0.20684218328E+03  0.24388283895E+03  0.54679750603E+03  0.64029102175E+03  0.93394603774E+02 0.  0.
          1    1    3    3  502    0  0.13696448833E+03 -0.56166764292E+02  0.98586444273E+02  0.17785742455E+03  0.00000000000E+00 0. -1.
         -2    1    3    3    0  502  0.35495084193E+03 -0.28885615026E+03  0.25672499693E+03  0.52472440364E+03  0.00000000000E+00 0.  1.
         11    1    5    5    0    0 -0.35205051841E+03  0.34708888056E+02  0.38574666047E+03  0.52339732564E+03  0.00000000000E+00 0.  1.
        -11    1    5    5    0    0 -0.34670699513E+03  0.66431187539E+02  0.26931737524E+03  0.44401654446E+03  0.00000000000E+00 0. -1.
          2    1    6    6  503    0  0.36397943787E+02  0.50644355480E+01  0.91959961538E+02  0.99030769691E+02  0.00000000000E+00 0.  1.
         -2    1    6    6    0  503  0.17044423949E+03  0.23881840340E+03  0.45483754450E+03  0.54126025206E+03  0.00000000000E+00 0. -1.
<mgrwt>
<rscale>  0 0.17066450E+04</rscale>
<asrwt>0</asrwt>
<pdfrwt beam="1">  1        1 0.57931827E-01 0.17066450E+04</pdfrwt>
<pdfrwt beam="2">  1       -2 0.29749689E+00 0.17066450E+04</pdfrwt>
<totfact> 0.17837260E+00</totfact>
</mgrwt>
</event>
<event>
12    4  0.4424320E-008  0.2792738E+04  0.7818608E-02  0.8305526E-01
          1   -1    0    0  501    0  0.00000000000E+00  0.00000000000E+00  0.99826065046E+03  0.99826065046E+03  0.00000000000E+00 0. -1.
         -2   -1    0    0    0  501 -0.00000000000E+00 -0.00000000000E+00 -0.19532444083E+04  0.19532444083E+04  0.00000000000E+00 0.  1.
        -24    2    1    2    0    0  0.35413927089E+03  0.77887529484E+03 -0.13890959782E+04  0.16336473148E+04  0.84584657283E+02 0.  0.
        254    2    1    2    0    0 -0.35413927089E+03 -0.77887529484E+03  0.43411222038E+03  0.13178577440E+04  0.90345684203E+03 0.  0.
         23    2    4    4    0    0 -0.46611349110E+03 -0.34412329294E+02  0.85529136425E+02  0.48376064301E+03  0.90901768697E+02 0.  0.
         23    2    4    4    0    0  0.11197422021E+03 -0.74446296554E+03  0.34858308396E+03  0.83409710098E+03  0.86281367586E+02 0.  0.
          3    1    3    3  502    0  0.86957149023E+02  0.14185783826E+03 -0.32259263846E+03  0.36297548462E+03  0.00000000000E+00 0. -1.
         -4    1    3    3    0  502  0.26718212187E+03  0.63701745657E+03 -0.10665033398E+04  0.12706718301E+04  0.00000000000E+00 0.  1.
         11    1    5    5    0    0 -0.46084908268E+03 -0.20588192705E+02  0.81797364184E+02  0.46850459920E+03  0.00000000000E+00 0. -1.
        -11    1    5    5    0    0 -0.52644084152E+01 -0.13824136589E+02  0.37317722418E+01  0.15256043801E+02  0.00000000000E+00 0.  1.
          1    1    6    6  503    0  0.10856492520E+03 -0.58531120922E+03  0.24245518195E+03  0.64277528723E+03  0.00000000000E+00 0. -1.
         -1    1    6    6    0  503  0.34092950104E+01 -0.15915175632E+03  0.10612790201E+03  0.19132181375E+03  0.00000000000E+00 0.  1.
<mgrwt>
<rscale>  0 0.27927385E+04</rscale>
<asrwt>0</asrwt>
<pdfrwt beam="1">  1        1 0.15357856E+00 0.27927385E+04</pdfrwt>
<pdfrwt beam="2">  1       -2 0.30049914E+00 0.27927385E+04</pdfrwt>
<totfact> 0.36407072E-01</totfact>
</mgrwt>
</event>
<event>
12    4  0.4424320E-008  0.2342418E+04  0.7818608E-02  0.8461382E-01
         -2   -1    0    0    0  501 -0.00000000000E+00  0.00000000000E+00  0.71392057371E+03  0.71392057371E+03  0.00000000000E+00 0.  1.
          1   -1    0    0  501    0  0.00000000000E+00 -0.00000000000E+00 -0.19214049960E+04  0.19214049960E+04  0.00000000000E+00 0. -1.
        -24    2    1    2    0    0 -0.98712620352E+03  0.41666215316E+02 -0.34942962157E+03  0.10508578944E+04  0.77762706721E+02 0.  0.
        254    2    1    2    0    0  0.98712620352E+03 -0.41666215316E+02 -0.85805480076E+03  0.15844676754E+04  0.89337873160E+03 0.  0.
         23    2    4    4    0    0 -0.74564167167E+02 -0.41088410537E+02  0.93016595086E+02  0.15617524972E+03  0.92144175938E+02 0.  0.
         23    2    4    4    0    0  0.10616903707E+04 -0.57780477879E+00 -0.95107139584E+03  0.14282924257E+04  0.91080602536E+02 0.  0.
          3    1    3    3  502    0 -0.92964616415E+03  0.55524517663E+02 -0.33727470429E+03  0.99049441631E+03  0.00000000000E+00 0. -1.
         -4    1    3    3    0  502 -0.57480039364E+02 -0.13858302347E+02 -0.12154917279E+02  0.60363478058E+02  0.00000000000E+00 0.  1.
         11    1    5    5    0    0  0.32713087876E+01  0.23213548599E+02  0.10084918935E+02  0.25520107556E+02  0.00000000000E+00 0.  1.
        -11    1    5    5    0    0 -0.77835475954E+02 -0.64301959136E+02  0.82931676151E+02  0.13065514217E+03  0.00000000000E+00 0. -1.
          2    1    6    6  503    0  0.10331849063E+04 -0.77740612731E+01 -0.94014879032E+03  0.13969292160E+04  0.00000000000E+00 0. -1.
         -2    1    6    6    0  503  0.28505464426E+02  0.71962564943E+01 -0.10922605525E+02  0.31363209675E+02  0.00000000000E+00 0.  1.
<mgrwt>
<rscale>  0 0.23424180E+04</rscale>
<asrwt>0</asrwt>
<pdfrwt beam="1">  1        1 0.29560077E+00 0.23424180E+04</pdfrwt>
<pdfrwt beam="2">  1       -2 0.10983393E+00 0.23424180E+04</pdfrwt>
<totfact> 0.17578825E+00</totfact>
</mgrwt>
</event>
<event>
12    4  0.4424320E-008  0.1484410E+04  0.7818608E-02  0.8894887E-01
         -2   -1    0    0    0  501 -0.00000000000E+00  0.00000000000E+00  0.16404670833E+03  0.16404670833E+03  0.00000000000E+00 0.  1.
          1   -1    0    0  501    0  0.00000000000E+00 -0.00000000000E+00 -0.33579961197E+04  0.33579961197E+04  0.00000000000E+00 0. -1.
        -24    2    1    2    0    0  0.38090817551E+03 -0.18686147859E+03 -0.60133779065E+03  0.74060677897E+03  0.82963921267E+02 0.  0.
        254    2    1    2    0    0 -0.38090817551E+03  0.18686147859E+03 -0.25926116208E+04  0.27814360491E+04  0.91364283440E+03 0.  0.
         23    2    4    4    0    0  0.27441127447E+03  0.15481443336E+03 -0.11126666657E+04  0.11600473699E+04  0.91726413990E+02 0.  0.
         23    2    4    4    0    0 -0.65531944998E+03  0.32047045231E+02 -0.14799449550E+04  0.16213886792E+04  0.90518421116E+02 0.  0.
          1    1    3    3  502    0  0.31274197879E+03 -0.13517196640E+03 -0.42577557805E+03  0.54531078172E+03  0.00000000000E+00 0. -1.
         -2    1    3    3    0  502  0.68166196721E+02 -0.51689512185E+02 -0.17556221261E+03  0.19529599725E+03  0.00000000000E+00 0.  1.
         11    1    5    5    0    0  0.20851688802E+03  0.74750207991E+02 -0.82666500014E+03  0.85582820043E+03  0.00000000000E+00 0. -1.
        -11    1    5    5    0    0  0.65894386450E+02  0.80064225364E+02 -0.28600166561E+03  0.30421916948E+03  0.00000000000E+00 0.  1.
          1    1    6    6  503    0 -0.36630686659E+03  0.22388013157E+02 -0.71662087360E+03  0.80512571697E+03  0.00000000000E+00 0. -1.
         -1    1    6    6    0  503 -0.28901258339E+03  0.96590320737E+01 -0.76332408141E+03  0.81626296224E+03  0.00000000000E+00 0.  1.
<mgrwt>
<rscale>  0 0.14844099E+04</rscale>
<asrwt>0</asrwt>
<pdfrwt beam="1">  1        1 0.51661476E+00 0.14844099E+04</pdfrwt>
<pdfrwt beam="2">  1       -2 0.25237956E-01 0.14844099E+04</pdfrwt>
<totfact> 0.39069204E+00</totfact>
</mgrwt>
</event>
<event>
12    4  0.4424320E-008  0.1920074E+04  0.7818608E-02  0.8644928E-01
         -2   -1    0    0    0  501 -0.00000000000E+00  0.00000000000E+00  0.11552413749E+04  0.11552413749E+04  0.00000000000E+00 0.  1.
          1   -1    0    0  501    0  0.00000000000E+00 -0.00000000000E+00 -0.79781723700E+03  0.79781723700E+03  0.00000000000E+00 0. -1.
        -24    2    1    2    0    0  0.45338818866E+03  0.58850096083E+03  0.26501320652E+03  0.79266879981E+03  0.78724812111E+02 0.  0.
        254    2    1    2    0    0 -0.45338818866E+03 -0.58850096083E+03  0.92410931426E+02  0.11603898121E+04  0.88660617263E+03 0.  0.
         23    2    4    4    0    0 -0.42153235803E+03 -0.76439781160E+03 -0.98896105795E+02  0.88334914463E+03  0.92367355363E+02 0.  0.
         23    2    4    4    0    0 -0.31855830627E+02  0.17589685076E+03  0.19130703722E+03  0.27704066750E+03  0.90546413007E+02 0.  0.
          1    1    3    3  502    0  0.75376128019E+02  0.56145966436E+02  0.38725084547E+02  0.10165413123E+03  0.00000000000E+00 0. -1.
         -2    1    3    3    0  502  0.37801206064E+03  0.53235499440E+03  0.22628812197E+03  0.69101466858E+03  0.00000000000E+00 0.  1.
         11    1    5    5    0    0 -0.92474134489E+02 -0.19636438052E+03 -0.62549851102E+02  0.22588253442E+03  0.00000000000E+00 0.  1.
        -11    1    5    5    0    0 -0.32905822354E+03 -0.56803343108E+03 -0.36346254693E+02  0.65746661020E+03  0.00000000000E+00 0. -1.
          4    1    6    6  503    0 -0.59735337953E+01  0.16963019591E+03  0.18191349742E+03  0.24880234528E+03  0.00000000000E+00 0. -1.
         -4    1    6    6    0  503 -0.25882296832E+02  0.62666548483E+01  0.93935398011E+01  0.28238322228E+02  0.00000000000E+00 0.  1.
<mgrwt>
<rscale>  0 0.19200745E+04</rscale>
<asrwt>0</asrwt>
<pdfrwt beam="1">  1        1 0.12274111E+00 0.19200745E+04</pdfrwt>
<pdfrwt beam="2">  1       -2 0.17772944E+00 0.19200745E+04</pdfrwt>
<totfact> 0.34151721E+00</totfact>
</mgrwt>
</event>
<event>
12    4  0.4424320E-008  0.1501068E+04  0.7818608E-02  0.8883743E-01
          1   -1    0    0  501    0  0.00000000000E+00  0.00000000000E+00  0.52442084729E+03  0.52442084729E+03  0.00000000000E+00 0. -1.
         -2   -1    0    0    0  501 -0.00000000000E+00 -0.00000000000E+00 -0.10741394964E+04  0.10741394964E+04  0.00000000000E+00 0.  1.
        -24    2    1    2    0    0  0.23557349273E+03  0.15740049551E+01 -0.62341043997E+03  0.67072576940E+03  0.75730661551E+02 0.  0.
        254    2    1    2    0    0 -0.23557349273E+03 -0.15740049551E+01  0.73691790822E+02  0.92783457433E+03  0.89439877533E+03 0.  0.
         23    2    4    4    0    0 -0.35643801601E+03  0.15758374813E+03  0.37934648881E+03  0.55156688676E+03  0.91878044537E+02 0.  0.
         23    2    4    4    0    0  0.12086452327E+03 -0.15915775308E+03 -0.30565469798E+03  0.37626768758E+03  0.90626458408E+02 0.  0.
          3    1    3    3  502    0  0.34818340107E+02 -0.26032756017E+02 -0.85666927473E+02  0.96066870754E+02  0.00000000000E+00 0. -1.
         -4    1    3    3    0  502  0.20075515263E+03  0.27606760972E+02 -0.53774351250E+03  0.57465889864E+03  0.00000000000E+00 0.  1.
         11    1    5    5    0    0 -0.29761897302E+03  0.12220560198E+03  0.35409821369E+03  0.47843161183E+03  0.00000000000E+00 0.  1.
        -11    1    5    5    0    0 -0.58819042985E+02  0.35378146145E+02  0.25248275115E+02  0.73135274927E+02  0.00000000000E+00 0. -1.
          4    1    6    6  503    0 -0.26225938721E+00  0.96927555986E+01 -0.26801339119E+02  0.28501404697E+02  0.00000000000E+00 0. -1.
         -4    1    6    6    0  503  0.12112678266E+03 -0.16885050868E+03 -0.27885335886E+03  0.34776628288E+03  0.00000000000E+00 0.  1.
<mgrwt>
<rscale>  0 0.15010678E+04</rscale>
<asrwt>0</asrwt>
<pdfrwt beam="1">  1        1 0.80680132E-01 0.15010678E+04</pdfrwt>
<pdfrwt beam="2">  1       -2 0.16525223E+00 0.15010678E+04</pdfrwt>
<totfact> 0.80833943E+00</totfact>
</mgrwt>
</event>
<event>
12    4  0.4424320E-008  0.2281812E+04  0.7818608E-02  0.8485127E-01
          1   -1    0    0  501    0  0.00000000000E+00  0.00000000000E+00  0.17456895496E+04  0.17456895496E+04  0.00000000000E+00 0. -1.
         -2   -1    0    0    0  501 -0.00000000000E+00 -0.00000000000E+00 -0.74564621523E+03  0.74564621523E+03  0.00000000000E+00 0.  1.
        -24    2    1    2    0    0 -0.54877652267E+03  0.39714892901E+03 -0.32120840281E+03  0.75386700714E+03  0.79105516771E+02 0.  0.
        254    2    1    2    0    0  0.54877652267E+03 -0.39714892901E+03  0.13212517372E+04  0.17374687577E+04  0.90233507486E+03 0.  0.
         23    2    4    4    0    0  0.44897076881E+02  0.22793366343E+03  0.91128163849E+02  0.26587336263E+03  0.91732220476E+02 0.  0.
         23    2    4    4    0    0  0.50387944578E+03 -0.62508259244E+03  0.12301235734E+04  0.14715953951E+04  0.88126374308E+02 0.  0.
          1    1    3    3  502    0 -0.14981046488E+03  0.85807417570E+02 -0.11476049876E+03  0.20730668193E+03  0.00000000000E+00 0. -1.
         -2    1    3    3    0  502 -0.39896605779E+03  0.31134151144E+03 -0.20644790404E+03  0.54656032521E+03  0.00000000000E+00 0.  1.
         11    1    5    5    0    0  0.33452509422E+02  0.20844921761E+03  0.10850483230E+03  0.23736774284E+03  0.00000000000E+00 0. -1.
        -11    1    5    5    0    0  0.11444567459E+02  0.19484445821E+02 -0.17376668451E+02  0.28505619792E+02  0.00000000000E+00 0.  1.
          1    1    6    6  503    0  0.37208728694E+03 -0.50509239853E+03  0.91183807505E+03  0.11068043889E+04  0.00000000000E+00 0. -1.
         -1    1    6    6    0  503  0.13179215884E+03 -0.11999019391E+03  0.31828549831E+03  0.36479100619E+03  0.00000000000E+00 0.  1.
<mgrwt>
<rscale>  0 0.22818123E+04</rscale>
<asrwt>0</asrwt>
<pdfrwt beam="1">  1        1 0.26856762E+00 0.22818123E+04</pdfrwt>
<pdfrwt beam="2">  1       -2 0.11471480E+00 0.22818123E+04</pdfrwt>
<totfact> 0.20924073E+00</totfact>
</mgrwt>
</event>
<event>
12    4  0.4424320E-008  0.1625869E+04  0.7818608E-02  0.8804812E-01
          1   -1    0    0  501    0  0.00000000000E+00  0.00000000000E+00  0.25840631910E+04  0.25840631910E+04  0.00000000000E+00 0. -1.
         -2   -1    0    0    0  501 -0.00000000000E+00 -0.00000000000E+00 -0.25574545586E+03  0.25574545586E+03  0.00000000000E+00 0.  1.
        -24    2    1    2    0    0 -0.47771803395E+03 -0.74842109490E+02  0.40464331000E+03  0.63567578574E+03  0.80818530897E+02 0.  0.
        254    2    1    2    0    0  0.47771803395E+03  0.74842109490E+02  0.19236744252E+04  0.22041328612E+04  0.96117767048E+03 0.  0.
         23    2    4    4    0    0  0.10458707849E+03 -0.42166498513E+03  0.89666172036E+03  0.10005692234E+04  0.91633582480E+02 0.  0.
         23    2    4    4    0    0  0.37313095546E+03  0.49650709462E+03  0.10270127048E+04  0.12035636377E+04  0.89801610578E+02 0.  0.
          1    1    3    3  502    0 -0.33720416930E+03 -0.74591107379E+02  0.32462744006E+03  0.47397622296E+03  0.00000000000E+00 0. -1.
         -2    1    3    3    0  502 -0.14051386465E+03 -0.25100211100E+00  0.80015869942E+02  0.16169956278E+03  0.00000000000E+00 0.  1.
         11    1    5    5    0    0 -0.11172723076E+02 -0.11456192773E+03  0.20888012959E+03  0.23849564685E+03  0.00000000000E+00 0. -1.
        -11    1    5    5    0    0  0.11575980157E+03 -0.30710305740E+03  0.68778159077E+03  0.76207357659E+03  0.00000000000E+00 0.  1.
          3    1    6    6  503    0 -0.16120887278E+01  0.17680740014E+02  0.47101190846E+02  0.50336165693E+02  0.00000000000E+00 0. -1.
         -3    1    6    6    0  503  0.37474304419E+03  0.47882635461E+03  0.97991151398E+03  0.11532274720E+04  0.00000000000E+00 0.  1.
<mgrwt>
<rscale>  0 0.16258689E+04</rscale>
<asrwt>0</asrwt>
<pdfrwt beam="1">  1        1 0.39754817E+00 0.16258689E+04</pdfrwt>
<pdfrwt beam="2">  1       -2 0.39345456E-01 0.16258689E+04</pdfrwt>
<totfact> 0.60941984E+00</totfact>
</mgrwt>
</event>
<event>
12    4  0.4424320E-008  0.1751664E+04  0.7818608E-02  0.8732435E-01
          1   -1    0    0  501    0  0.00000000000E+00  0.00000000000E+00  0.89017133633E+03  0.89017133633E+03  0.00000000000E+00 0. -1.
         -2   -1    0    0    0  501 -0.00000000000E+00 -0.00000000000E+00 -0.86172370923E+03  0.86172370923E+03  0.00000000000E+00 0.  1.
        -24    2    1    2    0    0 -0.40051072640E+03  0.44728800931E+03 -0.20389632885E+03  0.63957708256E+03  0.83724108761E+02 0.  0.
        254    2    1    2    0    0  0.40051072640E+03 -0.44728800931E+03  0.23234395595E+03  0.11123179630E+04  0.90707890049E+03 0.  0.
         23    2    4    4    0    0 -0.14498750474E+01 -0.54840549894E+03  0.36871572372E+03  0.66712384394E+03  0.91390616777E+02 0.  0.
         23    2    4    4    0    0  0.40196060144E+03  0.10111748963E+03 -0.13637176777E+03  0.44519411906E+03  0.88337267195E+02 0.  0.
          1    1    3    3  502    0 -0.23978044358E+02  0.37168666704E+02  0.58660006212E+01  0.44619125485E+02  0.00000000000E+00 0. -1.
         -2    1    3    3    0  502 -0.37653268204E+03  0.41011934260E+03 -0.20976232948E+03  0.59495795708E+03  0.00000000000E+00 0.  1.
         11    1    5    5    0    0  0.35182351684E+02 -0.13014531031E+03  0.70544481437E+02  0.15215821873E+03  0.00000000000E+00 0.  1.
        -11    1    5    5    0    0 -0.36632226731E+02 -0.41826018863E+03  0.29817124228E+03  0.51496562522E+03  0.00000000000E+00 0. -1.
          3    1    6    6  503    0  0.39176725732E+03  0.90359041860E+02 -0.11319414321E+03  0.41768319863E+03  0.00000000000E+00 0. -1.
         -3    1    6    6    0  503  0.10193344120E+02  0.10758447774E+02 -0.23177624557E+02  0.27510920431E+02  0.00000000000E+00 0.  1.
<mgrwt>
<rscale>  0 0.17516641E+04</rscale>
<asrwt>0</asrwt>
<pdfrwt beam="1">  1        1 0.13694944E+00 0.17516641E+04</pdfrwt>
<pdfrwt beam="2">  1       -2 0.13257288E+00 0.17516641E+04</pdfrwt>
<totfact> 0.63593206E+00</totfact>
</mgrwt>
</event>
<event>
12    4  0.4424320E-008  0.3448356E+04  0.7818608E-02  0.8126139E-01
         -2   -1    0    0    0  501 -0.00000000000E+00  0.00000000000E+00  0.99161911758E+03  0.99161911758E+03  0.00000000000E+00 0.  1.
          1   -1    0    0  501    0  0.00000000000E+00 -0.00000000000E+00 -0.29979142796E+04  0.29979142796E+04  0.00000000000E+00 0. -1.
        -24    2    1    2    0    0  0.47320425356E+03 -0.14697510971E+04 -0.42894136960E+03  0.16045454727E+04  0.80529016490E+02 0.  0.
        254    2    1    2    0    0 -0.47320425356E+03  0.14697510971E+04 -0.15773537924E+04  0.23849879244E+04  0.90334481807E+03 0.  0.
         23    2    4    4    0    0 -0.51845972051E+03  0.77964620821E+03 -0.41258140120E+03  0.10273445489E+04  0.92545761002E+02 0.  0.
         23    2    4    4    0    0  0.45255466949E+02  0.69010488887E+03 -0.11647723912E+04  0.13576433755E+04  0.90597995336E+02 0.  0.
          3    1    3    3  502    0  0.45118498607E+02 -0.21588307898E+03 -0.77872978120E+02  0.23389181993E+03  0.00000000000E+00 0. -1.
         -4    1    3    3    0  502  0.42808575495E+03 -0.12538680181E+04 -0.35106839148E+03  0.13706536528E+04  0.00000000000E+00 0.  1.
         11    1    5    5    0    0 -0.26646854856E+02  0.49966096603E+02 -0.50277428110E+02  0.75726385500E+02  0.00000000000E+00 0.  1.
        -11    1    5    5    0    0 -0.49181286565E+03  0.72968011160E+03 -0.36230397309E+03  0.95161816345E+03  0.00000000000E+00 0. -1.
          3    1    6    6  503    0 -0.17050067860E+01  0.54442073540E+03 -0.90666652531E+03  0.10575637249E+04  0.00000000000E+00 0. -1.
         -3    1    6    6    0  503  0.46960473735E+02  0.14568415347E+03 -0.25810586589E+03  0.30007965055E+03  0.00000000000E+00 0.  1.
<mgrwt>
<rscale>  0 0.34483556E+04</rscale>
<asrwt>0</asrwt>
<pdfrwt beam="1">  1        1 0.46121758E+00 0.34483556E+04</pdfrwt>
<pdfrwt beam="2">  1       -2 0.15255679E+00 0.34483556E+04</pdfrwt>
<totfact> 0.12387124E-01</totfact>
</mgrwt>
</event>
<event>
12    4  0.4424320E-008  0.2821528E+04  0.7818608E-02  0.8296616E-01
          1   -1    0    0  501    0  0.00000000000E+00  0.00000000000E+00  0.13411977397E+04  0.13411977397E+04  0.00000000000E+00 0. -1.
         -2   -1    0    0    0  501 -0.00000000000E+00 -0.00000000000E+00 -0.14839384359E+04  0.14839384359E+04  0.00000000000E+00 0.  1.
        -24    2    1    2    0    0  0.12301766114E+04  0.98133409683E+02  0.25441852647E+03  0.12640999222E+04  0.10126779050E+03 0.  0.
        254    2    1    2    0    0 -0.12301766114E+04 -0.98133409683E+02 -0.39715922263E+03  0.15610362534E+04  0.86955970177E+03 0.  0.
         23    2    4    4    0    0  0.41228380233E+02  0.15471639249E+03 -0.15064737877E+03  0.23847879235E+03  0.92415151483E+02 0.  0.
         23    2    4    4    0    0 -0.12714049917E+04 -0.25284980218E+03 -0.24651184385E+03  0.13225574611E+04  0.89367071001E+02 0.  0.
          3    1    3    3  502    0  0.54525458652E+03  0.74500257655E+02  0.15392259649E+03  0.57144117652E+03  0.00000000000E+00 0. -1.
         -4    1    3    3    0  502  0.68492202490E+03  0.23633152028E+02  0.10049592997E+03  0.69265874571E+03  0.00000000000E+00 0.  1.
         11    1    5    5    0    0  0.37479870772E+02  0.16695303227E+03 -0.14577331448E+03  0.22478415182E+03  0.00000000000E+00 0. -1.
        -11    1    5    5    0    0  0.37485094611E+01 -0.12236639778E+02 -0.48740642996E+01  0.13694640522E+02  0.00000000000E+00 0.  1.
          2    1    6    6  503    0 -0.19787368583E+03 -0.25410315508E+02 -0.68023156302E+02  0.21077672896E+03  0.00000000000E+00 0.  1.
         -2    1    6    6    0  503 -0.10735313058E+04 -0.22743948667E+03 -0.17848868755E+03  0.11117807321E+04  0.00000000000E+00 0. -1.
<mgrwt>
<rscale>  0 0.28215279E+04</rscale>
<asrwt>0</asrwt>
<pdfrwt beam="1">  1        1 0.20633811E+00 0.28215279E+04</pdfrwt>
<pdfrwt beam="2">  1       -2 0.22829822E+00 0.28215279E+04</pdfrwt>
<totfact> 0.56199557E-01</totfact>
</mgrwt>
</event>
<event>
12    4  0.4424320E-008  0.1523360E+04  0.7818608E-02  0.8869066E-01
          1   -1    0    0  501    0  0.00000000000E+00  0.00000000000E+00  0.23612759441E+04  0.23612759441E+04  0.00000000000E+00 0. -1.
         -2   -1    0    0    0  501 -0.00000000000E+00 -0.00000000000E+00 -0.24569608249E+03  0.24569608249E+03  0.00000000000E+00 0.  1.
        -24    2    1    2    0    0  0.24194097085E+03  0.10726868222E+02  0.14141300051E+04  0.14368002934E+04  0.77336360663E+02 0.  0.
        254    2    1    2    0    0 -0.24194097085E+03 -0.10726868222E+02  0.70144985649E+03  0.11701717332E+04  0.90477593076E+03 0.  0.
         23    2    4    4    0    0  0.30777355624E+03 -0.16064127807E+03  0.25586313485E+03  0.44093719922E+03  0.91812241759E+02 0.  0.
         23    2    4    4    0    0 -0.54971452709E+03  0.14991440984E+03  0.44558672165E+03  0.72923453396E+03  0.92601768034E+02 0.  0.
          3    1    3    3  502    0  0.23477050652E+03  0.43339743512E+01  0.14009449483E+04  0.14204867906E+04  0.00000000000E+00 0. -1.
         -4    1    3    3    0  502  0.71704643250E+01  0.63928938711E+01  0.13185056777E+02  0.16313502779E+02  0.00000000000E+00 0.  1.
         11    1    5    5    0    0  0.13592926954E+03 -0.96599335181E+02  0.17104813356E+03  0.23888420180E+03  0.00000000000E+00 0. -1.
        -11    1    5    5    0    0  0.17184428671E+03 -0.64041942886E+02  0.84815001286E+02  0.20205299742E+03  0.00000000000E+00 0.  1.
          3    1    6    6  503    0 -0.11752399266E+03  0.72780901789E+02  0.10480811976E+03  0.17347533105E+03  0.00000000000E+00 0. -1.
         -3    1    6    6    0  503 -0.43219053443E+03  0.77133508055E+02  0.34077860188E+03  0.55575920291E+03  0.00000000000E+00 0.  1.
<mgrwt>
<rscale>  0 0.15233598E+04</rscale>
<asrwt>0</asrwt>
<pdfrwt beam="1">  1        1 0.36327321E+00 0.15233598E+04</pdfrwt>
<pdfrwt beam="2">  1       -2 0.37799399E-01 0.15233598E+04</pdfrwt>
<totfact> 0.94756385E+00</totfact>
</mgrwt>
</event>
<event>
12    4  0.4424320E-008  0.1616413E+04  0.7818608E-02  0.8810528E-01
          1   -1    0    0  501    0  0.00000000000E+00  0.00000000000E+00  0.19878352492E+04  0.19878352492E+04  0.00000000000E+00 0. -1.
         -2   -1    0    0    0  501 -0.00000000000E+00 -0.00000000000E+00 -0.32859758362E+03  0.32859758362E+03  0.00000000000E+00 0.  1.
        -24    2    1    2    0    0  0.23028801599E+03 -0.22815072165E+03  0.12074394522E+04  0.12526700595E+04  0.78657009472E+02 0.  0.
        254    2    1    2    0    0 -0.23028801599E+03  0.22815072165E+03  0.45179821330E+03  0.10637627732E+04  0.90685406218E+03 0.  0.
         23    2    4    4    0    0 -0.39264428776E+03  0.46363735744E+03  0.13848782424E+03  0.62976302841E+03  0.91068427910E+02 0.  0.
         23    2    4    4    0    0  0.16235627177E+03 -0.23548663578E+03  0.31331038907E+03  0.43399974483E+03  0.91536134968E+02 0.  0.
          1    1    3    3  502    0  0.12406654020E+03 -0.91935335460E+02  0.69333071263E+03  0.71031830145E+03  0.00000000000E+00 0. -1.
         -2    1    3    3    0  502  0.10622147579E+03 -0.13621538619E+03  0.51410873961E+03  0.54235175808E+03  0.00000000000E+00 0.  1.
         11    1    5    5    0    0 -0.10329223698E+03  0.16574726509E+03  0.12113507667E+02  0.19567365478E+03  0.00000000000E+00 0. -1.
        -11    1    5    5    0    0 -0.28935205078E+03  0.29789009235E+03  0.12637431657E+03  0.43408937363E+03  0.00000000000E+00 0.  1.
          3    1    6    6  503    0  0.15907147108E+03 -0.16357077330E+03  0.24421666315E+03  0.33421685976E+03  0.00000000000E+00 0.  1.
         -3    1    6    6    0  503  0.32848006878E+01 -0.71915862485E+02  0.69093725920E+02  0.99782885075E+02  0.00000000000E+00 0. -1.
<mgrwt>
<rscale>  0 0.16164131E+04</rscale>
<asrwt>0</asrwt>
<pdfrwt beam="1">  1        1 0.30582080E+00 0.16164131E+04</pdfrwt>
<pdfrwt beam="2">  1       -2 0.50553476E-01 0.16164131E+04</pdfrwt>
<totfact> 0.94575178E+00</totfact>
</mgrwt>
</event>
<event>
12    4  0.4424320E-008  0.2776823E+04  0.7818608E-02  0.8310500E-01
          1   -1    0    0  501    0  0.00000000000E+00  0.00000000000E+00  0.19914091071E+04  0.19914091071E+04  0.00000000000E+00 0. -1.
         -2   -1    0    0    0  501 -0.00000000000E+00 -0.00000000000E+00 -0.96800117705E+03  0.96800117705E+03  0.00000000000E+00 0.  1.
        -24    2    1    2    0    0 -0.87227218676E+02 -0.12284079066E+04  0.29051201928E+03  0.12678244513E+04  0.79918916837E+02 0.  0.
        254    2    1    2    0    0  0.87227218676E+02  0.12284079066E+04  0.73289591081E+03  0.16915858329E+04  0.89873891713E+03 0.  0.
         23    2    4    4    0    0 -0.19540994705E+03  0.11403397278E+04  0.74935491360E+03  0.13814735321E+04  0.91523718275E+02 0.  0.
         23    2    4    4    0    0  0.28263716572E+03  0.88068178774E+02 -0.16459002789E+02  0.31011230079E+03  0.90878868643E+02 0.  0.
          1    1    3    3  502    0 -0.30106046299E+02 -0.36222932079E+03  0.12318105468E+03  0.38378382860E+03  0.00000000000E+00 0. -1.
         -2    1    3    3    0  502 -0.57121172377E+02 -0.86617858583E+03  0.16733096459E+03  0.88404062271E+03  0.00000000000E+00 0.  1.
         11    1    5    5    0    0 -0.93357795729E+02  0.77517498738E+03  0.52582459785E+03  0.94133067876E+03  0.00000000000E+00 0. -1.
        -11    1    5    5    0    0 -0.10205215132E+03  0.36516474047E+03  0.22353031575E+03  0.44014285332E+03  0.00000000000E+00 0.  1.
          4    1    6    6  503    0  0.27422133843E+03  0.79423569394E+02  0.49538391955E+01  0.28553456244E+03  0.00000000000E+00 0. -1.
         -4    1    6    6    0  503  0.84158272939E+01  0.86446093792E+01 -0.21412841984E+02  0.24577738346E+02  0.00000000000E+00 0.  1.
<mgrwt>
<rscale>  0 0.27768229E+04</rscale>
<asrwt>0</asrwt>
<pdfrwt beam="1">  1        1 0.30637063E+00 0.27768229E+04</pdfrwt>
<pdfrwt beam="2">  1       -2 0.14892326E+00 0.27768229E+04</pdfrwt>
<totfact> 0.70328475E-01</totfact>
</mgrwt>
</event>
<event>
12    4  0.4424320E-008  0.2198621E+04  0.7818608E-02  0.8519002E-01
         -2   -1    0    0    0  501 -0.00000000000E+00  0.00000000000E+00  0.30137609553E+04  0.30137609553E+04  0.00000000000E+00 0.  1.
          1   -1    0    0  501    0  0.00000000000E+00 -0.00000000000E+00 -0.40098848583E+03  0.40098848583E+03  0.00000000000E+00 0. -1.
        -24    2    1    2    0    0  0.20167855709E+03 -0.77994821822E+03  0.41558517394E+03  0.91002048164E+03  0.80204592867E+02 0.  0.
        254    2    1    2    0    0 -0.20167855709E+03  0.77994821822E+03  0.21971872955E+04  0.25047289594E+04  0.89277191115E+03 0.  0.
         23    2    4    4    0    0 -0.34156703452E+03  0.53617998980E+03  0.20962633311E+04  0.21924580117E+04  0.91625101209E+02 0.  0.
         23    2    4    4    0    0  0.13988847742E+03  0.24376822842E+03  0.10092396438E+03  0.31227094775E+03  0.91300399341E+02 0.  0.
          3    1    3    3  502    0  0.11936735461E+03 -0.52659892747E+03  0.31600687885E+03  0.62563195510E+03  0.00000000000E+00 0. -1.
         -4    1    3    3    0  502  0.82311202480E+02 -0.25334929075E+03  0.99578295086E+02  0.28438852654E+03  0.00000000000E+00 0.  1.
         11    1    5    5    0    0 -0.33527732145E+03  0.53763897958E+03  0.20482831724E+04  0.21440453608E+04  0.00000000000E+00 0. -1.
        -11    1    5    5    0    0 -0.62897130633E+01 -0.14589897754E+01  0.47980158669E+02  0.48412650904E+02  0.00000000000E+00 0.  1.
          3    1    6    6  503    0  0.12399724979E+03  0.13328425914E+03  0.45483588542E+02  0.18763999712E+03  0.00000000000E+00 0. -1.
         -3    1    6    6    0  503  0.15891227630E+02  0.11048396927E+03  0.55440375833E+02  0.12463095063E+03  0.00000000000E+00 0.  1.
<mgrwt>
<rscale>  0 0.21986209E+04</rscale>
<asrwt>0</asrwt>
<pdfrwt beam="1">  1        1 0.61690538E-01 0.21986209E+04</pdfrwt>
<pdfrwt beam="2">  1       -2 0.46365552E+00 0.21986209E+04</pdfrwt>
<totfact> 0.13458560E-01</totfact>
</mgrwt>
</event>
<event>
12    4  0.4424320E-008  0.1526332E+04  0.7818608E-02  0.8867129E-01
          1   -1    0    0  501    0  0.00000000000E+00  0.00000000000E+00  0.49237499668E+03  0.49237499668E+03  0.00000000000E+00 0. -1.
         -2   -1    0    0    0  501 -0.00000000000E+00 -0.00000000000E+00 -0.11828833145E+04  0.11828833145E+04  0.00000000000E+00 0.  1.
        -24    2    1    2    0    0  0.29530372505E+03  0.10934349509E+02  0.20125028019E+03  0.36638053987E+03  0.80057321290E+02 0.  0.
        254    2    1    2    0    0 -0.29530372505E+03 -0.10934349509E+02 -0.89175859802E+03  0.13088777713E+04  0.91137466120E+03 0.  0.
         23    2    4    4    0    0 -0.19711684637E+03 -0.39849591184E+03 -0.74634160432E+03  0.87350004832E+03  0.91227743592E+02 0.  0.
         23    2    4    4    0    0 -0.98186878678E+02  0.38756156234E+03 -0.14541699370E+03  0.43537772299E+03  0.92536651537E+02 0.  0.
          1    1    3    3  502    0  0.26622475822E+03 -0.59765734687E+01  0.19943188066E+03  0.33269267551E+03  0.00000000000E+00 0. -1.
         -2    1    3    3    0  502  0.29078966833E+02  0.16910922977E+02  0.18183995310E+01  0.33687864356E+02  0.00000000000E+00 0.  1.
         11    1    5    5    0    0 -0.58263433542E+02 -0.88165526129E+02 -0.11325514218E+03  0.15490162980E+03  0.00000000000E+00 0.  1.
        -11    1    5    5    0    0 -0.13885341283E+03 -0.31033038571E+03 -0.63308646214E+03  0.71859841852E+03  0.00000000000E+00 0. -1.
          1    1    6    6  503    0 -0.11363066958E+03  0.32147383097E+03 -0.13498302751E+03  0.36671210886E+03  0.00000000000E+00 0. -1.
         -1    1    6    6    0  503  0.15443790898E+02  0.66087731364E+02 -0.10433966194E+02  0.68665614136E+02  0.00000000000E+00 0.  1.
<mgrwt>
<rscale>  0 0.15263318E+04</rscale>
<asrwt>0</asrwt>
<pdfrwt beam="1">  1        1 0.75750000E-01 0.15263318E+04</pdfrwt>
<pdfrwt beam="2">  1       -2 0.18198205E+00 0.15263318E+04</pdfrwt>
<totfact> 0.67091402E+00</totfact>
</mgrwt>
</event>
<event>
12    4  0.4424320E-008  0.1402750E+04  0.7818608E-02  0.8951830E-01
          1   -1    0    0  501    0  0.00000000000E+00  0.00000000000E+00  0.15039164753E+04  0.15039164753E+04  0.00000000000E+00 0. -1.
         -2   -1    0    0    0  501 -0.00000000000E+00 -0.00000000000E+00 -0.32709741618E+03  0.32709741618E+03  0.00000000000E+00 0.  1.
        -24    2    1    2    0    0  0.13804351731E+02  0.27545914237E+03 -0.42210307484E+02  0.29017122634E+03  0.79682691317E+02 0.  0.
        254    2    1    2    0    0 -0.13804351731E+02 -0.27545914237E+03  0.12190293666E+04  0.15408426651E+04  0.90116326091E+03 0.  0.
         23    2    4    4    0    0  0.14577094359E+03 -0.13289419785E+03 -0.72527546617E+02  0.22850900914E+03  0.89699980056E+02 0.  0.
         23    2    4    4    0    0 -0.15957529532E+03 -0.14256494452E+03  0.12915569132E+04  0.13123336560E+04  0.91166475627E+02 0.  0.
          1    1    3    3  502    0  0.42150364371E+02  0.89439717367E+02 -0.12135324135E+02  0.99616175148E+02  0.00000000000E+00 0. -1.
         -2    1    3    3    0  502 -0.28346012640E+02  0.18601942500E+03 -0.30074983349E+02  0.19055505119E+03  0.00000000000E+00 0.  1.
         11    1    5    5    0    0  0.64690047024E+02 -0.11643045739E+03 -0.53996423303E+02  0.14372357956E+03  0.00000000000E+00 0.  1.
        -11    1    5    5    0    0  0.81080896564E+02 -0.16463740463E+02 -0.18531123314E+02  0.84785429579E+02  0.00000000000E+00 0. -1.
          2    1    6    6  503    0  0.21457627227E+00 -0.15841854794E+01 -0.12830718143E+01  0.20498682617E+01  0.00000000000E+00 0. -1.
         -2    1    6    6    0  503 -0.15978987159E+03 -0.14098075904E+03  0.12928399850E+04  0.13102837877E+04  0.00000000000E+00 0.  1.
<mgrwt>
<rscale>  0 0.14027504E+04</rscale>
<asrwt>0</asrwt>
<pdfrwt beam="1">  1        1 0.23137176E+00 0.14027504E+04</pdfrwt>
<pdfrwt beam="2">  1       -2 0.50322680E-01 0.14027504E+04</pdfrwt>
<totfact> 0.20768012E+01</totfact>
</mgrwt>
</event>
<event>
12    4  0.4424320E-008  0.2457030E+04  0.7818608E-02  0.8418456E-01
          1   -1    0    0  501    0  0.00000000000E+00  0.00000000000E+00  0.14823768426E+04  0.14823768426E+04  0.00000000000E+00 0. -1.
         -2   -1    0    0    0  501 -0.00000000000E+00 -0.00000000000E+00 -0.10181279392E+04  0.10181279392E+04  0.00000000000E+00 0.  1.
        -24    2    1    2    0    0 -0.10742016567E+02 -0.62228866997E+03  0.10754868152E+04  0.12453945458E+04  0.83529068902E+02 0.  0.
        254    2    1    2    0    0  0.10742016567E+02  0.62228866997E+03 -0.61123791170E+03  0.12551102360E+04  0.90240309184E+03 0.  0.
         23    2    4    4    0    0 -0.74594667351E+02  0.83664957648E+03 -0.42830038809E+03  0.94737123514E+03  0.92326358774E+02 0.  0.
         23    2    4    4    0    0  0.85336683918E+02 -0.21436090651E+03 -0.18293752361E+03  0.30773900087E+03  0.89466235255E+02 0.  0.
          3    1    3    3  502    0  0.34999570914E+02 -0.25776941454E+03  0.46916802160E+03  0.53645938666E+03  0.00000000000E+00 0. -1.
         -4    1    3    3    0  502 -0.45741587481E+02 -0.36451925543E+03  0.60631879359E+03  0.70893515914E+03  0.00000000000E+00 0.  1.
         11    1    5    5    0    0 -0.88343355483E+02  0.49779706712E+03 -0.24352492742E+03  0.56116918908E+03  0.00000000000E+00 0. -1.
        -11    1    5    5    0    0  0.13748688132E+02  0.33885250936E+03 -0.18477546067E+03  0.38620204607E+03  0.00000000000E+00 0.  1.
          3    1    6    6  503    0  0.11722397893E+02 -0.20762937019E+02 -0.65356190640E+02  0.69569719139E+02  0.00000000000E+00 0. -1.
         -3    1    6    6    0  503  0.73614286025E+02 -0.19359796949E+03 -0.11758133297E+03  0.23816928173E+03  0.00000000000E+00 0.  1.
<mgrwt>
<rscale>  0 0.24570301E+04</rscale>
<asrwt>0</asrwt>
<pdfrwt beam="1">  1        1 0.22805798E+00 0.24570301E+04</pdfrwt>
<pdfrwt beam="2">  1       -2 0.15663507E+00 0.24570301E+04</pdfrwt>
<totfact> 0.14059083E+00</totfact>
</mgrwt>
</event>
<event>
12    4  0.4424320E-008  0.2986385E+04  0.7818608E-02  0.8247629E-01
          3   -1    0    0  501    0  0.00000000000E+00  0.00000000000E+00  0.22687283233E+04  0.22687283233E+04  0.00000000000E+00 0. -1.
         -4   -1    0    0    0  501 -0.00000000000E+00 -0.00000000000E+00 -0.98276395188E+03  0.98276395188E+03  0.00000000000E+00 0.  1.
        -24    2    1    2    0    0  0.30403521051E+03 -0.82149835140E+03  0.17187041847E+04  0.19306856156E+04  0.79409831155E+02 0.  0.
        254    2    1    2    0    0 -0.30403521051E+03  0.82149835140E+03 -0.43273981327E+03  0.13208066596E+04  0.88880230388E+03 0.  0.
         23    2    4    4    0    0 -0.36056074035E+03  0.64862911180E+02  0.98509574661E+02  0.39008931994E+03  0.90853159035E+02 0.  0.
         23    2    4    4    0    0  0.56525529837E+02  0.75663544022E+03 -0.53124938793E+03  0.93071733963E+03  0.91195006331E+02 0.  0.
          1    1    3    3  502    0  0.23052639412E+03 -0.70439122898E+03  0.14363985583E+04  0.16163385289E+04  0.00000000000E+00 0. -1.
         -2    1    3    3    0  502  0.73508816394E+02 -0.11710712242E+03  0.28230562637E+03  0.31434708666E+03  0.00000000000E+00 0.  1.
         11    1    5    5    0    0 -0.33831583801E+03  0.45575150167E+02  0.68748558567E+02  0.34822559479E+03  0.00000000000E+00 0. -1.
        -11    1    5    5    0    0 -0.22244902341E+02  0.19287761013E+02  0.29761016094E+02  0.41863725157E+02  0.00000000000E+00 0.  1.
          2    1    6    6  503    0  0.11482340054E+02  0.30786027584E+02 -0.54567648078E+01  0.33307655421E+02  0.00000000000E+00 0.  1.
         -2    1    6    6    0  503  0.45043189783E+02  0.72584941264E+03 -0.52579262312E+03  0.89740968420E+03  0.00000000000E+00 0. -1.
<mgrwt>
<rscale>  0 0.29863854E+04</rscale>
<asrwt>0</asrwt>
<pdfrwt beam="1">  1        3 0.34903513E+00 0.29863854E+04</pdfrwt>
<pdfrwt beam="2">  1       -4 0.15119445E+00 0.29863854E+04</pdfrwt>
<totfact> 0.11885202E-02</totfact>
</mgrwt>
</event>
<event>
12    4  0.4424320E-008  0.2672352E+04  0.7818608E-02  0.8344032E-01
         -2   -1    0    0    0  501 -0.00000000000E+00  0.00000000000E+00  0.74282099481E+03  0.74282099481E+03  0.00000000000E+00 0.  1.
          1   -1    0    0  501    0  0.00000000000E+00 -0.00000000000E+00 -0.24034943249E+04  0.24034943249E+04  0.00000000000E+00 0. -1.
        -24    2    1    2    0    0  0.11403963463E+04 -0.18437476353E+03 -0.97815007990E+03  0.15158088197E+04  0.80005741974E+02 0.  0.
        254    2    1    2    0    0 -0.11403963463E+04  0.18437476353E+03 -0.68252325023E+03  0.16305065001E+04  0.92639925493E+03 0.  0.
         23    2    4    4    0    0 -0.32581374044E+03 -0.84620572635E+02 -0.68396124879E+03  0.76785545903E+03  0.92107444559E+02 0.  0.
         23    2    4    4    0    0 -0.81458260591E+03  0.26899533616E+03  0.14379985608E+01  0.86265104106E+03  0.90892453344E+02 0.  0.
          3    1    3    3  502    0  0.56600110092E+02 -0.26417258120E+02 -0.60289000570E+02  0.86811333239E+02  0.00000000000E+00 0. -1.
         -4    1    3    3    0  502  0.10837962363E+04 -0.15795750541E+03 -0.91786107933E+03  0.14289974864E+04  0.00000000000E+00 0.  1.
         11    1    5    5    0    0 -0.21134528674E+02  0.10581942086E+02 -0.95629903675E+02  0.98507483357E+02  0.00000000000E+00 0. -1.
        -11    1    5    5    0    0 -0.30467921177E+03 -0.95202514721E+02 -0.58833134512E+03  0.66934797567E+03  0.00000000000E+00 0.  1.
          1    1    6    6  503    0 -0.20253814337E+03  0.29532942121E+02  0.15630107412E+02  0.20527589836E+03  0.00000000000E+00 0. -1.
         -1    1    6    6    0  503 -0.61204446253E+03  0.23946239404E+03 -0.14192108851E+02  0.65737514269E+03  0.00000000000E+00 0.  1.
<mgrwt>
<rscale>  0 0.26723518E+04</rscale>
<asrwt>0</asrwt>
<pdfrwt beam="1">  1        1 0.36976835E+00 0.26723518E+04</pdfrwt>
<pdfrwt beam="2">  1       -2 0.11428015E+00 0.26723518E+04</pdfrwt>
<totfact> 0.72784027E-01</totfact>
</mgrwt>
</event>
<event>
12    4  0.4424320E-008  0.1503733E+04  0.7818608E-02  0.8881975E-01
          1   -1    0    0  501    0  0.00000000000E+00  0.00000000000E+00  0.10213994932E+04  0.10213994932E+04  0.00000000000E+00 0. -1.
         -2   -1    0    0    0  501 -0.00000000000E+00 -0.00000000000E+00 -0.55345917190E+03  0.55345917190E+03  0.00000000000E+00 0.  1.
        -24    2    1    2    0    0 -0.36735364431E+02 -0.15860201330E+01  0.64990678053E+03  0.65574658509E+03  0.79200745078E+02 0.  0.
        254    2    1    2    0    0  0.36735364431E+02  0.15860201330E+01 -0.18196645921E+03  0.91911208003E+03  0.90016844030E+03 0.  0.
         23    2    4    4    0    0 -0.48045075761E+02 -0.43397764916E+03 -0.12278086177E+03  0.46304708148E+03  0.93233740538E+02 0.  0.
         23    2    4    4    0    0  0.84780440192E+02  0.43556366929E+03 -0.59185597440E+02  0.45606499855E+03  0.87114378342E+02 0.  0.
          3    1    3    3  502    0  0.18210227422E+02 -0.20569496460E+02  0.15254486755E+03  0.15499888123E+03  0.00000000000E+00 0. -1.
         -4    1    3    3    0  502 -0.54945591852E+02  0.18983476327E+02  0.49736191299E+03  0.50074770387E+03  0.00000000000E+00 0.  1.
         11    1    5    5    0    0 -0.76299594246E+02 -0.30789187740E+03 -0.90515465139E+02  0.32986676959E+03  0.00000000000E+00 0.  1.
        -11    1    5    5    0    0  0.28254518485E+02 -0.12608577176E+03 -0.32265396636E+02  0.13318031189E+03  0.00000000000E+00 0. -1.
          3    1    6    6  503    0 -0.12091603795E+02  0.72553396305E+02  0.93686972509E+01  0.74148328949E+02  0.00000000000E+00 0. -1.
         -3    1    6    6    0  503  0.96872043987E+02  0.36301027299E+03 -0.68554294691E+02  0.38191666960E+03  0.00000000000E+00 0.  1.
<mgrwt>
<rscale>  0 0.15037326E+04</rscale>
<asrwt>0</asrwt>
<pdfrwt beam="1">  1        1 0.15713838E+00 0.15037326E+04</pdfrwt>
<pdfrwt beam="2">  1       -2 0.85147565E-01 0.15037326E+04</pdfrwt>
<totfact> 0.14816738E+01</totfact>
</mgrwt>
</event>
<event>
12    4  0.4424320E-008  0.2098114E+04  0.7818608E-02  0.8562075E-01
         -2   -1    0    0    0  501 -0.00000000000E+00  0.00000000000E+00  0.95889123175E+03  0.95889123175E+03  0.00000000000E+00 0.  1.
          1   -1    0    0  501    0  0.00000000000E+00 -0.00000000000E+00 -0.11477010181E+04  0.11477010181E+04  0.00000000000E+00 0. -1.
        -24    2    1    2    0    0  0.52569677087E+03 -0.94382489267E+02  0.60989158088E+03  0.81509941243E+03  0.84582282656E+02 0.  0.
        254    2    1    2    0    0 -0.52569677087E+03  0.94382489267E+02 -0.79870136722E+03  0.12914928374E+04  0.86299752369E+03 0.  0.
         23    2    4    4    0    0 -0.52996625551E+03 -0.77841807106E+02 -0.83125461571E+02  0.54960489724E+03  0.90731040958E+02 0.  0.
         23    2    4    4    0    0  0.42694846432E+01  0.17222429637E+03 -0.71557590565E+03  0.74188794017E+03  0.93109624984E+02 0.  0.
          1    1    3    3  502    0  0.16351006808E+03 -0.55953779861E+02  0.15312321567E+03  0.23089626896E+03  0.00000000000E+00 0. -1.
         -2    1    3    3    0  502  0.36218670279E+03 -0.38428709406E+02  0.45676836521E+03  0.58420314347E+03  0.00000000000E+00 0.  1.
         11    1    5    5    0    0 -0.43512372021E+03 -0.81827974658E+02 -0.37652732741E+02  0.44434918432E+03  0.00000000000E+00 0. -1.
        -11    1    5    5    0    0 -0.94842535302E+02  0.39861675515E+01 -0.45472728830E+02  0.10525571292E+03  0.00000000000E+00 0.  1.
          3    1    6    6  503    0  0.27248151408E+02  0.17055099880E+03 -0.62451916531E+03  0.64796164454E+03  0.00000000000E+00 0. -1.
         -3    1    6    6    0  503 -0.22978666765E+02  0.16732975754E+01 -0.91056740338E+02  0.93926295637E+02  0.00000000000E+00 0.  1.
<mgrwt>
<rscale>  0 0.20981139E+04</rscale>
<asrwt>0</asrwt>
<pdfrwt beam="1">  1        1 0.17656939E+00 0.20981139E+04</pdfrwt>
<pdfrwt beam="2">  1       -2 0.14752173E+00 0.20981139E+04</pdfrwt>
<totfact> 0.29501630E+00</totfact>
</mgrwt>
</event>
<event>
12    4  0.4424320E-008  0.1577867E+04  0.7818608E-02  0.8834262E-01
         -2   -1    0    0    0  501 -0.00000000000E+00  0.00000000000E+00  0.12083450657E+04  0.12083450657E+04  0.00000000000E+00 0.  1.
          1   -1    0    0  501    0  0.00000000000E+00 -0.00000000000E+00 -0.51509768840E+03  0.51509768840E+03  0.00000000000E+00 0. -1.
        -24    2    1    2    0    0 -0.41440527619E+03 -0.28585323110E+03  0.13646989699E+03  0.52692988891E+03  0.74748059338E+02 0.  0.
        254    2    1    2    0    0  0.41440527619E+03  0.28585323110E+03  0.55677748032E+03  0.11965128652E+04  0.93177146948E+03 0.  0.
         23    2    4    4    0    0  0.56154222171E+03 -0.39536292621E+02  0.59767303380E+03  0.82596658335E+03  0.90083052211E+02 0.  0.
         23    2    4    4    0    0 -0.14713694551E+03  0.32538952372E+03 -0.40895553483E+02  0.37054628184E+03  0.90024873281E+02 0.  0.
          1    1    3    3  502    0 -0.22487994223E+03 -0.16141425038E+03  0.36747723531E+02  0.27924173010E+03  0.00000000000E+00 0. -1.
         -2    1    3    3    0  502 -0.18952533396E+03 -0.12443898072E+03  0.99722173456E+02  0.24768815881E+03  0.00000000000E+00 0.  1.
         11    1    5    5    0    0  0.93616431401E+02  0.26228260290E+02  0.91356226353E+02  0.13340883764E+03  0.00000000000E+00 0.  1.
        -11    1    5    5    0    0  0.46792579031E+03 -0.65764552910E+02  0.50631680745E+03  0.69255774572E+03  0.00000000000E+00 0. -1.
          4    1    6    6  503    0 -0.61030789763E+02  0.20175788280E+03 -0.58773662164E+02  0.21882720109E+03  0.00000000000E+00 0. -1.
         -4    1    6    6    0  503 -0.86106155752E+02  0.12363164092E+03  0.17878108681E+02  0.15171908075E+03  0.00000000000E+00 0.  1.
<mgrwt>
<rscale>  0 0.15778666E+04</rscale>
<asrwt>0</asrwt>
<pdfrwt beam="1">  1        1 0.79245798E-01 0.15778666E+04</pdfrwt>
<pdfrwt beam="2">  1       -2 0.18589924E+00 0.15778666E+04</pdfrwt>
<totfact> 0.59025132E+00</totfact>
</mgrwt>
</event>
<event>
12    4  0.4424320E-008  0.1607152E+04  0.7818608E-02  0.8816166E-01
         -2   -1    0    0    0  501 -0.00000000000E+00  0.00000000000E+00  0.61172190617E+03  0.61172190617E+03  0.00000000000E+00 0.  1.
          1   -1    0    0  501    0  0.00000000000E+00 -0.00000000000E+00 -0.10556013829E+04  0.10556013829E+04  0.00000000000E+00 0. -1.
        -24    2    1    2    0    0  0.25773487126E+03 -0.34802899768E+03 -0.48617766151E+03  0.65595898043E+03  0.79762261593E+02 0.  0.
        254    2    1    2    0    0 -0.25773487126E+03  0.34802899768E+03  0.42298184756E+02  0.10113643087E+04  0.91297162131E+03 0.  0.
         23    2    4    4    0    0 -0.27629651607E+03 -0.20550457143E+03  0.22607946980E+03  0.42077081043E+03  0.85815235067E+02 0.  0.
         23    2    4    4    0    0  0.18561644809E+02  0.55353356911E+03 -0.18378128505E+03  0.59059349823E+03  0.91000948528E+02 0.  0.
          3    1    3    3  502    0  0.15057976653E+03 -0.14272509929E+03 -0.20468864115E+03  0.29144838286E+03  0.00000000000E+00 0. -1.
         -2    1    3    3    0  502  0.10715510474E+03 -0.20530389839E+03 -0.28148902036E+03  0.36451059758E+03  0.00000000000E+00 0.  1.
         11    1    5    5    0    0 -0.85559345103E+02 -0.11153638811E+03  0.11018027377E+03  0.17860699912E+03  0.00000000000E+00 0. -1.
        -11    1    5    5    0    0 -0.19073717097E+03 -0.93968183325E+02  0.11589919603E+03  0.24216381131E+03  0.00000000000E+00 0.  1.
          4    1    6    6  503    0 -0.29081460199E+02  0.13108156798E+03 -0.65040413596E+02  0.14919237310E+03  0.00000000000E+00 0. -1.
         -4    1    6    6    0  503  0.47643105008E+02  0.42245200113E+03 -0.11874087145E+03  0.44140112513E+03  0.00000000000E+00 0.  1.
<mgrwt>
<rscale>  0 0.16071521E+04</rscale>
<asrwt>0</asrwt>
<pdfrwt beam="1">  1        1 0.16240021E+00 0.16071521E+04</pdfrwt>
<pdfrwt beam="2">  1       -2 0.94111062E-01 0.16071521E+04</pdfrwt>
<totfact> 0.10977044E+01</totfact>
</mgrwt>
</event>
<event>
12    4  0.4424320E-008  0.1708681E+04  0.7818608E-02  0.8756428E-01
         -2   -1    0    0    0  501 -0.00000000000E+00  0.00000000000E+00  0.35001793181E+03  0.35001793181E+03  0.00000000000E+00 0.  1.
          1   -1    0    0  501    0  0.00000000000E+00 -0.00000000000E+00 -0.20853160987E+04  0.20853160987E+04  0.00000000000E+00 0. -1.
        -24    2    1    2    0    0 -0.36380138514E+03  0.48760250614E+03 -0.53229379785E+03  0.81228416764E+03  0.79757319066E+02 0.  0.
        254    2    1    2    0    0  0.36380138514E+03 -0.48760250614E+03 -0.12030043690E+04  0.16230498629E+04  0.90386043922E+03 0.  0.
         23    2    4    4    0    0 -0.24186799012E+03 -0.26731734487E+01 -0.54201160490E+03  0.59978673186E+03  0.86372874022E+02 0.  0.
         23    2    4    4    0    0  0.60566937526E+03 -0.48492933270E+03 -0.66099276415E+03  0.10232631310E+04  0.90355692601E+02 0.  0.
          3    1    3    3  502    0 -0.12563930779E+02  0.41515436291E+02 -0.58317752958E+02  0.72679736633E+02  0.00000000000E+00 0. -1.
         -4    1    3    3    0  502 -0.35123745436E+03  0.44608706985E+03 -0.47397604489E+03  0.73960443101E+03  0.00000000000E+00 0.  1.
         11    1    5    5    0    0 -0.11565266301E+02 -0.18439179854E+02 -0.22539928860E+02  0.31333801737E+02  0.00000000000E+00 0.  1.
        -11    1    5    5    0    0 -0.23030272382E+03  0.15766006405E+02 -0.51947167604E+03  0.56845293012E+03  0.00000000000E+00 0. -1.
          2    1    6    6  503    0  0.76920220850E+02 -0.38950652254E+02 -0.46182154695E+02  0.97809330326E+02  0.00000000000E+00 0.  1.
         -2    1    6    6    0  503  0.52874915441E+03 -0.44597868044E+03 -0.61481060946E+03  0.92545380069E+03  0.00000000000E+00 0. -1.
<mgrwt>
<rscale>  0 0.17086814E+04</rscale>
<asrwt>0</asrwt>
<pdfrwt beam="1">  1        1 0.32081787E+00 0.17086814E+04</pdfrwt>
<pdfrwt beam="2">  1       -2 0.53848912E-01 0.17086814E+04</pdfrwt>
<totfact> 0.70760603E+00</totfact>
</mgrwt>
</event>
<event>
12    4  0.4424320E-008  0.1724137E+04  0.7818608E-02  0.8747717E-01
          1   -1    0    0  501    0  0.00000000000E+00  0.00000000000E+00  0.76277855044E+03  0.76277855044E+03  0.00000000000E+00 0. -1.
         -2   -1    0    0    0  501 -0.00000000000E+00 -0.00000000000E+00 -0.97428261434E+03  0.97428261434E+03  0.00000000000E+00 0.  1.
        -24    2    1    2    0    0 -0.29104255548E+01  0.20310254596E+03 -0.67014366731E+03  0.70464116483E+03  0.78533569801E+02 0.  0.
        254    2    1    2    0    0  0.29104255548E+01 -0.20310254596E+03  0.45863960342E+03  0.10324200000E+04  0.90237556246E+03 0.  0.
         23    2    4    4    0    0  0.20832838904E+03 -0.29465973772E+03 -0.13074563228E+03  0.39491276816E+03  0.92933284580E+02 0.  0.
         23    2    4    4    0    0 -0.20541796348E+03  0.91557191758E+02  0.58938523569E+03  0.63750723180E+03  0.91985082786E+02 0.  0.
          1    1    3    3  502    0  0.26329343154E+00  0.64736765651E+02 -0.10984907885E+03  0.12750583624E+03  0.00000000000E+00 0. -1.
         -2    1    3    3    0  502 -0.31737189863E+01  0.13836578031E+03 -0.56029458846E+03  0.57713532859E+03  0.00000000000E+00 0.  1.
         11    1    5    5    0    0  0.23181677242E+02 -0.35494760156E+02  0.14564006202E+02  0.44826091006E+02  0.00000000000E+00 0. -1.
        -11    1    5    5    0    0  0.18514671180E+03 -0.25916497756E+03 -0.14530963848E+03  0.35008667715E+03  0.00000000000E+00 0.  1.
          3    1    6    6  503    0 -0.11923878208E+03  0.93484584896E+02  0.30862347174E+03  0.34381056132E+03  0.00000000000E+00 0. -1.
         -3    1    6    6    0  503 -0.86179181398E+02 -0.19273931381E+01  0.28076176395E+03  0.29369667047E+03  0.00000000000E+00 0.  1.
<mgrwt>
<rscale>  0 0.17241367E+04</rscale>
<asrwt>0</asrwt>
<pdfrwt beam="1">  1        1 0.11735055E+00 0.17241367E+04</pdfrwt>
<pdfrwt beam="2">  1       -2 0.14988963E+00 0.17241367E+04</pdfrwt>
<totfact> 0.59535027E+00</totfact>
</mgrwt>
</event>
<event>
12    4  0.4424320E-008  0.2096488E+04  0.7818608E-02  0.8562792E-01
         -2   -1    0    0    0  501 -0.00000000000E+00  0.00000000000E+00  0.10393656578E+04  0.10393656578E+04  0.00000000000E+00 0.  1.
          1   -1    0    0  501    0  0.00000000000E+00 -0.00000000000E+00 -0.10571977745E+04  0.10571977745E+04  0.00000000000E+00 0. -1.
        -24    2    1    2    0    0 -0.25637673282E+01  0.39494666409E+02 -0.85978805320E+03  0.86435668036E+03  0.79439114229E+02 0.  0.
        254    2    1    2    0    0  0.25637673282E+01 -0.39494666409E+02  0.84195593655E+03  0.12322067520E+04  0.89881993686E+03 0.  0.
         23    2    4    4    0    0  0.19337354456E+03  0.37294073559E+03  0.33084528338E+03  0.54227072323E+03  0.90115568816E+02 0.  0.
         23    2    4    4    0    0 -0.19080977723E+03 -0.41243540200E+03  0.51111065318E+03  0.68993602873E+03  0.90919151098E+02 0.  0.
          1    1    3    3  502    0  0.65611965151E+01  0.51478384466E+02 -0.30639642199E+03  0.31076010165E+03  0.00000000000E+00 0. -1.
         -2    1    3    3    0  502 -0.91249638433E+01 -0.11983718057E+02 -0.55339163121E+03  0.55359657871E+03  0.00000000000E+00 0.  1.
         11    1    5    5    0    0  0.68867754016E+02  0.14667789330E+03  0.18401883950E+03  0.24519401546E+03  0.00000000000E+00 0. -1.
        -11    1    5    5    0    0  0.12450579054E+03  0.22626284228E+03  0.14682644388E+03  0.29707670777E+03  0.00000000000E+00 0.  1.
          1    1    6    6  503    0 -0.17532738883E+03 -0.35809900957E+03  0.39728066537E+03  0.56285568399E+03  0.00000000000E+00 0. -1.
         -1    1    6    6    0  503 -0.15482388402E+02 -0.54336392424E+02  0.11382998781E+03  0.12708034473E+03  0.00000000000E+00 0.  1.
<mgrwt>
<rscale>  0 0.20964876E+04</rscale>
<asrwt>0</asrwt>
<pdfrwt beam="1">  1        1 0.16264581E+00 0.20964876E+04</pdfrwt>
<pdfrwt beam="2">  1       -2 0.15990241E+00 0.20964876E+04</pdfrwt>
<totfact> 0.27809707E+00</totfact>
</mgrwt>
</event>
<event>
12    4  0.4424320E-008  0.1707026E+04  0.7818608E-02  0.8757367E-01
          1   -1    0    0  501    0  0.00000000000E+00  0.00000000000E+00  0.75030534249E+03  0.75030534249E+03  0.00000000000E+00 0. -1.
         -2   -1    0    0    0  501 -0.00000000000E+00 -0.00000000000E+00 -0.97091765907E+03  0.97091765907E+03  0.00000000000E+00 0.  1.
        -24    2    1    2    0    0  0.37028356524E+03  0.48283013706E+03  0.10455960240E+02  0.61369817981E+03  0.79254456371E+02 0.  0.
        254    2    1    2    0    0 -0.37028356524E+03 -0.48283013706E+03 -0.23106827682E+03  0.11075248218E+04  0.89609364594E+03 0.  0.
         23    2    4    4    0    0 -0.27914771000E+03 -0.61077040154E+03  0.14206155599E+03  0.69252171718E+03  0.91874456057E+02 0.  0.
         23    2    4    4    0    0 -0.91135855238E+02  0.12794026448E+03 -0.37312983282E+03  0.41500310457E+03  0.91253763100E+02 0.  0.
          3    1    3    3  502    0  0.10545228514E+03  0.14858622773E+03  0.38888737276E+02  0.18630723388E+03  0.00000000000E+00 0. -1.
         -4    1    3    3    0  502  0.26483128011E+03  0.33424390934E+03 -0.28432777036E+02  0.42739094593E+03  0.00000000000E+00 0.  1.
         11    1    5    5    0    0 -0.56550986960E+02 -0.57186322980E+02  0.27234308658E+02  0.84911702552E+02  0.00000000000E+00 0. -1.
        -11    1    5    5    0    0 -0.22259672304E+03 -0.55358407856E+03  0.11482724734E+03  0.60761001463E+03  0.00000000000E+00 0.  1.
          3    1    6    6  503    0  0.14658563770E+01  0.51801657116E+02 -0.57678537648E+02  0.77539500386E+02  0.00000000000E+00 0. -1.
         -3    1    6    6    0  503 -0.92601711615E+02  0.76138607363E+02 -0.31545129517E+03  0.33746360418E+03  0.00000000000E+00 0.  1.
<mgrwt>
<rscale>  0 0.17070263E+04</rscale>
<asrwt>0</asrwt>
<pdfrwt beam="1">  1        1 0.11543159E+00 0.17070263E+04</pdfrwt>
<pdfrwt beam="2">  1       -2 0.14937195E+00 0.17070263E+04</pdfrwt>
<totfact> 0.61742689E+00</totfact>
</mgrwt>
</event>
<event>
12    4  0.4424320E-008  0.1683305E+04  0.7818608E-02  0.8770944E-01
         -2   -1    0    0    0  501 -0.00000000000E+00  0.00000000000E+00  0.22971811155E+03  0.22971811155E+03  0.00000000000E+00 0.  1.
          1   -1    0    0  501    0  0.00000000000E+00 -0.00000000000E+00 -0.30836888837E+04  0.30836888837E+04  0.00000000000E+00 0. -1.
        -24    2    1    2    0    0 -0.22564013823E+03  0.25914735665E+03 -0.59832307188E+02  0.35664627193E+03  0.74470355593E+02 0.  0.
        254    2    1    2    0    0  0.22564013823E+03 -0.25914735665E+03 -0.27941384649E+04  0.29567607233E+04  0.90396536940E+03 0.  0.
         23    2    4    4    0    0  0.52042392237E+03 -0.29651997301E+03 -0.22556204793E+04  0.23354065467E+04  0.86803446073E+02 0.  0.
         23    2    4    4    0    0 -0.29478378414E+03  0.37372616357E+02 -0.53851798561E+03  0.62135417658E+03  0.88233780855E+02 0.  0.
          3    1    3    3  502    0 -0.23816752956E+01 -0.27699475377E+01  0.52423457549E+01  0.63896146667E+01  0.00000000000E+00 0. -1.
         -4    1    3    3    0  502 -0.22325846293E+03  0.26191730419E+03 -0.65074652943E+02  0.35025665727E+03  0.00000000000E+00 0.  1.
         11    1    5    5    0    0  0.29357260274E+02 -0.26674835649E+02 -0.87835427011E+02  0.96376645645E+02  0.00000000000E+00 0.  1.
        -11    1    5    5    0    0  0.49106666210E+03 -0.26984513736E+03 -0.21677850523E+04  0.22390299010E+04  0.00000000000E+00 0. -1.
          1    1    6    6  503    0 -0.26113958658E+03  0.56866970692E+02 -0.43230507917E+03  0.50824739794E+03  0.00000000000E+00 0. -1.
         -1    1    6    6    0  503 -0.33644197559E+02 -0.19494354336E+02 -0.10621290644E+03  0.11310677864E+03  0.00000000000E+00 0.  1.
<mgrwt>
<rscale>  0 0.16833053E+04</rscale>
<asrwt>0</asrwt>
<pdfrwt beam="1">  1        1 0.47441364E+00 0.16833053E+04</pdfrwt>
<pdfrwt beam="2">  1       -2 0.35341250E-01 0.16833053E+04</pdfrwt>
<totfact> 0.32809940E+00</totfact>
</mgrwt>
</event>
<event>
12    4  0.4424320E-008  0.1822762E+04  0.7818608E-02  0.8694288E-01
          1   -1    0    0  501    0  0.00000000000E+00  0.00000000000E+00  0.90360989274E+03  0.90360989274E+03  0.00000000000E+00 0. -1.
         -2   -1    0    0    0  501 -0.00000000000E+00 -0.00000000000E+00 -0.91921887685E+03  0.91921887685E+03  0.00000000000E+00 0.  1.
        -24    2    1    2    0    0 -0.50011971285E+03 -0.10657262803E+03 -0.46301292539E+03  0.69436699041E+03  0.79291210532E+02 0.  0.
        254    2    1    2    0    0  0.50011971285E+03  0.10657262803E+03  0.44740394128E+03  0.11284617792E+04  0.90098737404E+03 0.  0.
         23    2    4    4    0    0  0.48917202476E+03  0.34764355118E+03  0.57978933756E+03  0.83964924300E+03  0.93326667356E+02 0.  0.
         23    2    4    4    0    0  0.10947688092E+02 -0.24107092316E+03 -0.13238539627E+03  0.28881253619E+03  0.87474259339E+02 0.  0.
          1    1    3    3  502    0 -0.33292110300E+02 -0.17800583769E+02 -0.61951851028E+02  0.72548309674E+02  0.00000000000E+00 0. -1.
         -2    1    3    3    0  502 -0.46682760255E+03 -0.88772044257E+02 -0.40106107436E+03  0.62181868074E+03  0.00000000000E+00 0.  1.
         11    1    5    5    0    0  0.92195239601E+02  0.36047170225E+02  0.13178278519E+03  0.16482130675E+03  0.00000000000E+00 0. -1.
        -11    1    5    5    0    0  0.39697678516E+03  0.31159638096E+03  0.44800655237E+03  0.67482793625E+03  0.00000000000E+00 0.  1.
          1    1    6    6  503    0 -0.31428595145E+02 -0.41050187385E+02 -0.34291226120E+02  0.62038396706E+02  0.00000000000E+00 0. -1.
         -1    1    6    6    0  503  0.42376283237E+02 -0.20002073577E+03 -0.98094170154E+02  0.22677413948E+03  0.00000000000E+00 0.  1.
<mgrwt>
<rscale>  0 0.18227619E+04</rscale>
<asrwt>0</asrwt>
<pdfrwt beam="1">  1        1 0.13901691E+00 0.18227619E+04</pdfrwt>
<pdfrwt beam="2">  1       -2 0.14141829E+00 0.18227619E+04</pdfrwt>
<totfact> 0.52174848E+00</totfact>
</mgrwt>
</event>
<event>
12    4  0.4424320E-008  0.1281827E+04  0.7818608E-02  0.9044102E-01
          1   -1    0    0  501    0  0.00000000000E+00  0.00000000000E+00  0.12704143216E+04  0.12704143216E+04  0.00000000000E+00 0. -1.
         -2   -1    0    0    0  501 -0.00000000000E+00 -0.00000000000E+00 -0.32333560860E+03  0.32333560860E+03  0.00000000000E+00 0.  1.
        -24    2    1    2    0    0  0.75201840302E+02  0.33684384825E+03  0.31838018645E+03  0.47622407272E+03  0.79399807491E+02 0.  0.
        254    2    1    2    0    0 -0.75201840302E+02 -0.33684384825E+03  0.62869852658E+03  0.11175258575E+04  0.85701990059E+03 0.  0.
         23    2    4    4    0    0  0.30194801353E+02 -0.57624499513E+03  0.60181292390E+03  0.83864948819E+03  0.90466282284E+02 0.  0.
         23    2    4    4    0    0 -0.10539664166E+03  0.23940114689E+03  0.26885602681E+02  0.27887636932E+03  0.92886126685E+02 0.  0.
          1    1    3    3  502    0  0.24270270958E+02  0.22434682362E+03  0.24266453259E+03  0.33137081751E+03  0.00000000000E+00 0. -1.
         -2    1    3    3    0  502  0.50931569345E+02  0.11249702462E+03  0.75715653857E+02  0.14485325521E+03  0.00000000000E+00 0.  1.
         11    1    5    5    0    0 -0.62338408297E+01 -0.48824616179E+03  0.51674540361E+03  0.71094935644E+03  0.00000000000E+00 0. -1.
        -11    1    5    5    0    0  0.36428642182E+02 -0.87998833348E+02  0.85067520288E+02  0.12770013175E+03  0.00000000000E+00 0.  1.
          1    1    6    6  503    0 -0.84427624809E+02  0.11950099842E+03 -0.21508363130E+02  0.14788888443E+03  0.00000000000E+00 0. -1.
         -1    1    6    6    0  503 -0.20969016846E+02  0.11990014847E+03  0.48393965812E+02  0.13098748489E+03  0.00000000000E+00 0.  1.
<mgrwt>
<rscale>  0 0.12818271E+04</rscale>
<asrwt>0</asrwt>
<pdfrwt beam="1">  1        1 0.19544836E+00 0.12818271E+04</pdfrwt>
<pdfrwt beam="2">  1       -2 0.49743940E-01 0.12818271E+04</pdfrwt>
<totfact> 0.31344699E+01</totfact>
</mgrwt>
</event>
<event>
12    4  0.4424320E-008  0.1999183E+04  0.7818608E-02  0.8607003E-01
          1   -1    0    0  501    0  0.00000000000E+00  0.00000000000E+00  0.10452790571E+04  0.10452790571E+04  0.00000000000E+00 0. -1.
         -2   -1    0    0    0  501 -0.00000000000E+00 -0.00000000000E+00 -0.95590090816E+03  0.95590090816E+03  0.00000000000E+00 0.  1.
        -24    2    1    2    0    0 -0.75483382632E+02 -0.49139787314E+03 -0.61136294025E+03  0.79205856869E+03  0.80140631054E+02 0.  0.
        254    2    1    2    0    0  0.75483382632E+02  0.49139787314E+03  0.70074108923E+03  0.12091213966E+04  0.85074488939E+03 0.  0.
         23    2    4    4    0    0  0.24861070387E+03  0.64475162213E+03  0.65472968333E+03  0.95614285451E+03  0.89589417257E+02 0.  0.
         23    2    4    4    0    0 -0.17312732124E+03 -0.15335374899E+03  0.46011405905E+02  0.25297854210E+03  0.91600499996E+02 0.  0.
          3    1    3    3  502    0 -0.32100924036E+02 -0.83344227258E+02 -0.74353700294E+02  0.11621188532E+03  0.00000000000E+00 0. -1.
         -4    1    3    3    0  502 -0.43382458596E+02 -0.40805364588E+03 -0.53700923996E+03  0.67584668338E+03  0.00000000000E+00 0.  1.
         11    1    5    5    0    0  0.22940521582E+02  0.18366898780E+02  0.15794502028E+02  0.33362805571E+02  0.00000000000E+00 0. -1.
        -11    1    5    5    0    0  0.22567018229E+03  0.62638472335E+03  0.63893518130E+03  0.92278004894E+03  0.00000000000E+00 0.  1.
          3    1    6    6  503    0 -0.13075038101E+03 -0.79865483065E+02  0.64366595701E+02  0.16618428374E+03  0.00000000000E+00 0. -1.
         -3    1    6    6    0  503 -0.42376940233E+02 -0.73488265923E+02 -0.18355189796E+02  0.86794258361E+02  0.00000000000E+00 0.  1.
<mgrwt>
<rscale>  0 0.19991830E+04</rscale>
<asrwt>0</asrwt>
<pdfrwt beam="1">  1        1 0.16081216E+00 0.19991830E+04</pdfrwt>
<pdfrwt beam="2">  1       -2 0.14706168E+00 0.19991830E+04</pdfrwt>
<totfact> 0.35836131E+00</totfact>
</mgrwt>
</event>
<event>
12    4  0.4424320E-008  0.1798218E+04  0.7818608E-02  0.8707248E-01
          1   -1    0    0  501    0  0.00000000000E+00  0.00000000000E+00  0.58698884134E+03  0.58698884134E+03  0.00000000000E+00 0. -1.
         -2   -1    0    0    0  501 -0.00000000000E+00 -0.00000000000E+00 -0.13771933778E+04  0.13771933778E+04  0.00000000000E+00 0.  1.
        -24    2    1    2    0    0  0.32824638550E+03 -0.17934439015E+03 -0.93011392358E+03  0.10056600985E+04  0.79562698545E+02 0.  0.
        254    2    1    2    0    0 -0.32824638550E+03  0.17934439015E+03  0.13990938708E+03  0.95852212068E+03  0.87136669627E+03 0.  0.
         23    2    4    4    0    0 -0.29680613705E+02  0.48951612316E+03  0.13504117651E+03  0.51826286488E+03  0.99263810645E+02 0.  0.
         23    2    4    4    0    0 -0.29856577179E+03 -0.31017173301E+03  0.48682105731E+01  0.44025925580E+03  0.91959169197E+02 0.  0.
          3    1    3    3  502    0  0.10936987002E+03 -0.69812029654E+02 -0.23107004717E+03  0.26500727283E+03  0.00000000000E+00 0. -1.
         -4    1    3    3    0  502  0.21887651547E+03 -0.10953236050E+03 -0.69904387641E+03  0.74065282567E+03  0.00000000000E+00 0.  1.
         11    1    5    5    0    0  0.10639268293E+01  0.26410853872E+03  0.12050833666E+03  0.29030451490E+03  0.00000000000E+00 0. -1.
        -11    1    5    5    0    0 -0.30744540534E+02  0.22540758443E+03  0.14532839847E+02  0.22795834998E+03  0.00000000000E+00 0.  1.
          3    1    6    6  503    0 -0.20513733671E+02 -0.13688973247E+02 -0.21804455138E+02  0.32918619679E+02  0.00000000000E+00 0. -1.
         -3    1    6    6    0  503 -0.27805203812E+03 -0.29648275976E+03  0.26672665711E+02  0.40734063612E+03  0.00000000000E+00 0.  1.
<mgrwt>
<rscale>  0 0.17982182E+04</rscale>
<asrwt>0</asrwt>
<pdfrwt beam="1">  1        1 0.90305977E-01 0.17982182E+04</pdfrwt>
<pdfrwt beam="2">  1       -2 0.21187590E+00 0.17982182E+04</pdfrwt>
<totfact> 0.32500468E+00</totfact>
</mgrwt>
</event>
<event>
12    4  0.4424320E-008  0.1350803E+04  0.7818608E-02  0.8990220E-01
          1   -1    0    0  501    0  0.00000000000E+00  0.00000000000E+00  0.27557685605E+03  0.27557685605E+03  0.00000000000E+00 0. -1.
         -2   -1    0    0    0  501 -0.00000000000E+00 -0.00000000000E+00 -0.16553180027E+04  0.16553180027E+04  0.00000000000E+00 0.  1.
        -24    2    1    2    0    0  0.12417859151E+03 -0.14815362010E+03 -0.84730317843E+03  0.87251371523E+03  0.77380161181E+02 0.  0.
        254    2    1    2    0    0 -0.12417859151E+03  0.14815362010E+03 -0.53243796824E+03  0.10583811436E+04  0.89404174246E+03 0.  0.
         23    2    4    4    0    0  0.22527376386E+03 -0.24120333076E+03 -0.62476281082E+02  0.34900878883E+03  0.94744569900E+02 0.  0.
         23    2    4    4    0    0 -0.34945235537E+03  0.38935695086E+03 -0.46996168716E+03  0.70937235473E+03  0.92894383023E+02 0.  0.
          3    1    3    3  502    0  0.51412234074E+02 -0.11343655524E+02 -0.18685805903E+03  0.19413353795E+03  0.00000000000E+00 0. -1.
         -4    1    3    3    0  502  0.72766357435E+02 -0.13680996457E+03 -0.66044511940E+03  0.67838017728E+03  0.00000000000E+00 0.  1.
         11    1    5    5    0    0  0.18140843149E+03 -0.23160383871E+03 -0.72512625495E+02  0.30299742239E+03  0.00000000000E+00 0. -1.
        -11    1    5    5    0    0  0.43865332373E+02 -0.95994920491E+01  0.10036344413E+02  0.46011366432E+02  0.00000000000E+00 0.  1.
          3    1    6    6  503    0 -0.29108981524E+03  0.36786027150E+03 -0.41129601288E+03  0.62387408192E+03  0.00000000000E+00 0. -1.
         -3    1    6    6    0  503 -0.58362540129E+02  0.21496679361E+02 -0.58665674280E+02  0.85498272805E+02  0.00000000000E+00 0.  1.
<mgrwt>
<rscale>  0 0.13508032E+04</rscale>
<asrwt>0</asrwt>
<pdfrwt beam="1">  1        1 0.42396439E-01 0.13508032E+04</pdfrwt>
<pdfrwt beam="2">  1       -2 0.25466431E+00 0.13508032E+04</pdfrwt>
<totfact> 0.50423702E+00</totfact>
</mgrwt>
</event>
<event>
12    4  0.4424320E-008  0.1792481E+04  0.7818608E-02  0.8710308E-01
          1   -1    0    0  501    0  0.00000000000E+00  0.00000000000E+00  0.59169687274E+03  0.59169687274E+03  0.00000000000E+00 0. -1.
         -2   -1    0    0    0  501 -0.00000000000E+00 -0.00000000000E+00 -0.13575316440E+04  0.13575316440E+04  0.00000000000E+00 0.  1.
        -24    2    1    2    0    0 -0.17371315919E+03 -0.20680734458E+03  0.37963953990E+03  0.47267272333E+03  0.79672979576E+02 0.  0.
        254    2    1    2    0    0  0.17371315919E+03  0.20680734458E+03 -0.11454743111E+04  0.14765557934E+04  0.89171748555E+03 0.  0.
         23    2    4    4    0    0  0.44609195537E+03  0.95076817945E+02 -0.24793615774E+03  0.52755452629E+03  0.93828598676E+02 0.  0.
         23    2    4    4    0    0 -0.27237879618E+03  0.11173052664E+03 -0.89753815340E+03  0.94900126710E+03  0.91404315857E+02 0.  0.
          3    1    3    3  502    0 -0.10413412061E+03 -0.92312736032E+02  0.13574889473E+03  0.19440503782E+03  0.00000000000E+00 0. -1.
         -4    1    3    3    0  502 -0.69579038578E+02 -0.11449460855E+03  0.24389064517E+03  0.27826768551E+03  0.00000000000E+00 0.  1.
         11    1    5    5    0    0  0.13670719055E+03 -0.10507765996E+02 -0.53380720905E+02  0.14713521148E+03  0.00000000000E+00 0. -1.
        -11    1    5    5    0    0  0.30938476482E+03  0.10558458394E+03 -0.19455543684E+03  0.38041931480E+03  0.00000000000E+00 0.  1.
          2    1    6    6  503    0 -0.14309249907E+03  0.85562483662E+02 -0.38090524329E+03  0.41579466840E+03  0.00000000000E+00 0. -1.
         -2    1    6    6    0  503 -0.12928629711E+03  0.26168042976E+02 -0.51663291010E+03  0.53320659870E+03  0.00000000000E+00 0.  1.
<mgrwt>
<rscale>  0 0.17924812E+04</rscale>
<asrwt>0</asrwt>
<pdfrwt beam="1">  1        1 0.91030289E-01 0.17924812E+04</pdfrwt>
<pdfrwt beam="2">  1       -2 0.20885102E+00 0.17924812E+04</pdfrwt>
<totfact> 0.33617990E+00</totfact>
</mgrwt>
</event>
<event>
12    4  0.4424320E-008  0.1169714E+04  0.7818608E-02  0.9139787E-01
          1   -1    0    0  501    0  0.00000000000E+00  0.00000000000E+00  0.17564594909E+04  0.17564594909E+04  0.00000000000E+00 0. -1.
         -2   -1    0    0    0  501 -0.00000000000E+00 -0.00000000000E+00 -0.19474268624E+03  0.19474268624E+03  0.00000000000E+00 0.  1.
        -24    2    1    2    0    0 -0.12238427855E+03 -0.39300935180E+02  0.60685455439E+03  0.62763284393E+03  0.95540888919E+02 0.  0.
        254    2    1    2    0    0  0.12238427855E+03  0.39300935180E+02  0.95486225031E+03  0.13235693332E+04  0.90749732105E+03 0.  0.
         23    2    4    4    0    0 -0.36262592026E+03 -0.12032199022E+03  0.33587065210E+03  0.51676307649E+03  0.90884778198E+02 0.  0.
         23    2    4    4    0    0  0.48501019880E+03  0.15962292540E+03  0.61899159821E+03  0.80680625676E+03  0.84091414757E+02 0.  0.
          3    1    3    3  502    0 -0.18426883522E+02 -0.45209761609E+02  0.29075069220E+03  0.29482102638E+03  0.00000000000E+00 0. -1.
         -4    1    3    3    0  502 -0.10395739502E+03  0.59088264292E+01  0.31610386219E+03  0.33281181755E+03  0.00000000000E+00 0.  1.
         11    1    5    5    0    0 -0.17346067403E+03 -0.54007343467E+02  0.21968366464E+03  0.28507246639E+03  0.00000000000E+00 0. -1.
        -11    1    5    5    0    0 -0.18916524623E+03 -0.66314646751E+02  0.11618698746E+03  0.23169061010E+03  0.00000000000E+00 0.  1.
          2    1    6    6  503    0  0.92116019000E+02  0.52769800989E+02  0.17241306903E+03  0.20247537931E+03  0.00000000000E+00 0.  1.
         -2    1    6    6    0  503  0.39289417980E+03  0.10685312441E+03  0.44657852918E+03  0.60433087745E+03  0.00000000000E+00 0. -1.
<mgrwt>
<rscale>  0 0.11697139E+04</rscale>
<asrwt>0</asrwt>
<pdfrwt beam="1">  1        1 0.27022453E+00 0.11697139E+04</pdfrwt>
<pdfrwt beam="2">  1       -2 0.29960414E-01 0.11697139E+04</pdfrwt>
<totfact> 0.39060535E+01</totfact>
</mgrwt>
</event>
<event>
12    4  0.4424320E-008  0.1121950E+04  0.7818608E-02  0.9184058E-01
          1   -1    0    0  501    0  0.00000000000E+00  0.00000000000E+00  0.71049323095E+03  0.71049323095E+03  0.00000000000E+00 0. -1.
         -2   -1    0    0    0  501 -0.00000000000E+00 -0.00000000000E+00 -0.44292205135E+03  0.44292205135E+03  0.00000000000E+00 0.  1.
        -24    2    1    2    0    0 -0.60776643799E+02 -0.16510972911E+03  0.10509384202E+03  0.21937400223E+03  0.78263747311E+02 0.  0.
        254    2    1    2    0    0  0.60776643799E+02  0.16510972911E+03  0.16247733758E+03  0.93404128008E+03  0.90281737056E+03 0.  0.
         23    2    4    4    0    0  0.40675902673E+03  0.28788992953E+03  0.21773760235E+03  0.55159704892E+03  0.92282845370E+02 0.  0.
         23    2    4    4    0    0 -0.34598238293E+03 -0.12278020042E+03 -0.55260264774E+02  0.38244423115E+03  0.91821055118E+02 0.  0.
          1    1    3    3  502    0  0.33547010598E+00 -0.50376545014E+02  0.67167420740E+02  0.83960533803E+02  0.00000000000E+00 0. -1.
         -2    1    3    3    0  502 -0.61112113905E+02 -0.11473318410E+03  0.37926421284E+02  0.13541346843E+03  0.00000000000E+00 0.  1.
         11    1    5    5    0    0  0.20726468925E+02  0.38551921463E+02  0.17211771398E+01  0.43804104983E+02  0.00000000000E+00 0. -1.
        -11    1    5    5    0    0  0.38603255781E+03  0.24933800807E+03  0.21601642521E+03  0.50779294394E+03  0.00000000000E+00 0.  1.
          3    1    6    6  503    0 -0.70034065855E+02 -0.45945130538E+02 -0.46638106095E+02  0.95868860119E+02  0.00000000000E+00 0. -1.
         -3    1    6    6    0  503 -0.27594831708E+03 -0.76835069878E+02 -0.86221586790E+01  0.28657537103E+03  0.00000000000E+00 0.  1.
<mgrwt>
<rscale>  0 0.11219503E+04</rscale>
<asrwt>0</asrwt>
<pdfrwt beam="1">  1        1 0.10930665E+00 0.11219503E+04</pdfrwt>
<pdfrwt beam="2">  1       -2 0.68141854E-01 0.11219503E+04</pdfrwt>
<totfact> 0.45764852E+01</totfact>
</mgrwt>
</event>
<event>
12    4  0.4424320E-008  0.1883350E+04  0.7818608E-02  0.8663189E-01
         -2   -1    0    0    0  501 -0.00000000000E+00  0.00000000000E+00  0.96289450036E+03  0.96289450036E+03  0.00000000000E+00 0.  1.
          1   -1    0    0  501    0  0.00000000000E+00 -0.00000000000E+00 -0.92092297123E+03  0.92092297123E+03  0.00000000000E+00 0. -1.
        -24    2    1    2    0    0  0.42691567993E+03 -0.56996096413E+03  0.12938356680E+03  0.72813003471E+03  0.79503092336E+02 0.  0.
        254    2    1    2    0    0 -0.42691567993E+03  0.56996096413E+03 -0.87412037674E+02  0.11556874369E+04  0.90601329407E+03 0.  0.
         23    2    4    4    0    0 -0.26640441872E+02  0.64081888325E+03 -0.26796150517E+03  0.70159203345E+03  0.95233706621E+02 0.  0.
         23    2    4    4    0    0 -0.40027523806E+03 -0.70857919120E+02  0.18054946750E+03  0.45409540343E+03  0.91451704720E+02 0.  0.
          3    1    3    3  502    0  0.20394588860E+02 -0.65185927795E+02  0.83982899321E+01  0.68816245982E+02  0.00000000000E+00 0. -1.
         -4    1    3    3    0  502  0.40652109107E+03 -0.50477503633E+03  0.12098527687E+03  0.65931378873E+03  0.00000000000E+00 0.  1.
         11    1    5    5    0    0  0.13678822937E+02  0.55673442442E+02 -0.14465955708E+01  0.57347493660E+02  0.00000000000E+00 0. -1.
        -11    1    5    5    0    0 -0.40319264808E+02  0.58514544080E+03 -0.26651490960E+03  0.64424453979E+03  0.00000000000E+00 0.  1.
          2    1    6    6  503    0 -0.82395905592E+02 -0.10848467404E+02 -0.10518749370E+01  0.83113662801E+02  0.00000000000E+00 0. -1.
         -2    1    6    6    0  503 -0.31787933247E+03 -0.60009451716E+02  0.18160134244E+03  0.37098174063E+03  0.00000000000E+00 0.  1.
<mgrwt>
<rscale>  0 0.18833498E+04</rscale>
<asrwt>0</asrwt>
<pdfrwt beam="1">  1        1 0.14168046E+00 0.18833498E+04</pdfrwt>
<pdfrwt beam="2">  1       -2 0.14813762E+00 0.18833498E+04</pdfrwt>
<totfact> 0.44481520E+00</totfact>
</mgrwt>
</event>
<event>
12    4  0.4424320E-008  0.1416739E+04  0.7818608E-02  0.8941791E-01
          1   -1    0    0  501    0  0.00000000000E+00  0.00000000000E+00  0.12718942831E+04  0.12718942831E+04  0.00000000000E+00 0. -1.
         -2   -1    0    0    0  501 -0.00000000000E+00 -0.00000000000E+00 -0.39451953382E+03  0.39451953382E+03  0.00000000000E+00 0.  1.
        -24    2    1    2    0    0  0.35108639412E+03  0.22052937668E+03  0.39018072868E+03  0.57465730745E+03  0.78071491944E+02 0.  0.
        254    2    1    2    0    0 -0.35108639412E+03 -0.22052937668E+03  0.48719402062E+03  0.10917565095E+04  0.88469169781E+03 0.  0.
         23    2    4    4    0    0 -0.12199442359E+03  0.21414059668E+02  0.67911448860E+03  0.69650936459E+03  0.92669331466E+02 0.  0.
         23    2    4    4    0    0 -0.22909197053E+03 -0.24194343635E+03 -0.19192046798E+03  0.39524714490E+03  0.91471756121E+02 0.  0.
          3    1    3    3  502    0  0.11850389368E+03  0.74064998668E+02  0.18405944521E+03  0.23109884512E+03  0.00000000000E+00 0. -1.
         -4    1    3    3    0  502  0.23258250044E+03  0.14646437801E+03  0.20612128347E+03  0.34355846233E+03  0.00000000000E+00 0.  1.
         11    1    5    5    0    0 -0.48554312207E+02  0.82715637476E+00  0.49281367310E+03  0.49520048648E+03  0.00000000000E+00 0. -1.
        -11    1    5    5    0    0 -0.73440111381E+02  0.20586903293E+02  0.18630081550E+03  0.20130887810E+03  0.00000000000E+00 0.  1.
          1    1    6    6  503    0 -0.17727180811E+03 -0.13616320574E+03 -0.95714437077E+02  0.24316037097E+03  0.00000000000E+00 0. -1.
         -1    1    6    6    0  503 -0.51820162426E+02 -0.10578023061E+03 -0.96206030904E+02  0.15208677393E+03  0.00000000000E+00 0.  1.
<mgrwt>
<rscale>  0 0.14167387E+04</rscale>
<asrwt>0</asrwt>
<pdfrwt beam="1">  1        1 0.19567604E+00 0.14167387E+04</pdfrwt>
<pdfrwt beam="2">  1       -2 0.60695314E-01 0.14167387E+04</pdfrwt>
<totfact> 0.20456291E+01</totfact>
</mgrwt>
</event>
<event>
12    4  0.4424320E-008  0.2796750E+04  0.7818608E-02  0.8304278E-01
          1   -1    0    0  501    0  0.00000000000E+00  0.00000000000E+00  0.23376053593E+04  0.23376053593E+04  0.00000000000E+00 0. -1.
         -2   -1    0    0    0  501 -0.00000000000E+00 -0.00000000000E+00 -0.83651973921E+03  0.83651973921E+03  0.00000000000E+00 0.  1.
        -24    2    1    2    0    0 -0.59630702638E+03 -0.65457816124E+02 -0.57222227298E+03  0.83302122968E+03  0.81358736478E+02 0.  0.
        254    2    1    2    0    0  0.59630702638E+03  0.65457816124E+02  0.20733078931E+04  0.23411038688E+04  0.90680478040E+03 0.  0.
         23    2    4    4    0    0 -0.18491637936E+02 -0.26090538254E+03  0.20514538235E+03  0.34543650332E+03  0.93958451530E+02 0.  0.
         23    2    4    4    0    0  0.61479866431E+03  0.32636319867E+03  0.18681625107E+04  0.19956673655E+04  0.90369973947E+02 0.  0.
          1    1    3    3  502    0 -0.81892653967E+02 -0.36958379583E+02 -0.94998972682E+02  0.13075600715E+03  0.00000000000E+00 0. -1.
         -2    1    3    3    0  502 -0.51441437241E+03 -0.28499436542E+02 -0.47722330030E+03  0.70226522253E+03  0.00000000000E+00 0.  1.
         11    1    5    5    0    0 -0.31801387421E+02 -0.23818258461E+03  0.14722598036E+03  0.28181157028E+03  0.00000000000E+00 0.  1.
        -11    1    5    5    0    0  0.13309749485E+02 -0.22722797936E+02  0.57919401989E+02  0.63624933038E+02  0.00000000000E+00 0. -1.
          4    1    6    6  503    0  0.41455892343E+03  0.26515050413E+03  0.12790104483E+04  0.13704129369E+04  0.00000000000E+00 0.  1.
         -4    1    6    6    0  503  0.20023974088E+03  0.61212694538E+02  0.58915206242E+03  0.62525442857E+03  0.00000000000E+00 0. -1.
<mgrwt>
<rscale>  0 0.27967503E+04</rscale>
<asrwt>0</asrwt>
<pdfrwt beam="1">  1        1 0.35963159E+00 0.27967503E+04</pdfrwt>
<pdfrwt beam="2">  1       -2 0.12869535E+00 0.27967503E+04</pdfrwt>
<totfact> 0.59490932E-01</totfact>
</mgrwt>
</event>
<event>
12    4  0.4424320E-008  0.1772548E+04  0.7818608E-02  0.8721036E-01
         -2   -1    0    0    0  501 -0.00000000000E+00  0.00000000000E+00  0.28023434255E+03  0.28023434255E+03  0.00000000000E+00 0.  1.
          1   -1    0    0  501    0  0.00000000000E+00 -0.00000000000E+00 -0.28029463197E+04  0.28029463197E+04  0.00000000000E+00 0. -1.
        -24    2    1    2    0    0  0.32504318628E+03  0.18919645478E+03 -0.18596493634E+04  0.18989743412E+04  0.79745985251E+02 0.  0.
        254    2    1    2    0    0 -0.32504318628E+03 -0.18919645478E+03 -0.66306261375E+03  0.11842063211E+04  0.90622525330E+03 0.  0.
         23    2    4    4    0    0 -0.44619424209E+03  0.16579726796E+03 -0.63317204516E+03  0.79742240010E+03  0.91638472640E+02 0.  0.
         23    2    4    4    0    0  0.12115105581E+03 -0.35499372273E+03 -0.29890568584E+02  0.38678392099E+03  0.89499910284E+02 0.  0.
          3    1    3    3  502    0  0.25921397106E+03  0.18358868533E+03 -0.15818422697E+04  0.16134192432E+04  0.00000000000E+00 0. -1.
         -4    1    3    3    0  502  0.65829215220E+02  0.56077694487E+01 -0.27780709378E+03  0.28555509803E+03  0.00000000000E+00 0.  1.
         11    1    5    5    0    0 -0.40169761280E+03  0.12005775365E+03 -0.52540498086E+03  0.67217946283E+03  0.00000000000E+00 0. -1.
        -11    1    5    5    0    0 -0.44496629295E+02  0.45739514304E+02 -0.10776706431E+03  0.12524293727E+03  0.00000000000E+00 0.  1.
          3    1    6    6  503    0  0.13555241992E+03 -0.32528077052E+03 -0.30921621903E+02  0.35374875960E+03  0.00000000000E+00 0. -1.
         -3    1    6    6    0  503 -0.14401364103E+02 -0.29712952212E+02  0.10310533189E+01  0.33035161391E+02  0.00000000000E+00 0.  1.
<mgrwt>
<rscale>  0 0.17725482E+04</rscale>
<asrwt>0</asrwt>
<pdfrwt beam="1">  1        1 0.43122248E+00 0.17725482E+04</pdfrwt>
<pdfrwt beam="2">  1       -2 0.43112978E-01 0.17725482E+04</pdfrwt>
<totfact> 0.35228007E+00</totfact>
</mgrwt>
</event>
<event>
12    4  0.4424320E-008  0.1712856E+04  0.7818608E-02  0.8754066E-01
         -2   -1    0    0    0  501 -0.00000000000E+00  0.00000000000E+00  0.74712429957E+03  0.74712429957E+03  0.00000000000E+00 0.  1.
          1   -1    0    0  501    0  0.00000000000E+00 -0.00000000000E+00 -0.98172232916E+03  0.98172232916E+03  0.00000000000E+00 0. -1.
        -24    2    1    2    0    0 -0.23467394060E+03 -0.15439381771E+03  0.47638768285E+03  0.55882514546E+03  0.80193575064E+02 0.  0.
        254    2    1    2    0    0  0.23467394060E+03  0.15439381771E+03 -0.71098571244E+03  0.11700214833E+04  0.88574278358E+03 0.  0.
         23    2    4    4    0    0 -0.74557595159E+02  0.12010005806E+03 -0.81292696657E+03  0.83019998900E+03  0.91645566225E+02 0.  0.
         23    2    4    4    0    0  0.30923153576E+03  0.34293759650E+02  0.10194125414E+03  0.33982149427E+03  0.91029797371E+02 0.  0.
          1    1    3    3  502    0 -0.85905720175E+02 -0.16201046127E+02  0.11712726405E+03  0.14615424263E+03  0.00000000000E+00 0. -1.
         -2    1    3    3    0  502 -0.14876822043E+03 -0.13819277158E+03  0.35926041880E+03  0.41267090283E+03  0.00000000000E+00 0.  1.
         11    1    5    5    0    0  0.19824805857E+02  0.40140712475E+02 -0.21559658731E+03  0.22019579511E+03  0.00000000000E+00 0. -1.
        -11    1    5    5    0    0 -0.94382401016E+02  0.79959345587E+02 -0.59733037926E+03  0.61000419389E+03  0.00000000000E+00 0.  1.
          3    1    6    6  503    0  0.12967221574E+03  0.45886806061E+02  0.78479575715E+02  0.15836516761E+03  0.00000000000E+00 0. -1.
         -3    1    6    6    0  503  0.17955932002E+03 -0.11593046411E+02  0.23461678421E+02  0.18145632666E+03  0.00000000000E+00 0.  1.
<mgrwt>
<rscale>  0 0.17128556E+04</rscale>
<asrwt>0</asrwt>
<pdfrwt beam="1">  1        1 0.15103420E+00 0.17128556E+04</pdfrwt>
<pdfrwt beam="2">  1       -2 0.11494220E+00 0.17128556E+04</pdfrwt>
<totfact> 0.76936466E+00</totfact>
</mgrwt>
</event>
<event>
12    4  0.4424320E-008  0.1995568E+04  0.7818608E-02  0.8608695E-01
          1   -1    0    0  501    0  0.00000000000E+00  0.00000000000E+00  0.14274901745E+04  0.14274901745E+04  0.00000000000E+00 0. -1.
         -2   -1    0    0    0  501 -0.00000000000E+00 -0.00000000000E+00 -0.69742911817E+03  0.69742911817E+03  0.00000000000E+00 0.  1.
        -24    2    1    2    0    0 -0.25782133140E+03 -0.57627908143E+03  0.79371980245E+03  0.10172994318E+04  0.79608985421E+02 0.  0.
        254    2    1    2    0    0  0.25782133140E+03  0.57627908143E+03 -0.63658746094E+02  0.11076198609E+04  0.90785455972E+03 0.  0.
         23    2    4    4    0    0  0.55918663195E+03  0.54059889945E+03  0.41067179770E+01  0.78314034621E+03  0.91406111907E+02 0.  0.
         23    2    4    4    0    0 -0.30136530055E+03  0.35680181983E+02 -0.67765464071E+02  0.32447951466E+03  0.92739837992E+02 0.  0.
          1    1    3    3  502    0 -0.25578797703E+03 -0.54565654825E+03  0.73027044152E+03  0.94681755138E+03  0.00000000000E+00 0. -1.
         -2    1    3    3    0  502 -0.20333543757E+01 -0.30622533186E+02  0.63449360926E+02  0.70481880443E+02  0.00000000000E+00 0.  1.
         11    1    5    5    0    0  0.31318479049E+03  0.36301391255E+03 -0.77871627730E+01  0.47950438330E+03  0.00000000000E+00 0. -1.
        -11    1    5    5    0    0  0.24600184146E+03  0.17758498690E+03  0.11893880750E+02  0.30363596291E+03  0.00000000000E+00 0.  1.
          1    1    6    6  503    0 -0.22547417186E+03 -0.14978212754E+02 -0.44434150714E+02  0.23029837772E+03  0.00000000000E+00 0. -1.
         -1    1    6    6    0  503 -0.75891128690E+02  0.50658394737E+02 -0.23331313356E+02  0.94181136934E+02  0.00000000000E+00 0.  1.
<mgrwt>
<rscale>  0 0.19955683E+04</rscale>
<asrwt>0</asrwt>
<pdfrwt beam="1">  1        1 0.21961387E+00 0.19955683E+04</pdfrwt>
<pdfrwt beam="2">  1       -2 0.10729679E+00 0.19955683E+04</pdfrwt>
<totfact> 0.41764290E+00</totfact>
</mgrwt>
</event>
<event>
12    4  0.4424320E-008  0.1265197E+04  0.7818608E-02  0.9057629E-01
         -2   -1    0    0    0  501 -0.00000000000E+00  0.00000000000E+00  0.26965967358E+03  0.26965967358E+03  0.00000000000E+00 0.  1.
          1   -1    0    0  501    0  0.00000000000E+00 -0.00000000000E+00 -0.14840225802E+04  0.14840225802E+04  0.00000000000E+00 0. -1.
        -24    2    1    2    0    0  0.67288248834E+02  0.28010172647E+03 -0.35291125280E+03  0.46225520014E+03  0.78414489122E+02 0.  0.
        254    2    1    2    0    0 -0.67288248834E+02 -0.28010172647E+03 -0.86145165387E+03  0.12914270537E+04  0.91798703554E+03 0.  0.
         23    2    4    4    0    0 -0.17867134061E+03  0.89853057200E+02  0.10746688110E+03  0.24447805808E+03  0.90682801599E+02 0.  0.
         23    2    4    4    0    0  0.11138309177E+03 -0.36995478367E+03 -0.96891853497E+03  0.10469489956E+04  0.89589825730E+02 0.  0.
          3    1    3    3  502    0  0.19678426489E+02  0.85103641130E+02 -0.16794303967E+03  0.18930064653E+03  0.00000000000E+00 0. -1.
         -4    1    3    3    0  502  0.47609822346E+02  0.19499808534E+03 -0.18496821312E+03  0.27295455361E+03  0.00000000000E+00 0.  1.
         11    1    5    5    0    0 -0.17023280428E+02  0.50261567841E+02  0.22858236266E+02  0.57779894804E+02  0.00000000000E+00 0. -1.
        -11    1    5    5    0    0 -0.16164806018E+03  0.39591489359E+02  0.84608644838E+02  0.18669816328E+03  0.00000000000E+00 0.  1.
          1    1    6    6  503    0  0.39974916645E+02 -0.23866383380E+03 -0.51411815724E+03  0.56822169893E+03  0.00000000000E+00 0. -1.
         -1    1    6    6    0  503  0.71408175129E+02 -0.13129094987E+03 -0.45480037773E+03  0.47872729667E+03  0.00000000000E+00 0.  1.
<mgrwt>
<rscale>  0 0.12651973E+04</rscale>
<asrwt>0</asrwt>
<pdfrwt beam="1">  1        1 0.22831116E+00 0.12651973E+04</pdfrwt>
<pdfrwt beam="2">  1       -2 0.41486104E-01 0.12651973E+04</pdfrwt>
<totfact> 0.31926963E+01</totfact>
</mgrwt>
</event>
<event>
12    4  0.4424320E-008  0.2789690E+04  0.7818608E-02  0.8306476E-01
         -2   -1    0    0    0  501 -0.00000000000E+00  0.00000000000E+00  0.96380452147E+03  0.96380452147E+03  0.00000000000E+00 0.  1.
          1   -1    0    0  501    0  0.00000000000E+00 -0.00000000000E+00 -0.20186587640E+04  0.20186587640E+04  0.00000000000E+00 0. -1.
        -24    2    1    2    0    0  0.89696210933E+02 -0.10665808531E+03  0.85221484128E+03  0.86726597998E+03  0.80366578394E+02 0.  0.
        254    2    1    2    0    0 -0.89696210933E+02  0.10665808531E+03 -0.19070690838E+04  0.21151973055E+04  0.90428192136E+03 0.  0.
         23    2    4    4    0    0  0.10242551454E+03  0.24643711448E+03 -0.11391874519E+03  0.30408509432E+03  0.90928689967E+02 0.  0.
         23    2    4    4    0    0 -0.19212172548E+03 -0.13977902917E+03 -0.17931503386E+04  0.18111122111E+04  0.91051469788E+02 0.  0.
          3    1    3    3  502    0 -0.50502517558E+01 -0.48024131929E+02  0.30795100584E+03  0.31171404249E+03  0.00000000000E+00 0. -1.
         -4    1    3    3    0  502  0.94746462688E+02 -0.58633953379E+02  0.54426383544E+03  0.55555193749E+03  0.00000000000E+00 0.  1.
         11    1    5    5    0    0  0.58934942168E+01  0.25557230888E+02 -0.47153867210E+02  0.53957321261E+02  0.00000000000E+00 0. -1.
        -11    1    5    5    0    0  0.96532020328E+02  0.22087988359E+03 -0.66764877977E+02  0.25012777306E+03  0.00000000000E+00 0.  1.
          1    1    6    6  503    0  0.82730059607E+01 -0.18131736585E+02 -0.12861903028E+03  0.13015397593E+03  0.00000000000E+00 0. -1.
         -1    1    6    6    0  503 -0.20039473144E+03 -0.12164729258E+03 -0.16645313083E+04  0.16809582352E+04  0.00000000000E+00 0.  1.
<mgrwt>
<rscale>  0 0.27896899E+04</rscale>
<asrwt>0</asrwt>
<pdfrwt beam="1">  1        1 0.31056288E+00 0.27896899E+04</pdfrwt>
<pdfrwt beam="2">  1       -2 0.14827762E+00 0.27896899E+04</pdfrwt>
<totfact> 0.68102701E-01</totfact>
</mgrwt>
</event>
<event>
12    4  0.4424320E-008  0.1905902E+04  0.7818608E-02  0.8651924E-01
          1   -1    0    0  501    0  0.00000000000E+00  0.00000000000E+00  0.18541152655E+04  0.18541152655E+04  0.00000000000E+00 0. -1.
         -2   -1    0    0    0  501 -0.00000000000E+00 -0.00000000000E+00 -0.48978385657E+03  0.48978385657E+03  0.00000000000E+00 0.  1.
        -24    2    1    2    0    0  0.10392951110E+03  0.48240221796E+03 -0.13658795913E+03  0.52067346721E+03  0.94505797198E+02 0.  0.
        254    2    1    2    0    0 -0.10392951110E+03 -0.48240221796E+03  0.15009193680E+04  0.18232256548E+04  0.90987889079E+03 0.  0.
         23    2    4    4    0    0 -0.27168500807E+01  0.26092502327E+03  0.32979850866E+03  0.42932090339E+03  0.86372059904E+02 0.  0.
         23    2    4    4    0    0 -0.10121266102E+03 -0.74332724123E+03  0.11711208594E+04  0.13939047514E+04  0.93096715812E+02 0.  0.
          3    1    3    3  502    0  0.22912729538E+02  0.15723726476E+02 -0.27501319754E+00  0.27790364902E+02  0.00000000000E+00 0. -1.
         -4    1    3    3    0  502  0.81016781563E+02  0.46667849148E+03 -0.13631294594E+03  0.49288310230E+03  0.00000000000E+00 0.  1.
         11    1    5    5    0    0  0.32175053280E+02  0.20900987286E+03  0.26806029872E+03  0.34143328009E+03  0.00000000000E+00 0. -1.
        -11    1    5    5    0    0 -0.34891903361E+02  0.51915150416E+02  0.61738209942E+02  0.87887623302E+02  0.00000000000E+00 0.  1.
          4    1    6    6  503    0 -0.86440060524E+02 -0.29658852020E+03  0.47255927221E+03  0.56457851547E+03  0.00000000000E+00 0. -1.
         -4    1    6    6    0  503 -0.14772600496E+02 -0.44673872103E+03  0.69856158716E+03  0.82932623596E+03  0.00000000000E+00 0.  1.
<mgrwt>
<rscale>  0 0.19059021E+04</rscale>
<asrwt>0</asrwt>
<pdfrwt beam="1">  1        1 0.28524850E+00 0.19059021E+04</pdfrwt>
<pdfrwt beam="2">  1       -2 0.75351363E-01 0.19059021E+04</pdfrwt>
<totfact> 0.48570029E+00</totfact>
</mgrwt>
</event>
<event>
12    4  0.4424320E-008  0.1834471E+04  0.7818608E-02  0.8688180E-01
          1   -1    0    0  501    0  0.00000000000E+00  0.00000000000E+00  0.68904436902E+03  0.68904436902E+03  0.00000000000E+00 0. -1.
         -2   -1    0    0    0  501 -0.00000000000E+00 -0.00000000000E+00 -0.12209964582E+04  0.12209964582E+04  0.00000000000E+00 0.  1.
        -24    2    1    2    0    0 -0.50815124717E+02  0.30855757719E+03  0.44213994365E+03  0.54713746894E+03  0.77985414076E+02 0.  0.
        254    2    1    2    0    0  0.50815124717E+02 -0.30855757719E+03 -0.97409203287E+03  0.13629033583E+04  0.90047782886E+03 0.  0.
         23    2    4    4    0    0  0.22125512311E+03  0.19782551734E+03 -0.85734484656E+02  0.32209888390E+03  0.91151107169E+02 0.  0.
         23    2    4    4    0    0 -0.17043999839E+03 -0.50638309453E+03 -0.88835754821E+03  0.10408044744E+04  0.92850358214E+02 0.  0.
          3    1    3    3  502    0 -0.43701671825E+02  0.26740533460E+03  0.32707175549E+03  0.42472506676E+03  0.00000000000E+00 0. -1.
         -4    1    3    3    0  502 -0.71134528923E+01  0.41152242591E+02  0.11506818816E+03  0.12241240219E+03  0.00000000000E+00 0.  1.
         11    1    5    5    0    0  0.20024295738E+03  0.17716314099E+03 -0.10461137120E+03  0.28710200189E+03  0.00000000000E+00 0. -1.
        -11    1    5    5    0    0  0.21012165727E+02  0.20662376342E+02  0.18876886539E+02  0.34996882005E+02  0.00000000000E+00 0.  1.
          4    1    6    6  503    0 -0.97520396929E+02 -0.31057434158E+03 -0.62436009048E+03  0.70412511107E+03  0.00000000000E+00 0. -1.
         -4    1    6    6    0  503 -0.72919601463E+02 -0.19580875295E+03 -0.26399745774E+03  0.33667936334E+03  0.00000000000E+00 0.  1.
<mgrwt>
<rscale>  0 0.18344708E+04</rscale>
<asrwt>0</asrwt>
<pdfrwt beam="1">  1        1 0.10600683E+00 0.18344708E+04</pdfrwt>
<pdfrwt beam="2">  1       -2 0.18784561E+00 0.18344708E+04</pdfrwt>
<totfact> 0.36822477E+00</totfact>
</mgrwt>
</event>
<event>
12    4  0.4424320E-008  0.1551864E+04  0.7818608E-02  0.8850678E-01
         -2   -1    0    0    0  501 -0.00000000000E+00  0.00000000000E+00  0.71554384215E+03  0.71554384215E+03  0.00000000000E+00 0.  1.
          1   -1    0    0  501    0  0.00000000000E+00 -0.00000000000E+00 -0.84141611716E+03  0.84141611716E+03  0.00000000000E+00 0. -1.
        -24    2    1    2    0    0 -0.16332091743E+03  0.12328903305E+02 -0.52531389816E+03  0.55581902674E+03  0.78449824478E+02 0.  0.
        254    2    1    2    0    0  0.16332091743E+03 -0.12328903305E+02  0.39944162315E+03  0.10011409326E+04  0.90327395216E+03 0.  0.
         23    2    4    4    0    0  0.34132162969E+03 -0.25758855754E+03  0.50466264602E+03  0.66804851500E+03  0.93552724418E+02 0.  0.
         23    2    4    4    0    0 -0.17800071226E+03  0.24525965424E+03 -0.10522102287E+03  0.33309241757E+03  0.89680228725E+02 0.  0.
          1    1    3    3  502    0 -0.95369486715E+02  0.15758577034E+02 -0.18458360686E+03  0.20836213588E+03  0.00000000000E+00 0. -1.
         -2    1    3    3    0  502 -0.67951430710E+02 -0.34296737287E+01 -0.34073029130E+03  0.34745689086E+03  0.00000000000E+00 0.  1.
         11    1    5    5    0    0  0.35460417196E+02 -0.21452187790E+02  0.10138481246E+03  0.10952861611E+03  0.00000000000E+00 0.  1.
        -11    1    5    5    0    0  0.30586121249E+03 -0.23613636975E+03  0.40327783356E+03  0.55851989890E+03  0.00000000000E+00 0. -1.
          3    1    6    6  503    0 -0.15135268481E+03  0.23840062061E+03 -0.11352147037E+03  0.30435113823E+03  0.00000000000E+00 0. -1.
         -3    1    6    6    0  503 -0.26648027450E+02  0.68590336285E+01  0.83004474988E+01  0.28741279338E+02  0.00000000000E+00 0.  1.
<mgrwt>
<rscale>  0 0.15518636E+04</rscale>
<asrwt>0</asrwt>
<pdfrwt beam="1">  1        1 0.12944863E+00 0.15518636E+04</pdfrwt>
<pdfrwt beam="2">  1       -2 0.11008367E+00 0.15518636E+04</pdfrwt>
<totfact> 0.11272307E+01</totfact>
</mgrwt>
</event>
<event>
12    4  0.4424320E-008  0.1996250E+04  0.7818608E-02  0.8608376E-01
          1   -1    0    0  501    0  0.00000000000E+00  0.00000000000E+00  0.25751829215E+04  0.25751829215E+04  0.00000000000E+00 0. -1.
         -2   -1    0    0    0  501 -0.00000000000E+00 -0.00000000000E+00 -0.38686690000E+03  0.38686690000E+03  0.00000000000E+00 0.  1.
        -24    2    1    2    0    0  0.12001438444E+03  0.22406244259E+03  0.20554366997E+04  0.20726588980E+04  0.80544710404E+02 0.  0.
        254    2    1    2    0    0 -0.12001438444E+03 -0.22406244259E+03  0.13287932182E+03  0.88939092352E+03  0.84187402266E+03 0.  0.
         23    2    4    4    0    0 -0.34043298274E+03 -0.35234981050E+01  0.35238248838E+03  0.49851044275E+03  0.91827080058E+02 0.  0.
         23    2    4    4    0    0  0.22041859831E+03 -0.22053894448E+03 -0.21950316656E+03  0.39088048077E+03  0.85930935106E+02 0.  0.
          1    1    3    3  502    0  0.72481642275E+02  0.15951851734E+03  0.11001578644E+04  0.11140229228E+04  0.00000000000E+00 0. -1.
         -2    1    3    3    0  502  0.47532742160E+02  0.64543925245E+02  0.95527883526E+03  0.95863597521E+03  0.00000000000E+00 0.  1.
         11    1    5    5    0    0 -0.26127528509E+03  0.22699910055E+02  0.30629814245E+03  0.40323518272E+03  0.00000000000E+00 0. -1.
        -11    1    5    5    0    0 -0.79157697650E+02 -0.26223408160E+02  0.46084345930E+02  0.95275260024E+02  0.00000000000E+00 0.  1.
          3    1    6    6  503    0  0.10251793741E+03 -0.16106605464E+03 -0.11954171372E+03  0.22526078835E+03  0.00000000000E+00 0. -1.
         -3    1    6    6    0  503  0.11790066090E+03 -0.59472889847E+02 -0.99961452832E+02  0.16561969243E+03  0.00000000000E+00 0.  1.
<mgrwt>
<rscale>  0 0.19962495E+04</rscale>
<asrwt>0</asrwt>
<pdfrwt beam="1">  1        1 0.39618198E+00 0.19962495E+04</pdfrwt>
<pdfrwt beam="2">  1       -2 0.59517986E-01 0.19962495E+04</pdfrwt>
<totfact> 0.25807491E+00</totfact>
</mgrwt>
</event>
<event>
12    4  0.4424320E-008  0.1094470E+04  0.7818608E-02  0.9210598E-01
          1   -1    0    0  501    0  0.00000000000E+00  0.00000000000E+00  0.12533676176E+04  0.12533676176E+04  0.00000000000E+00 0. -1.
         -2   -1    0    0    0  501 -0.00000000000E+00 -0.00000000000E+00 -0.23892927528E+03  0.23892927528E+03  0.00000000000E+00 0.  1.
        -24    2    1    2    0    0 -0.11706506391E+03 -0.36466236772E+02  0.13174400907E+02  0.15163130686E+03  0.88229659230E+02 0.  0.
        254    2    1    2    0    0  0.11706506391E+03  0.36466236772E+02  0.10012639414E+04  0.13406655860E+04  0.88307458211E+03 0.  0.
         23    2    4    4    0    0 -0.16239423211E+03 -0.28724617433E+03  0.77686669883E+03  0.84891652252E+03  0.90857818432E+02 0.  0.
         23    2    4    4    0    0  0.27945929602E+03  0.32371241110E+03  0.22439724260E+03  0.49174906352E+03  0.92605592410E+02 0.  0.
          1    1    3    3  502    0  0.69836606964E+01 -0.76549325610E+01 -0.17774235796E+02  0.20574084849E+02  0.00000000000E+00 0. -1.
         -2    1    3    3    0  502 -0.12404872461E+03 -0.28811304211E+02  0.30948636704E+02  0.13105722201E+03  0.00000000000E+00 0.  1.
         11    1    5    5    0    0 -0.76396114090E+02 -0.69697148463E+02  0.30866505153E+03  0.32552753000E+03  0.00000000000E+00 0.  1.
        -11    1    5    5    0    0 -0.85998118019E+02 -0.21754902587E+03  0.46820164730E+03  0.52338899252E+03  0.00000000000E+00 0. -1.
          4    1    6    6  503    0  0.19588888205E+03  0.16222243507E+03  0.11139892234E+03  0.27766579272E+03  0.00000000000E+00 0.  1.
         -4    1    6    6    0  503  0.83570413977E+02  0.16148997604E+03  0.11299832026E+03  0.21408327080E+03  0.00000000000E+00 0. -1.
<mgrwt>
<rscale>  0 0.10944701E+04</rscale>
<asrwt>0</asrwt>
<pdfrwt beam="1">  1        1 0.19282578E+00 0.10944701E+04</pdfrwt>
<pdfrwt beam="2">  1       -2 0.36758351E-01 0.10944701E+04</pdfrwt>
<totfact> 0.59538223E+01</totfact>
</mgrwt>
</event>
<event>
12    4  0.4424320E-008  0.1625539E+04  0.7818608E-02  0.8805010E-01
         -2   -1    0    0    0  501 -0.00000000000E+00  0.00000000000E+00  0.33724117807E+03  0.33724117807E+03  0.00000000000E+00 0.  1.
          1   -1    0    0  501    0  0.00000000000E+00 -0.00000000000E+00 -0.19588190263E+04  0.19588190263E+04  0.00000000000E+00 0. -1.
        -24    2    1    2    0    0  0.28673223699E+03 -0.22945339812E+03  0.33880442491E+02  0.37804357726E+03  0.83095272332E+02 0.  0.
        254    2    1    2    0    0 -0.28673223699E+03  0.22945339812E+03 -0.16554582908E+04  0.19180166272E+04  0.89631545338E+03 0.  0.
         23    2    4    4    0    0  0.97213108731E+02 -0.93592904323E+02 -0.12650161397E+04  0.12754763717E+04  0.91455568502E+02 0.  0.
         23    2    4    4    0    0 -0.38394534572E+03  0.32304630245E+03 -0.39044215110E+03  0.64254025543E+03  0.92951409122E+02 0.  0.
          1    1    3    3  502    0  0.96999285132E+02 -0.36295100403E+02 -0.88161906976E+01  0.10394191093E+03  0.00000000000E+00 0. -1.
         -2    1    3    3    0  502  0.18973295186E+03 -0.19315829772E+03  0.42696633189E+02  0.27410166633E+03  0.00000000000E+00 0.  1.
         11    1    5    5    0    0  0.66716669108E+02 -0.11385091187E+02 -0.36690318570E+03  0.37309339570E+03  0.00000000000E+00 0.  1.
        -11    1    5    5    0    0  0.30496439624E+02 -0.82207813137E+02 -0.89811295396E+03  0.90238297604E+03  0.00000000000E+00 0. -1.
          3    1    6    6  503    0 -0.25015959328E+03  0.15110695128E+03 -0.23243957793E+03  0.37341838496E+03  0.00000000000E+00 0. -1.
         -3    1    6    6    0  503 -0.13378575244E+03  0.17193935116E+03 -0.15800257318E+03  0.26912187047E+03  0.00000000000E+00 0.  1.
<mgrwt>
<rscale>  0 0.16255392E+04</rscale>
<asrwt>0</asrwt>
<pdfrwt beam="1">  1        1 0.30135677E+00 0.16255392E+04</pdfrwt>
<pdfrwt beam="2">  1       -2 0.51883259E-01 0.16255392E+04</pdfrwt>
<totfact> 0.93748462E+00</totfact>
</mgrwt>
</event>
<event>
12    4  0.4424320E-008  0.3097104E+04  0.7818608E-02  0.8216533E-01
         -4   -1    0    0    0  501 -0.00000000000E+00  0.00000000000E+00  0.25952178491E+04  0.25952178491E+04  0.00000000000E+00 0.  1.
          3   -1    0    0  501    0  0.00000000000E+00 -0.00000000000E+00 -0.92401217061E+03  0.92401217061E+03  0.00000000000E+00 0. -1.
        -24    2    1    2    0    0 -0.13053933461E+04 -0.54774406676E+03  0.77785294605E+03  0.16172566192E+04  0.79927567618E+02 0.  0.
        254    2    1    2    0    0  0.13053933461E+04  0.54774406676E+03  0.89335273246E+03  0.19019734005E+04  0.90296642287E+03 0.  0.
         23    2    4    4    0    0  0.83450930523E+03 -0.12137579334E+03  0.54501339343E+03  0.10080206199E+04  0.89039920344E+02 0.  0.
         23    2    4    4    0    0  0.47088404089E+03  0.66911986009E+03  0.34833933903E+03  0.89395278058E+03  0.91422708699E+02 0.  0.
          3    1    3    3  502    0 -0.95251184126E+02 -0.51821330468E+02  0.81167832609E+02  0.13544908792E+03  0.00000000000E+00 0. -1.
         -4    1    3    3    0  502 -0.12101421620E+04 -0.49592273629E+03  0.69668511344E+03  0.14818075313E+04  0.00000000000E+00 0.  1.
         11    1    5    5    0    0  0.58309457026E+03 -0.62346336722E+02  0.41856413379E+03  0.72047364814E+03  0.00000000000E+00 0.  1.
        -11    1    5    5    0    0  0.25141473496E+03 -0.59029456616E+02  0.12644925964E+03  0.28754697176E+03  0.00000000000E+00 0. -1.
          1    1    6    6  503    0  0.56001204033E+02  0.48836910338E+02  0.11419336165E+02  0.75176990515E+02  0.00000000000E+00 0. -1.
         -1    1    6    6    0  503  0.41488283686E+03  0.62028294975E+03  0.33692000286E+03  0.81877579007E+03  0.00000000000E+00 0.  1.
<mgrwt>
<rscale>  0 0.30971037E+04</rscale>
<asrwt>0</asrwt>
<pdfrwt beam="1">  1        3 0.14215572E+00 0.30971037E+04</pdfrwt>
<pdfrwt beam="2">  1       -4 0.39926428E+00 0.30971037E+04</pdfrwt>
<totfact> 0.49126954E-03</totfact>
</mgrwt>
</event>
<event>
12    4  0.4424320E-008  0.3108821E+04  0.7818608E-02  0.8213321E-01
          1   -1    0    0  501    0  0.00000000000E+00  0.00000000000E+00  0.17434696272E+04  0.17434696272E+04  0.00000000000E+00 0. -1.
         -2   -1    0    0    0  501 -0.00000000000E+00 -0.00000000000E+00 -0.13858524437E+04  0.13858524437E+04  0.00000000000E+00 0.  1.
        -24    2    1    2    0    0  0.50807128842E+03  0.11117613527E+04  0.79379860932E+03  0.14596409841E+04  0.79283231715E+02 0.  0.
        254    2    1    2    0    0 -0.50807128842E+03 -0.11117613527E+04 -0.43618142591E+03  0.16696810868E+04  0.10504432187E+04 0.  0.
         23    2    4    4    0    0  0.14156235077E+03 -0.75945703915E+03  0.51546356397E+02  0.77960812607E+03  0.91197093756E+02 0.  0.
         23    2    4    4    0    0 -0.64963363920E+03 -0.35230431359E+03 -0.48772778231E+03  0.89007296071E+03  0.90605138938E+02 0.  0.
          3    1    3    3  502    0  0.46220356378E+03  0.94578170951E+03  0.68638172560E+03  0.12566841487E+04  0.00000000000E+00 0. -1.
         -4    1    3    3    0  502  0.45867724640E+02  0.16597964322E+03  0.10741688372E+03  0.20295683540E+03  0.00000000000E+00 0.  1.
         11    1    5    5    0    0  0.13656677770E+03 -0.74685083421E+03  0.37612608557E+02  0.76016535152E+03  0.00000000000E+00 0. -1.
        -11    1    5    5    0    0  0.49955730773E+01 -0.12606204938E+02  0.13933747840E+02  0.19442774549E+02  0.00000000000E+00 0.  1.
          1    1    6    6  503    0 -0.60054685411E+03 -0.31377248378E+03 -0.41638948756E+03  0.79529233676E+03  0.00000000000E+00 0. -1.
         -1    1    6    6    0  503 -0.49086785082E+02 -0.38531829810E+02 -0.71338294746E+02  0.94780623945E+02  0.00000000000E+00 0.  1.
<mgrwt>
<rscale>  0 0.31088208E+04</rscale>
<asrwt>0</asrwt>
<pdfrwt beam="1">  1        1 0.26822610E+00 0.31088208E+04</pdfrwt>
<pdfrwt beam="2">  1       -2 0.21320807E+00 0.31088208E+04</pdfrwt>
<totfact> 0.36018868E-01</totfact>
</mgrwt>
</event>
<event>
12    4  0.4424320E-008  0.1220944E+04  0.7818608E-02  0.9094719E-01
         -2   -1    0    0    0  501 -0.00000000000E+00  0.00000000000E+00  0.29166067488E+03  0.29166067488E+03  0.00000000000E+00 0.  1.
          1   -1    0    0  501    0  0.00000000000E+00 -0.00000000000E+00 -0.12777730559E+04  0.12777730559E+04  0.00000000000E+00 0. -1.
        -24    2    1    2    0    0 -0.28056786431E+02 -0.17140574586E+03 -0.50058921734E+03  0.53595258478E+03  0.80551198832E+02 0.  0.
        254    2    1    2    0    0  0.28056786431E+02  0.17140574586E+03 -0.48552316368E+03  0.10334811460E+04  0.89564693027E+03 0.  0.
         23    2    4    4    0    0  0.39594543510E+03  0.19391663339E+03 -0.45998018000E+02  0.45239451037E+03  0.90379904144E+02 0.  0.
         23    2    4    4    0    0 -0.36788864867E+03 -0.22510887524E+02 -0.43952514568E+03  0.58108663563E+03  0.92900627256E+02 0.  0.
          3    1    3    3  502    0 -0.23775003670E+02 -0.17712357013E+03 -0.49658426855E+03  0.52776315300E+03  0.00000000000E+00 0. -1.
         -4    1    3    3    0  502 -0.42817827607E+01  0.57178242721E+01 -0.40049487956E+01  0.81894317795E+01  0.00000000000E+00 0.  1.
         11    1    5    5    0    0  0.33268935358E+02  0.33028978669E+00  0.15514141287E+02  0.36709940494E+02  0.00000000000E+00 0.  1.
        -11    1    5    5    0    0  0.36267649975E+03  0.19358634360E+03 -0.61512159287E+02  0.41568456988E+03  0.00000000000E+00 0. -1.
          3    1    6    6  503    0 -0.25414852961E+03  0.10385855462E+02 -0.24378160733E+03  0.35231919216E+03  0.00000000000E+00 0. -1.
         -3    1    6    6    0  503 -0.11374011906E+03 -0.32896742986E+02 -0.19574353835E+03  0.22876744347E+03  0.00000000000E+00 0.  1.
<mgrwt>
<rscale>  0 0.12209441E+04</rscale>
<asrwt>0</asrwt>
<pdfrwt beam="1">  1        1 0.19658047E+00 0.12209441E+04</pdfrwt>
<pdfrwt beam="2">  1       -2 0.44870874E-01 0.12209441E+04</pdfrwt>
<totfact> 0.38306891E+01</totfact>
</mgrwt>
</event>
<event>
12    4  0.4424320E-008  0.1608365E+04  0.7818608E-02  0.8815425E-01
         -2   -1    0    0    0  501 -0.00000000000E+00  0.00000000000E+00  0.39340574251E+03  0.39340574251E+03  0.00000000000E+00 0.  1.
          1   -1    0    0  501    0  0.00000000000E+00 -0.00000000000E+00 -0.16438745232E+04  0.16438745232E+04  0.00000000000E+00 0. -1.
        -24    2    1    2    0    0 -0.24210502434E+03  0.12894460231E+03 -0.10263718387E+04  0.10654043894E+04  0.80036294011E+02 0.  0.
        254    2    1    2    0    0  0.24210502434E+03 -0.12894460231E+03 -0.22409694203E+03  0.97187587636E+03  0.90503133998E+03 0.  0.
         23    2    4    4    0    0  0.54806148413E+03 -0.47344575087E+02  0.25182979189E+02  0.55905914458E+03  0.96436743607E+02 0.  0.
         23    2    4    4    0    0 -0.30595645979E+03 -0.81600027228E+02 -0.24927992122E+03  0.41281673178E+03  0.89494442204E+02 0.  0.
          1    1    3    3  502    0 -0.17215427213E+03  0.77951677243E+02 -0.82221914881E+03  0.84365744593E+03  0.00000000000E+00 0. -1.
         -2    1    3    3    0  502 -0.69950752208E+02  0.50992925072E+02 -0.20415268989E+03  0.22174694345E+03  0.00000000000E+00 0.  1.
         11    1    5    5    0    0  0.31418382343E+02  0.20299180458E+02  0.32215102850E+01  0.37543968954E+02  0.00000000000E+00 0.  1.
        -11    1    5    5    0    0  0.51664310179E+03 -0.67643755545E+02  0.21961468904E+02  0.52151517562E+03  0.00000000000E+00 0. -1.
          1    1    6    6  503    0 -0.23683805454E+02 -0.34880366810E+02 -0.22917115297E+02  0.47987048285E+02  0.00000000000E+00 0.  1.
         -1    1    6    6    0  503 -0.28227265433E+03 -0.46719660418E+02 -0.22636280592E+03  0.36482968350E+03  0.00000000000E+00 0. -1.
<mgrwt>
<rscale>  0 0.16083652E+04</rscale>
<asrwt>0</asrwt>
<pdfrwt beam="1">  1        1 0.25290377E+00 0.16083652E+04</pdfrwt>
<pdfrwt beam="2">  1       -2 0.60523962E-01 0.16083652E+04</pdfrwt>
<totfact> 0.11140765E+01</totfact>
</mgrwt>
</event>
<event>
12    4  0.4424320E-008  0.1694780E+04  0.7818608E-02  0.8764347E-01
         -2   -1    0    0    0  501 -0.00000000000E+00  0.00000000000E+00  0.56585519867E+03  0.56585519867E+03  0.00000000000E+00 0.  1.
          1   -1    0    0  501    0  0.00000000000E+00 -0.00000000000E+00 -0.12689985994E+04  0.12689985994E+04  0.00000000000E+00 0. -1.
        -24    2    1    2    0    0  0.40073798426E+03  0.33447065864E+03 -0.58818601095E+03  0.79045665080E+03  0.79983622018E+02 0.  0.
        254    2    1    2    0    0 -0.40073798426E+03 -0.33447065864E+03 -0.11495738978E+03  0.10443971473E+04  0.89726732151E+03 0.  0.
         23    2    4    4    0    0 -0.16754378914E+03 -0.73198405295E+02 -0.48556618281E+03  0.52662161894E+03  0.90149230884E+02 0.  0.
         23    2    4    4    0    0 -0.23319419512E+03 -0.26127225334E+03  0.37060879303E+03  0.51777552834E+03  0.89988317388E+02 0.  0.
          3    1    3    3  502    0  0.33245987478E+03  0.24885376990E+03 -0.42745546336E+03  0.59596639191E+03  0.00000000000E+00 0. -1.
         -4    1    3    3    0  502  0.68278109475E+02  0.85616888734E+02 -0.16073054760E+03  0.19449025889E+03  0.00000000000E+00 0.  1.
         11    1    5    5    0    0 -0.12896488752E+03 -0.49314890066E+02 -0.23986026894E+03  0.27676135787E+03  0.00000000000E+00 0.  1.
        -11    1    5    5    0    0 -0.38578901616E+02 -0.23883515229E+02 -0.24570591387E+03  0.24986026107E+03  0.00000000000E+00 0. -1.
          2    1    6    6  503    0 -0.19159497700E+03 -0.25125944190E+03  0.30308103833E+03  0.43783336802E+03  0.00000000000E+00 0. -1.
         -2    1    6    6    0  503 -0.41599218122E+02 -0.10012811444E+02  0.67527754699E+02  0.79942160316E+02  0.00000000000E+00 0.  1.
<mgrwt>
<rscale>  0 0.16947796E+04</rscale>
<asrwt>0</asrwt>
<pdfrwt beam="1">  1        1 0.19523055E+00 0.16947796E+04</pdfrwt>
<pdfrwt beam="2">  1       -2 0.87054648E-01 0.16947796E+04</pdfrwt>
<totfact> 0.90719782E+00</totfact>
</mgrwt>
</event>
<event>
12    4  0.4424320E-008  0.1141572E+04  0.7818608E-02  0.9165594E-01
         -2   -1    0    0    0  501 -0.00000000000E+00  0.00000000000E+00  0.23820466261E+04  0.23820466261E+04  0.00000000000E+00 0.  1.
          1   -1    0    0  501    0  0.00000000000E+00 -0.00000000000E+00 -0.13677167907E+03  0.13677167907E+03  0.00000000000E+00 0. -1.
        -24    2    1    2    0    0  0.31844751703E+02  0.19429004294E+02  0.82249357710E+03  0.82725291682E+03  0.80374931430E+02 0.  0.
        254    2    1    2    0    0 -0.31844751703E+02 -0.19429004294E+02  0.14227813700E+04  0.16915653884E+04  0.91416358604E+03 0.  0.
         23    2    4    4    0    0 -0.17445541751E+03  0.17258249963E+03  0.14088722083E+04  0.14330347444E+04  0.91914457024E+02 0.  0.
         23    2    4    4    0    0  0.14261066580E+03 -0.19201150393E+03  0.13909161643E+02  0.25853064398E+03  0.97151476879E+02 0.  0.
          1    1    3    3  502    0  0.52406017517E+02 -0.29188489766E+01  0.36524648332E+03  0.36899851481E+03  0.00000000000E+00 0. -1.
         -2    1    3    3    0  502 -0.20561265814E+02  0.22347853271E+02  0.45724709378E+03  0.45825440202E+03  0.00000000000E+00 0.  1.
         11    1    5    5    0    0 -0.14706308427E+03  0.17601211759E+03  0.11467521214E+04  0.11694649393E+04  0.00000000000E+00 0.  1.
        -11    1    5    5    0    0 -0.27392333238E+02 -0.34296179603E+01  0.26212008693E+03  0.26356980512E+03  0.00000000000E+00 0. -1.
          1    1    6    6  503    0  0.42085624534E+02 -0.10019791516E+03 -0.34522851758E+02  0.11402915982E+03  0.00000000000E+00 0. -1.
         -1    1    6    6    0  503  0.10052504127E+03 -0.91813588766E+02  0.48432013401E+02  0.14450148417E+03  0.00000000000E+00 0.  1.
<mgrwt>
<rscale>  0 0.11415718E+04</rscale>
<asrwt>0</asrwt>
<pdfrwt beam="1">  1        1 0.21041798E-01 0.11415718E+04</pdfrwt>
<pdfrwt beam="2">  1       -2 0.36646868E+00 0.11415718E+04</pdfrwt>
<totfact> 0.26436955E+00</totfact>
</mgrwt>
</event>
<event>
12    4  0.4424320E-008  0.1262039E+04  0.7818608E-02  0.9060222E-01
          3   -1    0    0  501    0  0.00000000000E+00  0.00000000000E+00  0.56560376983E+03  0.56560376983E+03  0.00000000000E+00 0. -1.
         -4   -1    0    0    0  501 -0.00000000000E+00 -0.00000000000E+00 -0.70400149550E+03  0.70400149550E+03  0.00000000000E+00 0.  1.
        -24    2    1    2    0    0  0.13103654767E+03  0.21688884166E+03  0.13282979062E+03  0.29681596630E+03  0.79022896121E+02 0.  0.
        254    2    1    2    0    0 -0.13103654767E+03 -0.21688884166E+03 -0.27122751629E+03  0.97278929903E+03  0.89919036263E+03 0.  0.
         23    2    4    4    0    0 -0.45280736456E+03  0.98646518833E+02 -0.16634029421E+03  0.50112417672E+03  0.93223934332E+02 0.  0.
         23    2    4    4    0    0  0.32177081689E+03 -0.31553536049E+03 -0.10488722208E+03  0.47166512231E+03  0.91474783033E+02 0.  0.
          3    1    3    3  502    0  0.70236187438E+02  0.17928017934E+03  0.11007327571E+03  0.22178960922E+03  0.00000000000E+00 0. -1.
         -4    1    3    3    0  502  0.60800360236E+02  0.37608662319E+02  0.22756514901E+02  0.75026357080E+02  0.00000000000E+00 0.  1.
         11    1    5    5    0    0 -0.50966020420E+02  0.41402942790E+02 -0.35578736651E+02  0.74683233800E+02  0.00000000000E+00 0.  1.
        -11    1    5    5    0    0 -0.40184134414E+03  0.57243576043E+02 -0.13076155756E+03  0.42644094292E+03  0.00000000000E+00 0. -1.
          2    1    6    6  503    0  0.21389293804E+03 -0.18060125611E+03 -0.24172134624E+02  0.28098273033E+03  0.00000000000E+00 0. -1.
         -2    1    6    6    0  503  0.10787787885E+03 -0.13493410438E+03 -0.80715087455E+02  0.19068239198E+03  0.00000000000E+00 0.  1.
<mgrwt>
<rscale>  0 0.12620395E+04</rscale>
<asrwt>0</asrwt>
<pdfrwt beam="1">  1        3 0.87015964E-01 0.12620395E+04</pdfrwt>
<pdfrwt beam="2">  1       -4 0.10830792E+00 0.12620395E+04</pdfrwt>
<totfact> 0.18443009E+00</totfact>
</mgrwt>
</event>
<event>
12    4  0.4424320E-008  0.2337553E+04  0.7818608E-02  0.8463260E-01
         -2   -1    0    0    0  501 -0.00000000000E+00  0.00000000000E+00  0.54394419540E+03  0.54394419540E+03  0.00000000000E+00 0.  1.
          1   -1    0    0  501    0  0.00000000000E+00 -0.00000000000E+00 -0.25113571835E+04  0.25113571835E+04  0.00000000000E+00 0. -1.
        -24    2    1    2    0    0 -0.39941281156E+02 -0.99291212516E+03 -0.78013824347E+03  0.12659312612E+04  0.80600774316E+02 0.  0.
        254    2    1    2    0    0  0.39941281156E+02  0.99291212516E+03 -0.11872747446E+04  0.17893701177E+04  0.89708099121E+03 0.  0.
         23    2    4    4    0    0  0.37109439444E+03  0.27930353866E+03 -0.17361843292E+03  0.50322961644E+03  0.85878811835E+02 0.  0.
         23    2    4    4    0    0 -0.33115311328E+03  0.71360858650E+03 -0.10136563117E+04  0.12861405013E+04  0.88083322117E+02 0.  0.
          1    1    3    3  502    0 -0.18671073642E+02 -0.73670518226E+03 -0.53461806970E+03  0.91043924290E+03  0.00000000000E+00 0. -1.
         -2    1    3    3    0  502 -0.21270207514E+02 -0.25620694290E+03 -0.24552017377E+03  0.35549201826E+03  0.00000000000E+00 0.  1.
         11    1    5    5    0    0  0.16527781961E+03  0.17584736737E+03 -0.75651499552E+02  0.25290750019E+03  0.00000000000E+00 0.  1.
        -11    1    5    5    0    0  0.20581657483E+03  0.10345617128E+03 -0.97966933367E+02  0.25032211625E+03  0.00000000000E+00 0. -1.
          2    1    6    6  503    0 -0.22936486330E+03  0.53897444526E+03 -0.69669594389E+03  0.91021257483E+03  0.00000000000E+00 0. -1.
         -2    1    6    6    0  503 -0.10178824998E+03  0.17463414125E+03 -0.31696036783E+03  0.37592792647E+03  0.00000000000E+00 0.  1.
<mgrwt>
<rscale>  0 0.23375527E+04</rscale>
<asrwt>0</asrwt>
<pdfrwt beam="1">  1        1 0.38636264E+00 0.23375527E+04</pdfrwt>
<pdfrwt beam="2">  1       -2 0.83683723E-01 0.23375527E+04</pdfrwt>
<totfact> 0.13151108E+00</totfact>
</mgrwt>
</event>
<event>
12    4  0.4424320E-008  0.2585949E+04  0.7818608E-02  0.8372990E-01
         -2   -1    0    0    0  501 -0.00000000000E+00  0.00000000000E+00  0.91184140660E+03  0.91184140660E+03  0.00000000000E+00 0.  1.
          1   -1    0    0  501    0  0.00000000000E+00 -0.00000000000E+00 -0.18334143272E+04  0.18334143272E+04  0.00000000000E+00 0. -1.
        -24    2    1    2    0    0  0.61166402288E+03 -0.25715766117E+03  0.56348306970E+03  0.87345103761E+03  0.71698017332E+02 0.  0.
        254    2    1    2    0    0 -0.61166402288E+03  0.25715766117E+03 -0.14850559903E+04  0.18718046962E+04  0.92628213130E+03 0.  0.
         23    2    4    4    0    0 -0.26948531054E+03  0.34317015440E+03 -0.12370777155E+03  0.46245072293E+03  0.90382359573E+02 0.  0.
         23    2    4    4    0    0 -0.34217871233E+03 -0.86012493228E+02 -0.13613482187E+04  0.14093539733E+04  0.92332167240E+02 0.  0.
          3    1    3    3  502    0  0.71694632055E+02 -0.12073352541E+02  0.82138671292E+02  0.10969342473E+03  0.00000000000E+00 0. -1.
         -4    1    3    3    0  502  0.53996939082E+03 -0.24508430863E+03  0.48134439841E+03  0.76375761289E+03  0.00000000000E+00 0.  1.
         11    1    5    5    0    0 -0.26205365808E+03  0.29127529582E+03 -0.12053981716E+03  0.40993080537E+03  0.00000000000E+00 0. -1.
        -11    1    5    5    0    0 -0.74316524646E+01  0.51894858580E+02 -0.31679543951E+01  0.52519917560E+02  0.00000000000E+00 0.  1.
          2    1    6    6  503    0 -0.11824609331E+02  0.13925292326E+02 -0.99113689511E+02  0.10078322579E+03  0.00000000000E+00 0. -1.
         -2    1    6    6    0  503 -0.33035410300E+03 -0.99937785553E+02 -0.12622345292E+04  0.13085707475E+04  0.00000000000E+00 0.  1.
<mgrwt>
<rscale>  0 0.25859490E+04</rscale>
<asrwt>0</asrwt>
<pdfrwt beam="1">  1        1 0.28206374E+00 0.25859490E+04</pdfrwt>
<pdfrwt beam="2">  1       -2 0.14028329E+00 0.25859490E+04</pdfrwt>
<totfact> 0.10703229E+00</totfact>
</mgrwt>
</event>
<event>
12    4  0.4424320E-008  0.2638162E+04  0.7818608E-02  0.8355353E-01
         -2   -1    0    0    0  501 -0.00000000000E+00  0.00000000000E+00  0.17983077839E+04  0.17983077839E+04  0.00000000000E+00 0.  1.
          1   -1    0    0  501    0  0.00000000000E+00 -0.00000000000E+00 -0.96756256983E+03  0.96756256983E+03  0.00000000000E+00 0. -1.
        -24    2    1    2    0    0 -0.21420744536E+03 -0.26797479174E+03 -0.79841483902E+03  0.87270921994E+03  0.80372935473E+02 0.  0.
        254    2    1    2    0    0  0.21420744536E+03  0.26797479174E+03  0.16291600531E+04  0.18931611338E+04  0.90122210430E+03 0.  0.
         23    2    4    4    0    0  0.55057489739E+03  0.87259257764E+02  0.10534408069E+04  0.11958139750E+04  0.97399350642E+02 0.  0.
         23    2    4    4    0    0 -0.33636745204E+03  0.18071553398E+03  0.57571924617E+03  0.69734715876E+03  0.95074930485E+02 0.  0.
          1    1    3    3  502    0 -0.17789775300E+03 -0.20786970927E+03 -0.70199858790E+03  0.75343177791E+03  0.00000000000E+00 0. -1.
         -2    1    3    3    0  502 -0.36309692355E+02 -0.60105082474E+02 -0.96416251117E+02  0.11927744203E+03  0.00000000000E+00 0.  1.
         11    1    5    5    0    0  0.51144871677E+03  0.73487497922E+02  0.90961128195E+03  0.10461227875E+04  0.00000000000E+00 0.  1.
        -11    1    5    5    0    0  0.39126180622E+02  0.13771759841E+02  0.14382952495E+03  0.14969118754E+03  0.00000000000E+00 0. -1.
          3    1    6    6  503    0 -0.10505228911E+01 -0.84361537514E+01  0.13108383990E+02  0.15623764568E+02  0.00000000000E+00 0. -1.
         -3    1    6    6    0  503 -0.33531692915E+03  0.18915168773E+03  0.56261086218E+03  0.68172339419E+03  0.00000000000E+00 0.  1.
<mgrwt>
<rscale>  0 0.26381625E+04</rscale>
<asrwt>0</asrwt>
<pdfrwt beam="1">  1        1 0.14885578E+00 0.26381625E+04</pdfrwt>
<pdfrwt beam="2">  1       -2 0.27666274E+00 0.26381625E+04</pdfrwt>
<totfact> 0.54537789E-01</totfact>
</mgrwt>
</event>
<event>
12    4  0.4424320E-008  0.2669670E+04  0.7818608E-02  0.8344914E-01
          1   -1    0    0  501    0  0.00000000000E+00  0.00000000000E+00  0.17222581309E+04  0.17222581309E+04  0.00000000000E+00 0. -1.
         -2   -1    0    0    0  501 -0.00000000000E+00 -0.00000000000E+00 -0.10345629534E+04  0.10345629534E+04  0.00000000000E+00 0.  1.
        -24    2    1    2    0    0 -0.20179445596E+03 -0.48637928971E+03  0.13942446059E+04  0.14924881255E+04  0.79479354323E+02 0.  0.
        254    2    1    2    0    0  0.20179445596E+03  0.48637928971E+03 -0.70654942833E+03  0.12643329588E+04  0.90666417170E+03 0.  0.
         23    2    4    4    0    0  0.45953702684E+03  0.49149374159E+03 -0.23403052274E+03  0.71816595237E+03  0.90838717044E+02 0.  0.
         23    2    4    4    0    0 -0.25774257088E+03 -0.51144518852E+01 -0.47251890559E+03  0.54616700648E+03  0.92557508408E+02 0.  0.
          3    1    3    3  502    0 -0.14874258090E+03 -0.43041651344E+03  0.11859743959E+04  0.12704007234E+04  0.00000000000E+00 0. -1.
         -4    1    3    3    0  502 -0.53051875063E+02 -0.55962776266E+02  0.20827021002E+03  0.22208740207E+03  0.00000000000E+00 0.  1.
         11    1    5    5    0    0  0.35955859876E+03  0.32511275470E+03 -0.17285424794E+03  0.51464480979E+03  0.00000000000E+00 0.  1.
        -11    1    5    5    0    0  0.99978428075E+02  0.16638098690E+03 -0.61176274807E+02  0.20352114259E+03  0.00000000000E+00 0. -1.
          2    1    6    6  503    0 -0.23396256250E+03  0.80128348974E+01 -0.46024380202E+03  0.51635941307E+03  0.00000000000E+00 0.  1.
         -2    1    6    6    0  503 -0.23780008378E+02 -0.13127286783E+02 -0.12275103572E+02  0.29807593403E+02  0.00000000000E+00 0. -1.
<mgrwt>
<rscale>  0 0.26696700E+04</rscale>
<asrwt>0</asrwt>
<pdfrwt beam="1">  1        1 0.26496279E+00 0.26696700E+04</pdfrwt>
<pdfrwt beam="2">  1       -2 0.15916353E+00 0.26696700E+04</pdfrwt>
<totfact> 0.90445797E-01</totfact>
</mgrwt>
</event>
<event>
12    4  0.4424320E-008  0.2061947E+04  0.7818608E-02  0.8578194E-01
          1   -1    0    0  501    0  0.00000000000E+00  0.00000000000E+00  0.31018682647E+04  0.31018682647E+04  0.00000000000E+00 0. -1.
         -2   -1    0    0    0  501 -0.00000000000E+00 -0.00000000000E+00 -0.34266655720E+03  0.34266655720E+03  0.00000000000E+00 0.  1.
        -24    2    1    2    0    0 -0.16554803030E+03 -0.18158777054E+03  0.24817397099E+04  0.24952137887E+04  0.81728791009E+02 0.  0.
        254    2    1    2    0    0  0.16554803030E+03  0.18158777054E+03  0.27746199763E+03  0.94932103315E+03  0.87398226246E+03 0.  0.
         23    2    4    4    0    0  0.45217584691E+03 -0.20134995946E+02 -0.45195967454E+02  0.46403015110E+03  0.91721813488E+02 0.  0.
         23    2    4    4    0    0 -0.28662781660E+03  0.20172276649E+03  0.32265796508E+03  0.48529088205E+03  0.92474309943E+02 0.  0.
          3    1    3    3  502    0 -0.16425848001E+03 -0.15842835387E+03  0.20118709708E+04  0.20247728749E+04  0.00000000000E+00 0. -1.
         -4    1    3    3    0  502 -0.12895502941E+01 -0.23159416669E+02  0.46986873903E+03  0.47044091386E+03  0.00000000000E+00 0.  1.
         11    1    5    5    0    0  0.45169286330E+03 -0.20156499533E+02 -0.53872192675E+02  0.45534046643E+03  0.00000000000E+00 0. -1.
        -11    1    5    5    0    0  0.48298361005E+00  0.21503587079E-01  0.86762252211E+01  0.86896846697E+01  0.00000000000E+00 0.  1.
          4    1    6    6  503    0 -0.60022115039E+02  0.53547749296E+02  0.28101264235E+02  0.85203854374E+02  0.00000000000E+00 0. -1.
         -4    1    6    6    0  503 -0.22660570156E+03  0.14817501719E+03  0.29455670084E+03  0.40008702767E+03  0.00000000000E+00 0.  1.
<mgrwt>
<rscale>  0 0.20619472E+04</rscale>
<asrwt>0</asrwt>
<pdfrwt beam="1">  1        1 0.47721048E+00 0.20619472E+04</pdfrwt>
<pdfrwt beam="2">  1       -2 0.52717934E-01 0.20619472E+04</pdfrwt>
<totfact> 0.13871201E+00</totfact>
</mgrwt>
</event>
<event>
12    4  0.4424320E-008  0.1549911E+04  0.7818608E-02  0.8851925E-01
          1   -1    0    0  501    0  0.00000000000E+00  0.00000000000E+00  0.54872229118E+03  0.54872229118E+03  0.00000000000E+00 0. -1.
         -2   -1    0    0    0  501 -0.00000000000E+00 -0.00000000000E+00 -0.10944627101E+04  0.10944627101E+04  0.00000000000E+00 0.  1.
        -24    2    1    2    0    0  0.25113402332E+03  0.29320538485E+03  0.16046155066E+03  0.42566866880E+03  0.80051302179E+02 0.  0.
        254    2    1    2    0    0 -0.25113402332E+03 -0.29320538485E+03 -0.70620196957E+03  0.12175163325E+04  0.91355738880E+03 0.  0.
         23    2    4    4    0    0 -0.23494896880E+03  0.41729327440E+02 -0.81442188798E+03  0.85357139965E+03  0.91426298103E+02 0.  0.
         23    2    4    4    0    0 -0.16185054521E+02 -0.33493471229E+03  0.10821991840E+03  0.36394493281E+03  0.91110624485E+02 0.  0.
          3    1    3    3  502    0  0.18757228697E+03  0.26492816600E+03  0.12864133395E+03  0.34916885426E+03  0.00000000000E+00 0. -1.
         -4    1    3    3    0  502  0.63561736346E+02  0.28277218846E+02  0.31820216710E+02  0.76499814538E+02  0.00000000000E+00 0.  1.
         11    1    5    5    0    0 -0.74000425593E+02  0.33582750502E+02 -0.15820350269E+03  0.17785446967E+03  0.00000000000E+00 0. -1.
        -11    1    5    5    0    0 -0.16094854321E+03  0.81465769385E+01 -0.65621838529E+03  0.67571692998E+03  0.00000000000E+00 0.  1.
          3    1    6    6  503    0  0.16712620123E+02 -0.21392151132E+03  0.31340475473E+02  0.21685006359E+03  0.00000000000E+00 0. -1.
         -3    1    6    6    0  503 -0.32897674645E+02 -0.12101320097E+03  0.76879442932E+02  0.14709486923E+03  0.00000000000E+00 0.  1.
<mgrwt>
<rscale>  0 0.15499111E+04</rscale>
<asrwt>0</asrwt>
<pdfrwt beam="1">  1        1 0.84418815E-01 0.15499111E+04</pdfrwt>
<pdfrwt beam="2">  1       -2 0.16837888E+00 0.15499111E+04</pdfrwt>
<totfact> 0.71743749E+00</totfact>
</mgrwt>
</event>
<event>
12    4  0.4424320E-008  0.1056678E+04  0.7818608E-02  0.9248477E-01
          1   -1    0    0  501    0  0.00000000000E+00  0.00000000000E+00  0.14108867646E+04  0.14108867646E+04  0.00000000000E+00 0. -1.
         -2   -1    0    0    0  501 -0.00000000000E+00 -0.00000000000E+00 -0.19784856562E+03  0.19784856562E+03  0.00000000000E+00 0.  1.
        -24    2    1    2    0    0  0.86866219927E+02 -0.22177777943E+02  0.30197285261E+03  0.32483139741E+03  0.79311027155E+02 0.  0.
        254    2    1    2    0    0 -0.86866219927E+02  0.22177777943E+02  0.91106534636E+03  0.12839039328E+04  0.90018423077E+03 0.  0.
         23    2    4    4    0    0 -0.15377915147E+03 -0.32404990423E+03  0.84003517779E+02  0.38011060661E+03  0.93654227897E+02 0.  0.
         23    2    4    4    0    0  0.66912931538E+02  0.34622768217E+03  0.82706182858E+03  0.90379332619E+03  0.91979127374E+02 0.  0.
          3    1    3    3  502    0  0.37006881863E+02  0.13941352839E+02  0.21296190325E+03  0.21660249966E+03  0.00000000000E+00 0. -1.
         -4    1    3    3    0  502  0.49859338064E+02 -0.36119130783E+02  0.89010949357E+02  0.10822889774E+03  0.00000000000E+00 0.  1.
         11    1    5    5    0    0 -0.11569886104E+02  0.10117367608E+01 -0.73329167952E+01  0.13735266450E+02  0.00000000000E+00 0. -1.
        -11    1    5    5    0    0 -0.14220926536E+03 -0.32506164099E+03  0.91336434575E+02  0.36637534016E+03  0.00000000000E+00 0.  1.
          1    1    6    6  503    0 -0.22194743408E+02  0.44850802775E+02  0.10592709646E+03  0.11715268204E+03  0.00000000000E+00 0. -1.
         -1    1    6    6    0  503  0.89107674946E+02  0.30137687940E+03  0.72113473211E+03  0.78664064415E+03  0.00000000000E+00 0.  1.
<mgrwt>
<rscale>  0 0.10566777E+04</rscale>
<asrwt>0</asrwt>
<pdfrwt beam="1">  1        1 0.21705950E+00 0.10566777E+04</pdfrwt>
<pdfrwt beam="2">  1       -2 0.30438242E-01 0.10566777E+04</pdfrwt>
<totfact> 0.66026741E+01</totfact>
</mgrwt>
</event>
<event>
12    4  0.4424320E-008  0.1485190E+04  0.7818608E-02  0.8894362E-01
          1   -1    0    0  501    0  0.00000000000E+00  0.00000000000E+00  0.28830790473E+04  0.28830790473E+04  0.00000000000E+00 0. -1.
         -2   -1    0    0    0  501 -0.00000000000E+00 -0.00000000000E+00 -0.19127028242E+03  0.19127028242E+03  0.00000000000E+00 0.  1.
        -24    2    1    2    0    0  0.17644329959E+03 -0.13279166160E+03  0.17198391785E+04  0.17357790155E+04  0.79474069360E+02 0.  0.
        254    2    1    2    0    0 -0.17644329959E+03  0.13279166160E+03  0.97196958647E+03  0.13385703142E+04  0.89346502210E+03 0.  0.
         23    2    4    4    0    0  0.21876691889E+03 -0.32406225839E+01 -0.39390790230E+02  0.24033393003E+03  0.91319752157E+02 0.  0.
         23    2    4    4    0    0 -0.39521021847E+03  0.13603228418E+03  0.10113603767E+04  0.10982363842E+04  0.92614495984E+02 0.  0.
          3    1    3    3  502    0  0.17988682641E+03 -0.11294916251E+03  0.14907301068E+04  0.15057865170E+04  0.00000000000E+00 0. -1.
         -4    1    3    3    0  502 -0.34435268194E+01 -0.19842499086E+02  0.22910907169E+03  0.22999249853E+03  0.00000000000E+00 0.  1.
         11    1    5    5    0    0  0.94037692746E+02 -0.38600002894E+02 -0.43632294889E+02  0.11062018368E+03  0.00000000000E+00 0.  1.
        -11    1    5    5    0    0  0.12472922614E+03  0.35359380310E+02  0.42415046590E+01  0.12971374635E+03  0.00000000000E+00 0. -1.
          2    1    6    6  503    0 -0.26618595281E+03  0.68785236965E+02  0.55714212683E+03  0.62128392848E+03  0.00000000000E+00 0. -1.
         -2    1    6    6    0  503 -0.12902426566E+03  0.67247047217E+02  0.45421824988E+03  0.47695245571E+03  0.00000000000E+00 0.  1.
<mgrwt>
<rscale>  0 0.14851900E+04</rscale>
<asrwt>0</asrwt>
<pdfrwt beam="1">  1        1 0.44355059E+00 0.14851900E+04</pdfrwt>
<pdfrwt beam="2">  1       -2 0.29426199E-01 0.14851900E+04</pdfrwt>
<totfact> 0.66051312E+00</totfact>
</mgrwt>
</event>
<event>
12    4  0.4424320E-008  0.1752578E+04  0.7818608E-02  0.8731933E-01
          1   -1    0    0  501    0  0.00000000000E+00  0.00000000000E+00  0.44682853410E+03  0.44682853410E+03  0.00000000000E+00 0. -1.
         -2   -1    0    0    0  501 -0.00000000000E+00 -0.00000000000E+00 -0.17185164146E+04  0.17185164146E+04  0.00000000000E+00 0.  1.
        -24    2    1    2    0    0 -0.14671016878E+03  0.61730546768E+03 -0.58648167473E+03  0.86770684287E+03  0.79777793350E+02 0.  0.
        254    2    1    2    0    0  0.14671016878E+03 -0.61730546768E+03 -0.68520620576E+03  0.12976381058E+04  0.90098124022E+03 0.  0.
         23    2    4    4    0    0  0.26188990125E+03 -0.26938551611E+03 -0.81225123447E+03  0.89929926474E+03  0.88499847438E+02 0.  0.
         23    2    4    4    0    0 -0.11517973247E+03 -0.34791995157E+03  0.12704502871E+03  0.39833884109E+03  0.90657208911E+02 0.  0.
          3    1    3    3  502    0 -0.96747337100E+01  0.11084150514E+03 -0.69861818165E+02  0.13137775067E+03  0.00000000000E+00 0. -1.
         -4    1    3    3    0  502 -0.13703543507E+03  0.50646396255E+03 -0.51661985656E+03  0.73632909220E+03  0.00000000000E+00 0.  1.
         11    1    5    5    0    0  0.13224978084E+03 -0.18943285118E+03 -0.43692306871E+03  0.49424343962E+03  0.00000000000E+00 0.  1.
        -11    1    5    5    0    0  0.12964012041E+03 -0.79952664934E+02 -0.37532816576E+03  0.40505582512E+03  0.00000000000E+00 0. -1.
          4    1    6    6  503    0 -0.97425998880E+02 -0.26700045369E+03  0.57061797064E+02  0.28989155940E+03  0.00000000000E+00 0. -1.
         -4    1    6    6    0  503 -0.17753733588E+02 -0.80919497880E+02  0.69983231646E+02  0.10844728169E+03  0.00000000000E+00 0.  1.
<mgrwt>
<rscale>  0 0.17525777E+04</rscale>
<asrwt>0</asrwt>
<pdfrwt beam="1">  1        1 0.68742853E-01 0.17525777E+04</pdfrwt>
<pdfrwt beam="2">  1       -2 0.26438714E+00 0.17525777E+04</pdfrwt>
<totfact> 0.22482704E+00</totfact>
</mgrwt>
</event>
<event>
12    4  0.4424320E-008  0.1889069E+04  0.7818608E-02  0.8660316E-01
         -2   -1    0    0    0  501 -0.00000000000E+00  0.00000000000E+00  0.21247270788E+04  0.21247270788E+04  0.00000000000E+00 0.  1.
          1   -1    0    0  501    0  0.00000000000E+00 -0.00000000000E+00 -0.41988723811E+03  0.41988723811E+03  0.00000000000E+00 0. -1.
        -24    2    1    2    0    0  0.46170525980E+03  0.40149251194E+03  0.11885765275E+04  0.13392220961E+04  0.80210204112E+02 0.  0.
        254    2    1    2    0    0 -0.46170525980E+03 -0.40149251194E+03  0.51626331316E+03  0.12053922208E+04  0.90115182592E+03 0.  0.
         23    2    4    4    0    0 -0.90217382131E+01 -0.62145198570E+01 -0.22725098914E+03  0.24567714458E+03  0.92705098498E+02 0.  0.
         23    2    4    4    0    0 -0.45268352158E+03 -0.39527799209E+03  0.74351430230E+03  0.95971507621E+03  0.84097848027E+02 0.  0.
          1    1    3    3  502    0  0.23078172071E+02  0.53313832566E+01  0.26980846652E+02  0.35902531381E+02  0.00000000000E+00 0. -1.
         -2    1    3    3    0  502  0.43862708773E+03  0.39616112869E+03  0.11615956809E+04  0.13033195647E+04  0.00000000000E+00 0.  1.
         11    1    5    5    0    0  0.13827866305E+02 -0.30871377982E+02 -0.28880597743E+02  0.44478543041E+02  0.00000000000E+00 0.  1.
        -11    1    5    5    0    0 -0.22849604518E+02  0.24656858125E+02 -0.19837039139E+03  0.20119860154E+03  0.00000000000E+00 0. -1.
          1    1    6    6  503    0 -0.40818084614E+03 -0.32402156025E+03  0.61421484896E+03  0.80551936994E+03  0.00000000000E+00 0. -1.
         -1    1    6    6    0  503 -0.44502675448E+02 -0.71256431836E+02  0.12929945334E+03  0.15419570627E+03  0.00000000000E+00 0.  1.
<mgrwt>
<rscale>  0 0.18890694E+04</rscale>
<asrwt>0</asrwt>
<pdfrwt beam="1">  1        1 0.64598038E-01 0.18890694E+04</pdfrwt>
<pdfrwt beam="2">  1       -2 0.32688108E+00 0.18890694E+04</pdfrwt>
<totfact> 0.10021353E+00</totfact>
</mgrwt>
</event>
<event>
12    4  0.4424320E-008  0.1761591E+04  0.7818608E-02  0.8726996E-01
         -2   -1    0    0    0  501 -0.00000000000E+00  0.00000000000E+00  0.15821690364E+04  0.15821690364E+04  0.00000000000E+00 0.  1.
          1   -1    0    0  501    0  0.00000000000E+00 -0.00000000000E+00 -0.49034006473E+03  0.49034006473E+03  0.00000000000E+00 0. -1.
        -24    2    1    2    0    0  0.34080614196E+02  0.45810827263E+03 -0.11060751466E+03  0.47901016442E+03  0.78689501255E+02 0.  0.
        254    2    1    2    0    0 -0.34080614196E+02 -0.45810827263E+03  0.12024364863E+04  0.15934989367E+04  0.93934055587E+03 0.  0.
         23    2    4    4    0    0  0.76220206021E+01 -0.93491233013E+02  0.12083050453E+04  0.12153179767E+04  0.90542786207E+02 0.  0.
         23    2    4    4    0    0 -0.41702634798E+02 -0.36461703961E+03 -0.58685590012E+01  0.37818095999E+03  0.91113682757E+02 0.  0.
          1    1    3    3  502    0  0.16554695141E+02  0.25407419552E+03 -0.10126551066E+03  0.27401178516E+03  0.00000000000E+00 0. -1.
         -2    1    3    3    0  502  0.17525919055E+02  0.20403407711E+03 -0.93420040034E+01  0.20499837926E+03  0.00000000000E+00 0.  1.
         11    1    5    5    0    0  0.30350972047E+02 -0.12640337351E+02  0.14405595772E+03  0.14776020637E+03  0.00000000000E+00 0.  1.
        -11    1    5    5    0    0 -0.22728951445E+02 -0.80850895662E+02  0.10642490876E+04  0.10675577703E+04  0.00000000000E+00 0. -1.
          1    1    6    6  503    0 -0.19161847032E+02 -0.34406014148E+03  0.79620757383E+01  0.34468529413E+03  0.00000000000E+00 0. -1.
         -1    1    6    6    0  503 -0.22540787766E+02 -0.20556898130E+02 -0.13830634740E+02  0.33495665857E+02  0.00000000000E+00 0.  1.
<mgrwt>
<rscale>  0 0.17615912E+04</rscale>
<asrwt>0</asrwt>
<pdfrwt beam="1">  1        1 0.75436933E-01 0.17615912E+04</pdfrwt>
<pdfrwt beam="2">  1       -2 0.24341062E+00 0.17615912E+04</pdfrwt>
<totfact> 0.26607827E+00</totfact>
</mgrwt>
</event>
<event>
12    4  0.4424320E-008  0.1708798E+04  0.7818608E-02  0.8756363E-01
          1   -1    0    0  501    0  0.00000000000E+00  0.00000000000E+00  0.22911903757E+04  0.22911903757E+04  0.00000000000E+00 0. -1.
         -2   -1    0    0    0  501 -0.00000000000E+00 -0.00000000000E+00 -0.31861055118E+03  0.31861055118E+03  0.00000000000E+00 0.  1.
        -24    2    1    2    0    0  0.17987366337E+03 -0.10507613712E+03 -0.16128989416E+03  0.27487378714E+03  0.78394129435E+02 0.  0.
        254    2    1    2    0    0 -0.17987366337E+03  0.10507613712E+03  0.21338697187E+04  0.23349271398E+04  0.92471035584E+03 0.  0.
         23    2    4    4    0    0 -0.27877980814E+03  0.35657955392E+03  0.51666629152E+03  0.69279566872E+03  0.90302946231E+02 0.  0.
         23    2    4    4    0    0  0.98906144777E+02 -0.25150341680E+03  0.16172034272E+04  0.16421314710E+04  0.90622564209E+02 0.  0.
          1    1    3    3  502    0  0.58112670991E+02 -0.35449647811E+02 -0.10401363006E+02  0.68861806627E+02  0.00000000000E+00 0. -1.
         -2    1    3    3    0  502  0.12176099238E+03 -0.69626489313E+02 -0.15088853116E+03  0.20601198051E+03  0.00000000000E+00 0.  1.
         11    1    5    5    0    0 -0.11369615277E+03  0.20480331093E+03  0.22417193072E+03  0.32422872458E+03  0.00000000000E+00 0.  1.
        -11    1    5    5    0    0 -0.16508365537E+03  0.15177624299E+03  0.29249436081E+03  0.36856694414E+03  0.00000000000E+00 0. -1.
          2    1    6    6  503    0  0.84599413483E+02 -0.95758808858E+02  0.79124531478E+03  0.80149607510E+03  0.00000000000E+00 0. -1.
         -2    1    6    6    0  503  0.14306731294E+02 -0.15574460794E+03  0.82595811241E+03  0.84063539594E+03  0.00000000000E+00 0.  1.
<mgrwt>
<rscale>  0 0.17087977E+04</rscale>
<asrwt>0</asrwt>
<pdfrwt beam="1">  1        1 0.35249082E+00 0.17087977E+04</pdfrwt>
<pdfrwt beam="2">  1       -2 0.49017009E-01 0.17087977E+04</pdfrwt>
<totfact> 0.62151667E+00</totfact>
</mgrwt>
</event>
<event>
12    4  0.4424320E-008  0.4555574E+04  0.7818608E-02  0.7900979E-01
         -4   -1    0    0    0  501 -0.00000000000E+00  0.00000000000E+00  0.14992550576E+04  0.14992550576E+04  0.00000000000E+00 0.  1.
          1   -1    0    0  501    0  0.00000000000E+00 -0.00000000000E+00 -0.34605942434E+04  0.34605942434E+04  0.00000000000E+00 0. -1.
        -24    2    1    2    0    0  0.65020760939E+03 -0.20244527239E+04 -0.38595745804E+03  0.21625329960E+04  0.80043940515E+02 0.  0.
        254    2    1    2    0    0 -0.65020760939E+03  0.20244527239E+04 -0.15753817278E+04  0.27973163050E+04  0.90662680056E+03 0.  0.
         23    2    4    4    0    0 -0.72201137283E+03  0.14989589286E+04 -0.78740538478E+03  0.18427998100E+04  0.87895436011E+02 0.  0.
         23    2    4    4    0    0  0.71803763443E+02  0.52549379538E+03 -0.78797634299E+03  0.95451649507E+03  0.94316026246E+02 0.  0.
          3    1    3    3  502    0  0.10088115668E+03 -0.27063062052E+03 -0.28179032311E+02  0.29019303644E+03  0.00000000000E+00 0. -1.
         -4    1    3    3    0  502  0.54932645271E+03 -0.17538221034E+04 -0.35777842573E+03  0.18723399595E+04  0.00000000000E+00 0.  1.
         11    1    5    5    0    0 -0.21312771442E+01  0.63393105029E+01 -0.10798269531E+02  0.12701646538E+02  0.00000000000E+00 0. -1.
        -11    1    5    5    0    0 -0.71988009569E+03  0.14926196181E+04 -0.77660711525E+03  0.18300981634E+04  0.00000000000E+00 0.  1.
          1    1    6    6  503    0 -0.15255482396E+01  0.26300686420E+03 -0.33554198433E+03  0.42633714494E+03  0.00000000000E+00 0. -1.
         -1    1    6    6    0  503  0.73329311683E+02  0.26248693119E+03 -0.45243435867E+03  0.52817935012E+03  0.00000000000E+00 0.  1.
<mgrwt>
<rscale>  0 0.45555739E+04</rscale>
<asrwt>0</asrwt>
<pdfrwt beam="1">  1        1 0.53239911E+00 0.45555739E+04</pdfrwt>
<pdfrwt beam="2">  1       -4 0.23065462E+00 0.45555739E+04</pdfrwt>
<totfact> 0.81807175E-03</totfact>
</mgrwt>
</event>
<event>
12    4  0.4424320E-008  0.1399530E+04  0.7818608E-02  0.8954159E-01
         -2   -1    0    0    0  501 -0.00000000000E+00  0.00000000000E+00  0.40271193608E+03  0.40271193608E+03  0.00000000000E+00 0.  1.
          1   -1    0    0  501    0  0.00000000000E+00 -0.00000000000E+00 -0.12159340473E+04  0.12159340473E+04  0.00000000000E+00 0. -1.
        -24    2    1    2    0    0  0.37480852325E+03  0.12673717053E+03 -0.31583692679E+03  0.51249754899E+03  0.79731009646E+02 0.  0.
        254    2    1    2    0    0 -0.37480852325E+03 -0.12673717053E+03 -0.49738518446E+03  0.11061484344E+04  0.90533341802E+03 0.  0.
         23    2    4    4    0    0  0.19833065220E+03  0.20521096358E+03 -0.26208470409E+03  0.39795515943E+03  0.90737696801E+02 0.  0.
         23    2    4    4    0    0 -0.57313917545E+03 -0.33194813411E+03 -0.23530048038E+03  0.70819327501E+03  0.86563967820E+02 0.  0.
          3    1    3    3  502    0  0.37660507795E+02  0.33737963460E+02 -0.19844521890E+02  0.54317299959E+02  0.00000000000E+00 0. -1.
         -4    1    3    3    0  502  0.33714801546E+03  0.92999207067E+02 -0.29599240490E+03  0.45818024903E+03  0.00000000000E+00 0.  1.
         11    1    5    5    0    0 -0.60010450625E+01  0.20127100364E+02 -0.34822456967E+02  0.40665909803E+02  0.00000000000E+00 0.  1.
        -11    1    5    5    0    0  0.20433169726E+03  0.18508386322E+03 -0.22726224712E+03  0.35728924962E+03  0.00000000000E+00 0. -1.
          3    1    6    6  503    0 -0.56282783258E+02 -0.41056946788E+02 -0.53576203982E+02  0.87885346924E+02  0.00000000000E+00 0.  1.
         -3    1    6    6    0  503 -0.51685639219E+03 -0.29089118732E+03 -0.18172427639E+03  0.62030792808E+03  0.00000000000E+00 0. -1.
<mgrwt>
<rscale>  0 0.13995301E+04</rscale>
<asrwt>0</asrwt>
<pdfrwt beam="1">  1        1 0.18706678E+00 0.13995301E+04</pdfrwt>
<pdfrwt beam="2">  1       -2 0.61955682E-01 0.13995301E+04</pdfrwt>
<totfact> 0.21524610E+01</totfact>
</mgrwt>
</event>
<event>
12    4  0.4424320E-008  0.1695897E+04  0.7818608E-02  0.8763708E-01
          1   -1    0    0  501    0  0.00000000000E+00  0.00000000000E+00  0.34979471290E+04  0.34979471290E+04  0.00000000000E+00 0. -1.
         -2   -1    0    0    0  501 -0.00000000000E+00 -0.00000000000E+00 -0.20555396440E+03  0.20555396440E+03  0.00000000000E+00 0.  1.
        -24    2    1    2    0    0 -0.50416104846E+03  0.13541469299E+03  0.18721691176E+04  0.19452164355E+04  0.79588153557E+02 0.  0.
        254    2    1    2    0    0  0.50416104846E+03 -0.13541469299E+03  0.14202240471E+04  0.17582846579E+04  0.89555183696E+03 0.  0.
         23    2    4    4    0    0 -0.20587112020E+03 -0.19405573288E+03  0.58798288709E+03  0.65882916690E+03  0.91057399724E+02 0.  0.
         23    2    4    4    0    0  0.71003216866E+03  0.58641039889E+02  0.83224115996E+03  0.10994554911E+04  0.92696150815E+02 0.  0.
          1    1    3    3  502    0 -0.33437692931E+03  0.87724198161E+02  0.10941989962E+04  0.11475081303E+04  0.00000000000E+00 0. -1.
         -2    1    3    3    0  502 -0.16978411915E+03  0.47690494829E+02  0.77797012133E+03  0.79770830514E+03  0.00000000000E+00 0.  1.
         11    1    5    5    0    0 -0.20988670931E+03 -0.17219419810E+03  0.51021144683E+03  0.57794376290E+03  0.00000000000E+00 0.  1.
        -11    1    5    5    0    0  0.40155891037E+01 -0.21861534781E+02  0.77771440263E+02  0.80885403995E+02  0.00000000000E+00 0. -1.
          1    1    6    6  503    0  0.56288362793E+02  0.30602843689E+02  0.77575155738E+02  0.10061221902E+03  0.00000000000E+00 0. -1.
         -1    1    6    6    0  503  0.65374380587E+03  0.28038196199E+02  0.75466600422E+03  0.99884327204E+03  0.00000000000E+00 0.  1.
<mgrwt>
<rscale>  0 0.16958973E+04</rscale>
<asrwt>0</asrwt>
<pdfrwt beam="1">  1        1 0.53814567E+00 0.16958973E+04</pdfrwt>
<pdfrwt beam="2">  1       -2 0.31623689E-01 0.16958973E+04</pdfrwt>
<totfact> 0.19638250E+00</totfact>
</mgrwt>
</event>
<event>
12    4  0.4424320E-008  0.1292592E+04  0.7818608E-02  0.9035460E-01
          1   -1    0    0  501    0  0.00000000000E+00  0.00000000000E+00  0.83203488109E+03  0.83203488109E+03  0.00000000000E+00 0. -1.
         -2   -1    0    0    0  501 -0.00000000000E+00 -0.00000000000E+00 -0.50202046434E+03  0.50202046434E+03  0.00000000000E+00 0.  1.
        -24    2    1    2    0    0  0.65099766955E+02  0.30364010531E+03  0.20008106708E+03  0.37807262161E+03  0.80443648569E+02 0.  0.
        254    2    1    2    0    0 -0.65099766955E+02 -0.30364010531E+03  0.12993334967E+03  0.95598272382E+03  0.89475415600E+03 0.  0.
         23    2    4    4    0    0  0.59568665340E+02  0.27752994515E+03  0.18677272177E+03  0.35154010625E+03  0.90139338591E+02 0.  0.
         23    2    4    4    0    0 -0.12466843229E+03 -0.58117005046E+03 -0.56839372097E+02  0.60444261757E+03  0.93911224810E+02 0.  0.
          3    1    3    3  502    0  0.25488696300E+02  0.12797565364E+03  0.13185017493E+03  0.18550447485E+03  0.00000000000E+00 0. -1.
         -4    1    3    3    0  502  0.39611070655E+02  0.17566445167E+03  0.68230892154E+02  0.19256814675E+03  0.00000000000E+00 0.  1.
         11    1    5    5    0    0 -0.24074618253E+02  0.69483021893E+02  0.43296252933E+02  0.85334887903E+02  0.00000000000E+00 0.  1.
        -11    1    5    5    0    0  0.83643283592E+02  0.20804692326E+03  0.14347646884E+03  0.26620521835E+03  0.00000000000E+00 0. -1.
          1    1    6    6  503    0 -0.12060091594E+03 -0.34412498489E+03 -0.37780991005E+02  0.36659785792E+03  0.00000000000E+00 0. -1.
         -1    1    6    6    0  503 -0.40675163570E+01 -0.23704506557E+03 -0.19058381092E+02  0.23784475964E+03  0.00000000000E+00 0.  1.
<mgrwt>
<rscale>  0 0.12925920E+04</rscale>
<asrwt>0</asrwt>
<pdfrwt beam="1">  1        1 0.12800537E+00 0.12925920E+04</pdfrwt>
<pdfrwt beam="2">  1       -2 0.77233918E-01 0.12925920E+04</pdfrwt>
<totfact> 0.26732571E+01</totfact>
</mgrwt>
</event>
<event>
12    4  0.7651808E-008  0.2067903E+04  0.7818608E-02  0.8575516E-01
          1   -1    0    0  501    0  0.00000000000E+00  0.00000000000E+00  0.23280401216E+04  0.23280401216E+04  0.00000000000E+00 0. -1.
         -2   -1    0    0    0  501 -0.00000000000E+00 -0.00000000000E+00 -0.45920853990E+03  0.45920853990E+03  0.00000000000E+00 0.  1.
        -24    2    1    2    0    0 -0.27987382973E+03  0.66863203554E+03  0.13197162838E+04  0.15074474006E+04  0.73133004018E+02 0.  0.
        254    2    1    2    0    0  0.27987382973E+03 -0.66863203554E+03  0.54911529785E+03  0.12798012609E+04  0.90053622774E+03 0.  0.
         23    2    4    4    0    0  0.57770870139E+03 -0.33892181442E+03  0.45841656162E+03  0.81667378922E+03  0.90526206545E+02 0.  0.
         23    2    4    4    0    0 -0.29783487167E+03 -0.32971022112E+03  0.90698736227E+02  0.46312747165E+03  0.94055055950E+02 0.  0.
          1    1    3    3  502    0 -0.25214454916E+03  0.61222085105E+03  0.11576934562E+04  0.13336586455E+04  0.00000000000E+00 0. -1.
         -2    1    3    3    0  502 -0.27729280563E+02  0.56411184493E+02  0.16202282762E+03  0.17378875512E+03  0.00000000000E+00 0.  1.
         11    1    5    5    0    0  0.57210967941E+03 -0.32658382467E+03  0.43438545888E+03  0.78908631131E+03  0.00000000000E+00 0. -1.
        -11    1    5    5    0    0  0.55990219822E+01 -0.12337989749E+02  0.24031102745E+02  0.27587477909E+02  0.00000000000E+00 0.  1.
          3    1    6    6  503    0 -0.29715643663E+03 -0.29370198374E+03  0.88279357188E+02  0.42703167094E+03  0.00000000000E+00 0. -1.
         -3    1    6    6    0  503 -0.67843503446E+00 -0.36008237384E+02  0.24193790391E+01  0.36095800705E+02  0.00000000000E+00 0.  1.
<mgrwt>
<rscale>  0 0.20679032E+04</rscale>
<asrwt>0</asrwt>
<pdfrwt beam="1">  1        1 0.35816001E+00 0.20679032E+04</pdfrwt>
<pdfrwt beam="2">  1       -2 0.70647469E-01 0.20679032E+04</pdfrwt>
<totfact> 0.26283778E+00</totfact>
</mgrwt>
</event>
<event>
12    4  0.4424320E-008  0.2561466E+04  0.7818608E-02  0.8381409E-01
          1   -1    0    0  501    0  0.00000000000E+00  0.00000000000E+00  0.23699553437E+04  0.23699553437E+04  0.00000000000E+00 0. -1.
         -2   -1    0    0    0  501 -0.00000000000E+00 -0.00000000000E+00 -0.69211312213E+03  0.69211312213E+03  0.00000000000E+00 0.  1.
        -24    2    1    2    0    0 -0.78647603490E+03 -0.44881968642E+03 -0.54676193751E+02  0.91064049491E+03  0.79328181671E+02 0.  0.
        254    2    1    2    0    0  0.78647603490E+03  0.44881968642E+03  0.17325184153E+04  0.21514279709E+04  0.89835326584E+03 0.  0.
         23    2    4    4    0    0  0.36004574467E+03  0.67565781728E+03  0.90360495008E+03  0.11878542124E+04  0.91374503154E+02 0.  0.
         23    2    4    4    0    0  0.42643029024E+03 -0.22683813086E+03  0.82891346522E+03  0.96357375849E+03  0.89880616360E+02 0.  0.
          1    1    3    3  502    0 -0.32644567436E+03 -0.19548445143E+03  0.15402341071E+02  0.38081252759E+03  0.00000000000E+00 0. -1.
         -2    1    3    3    0  502 -0.46003036054E+03 -0.25333523499E+03 -0.70078534821E+02  0.52982796732E+03  0.00000000000E+00 0.  1.
         11    1    5    5    0    0  0.27187071454E+02  0.68764195824E+02  0.13183380898E+03  0.15115490290E+03  0.00000000000E+00 0. -1.
        -11    1    5    5    0    0  0.33285867321E+03  0.60689362145E+03  0.77177114110E+03  0.10366993095E+04  0.00000000000E+00 0.  1.
          3    1    6    6  503    0  0.15910933073E+03 -0.66937896376E+02  0.22023871031E+03  0.27982414230E+03  0.00000000000E+00 0. -1.
         -3    1    6    6    0  503  0.26732095950E+03 -0.15990023448E+03  0.60867475491E+03  0.68374961619E+03  0.00000000000E+00 0.  1.
<mgrwt>
<rscale>  0 0.25614661E+04</rscale>
<asrwt>0</asrwt>
<pdfrwt beam="1">  1        1 0.36460851E+00 0.25614661E+04</pdfrwt>
<pdfrwt beam="2">  1       -2 0.10647894E+00 0.25614661E+04</pdfrwt>
<totfact> 0.91985929E-01</totfact>
</mgrwt>
</event>
<event>
12    4  0.4424320E-008  0.1510719E+04  0.7818608E-02  0.8877356E-01
          1   -1    0    0  501    0  0.00000000000E+00  0.00000000000E+00  0.16935597396E+04  0.16935597396E+04  0.00000000000E+00 0. -1.
         -2   -1    0    0    0  501 -0.00000000000E+00 -0.00000000000E+00 -0.33690443788E+03  0.33690443788E+03  0.00000000000E+00 0.  1.
        -24    2    1    2    0    0  0.38529549490E+03  0.23101274560E+03  0.21913619883E+03  0.50602672297E+03  0.78885129816E+02 0.  0.
        254    2    1    2    0    0 -0.38529549490E+03 -0.23101274560E+03  0.11375191029E+04  0.15244374545E+04  0.91002216250E+03 0.  0.
         23    2    4    4    0    0 -0.43401068042E+03 -0.28535211351E+03  0.12537641223E+04  0.13600985831E+04  0.90291650099E+02 0.  0.
         23    2    4    4    0    0  0.48715185524E+02  0.54339367911E+02 -0.11624501941E+03  0.16433887138E+03  0.90379333378E+02 0.  0.
          3    1    3    3  502    0  0.19811210284E+02  0.12221950116E+01  0.26926906699E+02  0.33451997219E+02  0.00000000000E+00 0. -1.
         -4    1    3    3    0  502  0.36548428461E+03  0.22979055058E+03  0.19220929213E+03  0.47257472575E+03  0.00000000000E+00 0.  1.
         11    1    5    5    0    0 -0.43488022727E+03 -0.27482053478E+03  0.12417714911E+04  0.13441144202E+04  0.00000000000E+00 0. -1.
        -11    1    5    5    0    0  0.86954684539E+00 -0.10531578725E+02  0.11992631129E+02  0.15984162898E+02  0.00000000000E+00 0.  1.
          2    1    6    6  503    0 -0.29786860230E+00 -0.18642131245E+02 -0.63106491965E-01  0.18644617601E+02  0.00000000000E+00 0.  1.
         -2    1    6    6    0  503  0.49013054127E+02  0.72981499156E+02 -0.11618191292E+03  0.14569425377E+03  0.00000000000E+00 0. -1.
<mgrwt>
<rscale>  0 0.15107188E+04</rscale>
<asrwt>0</asrwt>
<pdfrwt beam="1">  1        1 0.26054765E+00 0.15107188E+04</pdfrwt>
<pdfrwt beam="2">  1       -2 0.51831453E-01 0.15107188E+04</pdfrwt>
<totfact> 0.14357333E+01</totfact>
</mgrwt>
</event>
<event>
12    4  0.4424320E-008  0.2761265E+04  0.7818608E-02  0.8315396E-01
         -2   -1    0    0    0  501 -0.00000000000E+00  0.00000000000E+00  0.81000473074E+03  0.81000473074E+03  0.00000000000E+00 0.  1.
          1   -1    0    0  501    0  0.00000000000E+00 -0.00000000000E+00 -0.23532523569E+04  0.23532523569E+04  0.00000000000E+00 0. -1.
        -24    2    1    2    0    0  0.10240579751E+04 -0.10358779924E+03  0.84035351591E+02  0.10357091607E+04  0.78780433930E+02 0.  0.
        254    2    1    2    0    0 -0.10240579751E+04  0.10358779924E+03 -0.16272829777E+04  0.21275479269E+04  0.90497796837E+03 0.  0.
         23    2    4    4    0    0 -0.26133476529E+03 -0.35446408119E+03 -0.35811731412E+03  0.57493437623E+03  0.91437858133E+02 0.  0.
         23    2    4    4    0    0 -0.76272320980E+03  0.45805188043E+03 -0.12691656636E+04  0.15526135507E+04  0.90934790619E+02 0.  0.
          3    1    3    3  502    0  0.21161977809E+03  0.61611705193E+01  0.33416597735E+02  0.21433049131E+03  0.00000000000E+00 0. -1.
         -4    1    3    3    0  502  0.81243819699E+03 -0.10974896976E+03  0.50618753857E+02  0.82137866939E+03  0.00000000000E+00 0.  1.
         11    1    5    5    0    0 -0.13347651149E+02 -0.23331983720E+02  0.13027765929E+01  0.26911679293E+02  0.00000000000E+00 0. -1.
        -11    1    5    5    0    0 -0.24798711414E+03 -0.33113209747E+03 -0.35942009071E+03  0.54802269694E+03  0.00000000000E+00 0.  1.
          1    1    6    6  503    0 -0.22860086859E+03  0.17389129194E+03 -0.35991151344E+03  0.46047023361E+03  0.00000000000E+00 0. -1.
         -1    1    6    6    0  503 -0.53412234120E+03  0.28416058849E+03 -0.90925415017E+03  0.10921433171E+04  0.00000000000E+00 0.  1.
<mgrwt>
<rscale>  0 0.27612646E+04</rscale>
<asrwt>0</asrwt>
<pdfrwt beam="1">  1        1 0.36203882E+00 0.27612646E+04</pdfrwt>
<pdfrwt beam="2">  1       -2 0.12461611E+00 0.27612646E+04</pdfrwt>
<totfact> 0.63131027E-01</totfact>
</mgrwt>
</event>
<event>
12    4  0.4424320E-008  0.2129401E+04  0.7818608E-02  0.8548401E-01
          1   -1    0    0  501    0  0.00000000000E+00  0.00000000000E+00  0.96817165496E+03  0.96817165496E+03  0.00000000000E+00 0. -1.
         -2   -1    0    0    0  501 -0.00000000000E+00 -0.00000000000E+00 -0.11708536197E+04  0.11708536197E+04  0.00000000000E+00 0.  1.
        -24    2    1    2    0    0  0.53774854073E+03  0.66665307916E+03  0.13559275033E+02  0.86040447945E+03  0.80698161691E+02 0.  0.
        254    2    1    2    0    0 -0.53774854073E+03 -0.66665307916E+03 -0.21624123974E+03  0.12786207952E+04  0.92439766501E+03 0.  0.
         23    2    4    4    0    0 -0.28947481181E+02 -0.17600749727E+03  0.32617425443E+03  0.38282167017E+03  0.91357490852E+02 0.  0.
         23    2    4    4    0    0 -0.50880105955E+03 -0.49064558189E+03 -0.54241549418E+03  0.89579912501E+03  0.92897248616E+02 0.  0.
          1    1    3    3  502    0  0.18171453859E+03  0.20769645253E+03 -0.31695843178E+02  0.27778159839E+03  0.00000000000E+00 0. -1.
         -2    1    3    3    0  502  0.35603400215E+03  0.45895662663E+03  0.45255118211E+02  0.58262288107E+03  0.00000000000E+00 0.  1.
         11    1    5    5    0    0  0.74119414630E+01 -0.94624338607E+02  0.91697628582E+02  0.13197407859E+03  0.00000000000E+00 0. -1.
        -11    1    5    5    0    0 -0.36359422644E+02 -0.81383158662E+02  0.23447662585E+03  0.25084759158E+03  0.00000000000E+00 0.  1.
          1    1    6    6  503    0 -0.31803414780E+03 -0.24330147169E+03 -0.29653519539E+03  0.49827145955E+03  0.00000000000E+00 0. -1.
         -1    1    6    6    0  503 -0.19076691175E+03 -0.24734411021E+03 -0.24588029879E+03  0.39752766546E+03  0.00000000000E+00 0.  1.
<mgrwt>
<rscale>  0 0.21294011E+04</rscale>
<asrwt>0</asrwt>
<pdfrwt beam="1">  1        1 0.14894949E+00 0.21294011E+04</pdfrwt>
<pdfrwt beam="2">  1       -2 0.18013132E+00 0.21294011E+04</pdfrwt>
<totfact> 0.23323506E+00</totfact>
</mgrwt>
</event>
<event>
12    4  0.4424320E-008  0.1356186E+04  0.7818608E-02  0.8986159E-01
         -2   -1    0    0    0  501 -0.00000000000E+00  0.00000000000E+00  0.11821550087E+04  0.11821550087E+04  0.00000000000E+00 0.  1.
          1   -1    0    0  501    0  0.00000000000E+00 -0.00000000000E+00 -0.38895916606E+03  0.38895916606E+03  0.00000000000E+00 0. -1.
        -24    2    1    2    0    0  0.33425512310E+03  0.74320543165E+02  0.34971571332E+03  0.49593317869E+03  0.79991294118E+02 0.  0.
        254    2    1    2    0    0 -0.33425512310E+03 -0.74320543165E+02  0.44348012929E+03  0.10751809960E+04  0.91765435688E+03 0.  0.
         23    2    4    4    0    0 -0.47074632942E+03 -0.21583820176E+03 -0.57028290823E+02  0.52898967434E+03  0.91594833957E+02 0.  0.
         23    2    4    4    0    0  0.13649120632E+03  0.14151765859E+03  0.50050842012E+03  0.54619132169E+03  0.95703626815E+02 0.  0.
          1    1    3    3  502    0  0.11169737884E+03  0.15982602576E+02  0.16975901434E+03  0.20383785462E+03  0.00000000000E+00 0. -1.
         -2    1    3    3    0  502  0.22255774426E+03  0.58337940589E+02  0.17995669898E+03  0.29209532408E+03  0.00000000000E+00 0.  1.
         11    1    5    5    0    0 -0.12479344490E+03 -0.59351323069E+02  0.25254955374E+02  0.14047703090E+03  0.00000000000E+00 0. -1.
        -11    1    5    5    0    0 -0.34595288452E+03 -0.15648687869E+03 -0.82283246197E+02  0.38851264345E+03  0.00000000000E+00 0.  1.
          1    1    6    6  503    0  0.48371321150E+01  0.58834969142E+02  0.94353124650E+02  0.11129898280E+03  0.00000000000E+00 0. -1.
         -1    1    6    6    0  503  0.13165407421E+03  0.82682689451E+02  0.40615529547E+03  0.43489233889E+03  0.00000000000E+00 0.  1.
<mgrwt>
<rscale>  0 0.13561859E+04</rscale>
<asrwt>0</asrwt>
<pdfrwt beam="1">  1        1 0.59839872E-01 0.13561859E+04</pdfrwt>
<pdfrwt beam="2">  1       -2 0.18187000E+00 0.13561859E+04</pdfrwt>
<totfact> 0.93604748E+00</totfact>
</mgrwt>
</event>
<event>
12    4  0.4424320E-008  0.1540880E+04  0.7818608E-02  0.8857714E-01
         -2   -1    0    0    0  501 -0.00000000000E+00  0.00000000000E+00  0.34350229575E+03  0.34350229575E+03  0.00000000000E+00 0.  1.
          1   -1    0    0  501    0  0.00000000000E+00 -0.00000000000E+00 -0.17280164907E+04  0.17280164907E+04  0.00000000000E+00 0. -1.
        -24    2    1    2    0    0  0.19654736491E+02 -0.11205365819E+02 -0.11383105391E+04  0.11413478621E+04  0.80076150090E+02 0.  0.
        254    2    1    2    0    0 -0.19654736491E+02  0.11205365819E+02 -0.24620365580E+03  0.93017092438E+03  0.89671056620E+03 0.  0.
         23    2    4    4    0    0 -0.25063605303E+03 -0.35813936958E+03 -0.17741993510E+03  0.48009507471E+03  0.89057331338E+02 0.  0.
         23    2    4    4    0    0  0.23098131654E+03  0.36934473540E+03 -0.68783720698E+02  0.45007584967E+03  0.89828548180E+02 0.  0.
          3    1    3    3  502    0  0.44675805177E+02  0.71948624675E+01 -0.88239829197E+03  0.88355783019E+03  0.00000000000E+00 0. -1.
         -4    1    3    3    0  502 -0.25021068686E+02 -0.18400228286E+02 -0.25591224716E+03  0.25779003186E+03  0.00000000000E+00 0.  1.
         11    1    5    5    0    0 -0.15869578433E+03 -0.23542739790E+03 -0.68654041891E+02  0.29210236068E+03  0.00000000000E+00 0.  1.
        -11    1    5    5    0    0 -0.91940268700E+02 -0.12271197168E+03 -0.10876589321E+03  0.18799271403E+03  0.00000000000E+00 0. -1.
          4    1    6    6  503    0  0.14885724654E+03  0.18518192122E+03 -0.18107767037E+01  0.23760072118E+03  0.00000000000E+00 0. -1.
         -4    1    6    6    0  503  0.82124070000E+02  0.18416281417E+03 -0.66972943995E+02  0.21247512849E+03  0.00000000000E+00 0.  1.
<mgrwt>
<rscale>  0 0.15408798E+04</rscale>
<asrwt>0</asrwt>
<pdfrwt beam="1">  1        1 0.26584869E+00 0.15408798E+04</pdfrwt>
<pdfrwt beam="2">  1       -2 0.52846507E-01 0.15408798E+04</pdfrwt>
<totfact> 0.13036523E+01</totfact>
</mgrwt>
</event>
<event>
12    4  0.4424320E-008  0.1172444E+04  0.7818608E-02  0.9137324E-01
          1   -1    0    0  501    0  0.00000000000E+00  0.00000000000E+00  0.30141648186E+04  0.30141648186E+04  0.00000000000E+00 0. -1.
         -2   -1    0    0    0  501 -0.00000000000E+00 -0.00000000000E+00 -0.11401377929E+03  0.11401377929E+03  0.00000000000E+00 0.  1.
        -24    2    1    2    0    0 -0.11537131337E+03 -0.18244785861E+03  0.42866664804E+03  0.48654266656E+03  0.79817981512E+02 0.  0.
        254    2    1    2    0    0  0.11537131337E+03  0.18244785861E+03  0.24714843913E+04  0.26416359313E+04  0.90741806041E+03 0.  0.
         23    2    4    4    0    0 -0.18621486247E+03  0.22977549515E+03  0.22034148383E+04  0.22252839262E+04  0.96844461389E+02 0.  0.
         23    2    4    4    0    0  0.30158617584E+03 -0.47327636538E+02  0.26806955302E+03  0.41635200511E+03  0.91069096107E+02 0.  0.
          3    1    3    3  502    0 -0.34113533682E+02 -0.11576410477E+03  0.27550685255E+03  0.30078079549E+03  0.00000000000E+00 0. -1.
         -4    1    3    3    0  502 -0.81257779687E+02 -0.66683753846E+02  0.15315979550E+03  0.18576187107E+03  0.00000000000E+00 0.  1.
         11    1    5    5    0    0 -0.15478286919E+03  0.16816057794E+03  0.19197853968E+04  0.19333421028E+04  0.00000000000E+00 0.  1.
        -11    1    5    5    0    0 -0.31431993283E+02  0.61614917208E+02  0.28362944146E+03  0.29194182346E+03  0.00000000000E+00 0. -1.
          2    1    6    6  503    0  0.29119936269E+03 -0.28758941213E+02  0.26514673744E+03  0.39487585126E+03  0.00000000000E+00 0.  1.
         -2    1    6    6    0  503  0.10386813153E+02 -0.18568695324E+02  0.29228155789E+01  0.21476153856E+02  0.00000000000E+00 0. -1.
<mgrwt>
<rscale>  0 0.11724442E+04</rscale>
<asrwt>0</asrwt>
<pdfrwt beam="1">  1        1 0.46371760E+00 0.11724442E+04</pdfrwt>
<pdfrwt beam="2">  1       -2 0.17540584E-01 0.11724442E+04</pdfrwt>
<totfact> 0.13851804E+01</totfact>
</mgrwt>
</event>
<event>
12    4  0.4424320E-008  0.1224401E+04  0.7818608E-02  0.9091762E-01
          1   -1    0    0  501    0  0.00000000000E+00  0.00000000000E+00  0.10362988861E+04  0.10362988861E+04  0.00000000000E+00 0. -1.
         -2   -1    0    0    0  501 -0.00000000000E+00 -0.00000000000E+00 -0.36166182931E+03  0.36166182931E+03  0.00000000000E+00 0.  1.
        -24    2    1    2    0    0  0.88093831621E+02 -0.23456602259E+03  0.30760861740E+03  0.40444569319E+03  0.78558991337E+02 0.  0.
        254    2    1    2    0    0 -0.88093831621E+02  0.23456602259E+03  0.36702843941E+03  0.99351502223E+03  0.88858341304E+03 0.  0.
         23    2    4    4    0    0  0.13318385348E+03 -0.25648596036E+03 -0.48520485181E+02  0.30709989035E+03  0.91832012294E+02 0.  0.
         23    2    4    4    0    0 -0.22127768510E+03  0.49105198295E+03  0.41554892459E+03  0.68641513188E+03  0.91591269552E+02 0.  0.
          3    1    3    3  502    0 -0.51917540655E+01 -0.72154284649E+01 -0.20518928673E+01  0.91228823596E+01  0.00000000000E+00 0. -1.
         -4    1    3    3    0  502  0.93285585686E+02 -0.22735059413E+03  0.30966051027E+03  0.39532281083E+03  0.00000000000E+00 0.  1.
         11    1    5    5    0    0  0.14764545324E+02 -0.50679622828E+02  0.25175629560E+02  0.58482717895E+02  0.00000000000E+00 0. -1.
        -11    1    5    5    0    0  0.11841930816E+03 -0.20580633753E+03 -0.73696114741E+02  0.24861717246E+03  0.00000000000E+00 0.  1.
          3    1    6    6  503    0 -0.20286192875E+03  0.39919138537E+03  0.37605486589E+03  0.58474266686E+03  0.00000000000E+00 0.  1.
         -3    1    6    6    0  503 -0.18415756354E+02  0.91860597578E+02  0.39494058701E+02  0.10167246501E+03  0.00000000000E+00 0. -1.
<mgrwt>
<rscale>  0 0.12244015E+04</rscale>
<asrwt>0</asrwt>
<pdfrwt beam="1">  1        1 0.15943060E+00 0.12244015E+04</pdfrwt>
<pdfrwt beam="2">  1       -2 0.55640282E-01 0.12244015E+04</pdfrwt>
<totfact> 0.37275221E+01</totfact>
</mgrwt>
</event>
<event>
12    4  0.4424320E-008  0.1366273E+04  0.7818608E-02  0.8978600E-01
         -2   -1    0    0    0  501 -0.00000000000E+00  0.00000000000E+00  0.53581879616E+03  0.53581879616E+03  0.00000000000E+00 0.  1.
          1   -1    0    0  501    0  0.00000000000E+00 -0.00000000000E+00 -0.87095764020E+03  0.87095764020E+03  0.00000000000E+00 0. -1.
        -24    2    1    2    0    0 -0.20072015114E+03  0.15295034534E+02 -0.46529709993E+03  0.51385279737E+03  0.83790148629E+02 0.  0.
        254    2    1    2    0    0  0.20072015114E+03 -0.15295034534E+02  0.13015825590E+03  0.89292363898E+03  0.86014471824E+03 0.  0.
         23    2    4    4    0    0  0.49768452475E+03  0.55930475247E+02  0.23116826613E+03  0.55855950010E+03  0.87930902652E+02 0.  0.
         23    2    4    4    0    0 -0.29696437362E+03 -0.71225509780E+02 -0.10101001023E+03  0.33436413889E+03  0.91298646028E+02 0.  0.
          1    1    3    3  502    0 -0.52485803012E+02  0.39630650638E+01 -0.49411947282E+02  0.72194223707E+02  0.00000000000E+00 0. -1.
         -2    1    3    3    0  502 -0.14823434813E+03  0.11331969470E+02 -0.41588515265E+03  0.44165857367E+03  0.00000000000E+00 0.  1.
         11    1    5    5    0    0  0.44014552647E+02  0.17083186846E+02  0.49272982192E+02  0.68241797248E+02  0.00000000000E+00 0. -1.
        -11    1    5    5    0    0  0.45366997211E+03  0.38847288401E+02  0.18189528394E+03  0.49031770285E+03  0.00000000000E+00 0.  1.
          4    1    6    6  503    0 -0.81435106988E+02  0.13786598645E+02 -0.25822348747E+01  0.82634223475E+02  0.00000000000E+00 0. -1.
         -4    1    6    6    0  503 -0.21552926663E+03 -0.85012108425E+02 -0.98427775354E+02  0.25172991541E+03  0.00000000000E+00 0.  1.
<mgrwt>
<rscale>  0 0.13662730E+04</rscale>
<asrwt>0</asrwt>
<pdfrwt beam="1">  1        1 0.13399348E+00 0.13662730E+04</pdfrwt>
<pdfrwt beam="2">  1       -2 0.82433661E-01 0.13662730E+04</pdfrwt>
<totfact> 0.21287138E+01</totfact>
</mgrwt>
</event>
<event>
12    4  0.4424320E-008  0.1281872E+04  0.7818608E-02  0.9044066E-01
         -2   -1    0    0    0  501 -0.00000000000E+00  0.00000000000E+00  0.23808190098E+03  0.23808190098E+03  0.00000000000E+00 0.  1.
          1   -1    0    0  501    0  0.00000000000E+00 -0.00000000000E+00 -0.17254522038E+04  0.17254522038E+04  0.00000000000E+00 0. -1.
        -24    2    1    2    0    0 -0.65430029850E+02 -0.24204644131E+03 -0.11426472700E+03  0.28693954409E+03  0.80064383884E+02 0.  0.
        254    2    1    2    0    0  0.65430029850E+02  0.24204644131E+03 -0.13731055759E+04  0.16765945607E+04  0.92880720824E+03 0.  0.
         23    2    4    4    0    0 -0.10785751522E+03 -0.26688623893E+03 -0.14885545095E+03  0.33630192870E+03  0.89886227272E+02 0.  0.
         23    2    4    4    0    0  0.17328754507E+03  0.50893268024E+03 -0.12242501249E+04  0.13402926320E+04  0.92492836790E+02 0.  0.
          1    1    3    3  502    0 -0.74426853699E+01 -0.40271180681E+02 -0.55413780753E+02  0.68904634505E+02  0.00000000000E+00 0. -1.
         -2    1    3    3    0  502 -0.57987344480E+02 -0.20177526063E+03 -0.58850946251E+02  0.21803490958E+03  0.00000000000E+00 0.  1.
         11    1    5    5    0    0  0.13658832943E+02 -0.42621616769E+02 -0.99033283156E+01  0.45839304588E+02  0.00000000000E+00 0.  1.
        -11    1    5    5    0    0 -0.12151634817E+03 -0.22426462216E+03 -0.13895212263E+03  0.29046262412E+03  0.00000000000E+00 0. -1.
          3    1    6    6  503    0  0.21501883759E+02  0.13566133820E+03 -0.23619325910E+03  0.27322808298E+03  0.00000000000E+00 0.  1.
         -3    1    6    6    0  503  0.15178566132E+03  0.37327134203E+03 -0.98805686581E+03  0.10670645491E+04  0.00000000000E+00 0. -1.
<mgrwt>
<rscale>  0 0.12818720E+04</rscale>
<asrwt>0</asrwt>
<pdfrwt beam="1">  1        1 0.26545418E+00 0.12818720E+04</pdfrwt>
<pdfrwt beam="2">  1       -2 0.36627985E-01 0.12818720E+04</pdfrwt>
<totfact> 0.27764754E+01</totfact>
</mgrwt>
</event>
<event>
12    4  0.4424320E-008  0.1924830E+04  0.7818608E-02  0.8642595E-01
         -2   -1    0    0    0  501 -0.00000000000E+00  0.00000000000E+00  0.22659603869E+04  0.22659603869E+04  0.00000000000E+00 0.  1.
          1   -1    0    0  501    0  0.00000000000E+00 -0.00000000000E+00 -0.40876393702E+03  0.40876393702E+03  0.00000000000E+00 0. -1.
        -24    2    1    2    0    0 -0.10044173084E+03  0.56093235270E+03  0.50133581135E+02  0.57781040217E+03  0.81350103199E+02 0.  0.
        254    2    1    2    0    0  0.10044173084E+03 -0.56093235270E+03  0.18070628688E+04  0.20969139218E+04  0.89824169243E+03 0.  0.
         23    2    4    4    0    0 -0.28909928198E+02 -0.57922810684E+03  0.18420227738E+04  0.19333048816E+04  0.90988364016E+02 0.  0.
         23    2    4    4    0    0  0.12935165904E+03  0.18295754131E+02 -0.34959905029E+02  0.16360904015E+03  0.92082228171E+02 0.  0.
          3    1    3    3  502    0 -0.11122285705E+03  0.54407196036E+03  0.44967436170E+02  0.55714171652E+03  0.00000000000E+00 0. -1.
         -4    1    3    3    0  502  0.10781126207E+02  0.16860392349E+02  0.51661449655E+01  0.20668685644E+02  0.00000000000E+00 0.  1.
         11    1    5    5    0    0 -0.39913450440E+02 -0.29225130272E+03  0.10576254947E+04  0.10979870648E+04  0.00000000000E+00 0.  1.
        -11    1    5    5    0    0  0.11003522242E+02 -0.28697680411E+03  0.78439727911E+03  0.83531781681E+03  0.00000000000E+00 0. -1.
          4    1    6    6  503    0  0.10883983889E+03  0.22711595081E+02  0.12337490164E+02  0.11186662033E+03  0.00000000000E+00 0. -1.
         -4    1    6    6    0  503  0.20511820151E+02 -0.44158409496E+01 -0.47297395193E+02  0.51742419824E+02  0.00000000000E+00 0.  1.
<mgrwt>
<rscale>  0 0.19248303E+04</rscale>
<asrwt>0</asrwt>
<pdfrwt beam="1">  1        1 0.62886761E-01 0.19248303E+04</pdfrwt>
<pdfrwt beam="2">  1       -2 0.34860928E+00 0.19248303E+04</pdfrwt>
<totfact> 0.75787761E-01</totfact>
</mgrwt>
</event>
<event>
12    4  0.4424320E-008  0.1551582E+04  0.7818608E-02  0.8850858E-01
          1   -1    0    0  501    0  0.00000000000E+00  0.00000000000E+00  0.10164811777E+04  0.10164811777E+04  0.00000000000E+00 0. -1.
         -2   -1    0    0    0  501 -0.00000000000E+00 -0.00000000000E+00 -0.59209340465E+03  0.59209340465E+03  0.00000000000E+00 0.  1.
        -24    2    1    2    0    0  0.37161513433E+03  0.13443394975E+03 -0.14242602188E+03  0.42756010334E+03  0.79700535448E+02 0.  0.
        254    2    1    2    0    0 -0.37161513433E+03 -0.13443394975E+03  0.56681379490E+03  0.11810144790E+04  0.95778234821E+03 0.  0.
         23    2    4    4    0    0 -0.67297973229E+03  0.27639053585E+02  0.33842276918E+03  0.75934311613E+03  0.91686203744E+02 0.  0.
         23    2    4    4    0    0  0.30136459796E+03 -0.16207300334E+03  0.22839102572E+03  0.42167136284E+03  0.92498639428E+02 0.  0.
          3    1    3    3  502    0  0.15195982910E+02  0.26724289845E+02 -0.12833558671E+02  0.33313747800E+02  0.00000000000E+00 0. -1.
         -4    1    3    3    0  502  0.35641915142E+03  0.10770965991E+03 -0.12959246321E+03  0.39424635554E+03  0.00000000000E+00 0.  1.
         11    1    5    5    0    0 -0.28889854269E+03 -0.77728472289E+01  0.19102041541E+03  0.34642688150E+03  0.00000000000E+00 0. -1.
        -11    1    5    5    0    0 -0.38408118960E+03  0.35411900814E+02  0.14740235377E+03  0.41291623463E+03  0.00000000000E+00 0.  1.
          4    1    6    6  503    0  0.87607762982E+02 -0.70483662240E+02  0.30989361698E+02  0.11663364573E+03  0.00000000000E+00 0. -1.
         -4    1    6    6    0  503  0.21375683498E+03 -0.91589341096E+02  0.19740166402E+03  0.30503771711E+03  0.00000000000E+00 0.  1.
<mgrwt>
<rscale>  0 0.15515822E+04</rscale>
<asrwt>0</asrwt>
<pdfrwt beam="1">  1        1 0.15638172E+00 0.15515822E+04</pdfrwt>
<pdfrwt beam="2">  1       -2 0.91091293E-01 0.15515822E+04</pdfrwt>
<totfact> 0.12750739E+01</totfact>
</mgrwt>
</event>
<event>
12    4  0.4424320E-008  0.3027798E+04  0.7818608E-02  0.8235837E-01
          1   -1    0    0  501    0  0.00000000000E+00  0.00000000000E+00  0.20421897555E+04  0.20421897555E+04  0.00000000000E+00 0. -1.
         -2   -1    0    0    0  501 -0.00000000000E+00 -0.00000000000E+00 -0.11222708609E+04  0.11222708609E+04  0.00000000000E+00 0.  1.
        -24    2    1    2    0    0  0.89769636301E+02 -0.10441993229E+04  0.13509146991E+04  0.17116136446E+04  0.78993231187E+02 0.  0.
        254    2    1    2    0    0 -0.89769636301E+02  0.10441993229E+04 -0.43099580447E+03  0.14528469718E+04  0.90917332037E+03 0.  0.
         23    2    4    4    0    0 -0.44113444162E+03  0.57865925792E+03 -0.20441613615E+02  0.73367352985E+03  0.91721624917E+02 0.  0.
         23    2    4    4    0    0  0.35136480532E+03  0.46554006496E+03 -0.41055419085E+03  0.71917344194E+03  0.92037587250E+02 0.  0.
          3    1    3    3  502    0  0.10393762845E+03 -0.87046655115E+03  0.11338396877E+04  0.14332157844E+04  0.00000000000E+00 0. -1.
         -4    1    3    3    0  502 -0.14167992150E+02 -0.17373277173E+03  0.21707501143E+03  0.27839786020E+03  0.00000000000E+00 0.  1.
         11    1    5    5    0    0 -0.75967678657E+02  0.16103222636E+03  0.75016675706E+01  0.17820982336E+03  0.00000000000E+00 0. -1.
        -11    1    5    5    0    0 -0.36516676296E+03  0.41762703157E+03 -0.27943281185E+02  0.55546370649E+03  0.00000000000E+00 0.  1.
          2    1    6    6  503    0  0.29515213757E+02  0.26986789736E+02 -0.59707785986E+02  0.71864138279E+02  0.00000000000E+00 0. -1.
         -2    1    6    6    0  503  0.32184959156E+03  0.43855327522E+03 -0.35084640487E+03  0.64730930366E+03  0.00000000000E+00 0.  1.
<mgrwt>
<rscale>  0 0.30277979E+04</rscale>
<asrwt>0</asrwt>
<pdfrwt beam="1">  1        1 0.31418304E+00 0.30277979E+04</pdfrwt>
<pdfrwt beam="2">  1       -2 0.17265706E+00 0.30277979E+04</pdfrwt>
<totfact> 0.42501983E-01</totfact>
</mgrwt>
</event>
<event>
12    4  0.4424320E-008  0.1231963E+04  0.7818608E-02  0.9085331E-01
          1   -1    0    0  501    0  0.00000000000E+00  0.00000000000E+00  0.48903444988E+03  0.48903444988E+03  0.00000000000E+00 0. -1.
         -2   -1    0    0    0  501 -0.00000000000E+00 -0.00000000000E+00 -0.77588225225E+03  0.77588225225E+03  0.00000000000E+00 0.  1.
        -24    2    1    2    0    0  0.21070496966E+02  0.16153006608E+03 -0.29128591085E+03  0.34306134638E+03  0.79420887882E+02 0.  0.
        254    2    1    2    0    0 -0.21070496966E+02 -0.16153006608E+03  0.44381084804E+01  0.92185535574E+03  0.90733768356E+03 0.  0.
         23    2    4    4    0    0 -0.44383100904E+03 -0.13491199411E+03  0.82177181157E+02  0.48185635178E+03  0.10121879223E+03 0.  0.
         23    2    4    4    0    0  0.42276051208E+03 -0.26618071962E+02 -0.77739072677E+02  0.43999900397E+03  0.90115413468E+02 0.  0.
          3    1    3    3  502    0 -0.14794927555E+02  0.75170972485E+02 -0.74032885619E+02  0.10653841156E+03  0.00000000000E+00 0. -1.
         -4    1    3    3    0  502  0.35865424521E+02  0.86359093591E+02 -0.21725302523E+03  0.23652293482E+03  0.00000000000E+00 0.  1.
         11    1    5    5    0    0 -0.29886046334E+03 -0.83316634330E+02  0.10225629882E+03  0.32667352013E+03  0.00000000000E+00 0.  1.
        -11    1    5    5    0    0 -0.14497054570E+03 -0.51595359785E+02 -0.20079117663E+02  0.15518283165E+03  0.00000000000E+00 0. -1.
          2    1    6    6  503    0  0.25218081836E+02 -0.23292186731E+02  0.25231138463E+01  0.34421558908E+02  0.00000000000E+00 0. -1.
         -2    1    6    6    0  503  0.39754243024E+03 -0.33258852305E+01 -0.80262186523E+02  0.40557744506E+03  0.00000000000E+00 0.  1.
<mgrwt>
<rscale>  0 0.12319629E+04</rscale>
<asrwt>0</asrwt>
<pdfrwt beam="1">  1        1 0.75236070E-01 0.12319629E+04</pdfrwt>
<pdfrwt beam="2">  1       -2 0.11936650E+00 0.12319629E+04</pdfrwt>
<totfact> 0.21223468E+01</totfact>
</mgrwt>
</event>
<event>
12    4  0.4424320E-008  0.1246118E+04  0.7818608E-02  0.9073420E-01
         -2   -1    0    0    0  501 -0.00000000000E+00  0.00000000000E+00  0.69101921020E+03  0.69101921020E+03  0.00000000000E+00 0.  1.
          1   -1    0    0  501    0  0.00000000000E+00 -0.00000000000E+00 -0.56178273347E+03  0.56178273347E+03  0.00000000000E+00 0. -1.
        -24    2    1    2    0    0  0.11949695946E+03 -0.23778918307E+03 -0.20006490399E+02  0.27796651977E+03  0.77729708289E+02 0.  0.
        254    2    1    2    0    0 -0.11949695946E+03  0.23778918307E+03  0.14924296712E+03  0.97483542390E+03  0.92585496788E+03 0.  0.
         23    2    4    4    0    0 -0.92868981919E+02 -0.24050532712E+03 -0.22952582815E+03  0.35742137355E+03  0.92738731435E+02 0.  0.
         23    2    4    4    0    0 -0.26627977540E+02  0.47829451019E+03  0.37876879527E+03  0.61741405035E+03  0.90882460508E+02 0.  0.
          3    1    3    3  502    0  0.33180961688E+02 -0.10599121379E+03 -0.42307223311E+02  0.11884870535E+03  0.00000000000E+00 0. -1.
         -4    1    3    3    0  502  0.86315997771E+02 -0.13179796927E+03  0.22300732912E+02  0.15911781442E+03  0.00000000000E+00 0.  1.
         11    1    5    5    0    0 -0.54837875538E+02 -0.14704844692E+03 -0.77690049311E+02  0.17511762360E+03  0.00000000000E+00 0.  1.
        -11    1    5    5    0    0 -0.38031106381E+02 -0.93456880203E+02 -0.15183577884E+03  0.18230374995E+03  0.00000000000E+00 0. -1.
          3    1    6    6  503    0 -0.40070551582E+01  0.31750898492E+03  0.30043233175E+03  0.43713567454E+03  0.00000000000E+00 0. -1.
         -3    1    6    6    0  503 -0.22620922381E+02  0.16078552527E+03  0.78336463523E+02  0.18027837581E+03  0.00000000000E+00 0.  1.
<mgrwt>
<rscale>  0 0.12461182E+04</rscale>
<asrwt>0</asrwt>
<pdfrwt beam="1">  1        1 0.86428113E-01 0.12461182E+04</pdfrwt>
<pdfrwt beam="2">  1       -2 0.10631065E+00 0.12461182E+04</pdfrwt>
<totfact> 0.23177852E+01</totfact>
</mgrwt>
</event>
<event>
12    4  0.4424320E-008  0.1594200E+04  0.7818608E-02  0.8824119E-01
         -4   -1    0    0    0  501 -0.00000000000E+00  0.00000000000E+00  0.18998848746E+04  0.18998848746E+04  0.00000000000E+00 0.  1.
          3   -1    0    0  501    0  0.00000000000E+00 -0.00000000000E+00 -0.33442463445E+03  0.33442463445E+03  0.00000000000E+00 0. -1.
        -24    2    1    2    0    0 -0.44840894977E+02 -0.47344403900E+03  0.16857454274E+03  0.50823908894E+03  0.61070706091E+02 0.  0.
        254    2    1    2    0    0  0.44840894977E+02  0.47344403900E+03  0.13968856975E+04  0.17260704202E+04  0.89547165207E+03 0.  0.
         23    2    4    4    0    0  0.18623478448E+03  0.65858540476E+03  0.12659144654E+04  0.14419962843E+04  0.91628161120E+02 0.  0.
         23    2    4    4    0    0 -0.14139388950E+03 -0.18514136576E+03  0.13097123202E+03  0.28407413583E+03  0.96307288010E+02 0.  0.
          1    1    3    3  502    0 -0.28894033593E+02 -0.10957961382E+03  0.59767473432E+02  0.12811989628E+03  0.00000000000E+00 0. -1.
         -2    1    3    3    0  502 -0.15946861384E+02 -0.36386442518E+03  0.10880706930E+03  0.38011919266E+03  0.00000000000E+00 0.  1.
         11    1    5    5    0    0  0.11363816882E+03  0.51791799835E+03  0.92691356949E+03  0.10678583482E+04  0.00000000000E+00 0. -1.
        -11    1    5    5    0    0  0.72596615657E+02  0.14066740641E+03  0.33900089594E+03  0.37413793617E+03  0.00000000000E+00 0.  1.
          2    1    6    6  503    0 -0.14615360330E+03 -0.19106257636E+03  0.13460528417E+03  0.27565261902E+03  0.00000000000E+00 0. -1.
         -2    1    6    6    0  503  0.47597137962E+01  0.59212106019E+01 -0.36340521462E+01  0.84215168120E+01  0.00000000000E+00 0.  1.
<mgrwt>
<rscale>  0 0.15941999E+04</rscale>
<asrwt>0</asrwt>
<pdfrwt beam="1">  1        3 0.51449945E-01 0.15941999E+04</pdfrwt>
<pdfrwt beam="2">  1       -4 0.29228997E+00 0.15941999E+04</pdfrwt>
<totfact> 0.28433168E-01</totfact>
</mgrwt>
</event>
<event>
12    4  0.4424320E-008  0.1590550E+04  0.7818608E-02  0.8826375E-01
          1   -1    0    0  501    0  0.00000000000E+00  0.00000000000E+00  0.19707720297E+04  0.19707720297E+04  0.00000000000E+00 0. -1.
         -2   -1    0    0    0  501 -0.00000000000E+00 -0.00000000000E+00 -0.32092094546E+03  0.32092094546E+03  0.00000000000E+00 0.  1.
        -24    2    1    2    0    0  0.31884217874E+03 -0.42085975827E+03  0.41875264399E+03  0.67864750861E+03  0.80158549222E+02 0.  0.
        254    2    1    2    0    0 -0.31884217874E+03  0.42085975827E+03  0.12310984402E+04  0.16130454665E+04  0.89862619397E+03 0.  0.
         23    2    4    4    0    0 -0.61151138953E+03  0.34864584593E+03  0.70912813914E+03  0.10034044575E+04  0.91965657590E+02 0.  0.
         23    2    4    4    0    0  0.29266921079E+03  0.72213912344E+02  0.52197030111E+03  0.60964100906E+03  0.91318391399E+02 0.  0.
          1    1    3    3  502    0  0.25423043381E+03 -0.31725610370E+03  0.36049638327E+03  0.54336193386E+03  0.00000000000E+00 0. -1.
         -2    1    3    3    0  502  0.64611744931E+02 -0.10360365457E+03  0.58256260720E+02  0.13528557475E+03  0.00000000000E+00 0.  1.
         11    1    5    5    0    0 -0.41599451772E+03  0.28080833372E+03  0.47687903658E+03  0.69232822749E+03  0.00000000000E+00 0.  1.
        -11    1    5    5    0    0 -0.19551687181E+03  0.67837512211E+02  0.23224910256E+03  0.31107622999E+03  0.00000000000E+00 0. -1.
          3    1    6    6  503    0  0.22492685863E+03  0.81175979853E+02  0.34351278254E+03  0.41854828061E+03  0.00000000000E+00 0. -1.
         -3    1    6    6    0  503  0.67742352160E+02 -0.89620675090E+01  0.17845751858E+03  0.19109272845E+03  0.00000000000E+00 0.  1.
<mgrwt>
<rscale>  0 0.15905496E+04</rscale>
<asrwt>0</asrwt>
<pdfrwt beam="1">  1        1 0.30319569E+00 0.15905496E+04</pdfrwt>
<pdfrwt beam="2">  1       -2 0.49372454E-01 0.15905496E+04</pdfrwt>
<totfact> 0.10215177E+01</totfact>
</mgrwt>
</event>
<event>
12    4  0.4424320E-008  0.1722713E+04  0.7818608E-02  0.8748515E-01
          1   -1    0    0  501    0  0.00000000000E+00  0.00000000000E+00  0.15698488362E+04  0.15698488362E+04  0.00000000000E+00 0. -1.
         -4   -1    0    0    0  501 -0.00000000000E+00 -0.00000000000E+00 -0.47261553539E+03  0.47261553539E+03  0.00000000000E+00 0.  1.
        -24    2    1    2    0    0 -0.47556485526E+03  0.19333661905E+03 -0.30536961416E+02  0.52032618540E+03  0.79157143559E+02 0.  0.
        254    2    1    2    0    0  0.47556485526E+03 -0.19333661905E+03  0.11277702622E+04  0.15221381861E+04  0.88402370649E+03 0.  0.
         23    2    4    4    0    0  0.53073172181E+03 -0.45845014477E+03  0.95870954111E+03  0.11913325009E+04  0.91084838291E+02 0.  0.
         23    2    4    4    0    0 -0.55166866547E+02  0.26511352573E+03  0.16906072107E+03  0.33080568522E+03  0.86731247402E+02 0.  0.
          3    1    3    3  502    0 -0.27066001293E+02  0.33412884634E+02 -0.71805395123E+01  0.43595291411E+02  0.00000000000E+00 0. -1.
         -4    1    3    3    0  502 -0.44849885397E+03  0.15992373441E+03 -0.23356421904E+02  0.47673089399E+03  0.00000000000E+00 0.  1.
         11    1    5    5    0    0  0.25870300021E+03 -0.16709360671E+03  0.39302505419E+03  0.49931574073E+03  0.00000000000E+00 0.  1.
        -11    1    5    5    0    0  0.27202872160E+03 -0.29135653806E+03  0.56568448692E+03  0.69201676020E+03  0.00000000000E+00 0. -1.
          1    1    6    6  503    0  0.13882009011E+02  0.14436576529E+03  0.79864641160E+02  0.16556734361E+03  0.00000000000E+00 0. -1.
         -1    1    6    6    0  503 -0.69048875558E+02  0.12074776043E+03  0.89196079910E+02  0.16523834161E+03  0.00000000000E+00 0.  1.
<mgrwt>
<rscale>  0 0.17227129E+04</rscale>
<asrwt>0</asrwt>
<pdfrwt beam="1">  1        1 0.24151520E+00 0.17227129E+04</pdfrwt>
<pdfrwt beam="2">  1       -4 0.72710083E-01 0.17227129E+04</pdfrwt>
<totfact> 0.46951651E+00</totfact>
</mgrwt>
</event>
<event>
12    4  0.4424320E-008  0.1075504E+04  0.7818608E-02  0.9229402E-01
          1   -1    0    0  501    0  0.00000000000E+00  0.00000000000E+00  0.60377666097E+03  0.60377666097E+03  0.00000000000E+00 0. -1.
         -2   -1    0    0    0  501 -0.00000000000E+00 -0.00000000000E+00 -0.47894708051E+03  0.47894708051E+03  0.00000000000E+00 0.  1.
        -24    2    1    2    0    0 -0.12037800924E+03 -0.37468882274E+02 -0.56629213594E+02  0.15939435592E+03  0.79403467304E+02 0.  0.
        254    2    1    2    0    0  0.12037800924E+03  0.37468882274E+02  0.18145879405E+03  0.92332938555E+03  0.89650157727E+03 0.  0.
         23    2    4    4    0    0  0.35376873212E+03  0.20204599339E+03 -0.17892730955E+03  0.45440264147E+03  0.92151392863E+02 0.  0.
         23    2    4    4    0    0 -0.23339072288E+03 -0.16457711111E+03  0.36038610361E+03  0.46892674408E+03  0.91963539589E+02 0.  0.
          3    1    3    3  502    0  0.10707132128E+02 -0.10083867520E+02 -0.23390811132E+01  0.14892896395E+02  0.00000000000E+00 0. -1.
         -4    1    3    3    0  502 -0.13108514137E+03 -0.27385014755E+02 -0.54290132481E+02  0.14450145953E+03  0.00000000000E+00 0.  1.
         11    1    5    5    0    0  0.22429149716E+03  0.17473704325E+03 -0.13688462429E+03  0.31555841036E+03  0.00000000000E+00 0.  1.
        -11    1    5    5    0    0  0.12947723495E+03  0.27308950141E+02 -0.42042685261E+02  0.13884423111E+03  0.00000000000E+00 0. -1.
          2    1    6    6  503    0 -0.57580480032E+02 -0.41268019969E+02  0.34870131707E+02  0.78958769229E+02  0.00000000000E+00 0. -1.
         -2    1    6    6    0  503 -0.17581024284E+03 -0.12330909114E+03  0.32551597190E+03  0.38996797485E+03  0.00000000000E+00 0.  1.
<mgrwt>
<rscale>  0 0.10755037E+04</rscale>
<asrwt>0</asrwt>
<pdfrwt beam="1">  1        1 0.92888717E-01 0.10755037E+04</pdfrwt>
<pdfrwt beam="2">  1       -2 0.73684166E-01 0.10755037E+04</pdfrwt>
<totfact> 0.49257570E+01</totfact>
</mgrwt>
</event>
<event>
12    4  0.4424320E-008  0.1412051E+04  0.7818608E-02  0.8945141E-01
         -2   -1    0    0    0  501 -0.00000000000E+00  0.00000000000E+00  0.92526295099E+03  0.92526295099E+03  0.00000000000E+00 0.  1.
          1   -1    0    0  501    0  0.00000000000E+00 -0.00000000000E+00 -0.53873582319E+03  0.53873582319E+03  0.00000000000E+00 0. -1.
        -24    2    1    2    0    0  0.39137314046E+03 -0.66993512498E+02  0.54250031260E+01  0.40559868989E+03  0.82582085156E+02 0.  0.
        254    2    1    2    0    0 -0.39137314046E+03  0.66993512498E+02  0.38110212467E+03  0.10584000843E+04  0.90405245599E+03 0.  0.
         23    2    4    4    0    0 -0.59930165690E+03 -0.16799376840E+03  0.37262237872E+03  0.73131215809E+03  0.92658800242E+02 0.  0.
         23    2    4    4    0    0  0.20792851644E+03  0.23498728090E+03  0.84797459543E+01  0.32708792619E+03  0.91985407735E+02 0.  0.
          3    1    3    3  502    0  0.30015062309E+03 -0.73331838418E+02  0.31315154108E+02  0.31056173934E+03  0.00000000000E+00 0. -1.
         -4    1    3    3    0  502  0.91222517376E+02  0.63383259201E+01 -0.25890150982E+02  0.95036950550E+02  0.00000000000E+00 0.  1.
         11    1    5    5    0    0 -0.43797694757E+03 -0.87378109593E+02  0.29320567579E+03  0.53425491008E+03  0.00000000000E+00 0. -1.
        -11    1    5    5    0    0 -0.16132470934E+03 -0.80615658810E+02  0.79416702934E+02  0.19705724801E+03  0.00000000000E+00 0.  1.
          4    1    6    6  503    0  0.19882991106E+03  0.23740323787E+03 -0.61070290055E+01  0.30972718106E+03  0.00000000000E+00 0. -1.
         -4    1    6    6    0  503  0.90986053749E+01 -0.24159569679E+01  0.14586774960E+02  0.17360745133E+02  0.00000000000E+00 0.  1.
<mgrwt>
<rscale>  0 0.14120514E+04</rscale>
<asrwt>0</asrwt>
<pdfrwt beam="1">  1        1 0.82882435E-01 0.14120514E+04</pdfrwt>
<pdfrwt beam="2">  1       -2 0.14234815E+00 0.14120514E+04</pdfrwt>
<totfact> 0.11697072E+01</totfact>
</mgrwt>
</event>
<event>
12    4  0.4424320E-008  0.1637011E+04  0.7818608E-02  0.8798128E-01
          1   -1    0    0  501    0  0.00000000000E+00  0.00000000000E+00  0.16259823488E+04  0.16259823488E+04  0.00000000000E+00 0. -1.
         -2   -1    0    0    0  501 -0.00000000000E+00 -0.00000000000E+00 -0.41202885317E+03  0.41202885317E+03  0.00000000000E+00 0.  1.
        -24    2    1    2    0    0 -0.34081202662E+03  0.41065121973E+03  0.49973809587E+03  0.73547510602E+03  0.79988782712E+02 0.  0.
        254    2    1    2    0    0  0.34081202662E+03 -0.41065121973E+03  0.71421539976E+03  0.13025360959E+04  0.94958379422E+03 0.  0.
         23    2    4    4    0    0  0.75651030219E+02 -0.48826062259E+03  0.84492385755E+03  0.98279849882E+03  0.88741480051E+02 0.  0.
         23    2    4    4    0    0  0.26516099640E+03  0.77609402860E+02 -0.13070845779E+03  0.31973759713E+03  0.93882142393E+02 0.  0.
          1    1    3    3  502    0 -0.20671539722E+03  0.26392499115E+03  0.26127791171E+03  0.42503388518E+03  0.00000000000E+00 0. -1.
         -2    1    3    3    0  502 -0.13409662940E+03  0.14672622857E+03  0.23846018416E+03  0.31044122084E+03  0.00000000000E+00 0.  1.
         11    1    5    5    0    0  0.25649649279E+02 -0.36037075543E+03  0.55862334536E+03  0.66527064256E+03  0.00000000000E+00 0. -1.
        -11    1    5    5    0    0  0.50001380940E+02 -0.12788986716E+03  0.28630051219E+03  0.31752785625E+03  0.00000000000E+00 0.  1.
          2    1    6    6  503    0  0.15569477301E+03  0.91753917006E+02 -0.70297897461E+02  0.19391090226E+03  0.00000000000E+00 0. -1.
         -2    1    6    6    0  503  0.10946622339E+03 -0.14144514146E+02 -0.60410560325E+02  0.12582669487E+03  0.00000000000E+00 0.  1.
<mgrwt>
<rscale>  0 0.16370115E+04</rscale>
<asrwt>0</asrwt>
<pdfrwt beam="1">  1        1 0.25015113E+00 0.16370115E+04</pdfrwt>
<pdfrwt beam="2">  1       -2 0.63389055E-01 0.16370115E+04</pdfrwt>
<totfact> 0.10359512E+01</totfact>
</mgrwt>
</event>
<event>
12    4  0.4424320E-008  0.1724848E+04  0.7818608E-02  0.8747318E-01
          1   -1    0    0  501    0  0.00000000000E+00  0.00000000000E+00  0.55588102160E+03  0.55588102160E+03  0.00000000000E+00 0. -1.
         -2   -1    0    0    0  501 -0.00000000000E+00 -0.00000000000E+00 -0.13380107699E+04  0.13380107699E+04  0.00000000000E+00 0.  1.
        -24    2    1    2    0    0  0.17821557616E+03 -0.24350108758E+03 -0.88623178150E+03  0.93941162212E+03  0.77677886151E+02 0.  0.
        254    2    1    2    0    0 -0.17821557616E+03  0.24350108758E+03  0.10410203318E+03  0.95448016940E+03  0.89952297871E+03 0.  0.
         23    2    4    4    0    0 -0.35717700713E+03  0.83714302299E+01 -0.27837489449E+03  0.46234157381E+03  0.92852860574E+02 0.  0.
         23    2    4    4    0    0  0.17896143097E+03  0.23512965735E+03  0.38247692767E+03  0.49213859560E+03  0.92728892666E+02 0.  0.
          3    1    3    3  502    0  0.70663341264E+01  0.58333289470E+01 -0.26700138117E+02  0.28228676555E+02  0.00000000000E+00 0. -1.
         -4    1    3    3    0  502  0.17114924204E+03 -0.24933441653E+03 -0.85953164338E+03  0.91118294557E+03  0.00000000000E+00 0.  1.
         11    1    5    5    0    0 -0.28073952904E+02  0.18761527628E+02 -0.45069051154E+01  0.34065436212E+02  0.00000000000E+00 0.  1.
        -11    1    5    5    0    0 -0.32910305423E+03 -0.10390097398E+02 -0.27386798937E+03  0.42827613759E+03  0.00000000000E+00 0. -1.
          3    1    6    6  503    0  0.77394185487E+02  0.36916993177E+02  0.12662996109E+03  0.15293093663E+03  0.00000000000E+00 0. -1.
         -3    1    6    6    0  503  0.10156724549E+03  0.19821266418E+03  0.25584696657E+03  0.33920765896E+03  0.00000000000E+00 0.  1.
<mgrwt>
<rscale>  0 0.17248476E+04</rscale>
<asrwt>0</asrwt>
<pdfrwt beam="1">  1        1 0.85520157E-01 0.17248476E+04</pdfrwt>
<pdfrwt beam="2">  1       -2 0.20584781E+00 0.17248476E+04</pdfrwt>
<totfact> 0.38648842E+00</totfact>
</mgrwt>
</event>
<event>
12    4  0.4424320E-008  0.1960675E+04  0.7818608E-02  0.8625230E-01
         -2   -1    0    0    0  501 -0.00000000000E+00  0.00000000000E+00  0.10234643123E+04  0.10234643123E+04  0.00000000000E+00 0.  1.
          1   -1    0    0  501    0  0.00000000000E+00 -0.00000000000E+00 -0.93902833183E+03  0.93902833183E+03  0.00000000000E+00 0. -1.
        -24    2    1    2    0    0  0.44129392257E+03 -0.26313032181E+03  0.63173791715E+03  0.81826948551E+03  0.80586987746E+02 0.  0.
        254    2    1    2    0    0 -0.44129392257E+03  0.26313032181E+03 -0.54730193664E+03  0.11442231587E+04  0.86355621393E+03 0.  0.
         23    2    4    4    0    0 -0.64853606958E+03  0.37177154644E+03 -0.39589093925E+03  0.85072889987E+03  0.90536782574E+02 0.  0.
         23    2    4    4    0    0  0.20724214701E+03 -0.10864122463E+03 -0.15141099739E+03  0.29349425879E+03  0.91985687080E+02 0.  0.
          1    1    3    3  502    0  0.21187391172E+03 -0.86263696636E+02  0.31109023528E+03  0.38614649333E+03  0.00000000000E+00 0. -1.
         -2    1    3    3    0  502  0.22942001085E+03 -0.17686662518E+03  0.32064768187E+03  0.43212299218E+03  0.00000000000E+00 0.  1.
         11    1    5    5    0    0 -0.31998913983E+03  0.23488851582E+03 -0.21673588011E+03  0.45226110401E+03  0.00000000000E+00 0. -1.
        -11    1    5    5    0    0 -0.32854692975E+03  0.13688303063E+03 -0.17915505914E+03  0.39846779586E+03  0.00000000000E+00 0.  1.
          3    1    6    6  503    0  0.73646750931E+02 -0.90370414138E+02 -0.71146389549E+02  0.13657402542E+03  0.00000000000E+00 0. -1.
         -3    1    6    6    0  503  0.13359539608E+03 -0.18270810494E+02 -0.80264607838E+02  0.15692023337E+03  0.00000000000E+00 0.  1.
<mgrwt>
<rscale>  0 0.19606754E+04</rscale>
<asrwt>0</asrwt>
<pdfrwt beam="1">  1        1 0.14446590E+00 0.19606754E+04</pdfrwt>
<pdfrwt beam="2">  1       -2 0.15745605E+00 0.19606754E+04</pdfrwt>
<totfact> 0.36299370E+00</totfact>
</mgrwt>
</event>
<event>
12    4  0.4424320E-008  0.1271871E+04  0.7818608E-02  0.9052174E-01
          1   -1    0    0  501    0  0.00000000000E+00  0.00000000000E+00  0.12486699849E+04  0.12486699849E+04  0.00000000000E+00 0. -1.
         -2   -1    0    0    0  501 -0.00000000000E+00 -0.00000000000E+00 -0.32387571057E+03  0.32387571057E+03  0.00000000000E+00 0.  1.
        -24    2    1    2    0    0 -0.82501378260E+02  0.14685673489E+03  0.49017675906E+03  0.52374864509E+03  0.75272904275E+02 0.  0.
        254    2    1    2    0    0  0.82501378260E+02 -0.14685673489E+03  0.43461751528E+03  0.10487970504E+04  0.93952620523E+03 0.  0.
         23    2    4    4    0    0  0.23260352640E+02  0.34671072850E+03 -0.33155834922E+02  0.36045316513E+03  0.89876590943E+02 0.  0.
         23    2    4    4    0    0  0.59241025621E+02 -0.49356746339E+03  0.46777335020E+03  0.68834388525E+03  0.88809105249E+02 0.  0.
          1    1    3    3  502    0 -0.75694170623E+02  0.14659854960E+03  0.39160037699E+03  0.42493716885E+03  0.00000000000E+00 0. -1.
         -2    1    3    3    0  502 -0.68072076370E+01  0.25818528584E+00  0.98576382066E+02  0.98811476240E+02  0.00000000000E+00 0.  1.
         11    1    5    5    0    0 -0.80886849502E+01  0.17279548692E+03 -0.56999950065E+02  0.18213374600E+03  0.00000000000E+00 0. -1.
        -11    1    5    5    0    0  0.31349037590E+02  0.17391524158E+03  0.23844115143E+02  0.17831941913E+03  0.00000000000E+00 0.  1.
          3    1    6    6  503    0  0.52702838639E+02 -0.36987020391E+03  0.39921502525E+03  0.54676703753E+03  0.00000000000E+00 0. -1.
         -3    1    6    6    0  503  0.65381869814E+01 -0.12369725948E+03  0.68558324947E+02  0.14157684772E+03  0.00000000000E+00 0.  1.
<mgrwt>
<rscale>  0 0.12718709E+04</rscale>
<asrwt>0</asrwt>
<pdfrwt beam="1">  1        1 0.19210307E+00 0.12718709E+04</pdfrwt>
<pdfrwt beam="2">  1       -2 0.49827033E-01 0.12718709E+04</pdfrwt>
<totfact> 0.32410220E+01</totfact>
</mgrwt>
</event>
<event>
12    4  0.4424320E-008  0.1401353E+04  0.7818608E-02  0.8952840E-01
          1   -1    0    0  501    0  0.00000000000E+00  0.00000000000E+00  0.27601720947E+04  0.27601720947E+04  0.00000000000E+00 0. -1.
         -2   -1    0    0    0  501 -0.00000000000E+00 -0.00000000000E+00 -0.17786846738E+03  0.17786846738E+03  0.00000000000E+00 0.  1.
        -24    2    1    2    0    0 -0.88791974957E+02 -0.33940426577E+03  0.97803500933E+03  0.10422022344E+04  0.80955218881E+02 0.  0.
        254    2    1    2    0    0  0.88791974957E+02  0.33940426577E+03  0.16042686180E+04  0.18958383277E+04  0.94733621044E+03 0.  0.
         23    2    4    4    0    0  0.42424925743E+03  0.68167507282E+01  0.36713991588E+03  0.56837636083E+03  0.90697680238E+02 0.  0.
         23    2    4    4    0    0 -0.33545728247E+03  0.33258751504E+03  0.12371287021E+04  0.13274619669E+04  0.92313619347E+02 0.  0.
          3    1    3    3  502    0 -0.57874203002E+01 -0.26947683116E+02  0.16433095584E+03  0.16662633317E+03  0.00000000000E+00 0. -1.
         -2    1    3    3    0  502 -0.83004554657E+02 -0.31245658265E+03  0.81370405350E+03  0.87557590123E+03  0.00000000000E+00 0.  1.
         11    1    5    5    0    0  0.73938585854E+02 -0.70487696839E-01  0.11495069235E+03  0.13667692241E+03  0.00000000000E+00 0. -1.
        -11    1    5    5    0    0  0.35031067158E+03  0.68872384250E+01  0.25218922353E+03  0.43169943843E+03  0.00000000000E+00 0.  1.
          1    1    6    6  503    0 -0.22220042739E+02 -0.23377390708E+00  0.35868149209E+02  0.42193708977E+02  0.00000000000E+00 0. -1.
         -1    1    6    6    0  503 -0.31323723974E+03  0.33282128894E+03  0.12012605529E+04  0.12852682579E+04  0.00000000000E+00 0.  1.
<mgrwt>
<rscale>  0 0.14013530E+04</rscale>
<asrwt>0</asrwt>
<pdfrwt beam="1">  1        1 0.42464183E+00 0.14013530E+04</pdfrwt>
<pdfrwt beam="2">  1       -2 0.27364382E-01 0.14013530E+04</pdfrwt>
<totfact> 0.93137056E+00</totfact>
</mgrwt>
</event>
<event>
12    4  0.4424320E-008  0.1389394E+04  0.7818608E-02  0.8961532E-01
          1   -1    0    0  501    0  0.00000000000E+00  0.00000000000E+00  0.10232933166E+04  0.10232933166E+04  0.00000000000E+00 0. -1.
         -2   -1    0    0    0  501 -0.00000000000E+00 -0.00000000000E+00 -0.47161852510E+03  0.47161852510E+03  0.00000000000E+00 0.  1.
        -24    2    1    2    0    0 -0.13873167090E+02 -0.22554471460E+03 -0.19922037693E+03  0.31151858413E+03  0.79323304422E+02 0.  0.
        254    2    1    2    0    0  0.13873167090E+02  0.22554471460E+03  0.75089516846E+03  0.11833932576E+04  0.88629180583E+03 0.  0.
         23    2    4    4    0    0 -0.11028404842E+03  0.36230886747E+03  0.86204689188E+03  0.94725847704E+03  0.10365081640E+03 0.  0.
         23    2    4    4    0    0  0.12415721551E+03 -0.13676415287E+03 -0.11115172343E+03  0.23613478056E+03  0.96361202236E+02 0.  0.
          3    1    3    3  502    0 -0.31280510671E+02 -0.32346538795E+02 -0.29814177128E+02  0.53978274127E+02  0.00000000000E+00 0. -1.
         -4    1    3    3    0  502  0.17407343581E+02 -0.19319817580E+03 -0.16940619980E+03  0.25754031000E+03  0.00000000000E+00 0.  1.
         11    1    5    5    0    0 -0.10927582503E+03  0.36587933816E+03  0.81448942792E+03  0.89955651531E+03  0.00000000000E+00 0. -1.
        -11    1    5    5    0    0 -0.10082233878E+01 -0.35704706912E+01  0.47557463957E+02  0.47701961735E+02  0.00000000000E+00 0.  1.
          2    1    6    6  503    0  0.10816298149E+03 -0.12258549264E+03 -0.12903179717E+03  0.20826818829E+03  0.00000000000E+00 0. -1.
         -2    1    6    6    0  503  0.15994234016E+02 -0.14178660238E+02  0.17880073747E+02  0.27866592276E+02  0.00000000000E+00 0.  1.
<mgrwt>
<rscale>  0 0.13893942E+04</rscale>
<asrwt>0</asrwt>
<pdfrwt beam="1">  1        1 0.15742974E+00 0.13893942E+04</pdfrwt>
<pdfrwt beam="2">  1       -2 0.72556696E-01 0.13893942E+04</pdfrwt>
<totfact> 0.21333264E+01</totfact>
</mgrwt>
</event>
<event>
12    4  0.4424320E-008  0.1517556E+04  0.7818608E-02  0.8872862E-01
         -2   -1    0    0    0  501 -0.00000000000E+00  0.00000000000E+00  0.53882340009E+03  0.53882340009E+03  0.00000000000E+00 0.  1.
          1   -1    0    0  501    0  0.00000000000E+00 -0.00000000000E+00 -0.10685210945E+04  0.10685210945E+04  0.00000000000E+00 0. -1.
        -24    2    1    2    0    0 -0.22451891756E+03 -0.40400631924E+03 -0.31781014211E+03  0.56673174605E+03  0.80942789814E+02 0.  0.
        254    2    1    2    0    0  0.22451891756E+03  0.40400631924E+03 -0.21188755231E+03  0.10406127486E+04  0.90793651062E+03 0.  0.
         23    2    4    4    0    0 -0.18111337799E+03 -0.14303174788E+03  0.12052458932E+03  0.27737892044E+03  0.95670017697E+02 0.  0.
         23    2    4    4    0    0  0.40563229554E+03  0.54703806712E+03 -0.33241214164E+03  0.76323382812E+03  0.90773555744E+02 0.  0.
          3    1    3    3  502    0 -0.16027851480E+03 -0.34086568405E+03 -0.27853649354E+03  0.46846685593E+03  0.00000000000E+00 0. -1.
         -4    1    3    3    0  502 -0.64240402750E+02 -0.63140635188E+02 -0.39273648571E+02  0.98264890116E+02  0.00000000000E+00 0.  1.
         11    1    5    5    0    0 -0.69659295551E+02 -0.40454523640E+01  0.18959683077E+02  0.72306657535E+02  0.00000000000E+00 0.  1.
        -11    1    5    5    0    0 -0.11145408243E+03 -0.13898629551E+03  0.10156490624E+03  0.20507226290E+03  0.00000000000E+00 0. -1.
          3    1    6    6  503    0  0.26152324971E+03  0.41329369938E+03 -0.21520746354E+03  0.53434103758E+03  0.00000000000E+00 0. -1.
         -3    1    6    6    0  503  0.14410904583E+03  0.13374436774E+03 -0.11720467810E+03  0.22889279054E+03  0.00000000000E+00 0.  1.
<mgrwt>
<rscale>  0 0.15175562E+04</rscale>
<asrwt>0</asrwt>
<pdfrwt beam="1">  1        1 0.16438786E+00 0.15175562E+04</pdfrwt>
<pdfrwt beam="2">  1       -2 0.82895908E-01 0.15175562E+04</pdfrwt>
<totfact> 0.14472229E+01</totfact>
</mgrwt>
</event>
<event>
12    4  0.4424320E-008  0.1843210E+04  0.7818608E-02  0.8683652E-01
          1   -1    0    0  501    0  0.00000000000E+00  0.00000000000E+00  0.33523025635E+04  0.33523025635E+04  0.00000000000E+00 0. -1.
         -2   -1    0    0    0  501 -0.00000000000E+00 -0.00000000000E+00 -0.25336492594E+03  0.25336492594E+03  0.00000000000E+00 0.  1.
        -24    2    1    2    0    0 -0.46253880763E+03  0.51121688316E+03  0.94481269411E+03  0.11723690942E+04  0.80581734322E+02 0.  0.
        254    2    1    2    0    0  0.46253880763E+03 -0.51121688316E+03  0.21541249435E+04  0.24332983953E+04  0.89744189674E+03 0.  0.
         23    2    4    4    0    0  0.10967610034E+03 -0.37379907132E+03  0.21307993422E+03  0.45356262118E+03  0.92527835036E+02 0.  0.
         23    2    4    4    0    0  0.35286270730E+03 -0.13741781184E+03  0.19410450093E+04  0.19797357741E+04  0.91116749071E+02 0.  0.
          1    1    3    3  502    0 -0.37466407180E+03  0.42351830954E+03  0.82223397394E+03  0.99790261705E+03  0.00000000000E+00 0. -1.
         -2    1    3    3    0  502 -0.87874735834E+02  0.87698573628E+02  0.12257872016E+03  0.17446647716E+03  0.00000000000E+00 0.  1.
         11    1    5    5    0    0  0.68163632596E+02 -0.31500805519E+03  0.20297343685E+03  0.38088656016E+03  0.00000000000E+00 0.  1.
        -11    1    5    5    0    0  0.41512467741E+02 -0.58791016130E+02  0.10106497364E+02  0.72676061014E+02  0.00000000000E+00 0. -1.
          3    1    6    6  503    0 -0.10427299248E+00 -0.43398060751E+01  0.28948909448E+01  0.52177756955E+01  0.00000000000E+00 0. -1.
         -3    1    6    6    0  503  0.35296698029E+03 -0.13307800577E+03  0.19381501183E+04  0.19745179984E+04  0.00000000000E+00 0.  1.
<mgrwt>
<rscale>  0 0.18432101E+04</rscale>
<asrwt>0</asrwt>
<pdfrwt beam="1">  1        1 0.51573882E+00 0.18432101E+04</pdfrwt>
<pdfrwt beam="2">  1       -2 0.38979222E-01 0.18432101E+04</pdfrwt>
<totfact> 0.16813799E+00</totfact>
</mgrwt>
</event>
<event>
12    4  0.4424320E-008  0.1860721E+04  0.7818608E-02  0.8674659E-01
         -2   -1    0    0    0  501 -0.00000000000E+00  0.00000000000E+00  0.94511751778E+03  0.94511751778E+03  0.00000000000E+00 0.  1.
          1   -1    0    0  501    0  0.00000000000E+00 -0.00000000000E+00 -0.91583372734E+03  0.91583372734E+03  0.00000000000E+00 0. -1.
        -24    2    1    2    0    0  0.42230693488E+03  0.37440259418E+03 -0.41983977332E+03  0.70800371363E+03  0.80519398182E+02 0.  0.
        254    2    1    2    0    0 -0.42230693488E+03 -0.37440259418E+03  0.44912356376E+03  0.11529475315E+04  0.89947517201E+03 0.  0.
         23    2    4    4    0    0 -0.23927007526E+03 -0.48232607388E+03  0.64800551256E+03  0.84744357721E+03  0.91437748150E+02 0.  0.
         23    2    4    4    0    0 -0.18303685961E+03  0.10792347969E+03 -0.19888194880E+03  0.30550395427E+03  0.92890618854E+02 0.  0.
          3    1    3    3  502    0  0.26709428309E+03  0.19278508498E+03 -0.27076572765E+03  0.42640300693E+03  0.00000000000E+00 0. -1.
         -2    1    3    3    0  502  0.15521265179E+03  0.18161750920E+03 -0.14907404567E+03  0.28160070670E+03  0.00000000000E+00 0.  1.
         11    1    5    5    0    0 -0.21517135539E+03 -0.43468583601E+03  0.53301264116E+03  0.72066147659E+03  0.00000000000E+00 0.  1.
        -11    1    5    5    0    0 -0.24098719870E+02 -0.47640237864E+02  0.11499287140E+03  0.12678210062E+03  0.00000000000E+00 0. -1.
          3    1    6    6  503    0 -0.69277985965E+01 -0.13412716321E+02 -0.27923912730E+01  0.15352289781E+02  0.00000000000E+00 0. -1.
         -3    1    6    6    0  503 -0.17610906102E+03  0.12133619602E+03 -0.19608955753E+03  0.29015166449E+03  0.00000000000E+00 0.  1.
<mgrwt>
<rscale>  0 0.18607208E+04</rscale>
<asrwt>0</asrwt>
<pdfrwt beam="1">  1        1 0.14089750E+00 0.18607208E+04</pdfrwt>
<pdfrwt beam="2">  1       -2 0.14540270E+00 0.18607208E+04</pdfrwt>
<totfact> 0.47259084E+00</totfact>
</mgrwt>
</event>
<event>
12    4  0.4424320E-008  0.1875414E+04  0.7818608E-02  0.8667192E-01
         -2   -1    0    0    0  501 -0.00000000000E+00  0.00000000000E+00  0.45959598984E+03  0.45959598984E+03  0.00000000000E+00 0.  1.
          1   -1    0    0  501    0  0.00000000000E+00 -0.00000000000E+00 -0.19131908343E+04  0.19131908343E+04  0.00000000000E+00 0. -1.
        -24    2    1    2    0    0  0.20886005550E+02 -0.59648923296E+03 -0.94357600566E+03  0.11191597147E+04  0.77117820656E+02 0.  0.
        254    2    1    2    0    0 -0.20886005550E+02  0.59648923296E+03 -0.51001883880E+03  0.12536271095E+04  0.97735668175E+03 0.  0.
         23    2    4    4    0    0  0.35671213104E+02  0.66821487266E+03  0.51711008167E+02  0.67743204243E+03  0.91959731684E+02 0.  0.
         23    2    4    4    0    0 -0.56557218654E+02 -0.71725639699E+02 -0.56172984696E+03  0.57619506702E+03  0.90094660894E+02 0.  0.
          3    1    3    3  502    0  0.38539421761E+02 -0.48696118144E+03 -0.80538717440E+03  0.94194744012E+03  0.00000000000E+00 0. -1.
         -4    1    3    3    0  502 -0.17653416210E+02 -0.10952805152E+03 -0.13818883127E+03  0.17721227458E+03  0.00000000000E+00 0.  1.
         11    1    5    5    0    0  0.22303876071E+00  0.35146302699E+03  0.69250863256E+02  0.35822059007E+03  0.00000000000E+00 0.  1.
        -11    1    5    5    0    0  0.35448174344E+02  0.31675184568E+03 -0.17539855089E+02  0.31921145236E+03  0.00000000000E+00 0. -1.
          1    1    6    6  503    0 -0.31044649544E+02 -0.91109260439E+02 -0.41950142764E+03  0.43040227160E+03  0.00000000000E+00 0. -1.
         -1    1    6    6    0  503 -0.25512569110E+02  0.19383620740E+02 -0.14222841932E+03  0.14579279543E+03  0.00000000000E+00 0.  1.
<mgrwt>
<rscale>  0 0.18754144E+04</rscale>
<asrwt>0</asrwt>
<pdfrwt beam="1">  1        1 0.29433705E+00 0.18754144E+04</pdfrwt>
<pdfrwt beam="2">  1       -2 0.70707076E-01 0.18754144E+04</pdfrwt>
<totfact> 0.51094071E+00</totfact>
</mgrwt>
</event>
<event>
12    4  0.4424320E-008  0.2168029E+04  0.7818608E-02  0.8531854E-01
          1   -1    0    0  501    0  0.00000000000E+00  0.00000000000E+00  0.80954626867E+03  0.80954626867E+03  0.00000000000E+00 0. -1.
         -2   -1    0    0    0  501 -0.00000000000E+00 -0.00000000000E+00 -0.14515384278E+04  0.14515384278E+04  0.00000000000E+00 0.  1.
        -24    2    1    2    0    0  0.35746212889E+03  0.57895507666E+03 -0.87524859774E+03  0.11114203662E+04  0.78911141620E+02 0.  0.
        254    2    1    2    0    0 -0.35746212889E+03 -0.57895507666E+03  0.23325643863E+03  0.11496643302E+04  0.89685637178E+03 0.  0.
         23    2    4    4    0    0 -0.28708573884E+03 -0.56967894753E+03  0.52832433979E+03  0.83315726470E+03  0.89844838515E+02 0.  0.
         23    2    4    4    0    0 -0.70376390054E+02 -0.92761291318E+01 -0.29506790116E+03  0.31650706551E+03  0.89848613648E+02 0.  0.
          3    1    3    3  502    0  0.18320416951E+03  0.25314675838E+03 -0.45323707541E+03  0.55051875130E+03  0.00000000000E+00 0. -1.
         -4    1    3    3    0  502  0.17425795938E+03  0.32580831828E+03 -0.42201152233E+03  0.56090161494E+03  0.00000000000E+00 0.  1.
         11    1    5    5    0    0 -0.28621231533E+03 -0.55878384426E+03  0.49934737772E+03  0.80218743301E+03  0.00000000000E+00 0. -1.
        -11    1    5    5    0    0 -0.87342350569E+00 -0.10895103270E+02  0.28976962065E+02  0.30969831682E+02  0.00000000000E+00 0.  1.
          4    1    6    6  503    0  0.98583034235E+01  0.20568333015E+02 -0.11351694349E+03  0.11578574580E+03  0.00000000000E+00 0.  1.
         -4    1    6    6    0  503 -0.80234693478E+02 -0.29844462147E+02 -0.18155095766E+03  0.20072131971E+03  0.00000000000E+00 0. -1.
<mgrwt>
<rscale>  0 0.21680291E+04</rscale>
<asrwt>0</asrwt>
<pdfrwt beam="1">  1        1 0.12454558E+00 0.21680291E+04</pdfrwt>
<pdfrwt beam="2">  1       -2 0.22331360E+00 0.21680291E+04</pdfrwt>
<totfact> 0.16362437E+00</totfact>
</mgrwt>
</event>
<event>
12    4  0.4424320E-008  0.1760200E+04  0.7818608E-02  0.8727756E-01
          1   -1    0    0  501    0  0.00000000000E+00  0.00000000000E+00  0.98282257998E+03  0.98282257998E+03  0.00000000000E+00 0. -1.
         -2   -1    0    0    0  501 -0.00000000000E+00 -0.00000000000E+00 -0.78811370882E+03  0.78811370882E+03  0.00000000000E+00 0.  1.
        -24    2    1    2    0    0 -0.79877075619E+02  0.92767860556E+02  0.70472913308E+03  0.72012074291E+03  0.83333727858E+02 0.  0.
        254    2    1    2    0    0  0.79877075619E+02 -0.92767860556E+02 -0.51002026192E+03  0.10508155459E+04  0.91055281051E+03 0.  0.
         23    2    4    4    0    0 -0.55733007649E+02  0.37346858652E+03 -0.37204462438E+03  0.53796469540E+03  0.91672557003E+02 0.  0.
         23    2    4    4    0    0  0.13561008327E+03 -0.46623644707E+03 -0.13797563754E+03  0.51285085048E+03  0.90621184194E+02 0.  0.
          1    1    3    3  502    0 -0.46733611390E+02  0.79985892973E+02  0.30352621428E+03  0.31734828858E+03  0.00000000000E+00 0. -1.
         -2    1    3    3    0  502 -0.33143464229E+02  0.12781967583E+02  0.40120291880E+03  0.40277245434E+03  0.00000000000E+00 0.  1.
         11    1    5    5    0    0 -0.28359601456E+02  0.62391303296E+02 -0.11331750639E+03  0.13243035519E+03  0.00000000000E+00 0. -1.
        -11    1    5    5    0    0 -0.27373406193E+02  0.31107728322E+03 -0.25872711799E+03  0.40553434020E+03  0.00000000000E+00 0.  1.
          2    1    6    6  503    0  0.67265923706E+02 -0.16628330568E+03 -0.99959022275E+01  0.17965177512E+03  0.00000000000E+00 0. -1.
         -2    1    6    6    0  503  0.68344159562E+02 -0.29995314139E+03 -0.12797973531E+03  0.33319907537E+03  0.00000000000E+00 0.  1.
<mgrwt>
<rscale>  0 0.17601999E+04</rscale>
<asrwt>0</asrwt>
<pdfrwt beam="1">  1        1 0.15120347E+00 0.17601999E+04</pdfrwt>
<pdfrwt beam="2">  1       -2 0.12124826E+00 0.17601999E+04</pdfrwt>
<totfact> 0.67034254E+00</totfact>
</mgrwt>
</event>
<event>
12    4  0.4424320E-008  0.1975593E+04  0.7818608E-02  0.8618117E-01
          1   -1    0    0  501    0  0.00000000000E+00  0.00000000000E+00  0.74107649515E+03  0.74107649515E+03  0.00000000000E+00 0. -1.
         -2   -1    0    0    0  501 -0.00000000000E+00 -0.00000000000E+00 -0.13166548073E+04  0.13166548073E+04  0.00000000000E+00 0.  1.
        -24    2    1    2    0    0 -0.50353843196E+03  0.49981115278E+03 -0.56945933647E+03  0.91327014170E+03  0.80101653648E+02 0.  0.
        254    2    1    2    0    0  0.50353843196E+03 -0.49981115278E+03 -0.61189756457E+01  0.11444611607E+04  0.89799318797E+03 0.  0.
         23    2    4    4    0    0 -0.26241391717E+02 -0.22097605673E+03 -0.36738400921E+03  0.43936632499E+03  0.92480965725E+02 0.  0.
         23    2    4    4    0    0  0.52977982368E+03 -0.27883509605E+03  0.36126503357E+03  0.70509483574E+03  0.90722822564E+02 0.  0.
          3    1    3    3  502    0 -0.40435660838E+03  0.41977354296E+03 -0.50110671070E+03  0.76864948423E+03  0.00000000000E+00 0. -1.
         -4    1    3    3    0  502 -0.99181823584E+02  0.80037609828E+02 -0.68352625777E+02  0.14462065747E+03  0.00000000000E+00 0.  1.
         11    1    5    5    0    0  0.28379665015E+02 -0.67740021924E+02 -0.76280227171E+02  0.10589045761E+03  0.00000000000E+00 0.  1.
        -11    1    5    5    0    0 -0.54621056732E+02 -0.15323603481E+03 -0.29110378204E+03  0.33347586737E+03  0.00000000000E+00 0. -1.
          1    1    6    6  503    0  0.49828872151E+03 -0.25353519927E+03  0.35944293303E+03  0.66465853591E+03  0.00000000000E+00 0. -1.
         -1    1    6    6    0  503  0.31491102170E+02 -0.25299896783E+02  0.18221005339E+01  0.40436299824E+02  0.00000000000E+00 0.  1.
<mgrwt>
<rscale>  0 0.19755930E+04</rscale>
<asrwt>0</asrwt>
<pdfrwt beam="1">  1        1 0.11401177E+00 0.19755930E+04</pdfrwt>
<pdfrwt beam="2">  1       -2 0.20256227E+00 0.19755930E+04</pdfrwt>
<totfact> 0.25987781E+00</totfact>
</mgrwt>
</event>
<event>
12    4  0.4424320E-008  0.1324871E+04  0.7818608E-02  0.9010071E-01
         -2   -1    0    0    0  501 -0.00000000000E+00  0.00000000000E+00  0.12658846580E+04  0.12658846580E+04  0.00000000000E+00 0.  1.
          1   -1    0    0  501    0  0.00000000000E+00 -0.00000000000E+00 -0.34665156396E+03  0.34665156396E+03  0.00000000000E+00 0. -1.
        -24    2    1    2    0    0  0.26747194768E+03  0.21370196109E+03  0.15462578253E+03  0.38399362759E+03  0.79575137082E+02 0.  0.
        254    2    1    2    0    0 -0.26747194768E+03 -0.21370196109E+03  0.76460731149E+03  0.12285425943E+04  0.89860046426E+03 0.  0.
         23    2    4    4    0    0  0.24709163075E+03  0.16505474129E+03  0.18861098762E+03  0.36349805634E+03  0.90881190032E+02 0.  0.
         23    2    4    4    0    0 -0.51456357843E+03 -0.37875670238E+03  0.57599632387E+03  0.86504453800E+03  0.91093203771E+02 0.  0.
          3    1    3    3  502    0  0.15382638553E+03  0.13426208802E+03  0.49782019530E+02  0.21015973599E+03  0.00000000000E+00 0. -1.
         -4    1    3    3    0  502  0.11364556215E+03  0.79439873073E+02  0.10484376300E+03  0.17383389160E+03  0.00000000000E+00 0.  1.
         11    1    5    5    0    0 -0.60439176658E+01  0.14960686363E+02  0.13601225100E+02  0.21103184628E+02  0.00000000000E+00 0. -1.
        -11    1    5    5    0    0  0.25313554842E+03  0.15009405492E+03  0.17500976252E+03  0.34239487171E+03  0.00000000000E+00 0.  1.
          3    1    6    6  503    0 -0.84806648319E+02 -0.85740175840E+02  0.70284250281E+02  0.13958302615E+03  0.00000000000E+00 0. -1.
         -3    1    6    6    0  503 -0.42975693011E+03 -0.29301652654E+03  0.50571207359E+03  0.72546151185E+03  0.00000000000E+00 0.  1.
<mgrwt>
<rscale>  0 0.13248712E+04</rscale>
<asrwt>0</asrwt>
<pdfrwt beam="1">  1        1 0.53331010E-01 0.13248712E+04</pdfrwt>
<pdfrwt beam="2">  1       -2 0.19475148E+00 0.13248712E+04</pdfrwt>
<totfact> 0.89414672E+00</totfact>
</mgrwt>
</event>
<event>
12    4  0.4424320E-008  0.1213660E+04  0.7818608E-02  0.9100983E-01
          1   -1    0    0  501    0  0.00000000000E+00  0.00000000000E+00  0.88066216937E+03  0.88066216937E+03  0.00000000000E+00 0. -1.
         -2   -1    0    0    0  501 -0.00000000000E+00 -0.00000000000E+00 -0.41814323201E+03  0.41814323201E+03  0.00000000000E+00 0.  1.
        -24    2    1    2    0    0 -0.24835481826E+03  0.74792751526E+02  0.15494698388E+03  0.31326706425E+03  0.82786558668E+02 0.  0.
        254    2    1    2    0    0  0.24835481826E+03 -0.74792751526E+02  0.30757195348E+03  0.98553833713E+03  0.89967284940E+03 0.  0.
         23    2    4    4    0    0  0.13568417647E+03 -0.33267348158E+03  0.50720624814E+03  0.62811591004E+03  0.90496282775E+02 0.  0.
         23    2    4    4    0    0  0.11267064179E+03  0.25788073005E+03 -0.19963429466E+03  0.35742242709E+03  0.93272693353E+02 0.  0.
          1    1    3    3  502    0 -0.18589774950E+03  0.74295248572E+02  0.15086438259E+03  0.25067472781E+03  0.00000000000E+00 0. -1.
         -2    1    3    3    0  502 -0.62457068760E+02  0.49750295376E+00  0.40826012886E+01  0.62592336437E+02  0.00000000000E+00 0.  1.
         11    1    5    5    0    0  0.89610693578E+02 -0.27992566202E+03  0.45097089551E+03  0.53829657370E+03  0.00000000000E+00 0.  1.
        -11    1    5    5    0    0  0.46073482892E+02 -0.52747819561E+02  0.56235352632E+02  0.89819336336E+02  0.00000000000E+00 0. -1.
          2    1    6    6  503    0  0.36546634988E+02  0.11064328054E+02 -0.25917257071E+02  0.46149540608E+02  0.00000000000E+00 0. -1.
         -2    1    6    6    0  503  0.76124006802E+02  0.24681640200E+03 -0.17371703759E+03  0.31127288648E+03  0.00000000000E+00 0.  1.
<mgrwt>
<rscale>  0 0.12136605E+04</rscale>
<asrwt>0</asrwt>
<pdfrwt beam="1">  1        1 0.13548649E+00 0.12136605E+04</pdfrwt>
<pdfrwt beam="2">  1       -2 0.64329728E-01 0.12136605E+04</pdfrwt>
<totfact> 0.36522932E+01</totfact>
</mgrwt>
</event>
<event>
12    4  0.4424320E-008  0.1335849E+04  0.7818608E-02  0.9001610E-01
          1   -1    0    0  501    0  0.00000000000E+00  0.00000000000E+00  0.62423106806E+03  0.62423106806E+03  0.00000000000E+00 0. -1.
         -2   -1    0    0    0  501 -0.00000000000E+00 -0.00000000000E+00 -0.71467663187E+03  0.71467663187E+03  0.00000000000E+00 0.  1.
        -24    2    1    2    0    0  0.17462043767E+03 -0.34998489473E+03  0.21656519110E+03  0.45522709597E+03  0.85729243073E+02 0.  0.
        254    2    1    2    0    0 -0.17462043767E+03  0.34998489473E+03 -0.30701075491E+03  0.88368060396E+03  0.73051631220E+03 0.  0.
         23    2    4    4    0    0  0.21937729060E+03  0.96747210298E+02 -0.31636392915E+03  0.40704796667E+03  0.90086032043E+02 0.  0.
         23    2    4    4    0    0 -0.39399772827E+03  0.25323768443E+03  0.93531742381E+01  0.47663263729E+03  0.87907077990E+02 0.  0.
          1    1    3    3  502    0  0.17061518962E+03 -0.35497226983E+03  0.21133563593E+03  0.44696488262E+03  0.00000000000E+00 0. -1.
         -2    1    3    3    0  502  0.40052480508E+01  0.49873750966E+01  0.52295551665E+01  0.82622133561E+01  0.00000000000E+00 0.  1.
         11    1    5    5    0    0  0.19714701057E+03  0.79642786731E+02 -0.31356810746E+03  0.37885996789E+03  0.00000000000E+00 0. -1.
        -11    1    5    5    0    0  0.22230280033E+02  0.17104423568E+02 -0.27958216852E+01  0.28187998773E+02  0.00000000000E+00 0.  1.
          2    1    6    6  503    0 -0.50017062129E+02  0.71845835684E+02 -0.24533336084E+01  0.87575963911E+02  0.00000000000E+00 0.  1.
         -2    1    6    6    0  503 -0.34398066615E+03  0.18139184875E+03  0.11806507847E+02  0.38905667338E+03  0.00000000000E+00 0. -1.
<mgrwt>
<rscale>  0 0.13358493E+04</rscale>
<asrwt>0</asrwt>
<pdfrwt beam="1">  1        1 0.96035549E-01 0.13358493E+04</pdfrwt>
<pdfrwt beam="2">  1       -2 0.10995025E+00 0.13358493E+04</pdfrwt>
<totfact> 0.18235559E+01</totfact>
</mgrwt>
</event>
<event>
12    4  0.4424320E-008  0.1950756E+04  0.7818608E-02  0.8629997E-01
         -2   -1    0    0    0  501 -0.00000000000E+00  0.00000000000E+00  0.64554328188E+03  0.64554328188E+03  0.00000000000E+00 0.  1.
          1   -1    0    0  501    0  0.00000000000E+00 -0.00000000000E+00 -0.14737381724E+04  0.14737381724E+04  0.00000000000E+00 0. -1.
        -24    2    1    2    0    0  0.72362977844E+01 -0.59807821205E+03 -0.84884030391E+03  0.10410971979E+04  0.74857212208E+02 0.  0.
        254    2    1    2    0    0 -0.72362977844E+01  0.59807821205E+03  0.20645413415E+02  0.10781842563E+04  0.89683061154E+03 0.  0.
         23    2    4    4    0    0  0.31978951958E+03 -0.46087063777E+02 -0.71669529219E+02  0.34422491267E+03  0.94683233983E+02 0.  0.
         23    2    4    4    0    0 -0.32702581737E+03  0.64416527583E+03  0.92314942634E+02  0.73395934368E+03  0.90991657493E+02 0.  0.
          1    1    3    3  502    0  0.70509310455E+01 -0.57666250986E+03 -0.83752194074E+03  0.10168738207E+04  0.00000000000E+00 0. -1.
         -2    1    3    3    0  502  0.18536673893E+00 -0.21415702184E+02 -0.11318363176E+02  0.24223377259E+02  0.00000000000E+00 0.  1.
         11    1    5    5    0    0  0.85737938057E+02 -0.52284959355E+02 -0.39411842505E+02  0.10787958253E+03  0.00000000000E+00 0. -1.
        -11    1    5    5    0    0  0.23405158153E+03  0.61978955779E+01 -0.32257686713E+02  0.23634533014E+03  0.00000000000E+00 0.  1.
          4    1    6    6  503    0 -0.28988537162E+03  0.48993796034E+03  0.64723070762E+02  0.57294136659E+03  0.00000000000E+00 0.  1.
         -4    1    6    6    0  503 -0.37140445751E+02  0.15422731548E+03  0.27591871872E+02  0.16101797709E+03  0.00000000000E+00 0. -1.
<mgrwt>
<rscale>  0 0.19507555E+04</rscale>
<asrwt>0</asrwt>
<pdfrwt beam="1">  1        1 0.22672894E+00 0.19507555E+04</pdfrwt>
<pdfrwt beam="2">  1       -2 0.99314353E-01 0.19507555E+04</pdfrwt>
<totfact> 0.46832320E+00</totfact>
</mgrwt>
</event>
<event>
12    4  0.4424320E-008  0.1187299E+04  0.7818608E-02  0.9124047E-01
         -2   -1    0    0    0  501 -0.00000000000E+00  0.00000000000E+00  0.58900602746E+03  0.58900602746E+03  0.00000000000E+00 0.  1.
          1   -1    0    0  501    0  0.00000000000E+00 -0.00000000000E+00 -0.59832926088E+03  0.59832926088E+03  0.00000000000E+00 0. -1.
        -24    2    1    2    0    0 -0.22231906236E+03 -0.20696663479E+01 -0.10900708657E+03  0.26005231635E+03  0.79464541206E+02 0.  0.
        254    2    1    2    0    0  0.22231906236E+03  0.20696663479E+01  0.99683853146E+02  0.92728297198E+03  0.89469927380E+03 0.  0.
         23    2    4    4    0    0 -0.28686969319E+03 -0.88002356254E+02 -0.14840490070E+03  0.34672005113E+03  0.90289222649E+02 0.  0.
         23    2    4    4    0    0  0.50918875555E+03  0.90072022602E+02  0.24808875385E+03  0.58056292086E+03  0.90106144394E+02 0.  0.
          1    1    3    3  502    0 -0.12391334897E+03 -0.30532686334E+02 -0.89233074721E+02  0.15572188225E+03  0.00000000000E+00 0. -1.
         -2    1    3    3    0  502 -0.98405713395E+02  0.28463019986E+02 -0.19774011849E+02  0.10433043410E+03  0.00000000000E+00 0.  1.
         11    1    5    5    0    0 -0.62556790547E+02  0.17484514338E+02 -0.22842472704E+02  0.68853749676E+02  0.00000000000E+00 0. -1.
        -11    1    5    5    0    0 -0.22431290264E+03 -0.10548687059E+03 -0.12556242800E+03  0.27786630145E+03  0.00000000000E+00 0.  1.
          1    1    6    6  503    0  0.31904982821E+01 -0.18553761610E+01  0.15853506286E+02  0.16277449479E+02  0.00000000000E+00 0. -1.
         -1    1    6    6    0  503  0.50599825727E+03  0.91927398763E+02  0.23223524756E+03  0.56428547138E+03  0.00000000000E+00 0.  1.
<mgrwt>
<rscale>  0 0.11872987E+04</rscale>
<asrwt>0</asrwt>
<pdfrwt beam="1">  1        1 0.92050656E-01 0.11872987E+04</pdfrwt>
<pdfrwt beam="2">  1       -2 0.90616312E-01 0.11872987E+04</pdfrwt>
<totfact> 0.31019923E+01</totfact>
</mgrwt>
</event>
<event>
12    4  0.4424320E-008  0.1236421E+04  0.7818608E-02  0.9081561E-01
         -2   -1    0    0    0  501 -0.00000000000E+00  0.00000000000E+00  0.27106592329E+03  0.27106592329E+03  0.00000000000E+00 0.  1.
          1   -1    0    0  501    0  0.00000000000E+00 -0.00000000000E+00 -0.14099320021E+04  0.14099320021E+04  0.00000000000E+00 0. -1.
        -24    2    1    2    0    0  0.13358212205E+03 -0.14655822472E+03 -0.42273588129E+01  0.21408450877E+03  0.80565561932E+02 0.  0.
        254    2    1    2    0    0 -0.13358212205E+03  0.14655822472E+03 -0.11346387200E+04  0.14669134166E+04  0.90835370333E+03 0.  0.
         23    2    4    4    0    0  0.36080162429E+03  0.12661561624E+03 -0.31279017366E+03  0.50334263402E+03  0.96471695966E+02 0.  0.
         23    2    4    4    0    0 -0.49438374634E+03  0.19942608478E+02 -0.82184854631E+03  0.96357078257E+03  0.90667655036E+02 0.  0.
          3    1    3    3  502    0 -0.51123010924E+01 -0.26670718610E+02 -0.13889333227E+02  0.30502072571E+02  0.00000000000E+00 0. -1.
         -4    1    3    3    0  502  0.13869442314E+03 -0.11988750611E+03  0.96619744146E+01  0.18358243620E+03  0.00000000000E+00 0.  1.
         11    1    5    5    0    0  0.36048651108E+03  0.13424028539E+03 -0.31266245261E+03  0.49571038739E+03  0.00000000000E+00 0. -1.
        -11    1    5    5    0    0  0.31511320970E+00 -0.76246691534E+01 -0.12772104947E+00  0.76322466352E+01  0.00000000000E+00 0.  1.
          1    1    6    6  503    0 -0.45811024813E+03  0.23694720955E+02 -0.70446317080E+03  0.84065141305E+03  0.00000000000E+00 0. -1.
         -1    1    6    6    0  503 -0.36273498212E+02 -0.37521124770E+01 -0.11738537550E+03  0.12291936952E+03  0.00000000000E+00 0.  1.
<mgrwt>
<rscale>  0 0.12364215E+04</rscale>
<asrwt>0</asrwt>
<pdfrwt beam="1">  1        1 0.21691262E+00 0.12364215E+04</pdfrwt>
<pdfrwt beam="2">  1       -2 0.41702450E-01 0.12364215E+04</pdfrwt>
<totfact> 0.35669447E+01</totfact>
</mgrwt>
</event>
<event>
12    4  0.4424320E-008  0.1410561E+04  0.7818608E-02  0.8946209E-01
         -2   -1    0    0    0  501 -0.00000000000E+00  0.00000000000E+00  0.88967923248E+03  0.88967923248E+03  0.00000000000E+00 0.  1.
          1   -1    0    0  501    0  0.00000000000E+00 -0.00000000000E+00 -0.55910083967E+03  0.55910083967E+03  0.00000000000E+00 0. -1.
        -24    2    1    2    0    0 -0.21297383776E+03 -0.19223944880E+02 -0.26075157501E+03  0.34675587841E+03  0.80751716491E+02 0.  0.
        254    2    1    2    0    0  0.21297383776E+03  0.19223944880E+02  0.59132996781E+03  0.11020241937E+04  0.90501866120E+03 0.  0.
         23    2    4    4    0    0  0.53546437549E+03 -0.21801386172E+02  0.18651932439E+03  0.57466904107E+03  0.90871615689E+02 0.  0.
         23    2    4    4    0    0 -0.32249053773E+03  0.41025331053E+02  0.40481064343E+03  0.52735515267E+03  0.92458505835E+02 0.  0.
          3    1    3    3  502    0 -0.19151961037E+03  0.73453851540E+01 -0.19963214935E+03  0.27674304128E+03  0.00000000000E+00 0. -1.
         -4    1    3    3    0  502 -0.21454227392E+02 -0.26569330034E+02 -0.61119425653E+02  0.70012837135E+02  0.00000000000E+00 0.  1.
         11    1    5    5    0    0  0.11945211737E+03  0.19142743469E+02  0.11620569134E+02  0.12153308438E+03  0.00000000000E+00 0.  1.
        -11    1    5    5    0    0  0.41601225812E+03 -0.40944129641E+02  0.17489875525E+03  0.45313595669E+03  0.00000000000E+00 0. -1.
          4    1    6    6  503    0 -0.16218970645E+03  0.40716081850E+02  0.14134912306E+03  0.21895861433E+03  0.00000000000E+00 0. -1.
         -4    1    6    6    0  503 -0.16030083127E+03  0.30924920298E+00  0.26346152037E+03  0.30839653834E+03  0.00000000000E+00 0.  1.
<mgrwt>
<rscale>  0 0.14105607E+04</rscale>
<asrwt>0</asrwt>
<pdfrwt beam="1">  1        1 0.86015514E-01 0.14105607E+04</pdfrwt>
<pdfrwt beam="2">  1       -2 0.13687373E+00 0.14105607E+04</pdfrwt>
<totfact> 0.12294150E+01</totfact>
</mgrwt>
</event>
<event>
12    4  0.4424320E-008  0.1638216E+04  0.7818608E-02  0.8797408E-01
         -2   -1    0    0    0  501 -0.00000000000E+00  0.00000000000E+00  0.64516661712E+03  0.64516661712E+03  0.00000000000E+00 0.  1.
          1   -1    0    0  501    0  0.00000000000E+00 -0.00000000000E+00 -0.10399456993E+04  0.10399456993E+04  0.00000000000E+00 0. -1.
        -24    2    1    2    0    0 -0.42225086011E+03  0.29055189525E+03 -0.39271080756E+03  0.65057612223E+03  0.79443814995E+02 0.  0.
        254    2    1    2    0    0  0.42225086011E+03 -0.29055189525E+03 -0.20682746004E+01  0.10345361942E+04  0.89863489059E+03 0.  0.
         23    2    4    4    0    0  0.44632609347E+03  0.19329641198E+03 -0.15346718349E+03  0.51806850810E+03  0.90952284647E+02 0.  0.
         23    2    4    4    0    0 -0.24075233357E+02 -0.48384830722E+03  0.15139890889E+03  0.51646768606E+03  0.95542869278E+02 0.  0.
          3    1    3    3  502    0 -0.31181034890E+03  0.20579816025E+03 -0.32759308662E+03  0.49688611054E+03  0.00000000000E+00 0. -1.
         -4    1    3    3    0  502 -0.11044051121E+03  0.84753734998E+02 -0.65117720937E+02  0.15369001169E+03  0.00000000000E+00 0.  1.
         11    1    5    5    0    0  0.66983634601E+01  0.10886885856E+02  0.84387001081E+01  0.15316788704E+02  0.00000000000E+00 0. -1.
        -11    1    5    5    0    0  0.43962773001E+03  0.18240952612E+03 -0.16190588360E+03  0.50275171940E+03  0.00000000000E+00 0.  1.
          3    1    6    6  503    0  0.23383477568E+02 -0.36228709959E+02  0.20144377317E+02  0.47593091788E+02  0.00000000000E+00 0. -1.
         -3    1    6    6    0  503 -0.47458710925E+02 -0.44761959727E+03  0.13125453157E+03  0.46887459428E+03  0.00000000000E+00 0.  1.
<mgrwt>
<rscale>  0 0.16382164E+04</rscale>
<asrwt>0</asrwt>
<pdfrwt beam="1">  1        1 0.15999165E+00 0.16382164E+04</pdfrwt>
<pdfrwt beam="2">  1       -2 0.99256403E-01 0.16382164E+04</pdfrwt>
<totfact> 0.99329531E+00</totfact>
</mgrwt>
</event>
<event>
12    4  0.4424320E-008  0.2596272E+04  0.7818608E-02  0.8369468E-01
         -2   -1    0    0    0  501 -0.00000000000E+00  0.00000000000E+00  0.10991042787E+04  0.10991042787E+04  0.00000000000E+00 0.  1.
          1   -1    0    0  501    0  0.00000000000E+00 -0.00000000000E+00 -0.15332099567E+04  0.15332099567E+04  0.00000000000E+00 0. -1.
        -24    2    1    2    0    0  0.21736320822E+03 -0.50968539497E+03 -0.11954442257E+04  0.13200519630E+04  0.80151868822E+02 0.  0.
        254    2    1    2    0    0 -0.21736320822E+03  0.50968539497E+03  0.76133854769E+03  0.13122622724E+04  0.91398573360E+03 0.  0.
         23    2    4    4    0    0 -0.42239482017E+03  0.41534442520E+03  0.86048338659E+03  0.10485155591E+04  0.89581489897E+02 0.  0.
         23    2    4    4    0    0  0.20503161196E+03  0.94340969770E+02 -0.99144838902E+02  0.26374671334E+03  0.93778724875E+02 0.  0.
          1    1    3    3  502    0  0.13089469386E+03 -0.39487922433E+03 -0.87584611393E+03  0.96962334851E+03  0.00000000000E+00 0. -1.
         -2    1    3    3    0  502  0.86468514362E+02 -0.11480617064E+03 -0.31959811181E+03  0.35042861450E+03  0.00000000000E+00 0.  1.
         11    1    5    5    0    0 -0.28372949071E+03  0.22013518940E+03  0.49373773576E+03  0.61052344527E+03  0.00000000000E+00 0.  1.
        -11    1    5    5    0    0 -0.13866532946E+03  0.19520923580E+03  0.36674565083E+03  0.43799211378E+03  0.00000000000E+00 0. -1.
          3    1    6    6  503    0 -0.79846194741E+01  0.15103943617E+02 -0.57002032814E+01  0.18010429711E+02  0.00000000000E+00 0. -1.
         -3    1    6    6    0  503  0.21301623143E+03  0.79237026153E+02 -0.93444635620E+02  0.24573628363E+03  0.00000000000E+00 0.  1.
<mgrwt>
<rscale>  0 0.25962724E+04</rscale>
<asrwt>0</asrwt>
<pdfrwt beam="1">  1        1 0.23587845E+00 0.25962724E+04</pdfrwt>
<pdfrwt beam="2">  1       -2 0.16909297E+00 0.25962724E+04</pdfrwt>
<totfact> 0.10384874E+00</totfact>
</mgrwt>
</event>
<event>
12    4  0.4424320E-008  0.1853472E+04  0.7818608E-02  0.8678369E-01
          1   -1    0    0  501    0  0.00000000000E+00  0.00000000000E+00  0.11242784966E+04  0.11242784966E+04  0.00000000000E+00 0. -1.
         -2   -1    0    0    0  501 -0.00000000000E+00 -0.00000000000E+00 -0.76390311093E+03  0.76390311093E+03  0.00000000000E+00 0.  1.
        -24    2    1    2    0    0 -0.15258594100E+03  0.13410606966E+03  0.81145750777E+03  0.84036703623E+03  0.80539191469E+02 0.  0.
        254    2    1    2    0    0  0.15258594100E+03 -0.13410606966E+03 -0.45108212211E+03  0.10478145713E+04  0.92367385349E+03 0.  0.
         23    2    4    4    0    0  0.23303508601E+03 -0.22161611705E+03  0.19322859562E+03  0.38622670451E+03  0.91731796356E+02 0.  0.
         23    2    4    4    0    0 -0.80449145011E+02  0.87510047399E+02 -0.64431071772E+03  0.66158786678E+03  0.91826636465E+02 0.  0.
          3    1    3    3  502    0 -0.15239937365E+03  0.10190303356E+03  0.73253108911E+03  0.75512356197E+03  0.00000000000E+00 0. -1.
         -4    1    3    3    0  502 -0.18656734692E+00  0.32203036093E+02  0.78926418663E+02  0.85243474260E+02  0.00000000000E+00 0.  1.
         11    1    5    5    0    0  0.70403033348E+02 -0.32980150694E+02  0.13072855373E+02  0.78836393829E+02  0.00000000000E+00 0. -1.
        -11    1    5    5    0    0  0.16263205266E+03 -0.18863596636E+03  0.18015574025E+03  0.30739031068E+03  0.00000000000E+00 0.  1.
          3    1    6    6  503    0 -0.49108679188E+02 -0.38283969455E+01 -0.14835633519E+03  0.15631993215E+03  0.00000000000E+00 0. -1.
         -3    1    6    6    0  503 -0.31340465822E+02  0.91338444345E+02 -0.49595438253E+03  0.50526793463E+03  0.00000000000E+00 0.  1.
<mgrwt>
<rscale>  0 0.18534722E+04</rscale>
<asrwt>0</asrwt>
<pdfrwt beam="1">  1        1 0.17296592E+00 0.18534722E+04</pdfrwt>
<pdfrwt beam="2">  1       -2 0.11752356E+00 0.18534722E+04</pdfrwt>
<totfact> 0.55994719E+00</totfact>
</mgrwt>
</event>
<event>
12    4  0.4424320E-008  0.2455347E+04  0.7818608E-02  0.8419068E-01
         -2   -1    0    0    0  501 -0.00000000000E+00  0.00000000000E+00  0.12188613238E+04  0.12188613238E+04  0.00000000000E+00 0.  1.
          1   -1    0    0  501    0  0.00000000000E+00 -0.00000000000E+00 -0.12365494123E+04  0.12365494123E+04  0.00000000000E+00 0. -1.
        -24    2    1    2    0    0 -0.40064011795E+03  0.97682499267E+03 -0.13963466106E+03  0.10679943900E+04  0.80091248420E+02 0.  0.
        254    2    1    2    0    0  0.40064011795E+03 -0.97682499267E+03  0.12194657261E+03  0.13874163462E+04  0.89182598111E+03 0.  0.
         23    2    4    4    0    0 -0.43290745241E+02 -0.51193229159E+03 -0.31151329400E+03  0.60776353188E+03  0.91581758863E+02 0.  0.
         23    2    4    4    0    0  0.44393086319E+03 -0.46489270109E+03  0.43345986661E+03  0.77965281427E+03  0.82287423232E+02 0.  0.
          1    1    3    3  502    0 -0.39926424046E+03  0.93304335506E+03 -0.13734208520E+03  0.10241311852E+04  0.00000000000E+00 0. -1.
         -2    1    3    3    0  502 -0.13758774895E+01  0.43781637615E+02 -0.22925758597E+01  0.43863204799E+02  0.00000000000E+00 0.  1.
         11    1    5    5    0    0  0.43436220525E+00 -0.19934606497E+03 -0.73555718610E+02  0.21248408418E+03  0.00000000000E+00 0.  1.
        -11    1    5    5    0    0 -0.43725107446E+02 -0.31258622662E+03 -0.23795757539E+03  0.39527944771E+03  0.00000000000E+00 0. -1.
          2    1    6    6  503    0  0.43754743569E+02 -0.69916393528E+02  0.30666228576E+02  0.87995438767E+02  0.00000000000E+00 0.  1.
         -2    1    6    6    0  503  0.40017611962E+03 -0.39497630756E+03  0.40279363804E+03  0.69165737550E+03  0.00000000000E+00 0. -1.
<mgrwt>
<rscale>  0 0.24553470E+04</rscale>
<asrwt>0</asrwt>
<pdfrwt beam="1">  1        1 0.19023837E+00 0.24553470E+04</pdfrwt>
<pdfrwt beam="2">  1       -2 0.18751713E+00 0.24553470E+04</pdfrwt>
<totfact> 0.12669419E+00</totfact>
</mgrwt>
</event>
<event>
12    4  0.4424320E-008  0.1053552E+04  0.7818608E-02  0.9251685E-01
         -4   -1    0    0    0  501 -0.00000000000E+00  0.00000000000E+00  0.26503823020E+03  0.26503823020E+03  0.00000000000E+00 0.  1.
          3   -1    0    0  501    0  0.00000000000E+00 -0.00000000000E+00 -0.10469912998E+04  0.10469912998E+04  0.00000000000E+00 0. -1.
        -24    2    1    2    0    0  0.10909449048E+03 -0.10425132179E+02 -0.91423056967E+02  0.16436822986E+03  0.81538018172E+02 0.  0.
        254    2    1    2    0    0 -0.10909449048E+03  0.10425132179E+02 -0.69053001266E+03  0.11476613002E+04  0.91010135167E+03 0.  0.
         23    2    4    4    0    0  0.69520660266E+02  0.41268962307E+02  0.20102831036E+03  0.23320552196E+03  0.86233314031E+02 0.  0.
         23    2    4    4    0    0 -0.17861515075E+03 -0.30843830129E+02 -0.89155832303E+03  0.91445577823E+03  0.92186837652E+02 0.  0.
          1    1    3    3  502    0  0.99424397665E+02  0.64834297263E+01 -0.10167602999E+03  0.14235610555E+03  0.00000000000E+00 0. -1.
         -2    1    3    3    0  502  0.96700928161E+01 -0.16908561905E+02  0.10252973026E+02  0.22012124310E+02  0.00000000000E+00 0.  1.
         11    1    5    5    0    0 -0.11486993511E+02 -0.37141225682E+01  0.24742057961E+00  0.12075054588E+02  0.00000000000E+00 0. -1.
        -11    1    5    5    0    0  0.81007653777E+02  0.44983084876E+02  0.20078088978E+03  0.22113046737E+03  0.00000000000E+00 0.  1.
          1    1    6    6  503    0 -0.27601110459E+02 -0.26994013179E+02 -0.78464357394E+02  0.87448004136E+02  0.00000000000E+00 0. -1.
         -1    1    6    6    0  503 -0.15101404029E+03 -0.38498169497E+01 -0.81309396563E+03  0.82700777409E+03  0.00000000000E+00 0.  1.
<mgrwt>
<rscale>  0 0.10535516E+04</rscale>
<asrwt>0</asrwt>
<pdfrwt beam="1">  1        3 0.16107559E+00 0.10535516E+04</pdfrwt>
<pdfrwt beam="2">  1       -4 0.40775112E-01 0.10535516E+04</pdfrwt>
<totfact> 0.35869473E+00</totfact>
</mgrwt>
</event>
<event>
12    4  0.4424320E-008  0.2733380E+04  0.7818608E-02  0.8324255E-01
         -2   -1    0    0    0  501 -0.00000000000E+00  0.00000000000E+00  0.66607321551E+03  0.66607321551E+03  0.00000000000E+00 0.  1.
          1   -1    0    0  501    0  0.00000000000E+00 -0.00000000000E+00 -0.28042590855E+04  0.28042590855E+04  0.00000000000E+00 0. -1.
        -24    2    1    2    0    0  0.11968916167E+04 -0.91658334038E+02 -0.82942167427E+03  0.14611780537E+04  0.78423201758E+02 0.  0.
        254    2    1    2    0    0 -0.11968916167E+04  0.91658334038E+02 -0.13087641957E+04  0.20091542474E+04  0.93962028363E+03 0.  0.
         23    2    4    4    0    0 -0.11099444865E+04  0.69499368547E+02 -0.55823320108E+03  0.12478218222E+04  0.92887393614E+02 0.  0.
         23    2    4    4    0    0 -0.86947130142E+02  0.22158965491E+02 -0.75053099466E+03  0.76133242512E+03  0.90991562252E+02 0.  0.
          1    1    3    3  502    0  0.67098599405E+02 -0.58520983682E+01 -0.70177333615E+02  0.97269354119E+02  0.00000000000E+00 0. -1.
         -2    1    3    3    0  502  0.11297930173E+04 -0.85806235670E+02 -0.75924434065E+03  0.13639086996E+04  0.00000000000E+00 0.  1.
         11    1    5    5    0    0 -0.87620811734E+03  0.47877951352E+02 -0.39761476179E+03  0.96339527812E+03  0.00000000000E+00 0. -1.
        -11    1    5    5    0    0 -0.23373636918E+03  0.21621417195E+02 -0.16061843929E+03  0.28442654412E+03  0.00000000000E+00 0.  1.
          3    1    6    6  503    0 -0.77042065990E+02  0.13435144449E+02 -0.28276780984E+03  0.29338305561E+03  0.00000000000E+00 0. -1.
         -3    1    6    6    0  503 -0.99050641520E+01  0.87238210424E+01 -0.46776318482E+03  0.46794936951E+03  0.00000000000E+00 0.  1.
<mgrwt>
<rscale>  0 0.27333802E+04</rscale>
<asrwt>0</asrwt>
<pdfrwt beam="1">  1        1 0.43142446E+00 0.27333802E+04</pdfrwt>
<pdfrwt beam="2">  1       -2 0.10247281E+00 0.27333802E+04</pdfrwt>
<totfact> 0.49369875E-01</totfact>
</mgrwt>
</event>
<event>
12    4  0.4424320E-008  0.1648986E+04  0.7818608E-02  0.8791007E-01
          1   -1    0    0  501    0  0.00000000000E+00  0.00000000000E+00  0.73342651302E+03  0.73342651302E+03  0.00000000000E+00 0. -1.
         -2   -1    0    0    0  501 -0.00000000000E+00 -0.00000000000E+00 -0.92686628586E+03  0.92686628586E+03  0.00000000000E+00 0.  1.
        -24    2    1    2    0    0  0.34407252616E+03 -0.38877762656E+03 -0.32213075605E+03  0.61616743411E+03  0.79750465155E+02 0.  0.
        254    2    1    2    0    0 -0.34407252616E+03  0.38877762656E+03  0.12869098321E+03  0.10441253648E+04  0.89671760440E+03 0.  0.
         23    2    4    4    0    0 -0.29082363771E+02  0.33893370242E+03  0.45747081349E+03  0.57720928735E+03  0.90383503446E+02 0.  0.
         23    2    4    4    0    0 -0.31499016239E+03  0.49843924141E+02 -0.32877983028E+03  0.46691607742E+03  0.90615823005E+02 0.  0.
          3    1    3    3  502    0  0.93356049024E+02 -0.10628407612E+03 -0.47689288499E+02  0.14928471109E+03  0.00000000000E+00 0. -1.
         -4    1    3    3    0  502  0.25071647714E+03 -0.28249355043E+03 -0.27444146755E+03  0.46688272302E+03  0.00000000000E+00 0.  1.
         11    1    5    5    0    0  0.27534250434E+02  0.15439094828E+03  0.17387213598E+03  0.23414999365E+03  0.00000000000E+00 0. -1.
        -11    1    5    5    0    0 -0.56616614205E+02  0.18454275414E+03  0.28359867751E+03  0.34305929370E+03  0.00000000000E+00 0.  1.
          3    1    6    6  503    0 -0.18362699253E+03  0.11314218939E+02 -0.12885034205E+03  0.22460920413E+03  0.00000000000E+00 0. -1.
         -3    1    6    6    0  503 -0.13136316987E+03  0.38529705202E+02 -0.19992948823E+03  0.24230687329E+03  0.00000000000E+00 0.  1.
<mgrwt>
<rscale>  0 0.16489855E+04</rscale>
<asrwt>0</asrwt>
<pdfrwt beam="1">  1        1 0.11283485E+00 0.16489855E+04</pdfrwt>
<pdfrwt beam="2">  1       -2 0.14259481E+00 0.16489855E+04</pdfrwt>
<totfact> 0.72632391E+00</totfact>
</mgrwt>
</event>
<event>
12    4  0.4424320E-008  0.1719683E+04  0.7818608E-02  0.8750217E-01
          1   -1    0    0  501    0  0.00000000000E+00  0.00000000000E+00  0.71267156600E+03  0.71267156600E+03  0.00000000000E+00 0. -1.
         -2   -1    0    0    0  501 -0.00000000000E+00 -0.00000000000E+00 -0.10374027872E+04  0.10374027872E+04  0.00000000000E+00 0.  1.
        -24    2    1    2    0    0  0.42380200485E+03  0.19810412379E+03  0.28461550507E+03  0.55350598588E+03  0.80681518973E+02 0.  0.
        254    2    1    2    0    0 -0.42380200485E+03 -0.19810412379E+03 -0.60934672626E+03  0.11965683673E+04  0.91739797346E+03 0.  0.
         23    2    4    4    0    0 -0.10268744748E+03  0.22578086942E+03  0.11946880940E+03  0.28979475454E+03  0.90479226748E+02 0.  0.
         23    2    4    4    0    0 -0.32111455736E+03 -0.42388499321E+03 -0.72881553566E+03  0.90677361278E+03  0.90957426296E+02 0.  0.
          3    1    3    3  502    0  0.32440831977E+03  0.18653899675E+03  0.23418093089E+03  0.44145018251E+03  0.00000000000E+00 0. -1.
         -4    1    3    3    0  502  0.99393685079E+02  0.11565127045E+02  0.50434574172E+02  0.11205580337E+03  0.00000000000E+00 0.  1.
         11    1    5    5    0    0 -0.81404310264E+02  0.94055468538E+02  0.88931141925E+02  0.15291121900E+03  0.00000000000E+00 0. -1.
        -11    1    5    5    0    0 -0.21283137220E+02  0.13172540089E+03  0.30537667472E+02  0.13688353554E+03  0.00000000000E+00 0.  1.
          1    1    6    6  503    0 -0.13636783667E+03 -0.25509171494E+03 -0.38853261537E+03  0.48438162962E+03  0.00000000000E+00 0. -1.
         -1    1    6    6    0  503 -0.18474672070E+03 -0.16879327827E+03 -0.34028292028E+03  0.42239198316E+03  0.00000000000E+00 0.  1.
<mgrwt>
<rscale>  0 0.17196831E+04</rscale>
<asrwt>0</asrwt>
<pdfrwt beam="1">  1        1 0.10964178E+00 0.17196831E+04</pdfrwt>
<pdfrwt beam="2">  1       -2 0.15960043E+00 0.17196831E+04</pdfrwt>
<totfact> 0.55896537E+00</totfact>
</mgrwt>
</event>
<event>
12    4  0.4424320E-008  0.1436139E+04  0.7818608E-02  0.8928067E-01
          1   -1    0    0  501    0  0.00000000000E+00  0.00000000000E+00  0.17784221020E+04  0.17784221020E+04  0.00000000000E+00 0. -1.
         -2   -1    0    0    0  501 -0.00000000000E+00 -0.00000000000E+00 -0.28993318793E+03  0.28993318793E+03  0.00000000000E+00 0.  1.
        -24    2    1    2    0    0  0.32376646231E+01 -0.24814821040E+02  0.10716380321E+04  0.10748870270E+04  0.79673025460E+02 0.  0.
        254    2    1    2    0    0 -0.32376646231E+01  0.24814821040E+02  0.41685088192E+03  0.99346826295E+03  0.90143678309E+03 0.  0.
         23    2    4    4    0    0 -0.58985235150E+02 -0.32261435279E+03  0.51546784658E+03  0.61768227813E+03  0.90912140359E+02 0.  0.
         23    2    4    4    0    0  0.55747570527E+02  0.34742917383E+03 -0.98616964663E+02  0.37578598482E+03  0.87606953005E+02 0.  0.
          1    1    3    3  502    0  0.44095800002E+01 -0.53350967299E+02  0.59923137207E+03  0.60161782502E+03  0.00000000000E+00 0. -1.
         -2    1    3    3    0  502 -0.11719153771E+01  0.28536146259E+02  0.47240666006E+03  0.47326920193E+03  0.00000000000E+00 0.  1.
         11    1    5    5    0    0  0.15600022243E+02 -0.33150625371E+02  0.94739933646E+02  0.10157745657E+03  0.00000000000E+00 0.  1.
        -11    1    5    5    0    0 -0.74585257393E+02 -0.28946372742E+03  0.42072791293E+03  0.51610482156E+03  0.00000000000E+00 0. -1.
          3    1    6    6  503    0  0.32780843789E+02  0.25538937271E+03 -0.31112984050E+02  0.25935753930E+03  0.00000000000E+00 0. -1.
         -3    1    6    6    0  503  0.22966726738E+02  0.92039801122E+02 -0.67503980613E+02  0.11642844552E+03  0.00000000000E+00 0.  1.
<mgrwt>
<rscale>  0 0.14361387E+04</rscale>
<asrwt>0</asrwt>
<pdfrwt beam="1">  1        1 0.27360339E+00 0.14361387E+04</pdfrwt>
<pdfrwt beam="2">  1       -2 0.44605107E-01 0.14361387E+04</pdfrwt>
<totfact> 0.17146698E+01</totfact>
</mgrwt>
</event>
<event>
12    4  0.4424320E-008  0.1767605E+04  0.7818608E-02  0.8723719E-01
         -2   -1    0    0    0  501 -0.00000000000E+00  0.00000000000E+00  0.20343361109E+03  0.20343361109E+03  0.00000000000E+00 0.  1.
          1   -1    0    0  501    0  0.00000000000E+00 -0.00000000000E+00 -0.38396147853E+04  0.38396147853E+04  0.00000000000E+00 0. -1.
        -24    2    1    2    0    0  0.15785712383E+03 -0.26983935186E+03 -0.43823269168E+02  0.32589042698E+03  0.80944080223E+02 0.  0.
        254    2    1    2    0    0 -0.15785712383E+03  0.26983935186E+03 -0.35923579050E+04  0.37171579694E+04  0.90249426829E+03 0.  0.
         23    2    4    4    0    0  0.13151883965E+03  0.17486156961E+03 -0.20151838193E+03  0.31150344352E+03  0.92471419161E+02 0.  0.
         23    2    4    4    0    0 -0.28937596347E+03  0.94977782248E+02 -0.33908395231E+04  0.34056545259E+04  0.89055324751E+02 0.  0.
          3    1    3    3  502    0  0.42411203878E+02 -0.15263303282E+03 -0.21567737729E+02  0.15987720361E+03  0.00000000000E+00 0. -1.
         -4    1    3    3    0  502  0.11544591995E+03 -0.11720631903E+03 -0.22255531438E+02  0.16601322337E+03  0.00000000000E+00 0.  1.
         11    1    5    5    0    0  0.13226886723E+03  0.10823788880E+03 -0.14479607800E+03  0.22400088843E+03  0.00000000000E+00 0. -1.
        -11    1    5    5    0    0 -0.75002758209E+00  0.66623680803E+02 -0.56722303923E+02  0.87502555091E+02  0.00000000000E+00 0.  1.
          3    1    6    6  503    0 -0.19641335694E+03  0.49345521566E+02 -0.17785971372E+04  0.17900896524E+04  0.00000000000E+00 0. -1.
         -3    1    6    6    0  503 -0.92962606539E+02  0.45632260683E+02 -0.16122423859E+04  0.16155648735E+04  0.00000000000E+00 0.  1.
<mgrwt>
<rscale>  0 0.17676048E+04</rscale>
<asrwt>0</asrwt>
<pdfrwt beam="1">  1        1 0.59070994E+00 0.17676048E+04</pdfrwt>
<pdfrwt beam="2">  1       -2 0.31297480E-01 0.17676048E+04</pdfrwt>
<totfact> 0.10498819E+00</totfact>
</mgrwt>
</event>
<event>
12    4  0.4424320E-008  0.1635549E+04  0.7818608E-02  0.8799001E-01
          1   -1    0    0  501    0  0.00000000000E+00  0.00000000000E+00  0.10095345742E+04  0.10095345742E+04  0.00000000000E+00 0. -1.
         -2   -1    0    0    0  501 -0.00000000000E+00 -0.00000000000E+00 -0.66243937032E+03  0.66243937032E+03  0.00000000000E+00 0.  1.
        -24    2    1    2    0    0 -0.34675077683E+03  0.25566062762E+03  0.51351570526E+03  0.67492037281E+03  0.78871238941E+02 0.  0.
        254    2    1    2    0    0  0.34675077683E+03 -0.25566062762E+03 -0.16642050139E+03  0.99705357170E+03  0.88364109445E+03 0.  0.
         23    2    4    4    0    0  0.49579488786E+02 -0.35282646390E+03 -0.43905277830E+03  0.57285107831E+03  0.91904169897E+02 0.  0.
         23    2    4    4    0    0  0.29717128804E+03  0.97165836275E+02  0.27263227692E+03  0.42420249339E+03  0.88698493815E+02 0.  0.
          3    1    3    3  502    0 -0.25550337014E+03  0.14387322305E+03  0.35828680142E+03  0.46298046236E+03  0.00000000000E+00 0. -1.
         -4    1    3    3    0  502 -0.91247406693E+02  0.11178740458E+03  0.15522890384E+03  0.21193991044E+03  0.00000000000E+00 0.  1.
         11    1    5    5    0    0  0.55398520098E+02 -0.10040464184E+03 -0.15490196652E+03  0.19272962243E+03  0.00000000000E+00 0.  1.
        -11    1    5    5    0    0 -0.58190313123E+01 -0.25242182205E+03 -0.28415081179E+03  0.38012145587E+03  0.00000000000E+00 0. -1.
          4    1    6    6  503    0  0.73693109532E+02  0.65753404004E+02  0.94560501879E+02  0.13673285284E+03  0.00000000000E+00 0.  1.
         -4    1    6    6    0  503  0.22347817851E+03  0.31412432272E+02  0.17807177504E+03  0.28746964055E+03  0.00000000000E+00 0. -1.
<mgrwt>
<rscale>  0 0.16355494E+04</rscale>
<asrwt>0</asrwt>
<pdfrwt beam="1">  1        1 0.15531301E+00 0.16355494E+04</pdfrwt>
<pdfrwt beam="2">  1       -2 0.10191375E+00 0.16355494E+04</pdfrwt>
<totfact> 0.98496338E+00</totfact>
</mgrwt>
</event>
<event>
12    4  0.4424320E-008  0.2369082E+04  0.7818608E-02  0.8451170E-01
          1   -1    0    0  501    0  0.00000000000E+00  0.00000000000E+00  0.89704659746E+03  0.89704659746E+03  0.00000000000E+00 0. -1.
         -2   -1    0    0    0  501 -0.00000000000E+00 -0.00000000000E+00 -0.15641746614E+04  0.15641746614E+04  0.00000000000E+00 0.  1.
        -24    2    1    2    0    0  0.95450574134E+03 -0.33646963491E+03 -0.24386201208E+03  0.10441016139E+04  0.79915416593E+02 0.  0.
        254    2    1    2    0    0 -0.95450574134E+03  0.33646963491E+03 -0.42326605188E+03  0.14171196450E+04  0.89709582094E+03 0.  0.
         23    2    4    4    0    0 -0.48069059539E+03 -0.11577667853E+03  0.16780787569E+03  0.53005654573E+03  0.91284011444E+02 0.  0.
         23    2    4    4    0    0 -0.47381514595E+03  0.45224631344E+03 -0.59107392757E+03  0.88706309922E+03  0.92114241986E+02 0.  0.
          3    1    3    3  502    0  0.82583243941E+03 -0.30267518008E+03 -0.23683041124E+03  0.91087876598E+03  0.00000000000E+00 0. -1.
         -4    1    3    3    0  502  0.12867330193E+03 -0.33794454832E+02 -0.70316008423E+01  0.13322284796E+03  0.00000000000E+00 0.  1.
         11    1    5    5    0    0 -0.44888339786E+03 -0.11146345696E+03  0.12995307931E+03  0.48042503050E+03  0.00000000000E+00 0. -1.
        -11    1    5    5    0    0 -0.31807197527E+02 -0.43132215749E+01  0.37854796384E+02  0.49631515232E+02  0.00000000000E+00 0.  1.
          2    1    6    6  503    0 -0.34316012521E+03  0.37633615319E+03 -0.43442860725E+03  0.66941465963E+03  0.00000000000E+00 0. -1.
         -2    1    6    6    0  503 -0.13065502074E+03  0.75910160258E+02 -0.15664532032E+03  0.21764843959E+03  0.00000000000E+00 0.  1.
<mgrwt>
<rscale>  0 0.23690821E+04</rscale>
<asrwt>0</asrwt>
<pdfrwt beam="1">  1        1 0.13800717E+00 0.23690821E+04</pdfrwt>
<pdfrwt beam="2">  1       -2 0.24064225E+00 0.23690821E+04</pdfrwt>
<totfact> 0.10579325E+00</totfact>
</mgrwt>
</event>
<event>
12    4  0.4424320E-008  0.2389587E+04  0.7818608E-02  0.8443413E-01
         -2   -1    0    0    0  501 -0.00000000000E+00  0.00000000000E+00  0.49129188616E+03  0.49129188616E+03  0.00000000000E+00 0.  1.
          1   -1    0    0  501    0  0.00000000000E+00 -0.00000000000E+00 -0.29056676354E+04  0.29056676354E+04  0.00000000000E+00 0. -1.
        -24    2    1    2    0    0  0.61107053517E+03 -0.83127887742E+02 -0.22033260188E+04  0.22894070578E+04  0.80135427489E+02 0.  0.
        254    2    1    2    0    0 -0.61107053517E+03  0.83127887742E+02 -0.21104973050E+03  0.11075524638E+04  0.89544013010E+03 0.  0.
         23    2    4    4    0    0  0.15490864212E+03 -0.12996397545E+03 -0.21311277592E+03  0.30743166691E+03  0.90608234937E+02 0.  0.
         23    2    4    4    0    0 -0.76597917729E+03  0.21309186319E+03  0.20630454182E+01  0.80012079687E+03  0.89759630268E+02 0.  0.
          3    1    3    3  502    0  0.47599223135E+03 -0.74115117163E+02 -0.15928886021E+04  0.16641381414E+04  0.00000000000E+00 0. -1.
         -4    1    3    3    0  502  0.13507830383E+03 -0.90127705785E+01 -0.61043741666E+03  0.62526891644E+03  0.00000000000E+00 0.  1.
         11    1    5    5    0    0  0.13153581250E+03 -0.13332897831E+03 -0.21324650033E+03  0.28381747009E+03  0.00000000000E+00 0.  1.
        -11    1    5    5    0    0  0.23372829624E+02  0.33650028622E+01  0.13372441153E+00  0.23614196813E+02  0.00000000000E+00 0. -1.
          1    1    6    6  503    0 -0.20121245923E+03  0.74870683352E+02  0.36037158435E+02  0.21769416566E+03  0.00000000000E+00 0. -1.
         -1    1    6    6    0  503 -0.56476671806E+03  0.13822117984E+03 -0.33974113017E+02  0.58242663121E+03  0.00000000000E+00 0.  1.
<mgrwt>
<rscale>  0 0.23895865E+04</rscale>
<asrwt>0</asrwt>
<pdfrwt beam="1">  1        1 0.44702580E+00 0.23895865E+04</pdfrwt>
<pdfrwt beam="2">  1       -2 0.75583365E-01 0.23895865E+04</pdfrwt>
<totfact> 0.86628177E-01</totfact>
</mgrwt>
</event>
<event>
12    4  0.4424320E-008  0.1363525E+04  0.7818608E-02  0.8980653E-01
         -4   -1    0    0    0  501 -0.00000000000E+00  0.00000000000E+00  0.91273042488E+03  0.91273042488E+03  0.00000000000E+00 0.  1.
          3   -1    0    0  501    0  0.00000000000E+00 -0.00000000000E+00 -0.50924101660E+03  0.50924101660E+03  0.00000000000E+00 0. -1.
        -24    2    1    2    0    0 -0.25016374298E+03 -0.22555147821E+03  0.30135114651E+03  0.45869560213E+03  0.78318416009E+02 0.  0.
        254    2    1    2    0    0  0.25016374298E+03  0.22555147821E+03  0.10213826177E+03  0.96327583935E+03  0.89666758084E+03 0.  0.
         23    2    4    4    0    0 -0.52867151525E+02  0.49935407538E+03  0.17275692307E+03  0.53904033009E+03  0.92574805888E+02 0.  0.
         23    2    4    4    0    0  0.30303089451E+03 -0.27380259717E+03 -0.70618661296E+02  0.42423550926E+03  0.90516223691E+02 0.  0.
          1    1    3    3  502    0 -0.11432969250E+02 -0.32683237083E+02  0.55705054217E+02  0.65589327161E+02  0.00000000000E+00 0. -1.
         -2    1    3    3    0  502 -0.23873077373E+03 -0.19286824112E+03  0.24564609229E+03  0.39310627497E+03  0.00000000000E+00 0.  1.
         11    1    5    5    0    0  0.26820530743E+02  0.11955419627E+03  0.43012169723E+02  0.12985604899E+03  0.00000000000E+00 0.  1.
        -11    1    5    5    0    0 -0.79687682269E+02  0.37979987911E+03  0.12974475335E+03  0.40918428110E+03  0.00000000000E+00 0. -1.
          3    1    6    6  503    0  0.25017815937E+03 -0.20102642518E+03 -0.21264226433E+02  0.32164095257E+03  0.00000000000E+00 0. -1.
         -3    1    6    6    0  503  0.52852735136E+02 -0.72776171998E+02 -0.49354434863E+02  0.10259455669E+03  0.00000000000E+00 0.  1.
<mgrwt>
<rscale>  0 0.13635245E+04</rscale>
<asrwt>0</asrwt>
<pdfrwt beam="1">  1        3 0.78344772E-01 0.13635245E+04</pdfrwt>
<pdfrwt beam="2">  1       -4 0.14042007E+00 0.13635245E+04</pdfrwt>
<totfact> 0.12065696E+00</totfact>
</mgrwt>
</event>
<event>
12    4  0.4424320E-008  0.1399977E+04  0.7818608E-02  0.8953835E-01
          1   -1    0    0  501    0  0.00000000000E+00  0.00000000000E+00  0.96168356500E+03  0.96168356500E+03  0.00000000000E+00 0. -1.
         -2   -1    0    0    0  501 -0.00000000000E+00 -0.00000000000E+00 -0.50950649809E+03  0.50950649809E+03  0.00000000000E+00 0.  1.
        -24    2    1    2    0    0 -0.13062885255E+03 -0.41411928163E+03  0.24128295995E+03  0.50329434299E+03  0.80802551875E+02 0.  0.
        254    2    1    2    0    0  0.13062885255E+03  0.41411928163E+03  0.21089410697E+03  0.96789572010E+03  0.83892021319E+03 0.  0.
         23    2    4    4    0    0  0.44459638553E+03  0.36998086710E+03  0.19724796288E+02  0.58635296378E+03  0.94175063051E+02 0.  0.
         23    2    4    4    0    0 -0.31396753298E+03  0.44138414529E+02  0.19116931068E+03  0.38154275631E+03  0.92224498636E+02 0.  0.
          1    1    3    3  502    0 -0.30545984174E+02 -0.93775280702E+02  0.95836576353E+02  0.13751912517E+03  0.00000000000E+00 0. -1.
         -2    1    3    3    0  502 -0.10008286838E+03 -0.32034400093E+03  0.14544638360E+03  0.36577521782E+03  0.00000000000E+00 0.  1.
         11    1    5    5    0    0  0.10712649661E+03  0.65657266177E+02 -0.30120349481E+02  0.12920603055E+03  0.00000000000E+00 0.  1.
        -11    1    5    5    0    0  0.33746988893E+03  0.30432360092E+03  0.49845145769E+02  0.45714693323E+03  0.00000000000E+00 0. -1.
          1    1    6    6  503    0 -0.27857630937E+03  0.15400585129E+02  0.18676152292E+03  0.33574068059E+03  0.00000000000E+00 0. -1.
         -1    1    6    6    0  503 -0.35391223613E+02  0.28737829400E+02  0.44077877604E+01  0.45802075722E+02  0.00000000000E+00 0.  1.
<mgrwt>
<rscale>  0 0.13999772E+04</rscale>
<asrwt>0</asrwt>
<pdfrwt beam="1">  1        1 0.14795132E+00 0.13999772E+04</pdfrwt>
<pdfrwt beam="2">  1       -2 0.78385615E-01 0.13999772E+04</pdfrwt>
<totfact> 0.20065968E+01</totfact>
</mgrwt>
</event>
<event>
12    4  0.4424320E-008  0.2573991E+04  0.7818608E-02  0.8377090E-01
         -2   -1    0    0    0  501 -0.00000000000E+00  0.00000000000E+00  0.15944757295E+04  0.15944757295E+04  0.00000000000E+00 0.  1.
          1   -1    0    0  501    0  0.00000000000E+00 -0.00000000000E+00 -0.10388100731E+04  0.10388100731E+04  0.00000000000E+00 0. -1.
        -24    2    1    2    0    0 -0.67821666135E+03  0.61144803171E+00  0.11671481305E+04  0.13522831320E+04  0.80353574229E+02 0.  0.
        254    2    1    2    0    0  0.67821666135E+03 -0.61144803171E+00 -0.61148247406E+03  0.12810026707E+04  0.89837565231E+03 0.  0.
         23    2    4    4    0    0  0.23844204213E+03 -0.35374581999E+02 -0.76365076570E+03  0.80574316535E+03  0.89182890955E+02 0.  0.
         23    2    4    4    0    0  0.43977461922E+03  0.34763133967E+02  0.15216829164E+03  0.47525950536E+03  0.90034533674E+02 0.  0.
          1    1    3    3  502    0 -0.55019826494E+02  0.64403469984E+01  0.14375196325E+03  0.15405611418E+03  0.00000000000E+00 0. -1.
         -2    1    3    3    0  502 -0.62319683486E+03 -0.58288989667E+01  0.10233961672E+04  0.11982270178E+04  0.00000000000E+00 0.  1.
         11    1    5    5    0    0  0.12785348379E+03  0.18987635499E+02 -0.46596485261E+03  0.48356001436E+03  0.00000000000E+00 0.  1.
        -11    1    5    5    0    0  0.11058855834E+03 -0.54362217498E+02 -0.29768591309E+03  0.32218315099E+03  0.00000000000E+00 0. -1.
          2    1    6    6  503    0  0.25201878380E+03 -0.24723636514E+02  0.81819553937E+02  0.26611870471E+03  0.00000000000E+00 0. -1.
         -2    1    6    6    0  503  0.18775583542E+03  0.59486770482E+02  0.70348737707E+02  0.20914080064E+03  0.00000000000E+00 0.  1.
<mgrwt>
<rscale>  0 0.25739910E+04</rscale>
<asrwt>0</asrwt>
<pdfrwt beam="1">  1        1 0.15981693E+00 0.25739910E+04</pdfrwt>
<pdfrwt beam="2">  1       -2 0.24530396E+00 0.25739910E+04</pdfrwt>
<totfact> 0.75077498E-01</totfact>
</mgrwt>
</event>
<event>
12    4  0.4424320E-008  0.1157404E+04  0.7818608E-02  0.9150980E-01
          1   -1    0    0  501    0  0.00000000000E+00  0.00000000000E+00  0.59385180006E+03  0.59385180006E+03  0.00000000000E+00 0. -1.
         -2   -1    0    0    0  501 -0.00000000000E+00 -0.00000000000E+00 -0.56393884802E+03  0.56393884802E+03  0.00000000000E+00 0.  1.
        -24    2    1    2    0    0 -0.66282371350E+02 -0.68063754902E+02  0.33311952779E+03  0.35544778602E+03  0.79677357600E+02 0.  0.
        254    2    1    2    0    0  0.66282371350E+02  0.68063754902E+02 -0.30320657575E+03  0.80234286205E+03  0.73674541954E+03 0.  0.
         23    2    4    4    0    0  0.22676473498E+03 -0.23413439946E+02 -0.47540461021E+03  0.53510684108E+03  0.91429501572E+02 0.  0.
         23    2    4    4    0    0 -0.16048236363E+03  0.91477194848E+02  0.17219803447E+03  0.26723602097E+03  0.87408590039E+02 0.  0.
          3    1    3    3  502    0 -0.97601366472E+01 -0.64617749401E+02  0.20992698148E+03  0.21986371087E+03  0.00000000000E+00 0. -1.
         -4    1    3    3    0  502 -0.56522234703E+02 -0.34460055013E+01  0.12319254631E+03  0.13558407516E+03  0.00000000000E+00 0.  1.
         11    1    5    5    0    0 -0.76891830618E+01  0.47291894707E+01 -0.24538119434E+02  0.26145899766E+02  0.00000000000E+00 0. -1.
        -11    1    5    5    0    0  0.23445391804E+03 -0.28142629417E+02 -0.45086649078E+03  0.50896094132E+03  0.00000000000E+00 0.  1.
          1    1    6    6  503    0 -0.91246632649E+02  0.50267324729E+01  0.58485186769E+02  0.10849761786E+03  0.00000000000E+00 0. -1.
         -1    1    6    6    0  503 -0.69235730982E+02  0.86450462375E+02  0.11371284770E+03  0.15873840311E+03  0.00000000000E+00 0.  1.
<mgrwt>
<rscale>  0 0.11574042E+04</rscale>
<asrwt>0</asrwt>
<pdfrwt beam="1">  1        1 0.91361816E-01 0.11574042E+04</pdfrwt>
<pdfrwt beam="2">  1       -2 0.86759822E-01 0.11574042E+04</pdfrwt>
<totfact> 0.34733906E+01</totfact>
</mgrwt>
</event>
<event>
12    4  0.4424320E-008  0.1276012E+04  0.7818608E-02  0.9048807E-01
          1   -1    0    0  501    0  0.00000000000E+00  0.00000000000E+00  0.33448923681E+03  0.33448923681E+03  0.00000000000E+00 0. -1.
         -2   -1    0    0    0  501 -0.00000000000E+00 -0.00000000000E+00 -0.12169349629E+04  0.12169349629E+04  0.00000000000E+00 0.  1.
        -24    2    1    2    0    0  0.18305601510E+03  0.27995445216E+02 -0.53356433871E+03  0.57032917316E+03  0.79317164538E+02 0.  0.
        254    2    1    2    0    0 -0.18305601510E+03 -0.27995445216E+02 -0.34888138740E+03  0.98109502656E+03  0.89807348199E+03 0.  0.
         23    2    4    4    0    0  0.19892122440E+03 -0.38238524118E+02  0.20487925164E+03  0.30213205063E+03  0.90974886765E+02 0.  0.
         23    2    4    4    0    0 -0.38197723950E+03  0.10243078902E+02 -0.55376063904E+03  0.67896297593E+03  0.91259767573E+02 0.  0.
          1    1    3    3  502    0  0.97650461702E+02  0.52334027821E+02 -0.33405515375E+03  0.35194787808E+03  0.00000000000E+00 0. -1.
         -2    1    3    3    0  502  0.85405553400E+02 -0.24338582605E+02 -0.19950918496E+03  0.21838129508E+03  0.00000000000E+00 0.  1.
         11    1    5    5    0    0  0.81976603406E+02 -0.38684933075E+02  0.14434817246E+03  0.17044964783E+03  0.00000000000E+00 0.  1.
        -11    1    5    5    0    0  0.11694462100E+03  0.44640895706E+00  0.60531079182E+02  0.13168240280E+03  0.00000000000E+00 0. -1.
          3    1    6    6  503    0 -0.25464536424E+03  0.17071791914E+02 -0.29212884582E+03  0.38791103384E+03  0.00000000000E+00 0. -1.
         -3    1    6    6    0  503 -0.12733187526E+03 -0.68287130118E+01 -0.26163179321E+03  0.29105194210E+03  0.00000000000E+00 0.  1.
<mgrwt>
<rscale>  0 0.12760120E+04</rscale>
<asrwt>0</asrwt>
<pdfrwt beam="1">  1        1 0.51459882E-01 0.12760120E+04</pdfrwt>
<pdfrwt beam="2">  1       -2 0.18722076E+00 0.12760120E+04</pdfrwt>
<totfact> 0.10562997E+01</totfact>
</mgrwt>
</event>
<event>
12    4  0.4424320E-008  0.1529776E+04  0.7818608E-02  0.8864890E-01
          1   -1    0    0  501    0  0.00000000000E+00  0.00000000000E+00  0.83951757682E+03  0.83951757682E+03  0.00000000000E+00 0. -1.
         -2   -1    0    0    0  501 -0.00000000000E+00 -0.00000000000E+00 -0.69689308065E+03  0.69689308065E+03  0.00000000000E+00 0.  1.
        -24    2    1    2    0    0  0.39289874495E+03 -0.30892396744E+02 -0.25499211453E+03  0.47612209826E+03  0.79671262186E+02 0.  0.
        254    2    1    2    0    0 -0.39289874495E+03  0.30892396744E+02  0.39761661071E+03  0.10602885592E+04  0.90043827979E+03 0.  0.
         23    2    4    4    0    0 -0.27015979254E+03 -0.14966247252E+03  0.64278361790E+03  0.71906865730E+03  0.92215970883E+02 0.  0.
         23    2    4    4    0    0 -0.12273895241E+03  0.18055486926E+03 -0.24516700720E+03  0.34121990190E+03  0.93055084669E+02 0.  0.
          3    1    3    3  502    0  0.40673837981E+02 -0.16963232412E+02 -0.56244153374E+02  0.71452901542E+02  0.00000000000E+00 0. -1.
         -4    1    3    3    0  502  0.35222490697E+03 -0.13929164332E+02 -0.19874796116E+03  0.40466919672E+03  0.00000000000E+00 0.  1.
         11    1    5    5    0    0 -0.19781377691E+03 -0.14376131471E+03  0.54446762856E+03  0.59686062401E+03  0.00000000000E+00 0.  1.
        -11    1    5    5    0    0 -0.72346015634E+02 -0.59011578092E+01  0.98315989345E+02  0.12220803330E+03  0.00000000000E+00 0. -1.
          1    1    6    6  503    0 -0.67859671548E+02  0.16558047585E+03 -0.16883518197E+03  0.24602265683E+03  0.00000000000E+00 0. -1.
         -1    1    6    6    0  503 -0.54879280863E+02  0.14974393415E+02 -0.76331825229E+02  0.95197245070E+02  0.00000000000E+00 0.  1.
<mgrwt>
<rscale>  0 0.15297764E+04</rscale>
<asrwt>0</asrwt>
<pdfrwt beam="1">  1        1 0.12915655E+00 0.15297764E+04</pdfrwt>
<pdfrwt beam="2">  1       -2 0.10721432E+00 0.15297764E+04</pdfrwt>
<totfact> 0.12082318E+01</totfact>
</mgrwt>
</event>
<event>
12    4  0.4424320E-008  0.1404892E+04  0.7818608E-02  0.8950285E-01
         -2   -1    0    0    0  501 -0.00000000000E+00  0.00000000000E+00  0.32102870097E+03  0.32102870097E+03  0.00000000000E+00 0.  1.
          1   -1    0    0  501    0  0.00000000000E+00 -0.00000000000E+00 -0.15370285112E+04  0.15370285112E+04  0.00000000000E+00 0. -1.
        -24    2    1    2    0    0 -0.13287171579E+03  0.17126516399E+03 -0.81545952168E+03  0.84765327202E+03  0.80964120486E+02 0.  0.
        254    2    1    2    0    0  0.13287171579E+03 -0.17126516399E+03 -0.40054028853E+03  0.10104039401E+04  0.90194065784E+03 0.  0.
         23    2    4    4    0    0 -0.32896881903E+03  0.23629513611E+02 -0.36151831018E+03  0.49961609440E+03  0.10070707713E+03 0.  0.
         23    2    4    4    0    0  0.46184053482E+03 -0.19489467760E+03 -0.39021978354E+02  0.51078784574E+03  0.90004964306E+02 0.  0.
          3    1    3    3  502    0 -0.78902511086E+02  0.96201996734E+02 -0.60688167803E+03  0.61950448066E+03  0.00000000000E+00 0. -1.
         -4    1    3    3    0  502 -0.53969204700E+02  0.75063167254E+02 -0.20857784366E+03  0.22814879136E+03  0.00000000000E+00 0.  1.
         11    1    5    5    0    0 -0.15250089512E+03  0.58050441815E+02 -0.19811092192E+03  0.25665991933E+03  0.00000000000E+00 0.  1.
        -11    1    5    5    0    0 -0.17646792391E+03 -0.34420928204E+02 -0.16340738826E+03  0.24295617507E+03  0.00000000000E+00 0. -1.
          1    1    6    6  503    0  0.32103008414E+03 -0.93810206193E+02 -0.70687590619E+01  0.33453047255E+03  0.00000000000E+00 0. -1.
         -1    1    6    6    0  503  0.14081045067E+03 -0.10108447141E+03 -0.31953219293E+02  0.17625737318E+03  0.00000000000E+00 0.  1.
<mgrwt>
<rscale>  0 0.14048918E+04</rscale>
<asrwt>0</asrwt>
<pdfrwt beam="1">  1        1 0.23646592E+00 0.14048918E+04</pdfrwt>
<pdfrwt beam="2">  1       -2 0.49389031E-01 0.14048918E+04</pdfrwt>
<totfact> 0.20465856E+01</totfact>
</mgrwt>
</event>
<event>
12    4  0.4424320E-008  0.1312340E+04  0.7818608E-02  0.9019836E-01
         -2   -1    0    0    0  501 -0.00000000000E+00  0.00000000000E+00  0.26988875171E+03  0.26988875171E+03  0.00000000000E+00 0.  1.
          1   -1    0    0  501    0  0.00000000000E+00 -0.00000000000E+00 -0.15953202594E+04  0.15953202594E+04  0.00000000000E+00 0. -1.
        -24    2    1    2    0    0  0.18678566029E+03  0.15023200082E+03 -0.20096270577E+02  0.25340048893E+03  0.79683189841E+02 0.  0.
        254    2    1    2    0    0 -0.18678566029E+03 -0.15023200082E+03 -0.13053352372E+04  0.16118085222E+04  0.91464096451E+03 0.  0.
         23    2    4    4    0    0  0.25998969765E+03 -0.13489436488E+03 -0.10372122272E+04  0.10816333697E+04  0.91271077890E+02 0.  0.
         23    2    4    4    0    0 -0.44677535794E+03 -0.15337635934E+02 -0.26812300993E+03  0.53017515248E+03  0.96707188535E+02 0.  0.
          3    1    3    3  502    0  0.90198802292E+02  0.74534488755E+02 -0.49759789112E+02  0.12715050358E+03  0.00000000000E+00 0. -1.
         -4    1    3    3    0  502  0.96586857995E+02  0.75697512060E+02  0.29663518534E+02  0.12624998535E+03  0.00000000000E+00 0.  1.
         11    1    5    5    0    0  0.15851911283E+03 -0.10567624388E+03 -0.79311289355E+03  0.81567385613E+03  0.00000000000E+00 0.  1.
        -11    1    5    5    0    0  0.10147058482E+03 -0.29218121003E+02 -0.24409933368E+03  0.26595951361E+03  0.00000000000E+00 0. -1.
          1    1    6    6  503    0 -0.36761968603E+03  0.19591998560E+02 -0.19337918446E+03  0.41584082165E+03  0.00000000000E+00 0.  1.
         -1    1    6    6    0  503 -0.79155671910E+02 -0.34929634494E+02 -0.74743825470E+02  0.11433433083E+03  0.00000000000E+00 0. -1.
<mgrwt>
<rscale>  0 0.13123399E+04</rscale>
<asrwt>0</asrwt>
<pdfrwt beam="1">  1        1 0.24543389E+00 0.13123399E+04</pdfrwt>
<pdfrwt beam="2">  1       -2 0.41521346E-01 0.13123399E+04</pdfrwt>
<totfact> 0.26614039E+01</totfact>
</mgrwt>
</event>
<event>
12    4  0.4424320E-008  0.1619365E+04  0.7818608E-02  0.8808739E-01
          1   -1    0    0  501    0  0.00000000000E+00  0.00000000000E+00  0.83356890252E+03  0.83356890252E+03  0.00000000000E+00 0. -1.
         -2   -1    0    0    0  501 -0.00000000000E+00 -0.00000000000E+00 -0.78648105140E+03  0.78648105140E+03  0.00000000000E+00 0.  1.
        -24    2    1    2    0    0  0.16466940911E+03 -0.43828899827E+03 -0.25852939003E+03  0.54066766151E+03  0.79188473842E+02 0.  0.
        254    2    1    2    0    0 -0.16466940911E+03  0.43828899827E+03  0.30561724115E+03  0.10793822924E+04  0.92328271661E+03 0.  0.
         23    2    4    4    0    0 -0.13126305539E+02  0.70728827225E+03  0.20969982975E+03  0.74342926224E+03  0.91016753372E+02 0.  0.
         23    2    4    4    0    0 -0.15154310357E+03 -0.26899927399E+03  0.95917411400E+02  0.33595303018E+03  0.91314659458E+02 0.  0.
          1    1    3    3  502    0  0.14016237645E+03 -0.40504341183E+03 -0.25610397544E+03  0.49929440561E+03  0.00000000000E+00 0. -1.
         -2    1    3    3    0  502  0.24507032661E+02 -0.33245586434E+02 -0.24254145928E+01  0.41373255892E+02  0.00000000000E+00 0.  1.
         11    1    5    5    0    0 -0.49474203102E+02  0.39095990234E+03  0.13294801974E+03  0.41589964891E+03  0.00000000000E+00 0.  1.
        -11    1    5    5    0    0  0.36347897563E+02  0.31632836991E+03  0.76751810015E+02  0.32752961333E+03  0.00000000000E+00 0. -1.
          3    1    6    6  503    0 -0.74010378917E+01 -0.35261169881E+01 -0.12548560432E+02  0.14989170484E+02  0.00000000000E+00 0. -1.
         -3    1    6    6    0  503 -0.14414206568E+03 -0.26547315700E+03  0.10846597183E+03  0.32096385969E+03  0.00000000000E+00 0.  1.
<mgrwt>
<rscale>  0 0.16193655E+04</rscale>
<asrwt>0</asrwt>
<pdfrwt beam="1">  1        1 0.12824137E+00 0.16193655E+04</pdfrwt>
<pdfrwt beam="2">  1       -2 0.12099708E+00 0.16193655E+04</pdfrwt>
<totfact> 0.90283147E+00</totfact>
</mgrwt>
</event>
<event>
12    4  0.4424320E-008  0.1540673E+04  0.7818608E-02  0.8857847E-01
          1   -1    0    0  501    0  0.00000000000E+00  0.00000000000E+00  0.45771016386E+03  0.45771016386E+03  0.00000000000E+00 0. -1.
         -4   -1    0    0    0  501 -0.00000000000E+00 -0.00000000000E+00 -0.12964943365E+04  0.12964943365E+04  0.00000000000E+00 0.  1.
        -24    2    1    2    0    0 -0.40074528648E+03 -0.19314507470E+03 -0.53137160385E+03  0.69754185540E+03  0.79416963780E+02 0.  0.
        254    2    1    2    0    0  0.40074528648E+03  0.19314507470E+03 -0.30741256876E+03  0.10566626449E+04  0.90781697122E+03 0.  0.
         23    2    4    4    0    0  0.23904582664E+03  0.39020408566E+03  0.17984908249E+03  0.50066293401E+03  0.94422165390E+02 0.  0.
         23    2    4    4    0    0  0.16169945984E+03 -0.19705901096E+03 -0.48726165125E+03  0.55599971092E+03  0.82053596228E+02 0.  0.
          1    1    3    3  502    0 -0.13197773361E+03 -0.38582806782E+02 -0.12059243894E+03  0.18289147459E+03  0.00000000000E+00 0. -1.
         -2    1    3    3    0  502 -0.26876755287E+03 -0.15456226792E+03 -0.41077916492E+03  0.51465038081E+03  0.00000000000E+00 0.  1.
         11    1    5    5    0    0  0.12006244204E+03  0.16426915259E+03  0.33084756412E+02  0.20614059665E+03  0.00000000000E+00 0.  1.
        -11    1    5    5    0    0  0.11898338460E+03  0.22593493307E+03  0.14676432608E+03  0.29452233736E+03  0.00000000000E+00 0. -1.
          1    1    6    6  503    0  0.90077546261E+02 -0.57269451460E+02 -0.24542125462E+03  0.26762912142E+03  0.00000000000E+00 0. -1.
         -1    1    6    6    0  503  0.71621913576E+02 -0.13978955950E+03 -0.24184039663E+03  0.28837058950E+03  0.00000000000E+00 0.  1.
<mgrwt>
<rscale>  0 0.15406734E+04</rscale>
<asrwt>0</asrwt>
<pdfrwt beam="1">  1        1 0.70416950E-01 0.15406734E+04</pdfrwt>
<pdfrwt beam="2">  1       -4 0.19946066E+00 0.15406734E+04</pdfrwt>
<totfact> 0.30565444E+00</totfact>
</mgrwt>
</event>
<event>
12    4  0.4424320E-008  0.1318430E+04  0.7818608E-02  0.9015076E-01
          1   -1    0    0  501    0  0.00000000000E+00  0.00000000000E+00  0.14257592854E+04  0.14257592854E+04  0.00000000000E+00 0. -1.
         -2   -1    0    0    0  501 -0.00000000000E+00 -0.00000000000E+00 -0.30479524476E+03  0.30479524476E+03  0.00000000000E+00 0.  1.
        -24    2    1    2    0    0  0.11323256948E+03 -0.30792320452E+03  0.18758460693E+03  0.38672911480E+03  0.82055522703E+02 0.  0.
        254    2    1    2    0    0 -0.11323256948E+03  0.30792320452E+03  0.93337943367E+03  0.13438254153E+04  0.90941259336E+03 0.  0.
         23    2    4    4    0    0 -0.30578303503E+03 -0.11413285273E+02  0.90355830360E+03  0.95841678266E+03  0.92258298774E+02 0.  0.
         23    2    4    4    0    0  0.19255046555E+03  0.31933648979E+03  0.29821130068E+02  0.38540863264E+03  0.92731002496E+02 0.  0.
          1    1    3    3  502    0  0.39931812727E+02 -0.91203128834E+02  0.10180274385E+03  0.14239508078E+03  0.00000000000E+00 0. -1.
         -2    1    3    3    0  502  0.73300756758E+02 -0.21672007568E+03  0.85781863083E+02  0.24433403402E+03  0.00000000000E+00 0.  1.
         11    1    5    5    0    0 -0.20246440311E+03  0.35631079575E+02  0.55601661518E+03  0.59280341153E+03  0.00000000000E+00 0. -1.
        -11    1    5    5    0    0 -0.10331863192E+03 -0.47044364848E+02  0.34754168842E+03  0.36561337114E+03  0.00000000000E+00 0.  1.
          1    1    6    6  503    0  0.68668268164E+02  0.42158368381E+02  0.31867128109E+01  0.80640028619E+02  0.00000000000E+00 0. -1.
         -1    1    6    6    0  503  0.12388219738E+03  0.27717812141E+03  0.26634417257E+02  0.30476860403E+03  0.00000000000E+00 0.  1.
<mgrwt>
<rscale>  0 0.13184304E+04</rscale>
<asrwt>0</asrwt>
<pdfrwt beam="1">  1        1 0.21934758E+00 0.13184304E+04</pdfrwt>
<pdfrwt beam="2">  1       -2 0.46891577E-01 0.13184304E+04</pdfrwt>
<totfact> 0.27347347E+01</totfact>
</mgrwt>
</event>
<event>
12    4  0.4424320E-008  0.1453430E+04  0.7818608E-02  0.8916026E-01
         -2   -1    0    0    0  501 -0.00000000000E+00  0.00000000000E+00  0.33636995058E+03  0.33636995058E+03  0.00000000000E+00 0.  1.
          1   -1    0    0  501    0  0.00000000000E+00 -0.00000000000E+00 -0.15700403286E+04  0.15700403286E+04  0.00000000000E+00 0. -1.
        -24    2    1    2    0    0 -0.20108967792E+03 -0.32101662171E+03 -0.67242884621E+03  0.77672667196E+03  0.87493083909E+02 0.  0.
        254    2    1    2    0    0  0.20108967792E+03  0.32101662171E+03 -0.56124153185E+03  0.11296836073E+04  0.90427001801E+03 0.  0.
         23    2    4    4    0    0  0.33381381734E+03 -0.21785301464E+03 -0.30892177406E+03  0.51261731763E+03  0.91936125702E+02 0.  0.
         23    2    4    4    0    0 -0.13272413942E+03  0.53886963635E+03 -0.25231975779E+03  0.61706628964E+03  0.95442985483E+02 0.  0.
          1    1    3    3  502    0 -0.11960023176E+03 -0.14931753046E+03 -0.41271963248E+03  0.45490376496E+03  0.00000000000E+00 0. -1.
         -2    1    3    3    0  502 -0.81489446160E+02 -0.17169909125E+03 -0.25970921373E+03  0.32182290700E+03  0.00000000000E+00 0.  1.
         11    1    5    5    0    0  0.40051540020E+00 -0.61803800070E+01  0.51283957096E+01  0.80410168617E+01  0.00000000000E+00 0. -1.
        -11    1    5    5    0    0  0.33341330194E+03 -0.21167263463E+03 -0.31405016977E+03  0.50457630076E+03  0.00000000000E+00 0.  1.
          2    1    6    6  503    0 -0.62476069545E+02  0.14645996385E+03 -0.34996101325E+02  0.16302916115E+03  0.00000000000E+00 0. -1.
         -2    1    6    6    0  503 -0.70248069878E+02  0.39240967249E+03 -0.21732365646E+03  0.45403712849E+03  0.00000000000E+00 0.  1.
<mgrwt>
<rscale>  0 0.14534296E+04</rscale>
<asrwt>0</asrwt>
<pdfrwt beam="1">  1        1 0.24154467E+00 0.14534296E+04</pdfrwt>
<pdfrwt beam="2">  1       -2 0.51749223E-01 0.14534296E+04</pdfrwt>
<totfact> 0.17583396E+01</totfact>
</mgrwt>
</event>
<event>
12    4  0.4424320E-008  0.1485684E+04  0.7818608E-02  0.8894029E-01
         -2   -1    0    0    0  501 -0.00000000000E+00  0.00000000000E+00  0.18155792999E+03  0.18155792999E+03  0.00000000000E+00 0.  1.
          1   -1    0    0  501    0  0.00000000000E+00 -0.00000000000E+00 -0.30393270230E+04  0.30393270230E+04  0.00000000000E+00 0. -1.
        -24    2    1    2    0    0  0.43364967291E+03 -0.17543684098E+03 -0.71484783247E+03  0.85820207549E+03  0.81689992140E+02 0.  0.
        254    2    1    2    0    0 -0.43364967291E+03  0.17543684098E+03 -0.21429212605E+04  0.23626828775E+04  0.87825322475E+03 0.  0.
         23    2    4    4    0    0 -0.53456809759E+03  0.39067606293E+03 -0.10765615572E+04  0.12664049268E+04  0.80036336434E+02 0.  0.
         23    2    4    4    0    0  0.10091842468E+03 -0.21523922196E+03 -0.10663597033E+04  0.10962779507E+04  0.90497939813E+02 0.  0.
          1    1    3    3  502    0  0.32926073341E+03 -0.16942625161E+03 -0.55452625290E+03  0.66679625858E+03  0.00000000000E+00 0. -1.
         -4    1    3    3    0  502  0.10438893949E+03 -0.60105893638E+01 -0.16032157957E+03  0.19140581691E+03  0.00000000000E+00 0.  1.
         11    1    5    5    0    0 -0.52374323445E+03  0.36342151993E+03 -0.10340465618E+04  0.12147569587E+04  0.00000000000E+00 0.  1.
        -11    1    5    5    0    0 -0.10824863137E+02  0.27254543003E+02 -0.42514995383E+02  0.51647968097E+02  0.00000000000E+00 0. -1.
          2    1    6    6  503    0 -0.10891523811E+02 -0.21850466628E+02 -0.20398300435E+03  0.20543888202E+03  0.00000000000E+00 0. -1.
         -2    1    6    6    0  503  0.11180994850E+03 -0.19338875533E+03 -0.86237669898E+03  0.89083906864E+03  0.00000000000E+00 0.  1.
<mgrwt>
<rscale>  0 0.14856836E+04</rscale>
<asrwt>0</asrwt>
<pdfrwt beam="1">  1        1 0.46758880E+00 0.14856836E+04</pdfrwt>
<pdfrwt beam="2">  1       -2 0.27931988E-01 0.14856836E+04</pdfrwt>
<totfact> 0.56088665E+00</totfact>
</mgrwt>
</event>
<event>
12    4  0.4424320E-008  0.2207659E+04  0.7818608E-02  0.8515247E-01
          1   -1    0    0  501    0  0.00000000000E+00  0.00000000000E+00  0.68261587600E+03  0.68261587600E+03  0.00000000000E+00 0. -1.
         -4   -1    0    0    0  501 -0.00000000000E+00 -0.00000000000E+00 -0.17849563098E+04  0.17849563098E+04  0.00000000000E+00 0.  1.
        -24    2    1    2    0    0 -0.53328956997E+03 -0.28152720161E+02 -0.12929404124E+04  0.14010797845E+04  0.78353758480E+02 0.  0.
        254    2    1    2    0    0  0.53328956997E+03  0.28152720161E+02  0.19059997859E+03  0.10664924013E+04  0.90326482777E+03 0.  0.
         23    2    4    4    0    0  0.40006779145E+03  0.25571504567E+03 -0.24929229075E+03  0.54532318036E+03  0.98925742215E+02 0.  0.
         23    2    4    4    0    0  0.13322177852E+03 -0.22756232551E+03  0.43989226934E+03  0.52116922094E+03  0.92625557862E+02 0.  0.
          1    1    3    3  502    0 -0.68114603099E+02  0.28076817562E+01 -0.10788831319E+03  0.12762198226E+03  0.00000000000E+00 0. -1.
         -2    1    3    3    0  502 -0.46517496687E+03 -0.30960401917E+02 -0.11850520992E+04  0.12734578022E+04  0.00000000000E+00 0.  1.
         11    1    5    5    0    0  0.15184204435E+03  0.14645319535E+03 -0.13846895352E+03  0.25234539019E+03  0.00000000000E+00 0.  1.
        -11    1    5    5    0    0  0.24822574710E+03  0.10926185032E+03 -0.11082333722E+03  0.29297779017E+03  0.00000000000E+00 0. -1.
          2    1    6    6  503    0  0.59824004230E+02 -0.17107280672E+03  0.33765231368E+03  0.38321521579E+03  0.00000000000E+00 0. -1.
         -2    1    6    6    0  503  0.73397774286E+02 -0.56489518781E+02  0.10223995566E+03  0.13795400514E+03  0.00000000000E+00 0.  1.
<mgrwt>
<rscale>  0 0.22076590E+04</rscale>
<asrwt>0</asrwt>
<pdfrwt beam="1">  1        1 0.10501783E+00 0.22076590E+04</pdfrwt>
<pdfrwt beam="2">  1       -4 0.27460866E+00 0.22076590E+04</pdfrwt>
<totfact> 0.54860809E-01</totfact>
</mgrwt>
</event>
<event>
12    4  0.4424320E-008  0.2554718E+04  0.7818608E-02  0.8383747E-01
          1   -1    0    0  501    0  0.00000000000E+00  0.00000000000E+00  0.22062924882E+04  0.22062924882E+04  0.00000000000E+00 0. -1.
         -2   -1    0    0    0  501 -0.00000000000E+00 -0.00000000000E+00 -0.73954183069E+03  0.73954183069E+03  0.00000000000E+00 0.  1.
        -24    2    1    2    0    0 -0.35677648984E+03  0.81496440073E+03 -0.13337743853E+03  0.90337226193E+03  0.82676867152E+02 0.  0.
        254    2    1    2    0    0  0.35677648984E+03 -0.81496440073E+03  0.16001280960E+04  0.20424620569E+04  0.90541973261E+03 0.  0.
         23    2    4    4    0    0  0.50887998259E+03 -0.84463115525E+03  0.96594940961E+03  0.13830740261E+04  0.86457357888E+02 0.  0.
         23    2    4    4    0    0 -0.15210349274E+03  0.29666754518E+02  0.63417868640E+03  0.65938803080E+03  0.92705879265E+02 0.  0.
          3    1    3    3  502    0 -0.17441823903E+03  0.31973668197E+03 -0.28612349875E+02  0.36533810979E+03  0.00000000000E+00 0. -1.
         -4    1    3    3    0  502 -0.18235825082E+03  0.49522771876E+03 -0.10476508865E+03  0.53803415214E+03  0.00000000000E+00 0.  1.
         11    1    5    5    0    0  0.36638611808E+03 -0.65783560865E+03  0.69836064625E+03  0.10269829929E+04  0.00000000000E+00 0.  1.
        -11    1    5    5    0    0  0.14249386451E+03 -0.18679554660E+03  0.26758876336E+03  0.35609103320E+03  0.00000000000E+00 0. -1.
          3    1    6    6  503    0 -0.12862451771E+02  0.36403065008E+02  0.18860451036E+03  0.19251568024E+03  0.00000000000E+00 0. -1.
         -3    1    6    6    0  503 -0.13924104097E+03 -0.67363104901E+01  0.44557417604E+03  0.46687235056E+03  0.00000000000E+00 0.  1.
<mgrwt>
<rscale>  0 0.25547177E+04</rscale>
<asrwt>0</asrwt>
<pdfrwt beam="1">  1        1 0.33942961E+00 0.25547177E+04</pdfrwt>
<pdfrwt beam="2">  1       -2 0.11377567E+00 0.25547177E+04</pdfrwt>
<totfact> 0.10146071E+00</totfact>
</mgrwt>
</event>
<event>
12    4  0.4424320E-008  0.2399642E+04  0.7818608E-02  0.8439638E-01
          1   -1    0    0  501    0  0.00000000000E+00  0.00000000000E+00  0.10918055602E+04  0.10918055602E+04  0.00000000000E+00 0. -1.
         -2   -1    0    0    0  501 -0.00000000000E+00 -0.00000000000E+00 -0.13185227686E+04  0.13185227686E+04  0.00000000000E+00 0.  1.
        -24    2    1    2    0    0 -0.56076464820E+03  0.59864265136E+03  0.53187722604E+03  0.98082452854E+03  0.79330684503E+02 0.  0.
        254    2    1    2    0    0  0.56076464820E+03 -0.59864265136E+03 -0.75859443447E+03  0.14295038002E+04  0.89173178934E+03 0.  0.
         23    2    4    4    0    0  0.55948131676E+03 -0.52687117355E+03 -0.93812651934E+03  0.12161367857E+04  0.91075451418E+02 0.  0.
         23    2    4    4    0    0  0.12833314411E+01 -0.71771477808E+02  0.17953208488E+03  0.21336701454E+03  0.90227054858E+02 0.  0.
          1    1    3    3  502    0 -0.13373517424E+03  0.19050512466E+03  0.13330244513E+03  0.26822908349E+03  0.00000000000E+00 0. -1.
         -2    1    3    3    0  502 -0.42702947396E+03  0.40813752670E+03  0.39857478091E+03  0.71259544505E+03  0.00000000000E+00 0.  1.
         11    1    5    5    0    0  0.34847914318E+03 -0.33916552210E+03 -0.65967798498E+03  0.81954012012E+03  0.00000000000E+00 0. -1.
        -11    1    5    5    0    0  0.21100217358E+03 -0.18770565145E+03 -0.27844853436E+03  0.39659666555E+03  0.00000000000E+00 0.  1.
          3    1    6    6  503    0 -0.75430280866E+01  0.11111962816E+02 -0.20331953085E+01  0.13583330722E+02  0.00000000000E+00 0. -1.
         -3    1    6    6    0  503  0.88263595277E+01 -0.82883440624E+02  0.18156528018E+03  0.19978368382E+03  0.00000000000E+00 0.  1.
<mgrwt>
<rscale>  0 0.23996420E+04</rscale>
<asrwt>0</asrwt>
<pdfrwt beam="1">  1        1 0.16797009E+00 0.23996420E+04</pdfrwt>
<pdfrwt beam="2">  1       -2 0.20284966E+00 0.23996420E+04</pdfrwt>
<totfact> 0.12878409E+00</totfact>
</mgrwt>
</event>
<event>
12    4  0.4424320E-008  0.1584538E+04  0.7818608E-02  0.8830104E-01
         -2   -1    0    0    0  501 -0.00000000000E+00  0.00000000000E+00  0.20805211518E+04  0.20805211518E+04  0.00000000000E+00 0.  1.
          1   -1    0    0  501    0  0.00000000000E+00 -0.00000000000E+00 -0.30169854582E+03  0.30169854582E+03  0.00000000000E+00 0. -1.
        -24    2    1    2    0    0 -0.19082560211E+03 -0.47792947229E+03  0.66351671820E+03  0.84326847738E+03  0.77564803322E+02 0.  0.
        254    2    1    2    0    0  0.19082560211E+03  0.47792947229E+03  0.11153058877E+04  0.15389512202E+04  0.92716376334E+03 0.  0.
         23    2    4    4    0    0  0.42701819203E+03  0.22319855121E+03  0.15685579381E+03  0.51537634933E+03  0.94058023607E+02 0.  0.
         23    2    4    4    0    0 -0.23619258992E+03  0.25473092108E+03  0.95845009394E+03  0.10235748709E+04  0.91674162382E+02 0.  0.
          3    1    3    3  502    0 -0.10572060524E+03 -0.17325723535E+03  0.23255086892E+03  0.30866619933E+03  0.00000000000E+00 0. -1.
         -4    1    3    3    0  502 -0.85104996869E+02 -0.30467223694E+03  0.43096584928E+03  0.53460227805E+03  0.00000000000E+00 0.  1.
         11    1    5    5    0    0  0.35509680193E+02  0.21865743526E+02  0.44575009667E+02  0.61040802863E+02  0.00000000000E+00 0. -1.
        -11    1    5    5    0    0  0.39150851184E+03  0.20133280769E+03  0.11228078414E+03  0.45433554647E+03  0.00000000000E+00 0.  1.
          4    1    6    6  503    0 -0.13963314981E+02  0.93531104859E+01  0.11342297834E+02  0.20275664260E+02  0.00000000000E+00 0. -1.
         -4    1    6    6    0  503 -0.22222927494E+03  0.24537781059E+03  0.94710779610E+03  0.10032992066E+04  0.00000000000E+00 0.  1.
<mgrwt>
<rscale>  0 0.15845380E+04</rscale>
<asrwt>0</asrwt>
<pdfrwt beam="1">  1        1 0.46415162E-01 0.15845380E+04</pdfrwt>
<pdfrwt beam="2">  1       -2 0.32008017E+00 0.15845380E+04</pdfrwt>
<totfact> 0.17542164E+00</totfact>
</mgrwt>
</event>
<event>
12    4  0.4424320E-008  0.1361178E+04  0.7818608E-02  0.8982409E-01
          1   -1    0    0  501    0  0.00000000000E+00  0.00000000000E+00  0.11478280178E+04  0.11478280178E+04  0.00000000000E+00 0. -1.
         -2   -1    0    0    0  501 -0.00000000000E+00 -0.00000000000E+00 -0.40354592408E+03  0.40354592408E+03  0.00000000000E+00 0.  1.
        -24    2    1    2    0    0 -0.12695005443E+03  0.32590884067E+03  0.38510461616E+03  0.52626456274E+03  0.79472862442E+02 0.  0.
        254    2    1    2    0    0  0.12695005443E+03 -0.32590884067E+03  0.35917747757E+03  0.10251093791E+04  0.89415205086E+03 0.  0.
         23    2    4    4    0    0  0.13136717355E+03  0.28502524986E+03  0.21498922128E+03  0.39070634902E+03  0.89075016417E+02 0.  0.
         23    2    4    4    0    0 -0.44171191201E+01 -0.61093409053E+03  0.14418825629E+03  0.63440303012E+03  0.91744086799E+02 0.  0.
          1    1    3    3  502    0 -0.91228291362E+02  0.22429293132E+03  0.20914759590E+03  0.31995724254E+03  0.00000000000E+00 0. -1.
         -2    1    3    3    0  502 -0.35721763072E+02  0.10161590935E+03  0.17595702026E+03  0.20630732020E+03  0.00000000000E+00 0.  1.
         11    1    5    5    0    0  0.28292855581E+02  0.32297866522E+02 -0.52282177698E+00  0.42940787154E+02  0.00000000000E+00 0. -1.
        -11    1    5    5    0    0  0.10307431797E+03  0.25272738334E+03  0.21551204306E+03  0.34776556187E+03  0.00000000000E+00 0.  1.
          3    1    6    6  503    0 -0.38268938078E+02 -0.13470314663E+03  0.24009232825E+02  0.14207706569E+03  0.00000000000E+00 0. -1.
         -3    1    6    6    0  503  0.33851818958E+02 -0.47623094390E+03  0.12017902346E+03  0.49232596443E+03  0.00000000000E+00 0.  1.
<mgrwt>
<rscale>  0 0.13611779E+04</rscale>
<asrwt>0</asrwt>
<pdfrwt beam="1">  1        1 0.17658892E+00 0.13611779E+04</pdfrwt>
<pdfrwt beam="2">  1       -2 0.62083989E-01 0.13611779E+04</pdfrwt>
<totfact> 0.24120195E+01</totfact>
</mgrwt>
</event>
<event>
12    4  0.4424320E-008  0.2512740E+04  0.7818608E-02  0.8398461E-01
         -2   -1    0    0    0  501 -0.00000000000E+00  0.00000000000E+00  0.11430411625E+04  0.11430411625E+04  0.00000000000E+00 0.  1.
          1   -1    0    0  501    0  0.00000000000E+00 -0.00000000000E+00 -0.13809352339E+04  0.13809352339E+04  0.00000000000E+00 0. -1.
        -24    2    1    2    0    0  0.10241081202E+04 -0.36851438754E+03 -0.23456506873E+01  0.10915258844E+04  0.82601202198E+02 0.  0.
        254    2    1    2    0    0 -0.10241081202E+04  0.36851438754E+03 -0.23554842076E+03  0.14324505120E+04  0.90101671186E+03 0.  0.
         23    2    4    4    0    0 -0.59164685815E+03  0.29790445014E+03 -0.56571371163E+03  0.87634903662E+03  0.95721284429E+02 0.  0.
         23    2    4    4    0    0 -0.43246126205E+03  0.70609937403E+02  0.33016529087E+03  0.55610147535E+03  0.90726099655E+02 0.  0.
          1    1    3    3  502    0  0.36039803092E+03 -0.17065488305E+03  0.89102529791E+01  0.39885990324E+03  0.00000000000E+00 0. -1.
         -2    1    3    3    0  502  0.66371008928E+03 -0.19785950449E+03 -0.11255903666E+02  0.69266598119E+03  0.00000000000E+00 0.  1.
         11    1    5    5    0    0 -0.40383783269E+03  0.19448752669E+03 -0.32289851595E+03  0.55242542008E+03  0.00000000000E+00 0.  1.
        -11    1    5    5    0    0 -0.18780902546E+03  0.10341692344E+03 -0.24281519568E+03  0.32392361654E+03  0.00000000000E+00 0. -1.
          1    1    6    6  503    0 -0.24194950243E+02  0.12018358101E+02 -0.11809461257E+01  0.27041286627E+02  0.00000000000E+00 0. -1.
         -1    1    6    6    0  503 -0.40826631181E+03  0.58591579303E+02  0.33134623699E+03  0.52906018872E+03  0.00000000000E+00 0.  1.
<mgrwt>
<rscale>  0 0.25127402E+04</rscale>
<asrwt>0</asrwt>
<pdfrwt beam="1">  1        1 0.21245157E+00 0.25127402E+04</pdfrwt>
<pdfrwt beam="2">  1       -2 0.17585249E+00 0.25127402E+04</pdfrwt>
<totfact> 0.11963150E+00</totfact>
</mgrwt>
</event>
<event>
12    4  0.4424320E-008  0.1653722E+04  0.7818608E-02  0.8788208E-01
         -4   -1    0    0    0  501 -0.00000000000E+00  0.00000000000E+00  0.33578506150E+03  0.33578506150E+03  0.00000000000E+00 0.  1.
          1   -1    0    0  501    0  0.00000000000E+00 -0.00000000000E+00 -0.20361210817E+04  0.20361210817E+04  0.00000000000E+00 0. -1.
        -24    2    1    2    0    0 -0.17099877443E+03 -0.64912602611E+02  0.20182416410E+03  0.28401353951E+03  0.80476521875E+02 0.  0.
        254    2    1    2    0    0  0.17099877443E+03  0.64912602611E+02 -0.19021601843E+04  0.20878926037E+04  0.84120623571E+03 0.  0.
         23    2    4    4    0    0  0.17695678768E+03 -0.30756805419E+03 -0.14463307151E+04  0.14921135893E+04  0.92836487576E+02 0.  0.
         23    2    4    4    0    0 -0.59580132462E+01  0.37248065680E+03 -0.45582946924E+03  0.59577901438E+03  0.91623093913E+02 0.  0.
          1    1    3    3  502    0 -0.84243707380E+02 -0.46436587987E+02  0.50589486955E+02  0.10868603925E+03  0.00000000000E+00 0. -1.
         -2    1    3    3    0  502 -0.86755067054E+02 -0.18476014624E+02  0.15123467715E+03  0.17532750026E+03  0.00000000000E+00 0.  1.
         11    1    5    5    0    0  0.35046877548E+02 -0.86867936425E+02 -0.55927240504E+03  0.56706255832E+03  0.00000000000E+00 0.  1.
        -11    1    5    5    0    0  0.14190991013E+03 -0.22070011776E+03 -0.88705831002E+03  0.92505103100E+03  0.00000000000E+00 0. -1.
          4    1    6    6  503    0  0.71841343973E+01  0.35552562860E+03 -0.45001403991E+03  0.57355271815E+03  0.00000000000E+00 0. -1.
         -4    1    6    6    0  503 -0.13142147644E+02  0.16955028201E+02 -0.58154293283E+01  0.22226296234E+02  0.00000000000E+00 0.  1.
<mgrwt>
<rscale>  0 0.16537219E+04</rscale>
<asrwt>0</asrwt>
<pdfrwt beam="1">  1        1 0.31324939E+00 0.16537219E+04</pdfrwt>
<pdfrwt beam="2">  1       -4 0.51659242E-01 0.16537219E+04</pdfrwt>
<totfact> 0.47938639E+00</totfact>
</mgrwt>
</event>
<event>
12    4  0.4424320E-008  0.1544177E+04  0.7818608E-02  0.8855596E-01
         -2   -1    0    0    0  501 -0.00000000000E+00  0.00000000000E+00  0.58637127706E+03  0.58637127706E+03  0.00000000000E+00 0.  1.
          1   -1    0    0  501    0  0.00000000000E+00 -0.00000000000E+00 -0.10166265210E+04  0.10166265210E+04  0.00000000000E+00 0. -1.
        -24    2    1    2    0    0  0.56666511142E+02 -0.95005546107E+02 -0.65145097417E+03  0.66555671490E+03  0.79625509240E+02 0.  0.
        254    2    1    2    0    0 -0.56666511142E+02  0.95005546107E+02  0.22119573024E+03  0.93744108316E+03  0.90422955385E+03 0.  0.
         23    2    4    4    0    0 -0.11454017980E+03 -0.38885778420E+03  0.10640570722E+03  0.42880105272E+03  0.90655055937E+02 0.  0.
         23    2    4    4    0    0  0.57873668662E+02  0.48386333030E+03  0.11479002302E+03  0.50864003044E+03  0.89804494568E+02 0.  0.
          3    1    3    3  502    0  0.55807300567E+02 -0.10890220809E+03 -0.58687856340E+03  0.59950028682E+03  0.00000000000E+00 0. -1.
         -4    1    3    3    0  502  0.85921057441E+00  0.13896661985E+02 -0.64572410775E+02  0.66056428078E+02  0.00000000000E+00 0.  1.
         11    1    5    5    0    0 -0.60900977348E+01  0.60777344426E+00  0.12256966372E+02  0.13700069475E+02  0.00000000000E+00 0. -1.
        -11    1    5    5    0    0 -0.10845008207E+03 -0.38946555764E+03  0.94148740843E+02  0.41510098325E+03  0.00000000000E+00 0.  1.
          2    1    6    6  503    0  0.25413039687E+02  0.12636786051E+03 -0.82782408298E+01  0.12916341598E+03  0.00000000000E+00 0. -1.
         -2    1    6    6    0  503  0.32460628975E+02  0.35749546980E+03  0.12306826385E+03  0.37947661447E+03  0.00000000000E+00 0.  1.
<mgrwt>
<rscale>  0 0.15441769E+04</rscale>
<asrwt>0</asrwt>
<pdfrwt beam="1">  1        1 0.15640408E+00 0.15441769E+04</pdfrwt>
<pdfrwt beam="2">  1       -2 0.90210967E-01 0.15441769E+04</pdfrwt>
<totfact> 0.13044911E+01</totfact>
</mgrwt>
</event>
<event>
12    4  0.4424320E-008  0.1886352E+04  0.7818608E-02  0.8661680E-01
         -2   -1    0    0    0  501 -0.00000000000E+00  0.00000000000E+00  0.15412883257E+04  0.15412883257E+04  0.00000000000E+00 0.  1.
          1   -1    0    0  501    0  0.00000000000E+00 -0.00000000000E+00 -0.57716696191E+03  0.57716696191E+03  0.00000000000E+00 0. -1.
        -24    2    1    2    0    0 -0.20518901285E+03 -0.19138954793E+03  0.11284046639E+04  0.11655345029E+04  0.80256476192E+02 0.  0.
        254    2    1    2    0    0  0.20518901285E+03  0.19138954793E+03 -0.16428330010E+03  0.95292078469E+03  0.89573239818E+03 0.  0.
         23    2    4    4    0    0  0.44914898040E+03  0.34912566214E+03 -0.26239076393E+03  0.63337394279E+03  0.93220726506E+02 0.  0.
         23    2    4    4    0    0 -0.24395996755E+03 -0.15773611420E+03  0.98107463832E+02  0.31954684190E+03  0.89933098568E+02 0.  0.
          3    1    3    3  502    0 -0.47059405573E+02 -0.64343105270E+02  0.20152557591E+03  0.21671912836E+03  0.00000000000E+00 0. -1.
         -4    1    3    3    0  502 -0.15812960728E+03 -0.12704644266E+03  0.92687908795E+03  0.94881537454E+03  0.00000000000E+00 0.  1.
         11    1    5    5    0    0  0.39816789124E+03  0.26664755191E+03 -0.22576345929E+03  0.52972419815E+03  0.00000000000E+00 0. -1.
        -11    1    5    5    0    0  0.50981089162E+02  0.82478110228E+02 -0.36627304638E+02  0.10364974464E+03  0.00000000000E+00 0.  1.
          3    1    6    6  503    0 -0.25111402764E+03 -0.15546833879E+03  0.90593531589E+02  0.30892692859E+03  0.00000000000E+00 0. -1.
         -3    1    6    6    0  503  0.71540600852E+01 -0.22677754182E+01  0.75139322437E+01  0.10619913315E+02  0.00000000000E+00 0.  1.
<mgrwt>
<rscale>  0 0.18863517E+04</rscale>
<asrwt>0</asrwt>
<pdfrwt beam="1">  1        1 0.88794917E-01 0.18863517E+04</pdfrwt>
<pdfrwt beam="2">  1       -2 0.23712128E+00 0.18863517E+04</pdfrwt>
<totfact> 0.22915149E+00</totfact>
</mgrwt>
</event>
<event>
12    4  0.4424320E-008  0.1405099E+04  0.7818608E-02  0.8950136E-01
          1   -1    0    0  501    0  0.00000000000E+00  0.00000000000E+00  0.32102876789E+04  0.32102876789E+04  0.00000000000E+00 0. -1.
         -2   -1    0    0    0  501 -0.00000000000E+00 -0.00000000000E+00 -0.15374810265E+03  0.15374810265E+03  0.00000000000E+00 0.  1.
        -24    2    1    2    0    0  0.41132327008E+03 -0.79800404375E+02  0.91631129151E+03  0.10104311386E+04  0.76090510708E+02 0.  0.
        254    2    1    2    0    0 -0.41132327008E+03  0.79800404375E+02  0.21402282847E+04  0.23536046429E+04  0.88505523417E+03 0.  0.
         23    2    4    4    0    0 -0.11934911689E+03  0.31013749936E+03  0.18267063248E+04  0.18588143284E+04  0.88911360819E+02 0.  0.
         23    2    4    4    0    0 -0.29197415319E+03 -0.23033709499E+03  0.31352195987E+03  0.49479031453E+03  0.90649614280E+02 0.  0.
          3    1    3    3  502    0  0.34930989697E+03 -0.63194439857E+02  0.83115976023E+03  0.90379062197E+03  0.00000000000E+00 0. -1.
         -4    1    3    3    0  502  0.62013373117E+02 -0.16605964517E+02  0.85151531284E+02  0.10664051661E+03  0.00000000000E+00 0.  1.
         11    1    5    5    0    0 -0.10667314472E+03  0.27553686584E+03  0.14183219413E+04  0.14487708078E+04  0.00000000000E+00 0. -1.
        -11    1    5    5    0    0 -0.12675972173E+02  0.34600633526E+02  0.40838438349E+03  0.41004352060E+03  0.00000000000E+00 0.  1.
          2    1    6    6  503    0 -0.28351529337E+03 -0.22860140083E+03  0.27783641171E+03  0.45807487784E+03  0.00000000000E+00 0. -1.
         -2    1    6    6    0  503 -0.84588598259E+01 -0.17356941536E+01  0.35685548157E+02  0.36715436685E+02  0.00000000000E+00 0.  1.
<mgrwt>
<rscale>  0 0.14050988E+04</rscale>
<asrwt>0</asrwt>
<pdfrwt beam="1">  1        1 0.49389036E+00 0.14050988E+04</pdfrwt>
<pdfrwt beam="2">  1       -2 0.23653557E-01 0.14050988E+04</pdfrwt>
<totfact> 0.57256585E+00</totfact>
</mgrwt>
</event>
<event>
12    4  0.4424320E-008  0.1441934E+04  0.7818608E-02  0.8924012E-01
         -2   -1    0    0    0  501 -0.00000000000E+00  0.00000000000E+00  0.31624594336E+03  0.31624594336E+03  0.00000000000E+00 0.  1.
          1   -1    0    0  501    0  0.00000000000E+00 -0.00000000000E+00 -0.16436360243E+04  0.16436360243E+04  0.00000000000E+00 0. -1.
        -24    2    1    2    0    0  0.13026804787E+03  0.40598658968E+03 -0.24599999965E+03  0.49838940169E+03  0.77981540106E+02 0.  0.
        254    2    1    2    0    0 -0.13026804787E+03 -0.40598658968E+03 -0.10813900813E+04  0.14614925660E+04  0.88586744900E+03 0.  0.
         23    2    4    4    0    0  0.91275939971E+02  0.24125370727E+03 -0.18480314204E+03  0.33007123247E+03  0.90885470306E+02 0.  0.
         23    2    4    4    0    0 -0.22154398784E+03 -0.64724029694E+03 -0.89658693926E+03  0.11314213335E+04  0.90798423603E+02 0.  0.
          1    1    3    3  502    0  0.69781252223E+02  0.23349678900E+03 -0.18403730291E+03  0.30538484326E+03  0.00000000000E+00 0. -1.
         -2    1    3    3    0  502  0.60486795645E+02  0.17248980068E+03 -0.61962696740E+02  0.19300455843E+03  0.00000000000E+00 0.  1.
         11    1    5    5    0    0  0.93518950029E+02  0.20571529021E+03 -0.18849641337E+03  0.29427108674E+03  0.00000000000E+00 0.  1.
        -11    1    5    5    0    0 -0.22430100585E+01  0.35538417058E+02  0.36932713340E+01  0.35800145729E+02  0.00000000000E+00 0. -1.
          2    1    6    6  503    0 -0.40099877008E+02 -0.21393702838E+03 -0.33156803885E+03  0.39662881468E+03  0.00000000000E+00 0. -1.
         -2    1    6    6    0  503 -0.18144411083E+03 -0.43330326856E+03 -0.56501890041E+03  0.73479251883E+03  0.00000000000E+00 0.  1.
<mgrwt>
<rscale>  0 0.14419337E+04</rscale>
<asrwt>0</asrwt>
<pdfrwt beam="1">  1        1 0.25286708E+00 0.14419337E+04</pdfrwt>
<pdfrwt beam="2">  1       -2 0.48653223E-01 0.14419337E+04</pdfrwt>
<totfact> 0.17773883E+01</totfact>
</mgrwt>
</event>
<event>
12    4  0.4424320E-008  0.1308179E+04  0.7818608E-02  0.9023105E-01
          1   -1    0    0  501    0  0.00000000000E+00  0.00000000000E+00  0.46904663164E+03  0.46904663164E+03  0.00000000000E+00 0. -1.
         -2   -1    0    0    0  501 -0.00000000000E+00 -0.00000000000E+00 -0.91213270065E+03  0.91213270065E+03  0.00000000000E+00 0.  1.
        -24    2    1    2    0    0  0.28872658975E+03  0.12230764557E+03  0.14872843979E+02  0.32373852031E+03  0.79140534829E+02 0.  0.
        254    2    1    2    0    0 -0.28872658975E+03 -0.12230764557E+03 -0.45795891299E+03  0.10574408120E+04  0.90007360870E+03 0.  0.
         23    2    4    4    0    0  0.26368991540E+03 -0.29016596720E+02 -0.39776986716E+03  0.48641718277E+03  0.89478903141E+02 0.  0.
         23    2    4    4    0    0 -0.55241650515E+03 -0.93291048854E+02 -0.60189045828E+02  0.57102362921E+03  0.92617757081E+02 0.  0.
          1    1    3    3  502    0  0.29198540120E+03  0.12635446649E+03  0.15338339713E+02  0.31852188367E+03  0.00000000000E+00 0. -1.
         -2    1    3    3    0  502 -0.32588114499E+01 -0.40468209114E+01 -0.46549573367E+00  0.52166366399E+01  0.00000000000E+00 0.  1.
         11    1    5    5    0    0  0.11647737702E+03 -0.50786449338E+02 -0.14239571685E+03  0.19084753855E+03  0.00000000000E+00 0. -1.
        -11    1    5    5    0    0  0.14721253838E+03  0.21769852618E+02 -0.25537415031E+03  0.29556964422E+03  0.00000000000E+00 0.  1.
          4    1    6    6  503    0  0.36378487124E+01 -0.24915165745E+01 -0.11224505045E+00  0.44106912210E+01  0.00000000000E+00 0. -1.
         -4    1    6    6    0  503 -0.55605435386E+03 -0.90799532279E+02 -0.60076800777E+02  0.56661293799E+03  0.00000000000E+00 0.  1.
<mgrwt>
<rscale>  0 0.13081785E+04</rscale>
<asrwt>0</asrwt>
<pdfrwt beam="1">  1        1 0.72161021E-01 0.13081785E+04</pdfrwt>
<pdfrwt beam="2">  1       -2 0.14032811E+00 0.13081785E+04</pdfrwt>
<totfact> 0.14819174E+01</totfact>
</mgrwt>
</event>
<event>
12    4  0.4424320E-008  0.3227515E+04  0.7818608E-02  0.8181588E-01
         -2   -1    0    0    0  501 -0.00000000000E+00  0.00000000000E+00  0.14145345514E+04  0.14145345514E+04  0.00000000000E+00 0.  1.
          1   -1    0    0  501    0  0.00000000000E+00 -0.00000000000E+00 -0.18410385537E+04  0.18410385537E+04  0.00000000000E+00 0. -1.
        -24    2    1    2    0    0 -0.15211573654E+03  0.85001128381E+03 -0.14192752149E+04  0.16631796609E+04  0.78524320109E+02 0.  0.
        254    2    1    2    0    0  0.15211573654E+03 -0.85001128381E+03  0.99277121262E+03  0.15923934443E+04  0.89691907152E+03 0.  0.
         23    2    4    4    0    0 -0.35581269758E+03 -0.21510831486E+03  0.30777876076E+03  0.52545642494E+03  0.92208600798E+02 0.  0.
         23    2    4    4    0    0  0.50792843412E+03 -0.63490296896E+03  0.68499245186E+03  0.10669370193E+04  0.89704347403E+02 0.  0.
          1    1    3    3  502    0 -0.13282929873E+03  0.76815310632E+03 -0.13206692210E+04  0.15335807799E+04  0.00000000000E+00 0. -1.
         -2    1    3    3    0  502 -0.19286437812E+02  0.81858177486E+02 -0.98605993884E+02  0.12959888092E+03  0.00000000000E+00 0.  1.
         11    1    5    5    0    0 -0.14488869237E+03 -0.58232487684E+02  0.16143017302E+03  0.22459620780E+03  0.00000000000E+00 0.  1.
        -11    1    5    5    0    0 -0.21092400521E+03 -0.15687582717E+03  0.14634858774E+03  0.30086021714E+03  0.00000000000E+00 0. -1.
          3    1    6    6  503    0  0.18945998836E+02 -0.19761557328E+02  0.48477200338E+02  0.55673233897E+02  0.00000000000E+00 0. -1.
         -3    1    6    6    0  503  0.48898243528E+03 -0.61514141163E+03  0.63651525152E+03  0.10112637854E+04  0.00000000000E+00 0.  1.
<mgrwt>
<rscale>  0 0.32275146E+04</rscale>
<asrwt>0</asrwt>
<pdfrwt beam="1">  1        1 0.28323670E+00 0.32275146E+04</pdfrwt>
<pdfrwt beam="2">  1       -2 0.21762070E+00 0.32275146E+04</pdfrwt>
<totfact> 0.28685655E-01</totfact>
</mgrwt>
</event>
<event>
12    4  0.4424320E-008  0.2477835E+04  0.7818608E-02  0.8410925E-01
          1   -1    0    0  501    0  0.00000000000E+00  0.00000000000E+00  0.29314620186E+04  0.29314620186E+04  0.00000000000E+00 0. -1.
         -2   -1    0    0    0  501 -0.00000000000E+00 -0.00000000000E+00 -0.52360113264E+03  0.52360113264E+03  0.00000000000E+00 0.  1.
        -24    2    1    2    0    0  0.76670643699E+03 -0.71957778521E+03  0.13243223486E+04  0.16929667143E+04  0.81704732478E+02 0.  0.
        254    2    1    2    0    0 -0.76670643699E+03  0.71957778521E+03  0.10835385374E+04  0.17620964369E+04  0.90845866256E+03 0.  0.
         23    2    4    4    0    0 -0.55688386768E+03  0.19652697054E+03  0.10262416275E+04  0.11877358459E+04  0.93819343798E+02 0.  0.
         23    2    4    4    0    0 -0.20982256931E+03  0.52305081467E+03  0.57296909868E+02  0.57436059108E+03  0.94865628044E+02 0.  0.
          3    1    3    3  502    0  0.35923873168E+03 -0.34107745477E+03  0.55881030269E+03  0.74676318259E+03  0.00000000000E+00 0. -1.
         -4    1    3    3    0  502  0.40746770531E+03 -0.37850033045E+03  0.76551204589E+03  0.94620353171E+03  0.00000000000E+00 0.  1.
         11    1    5    5    0    0 -0.12984651043E+03  0.52319398041E+02  0.32835497679E+03  0.35695157440E+03  0.00000000000E+00 0.  1.
        -11    1    5    5    0    0 -0.42703735725E+03  0.14420757250E+03  0.69788665071E+03  0.83078427145E+03  0.00000000000E+00 0. -1.
          2    1    6    6  503    0 -0.67353837750E+02  0.28465472034E+03  0.10351250799E+02  0.29269779239E+03  0.00000000000E+00 0. -1.
         -2    1    6    6    0  503 -0.14246873156E+03  0.23839609433E+03  0.46945659069E+02  0.28166279869E+03  0.00000000000E+00 0.  1.
<mgrwt>
<rscale>  0 0.24778352E+04</rscale>
<asrwt>0</asrwt>
<pdfrwt beam="1">  1        1 0.45099415E+00 0.24778352E+04</pdfrwt>
<pdfrwt beam="2">  1       -2 0.80554022E-01 0.24778352E+04</pdfrwt>
<totfact> 0.71410558E-01</totfact>
</mgrwt>
</event>
<event>
12    4  0.4424320E-008  0.2038991E+04  0.7818608E-02  0.8588605E-01
         -2   -1    0    0    0  501 -0.00000000000E+00  0.00000000000E+00  0.27080642910E+03  0.27080642910E+03  0.00000000000E+00 0.  1.
          1   -1    0    0  501    0  0.00000000000E+00 -0.00000000000E+00 -0.38380595674E+04  0.38380595674E+04  0.00000000000E+00 0. -1.
        -24    2    1    2    0    0 -0.44876115993E+02 -0.29699111773E+03 -0.29664910832E+04  0.29828344547E+04  0.83752298539E+02 0.  0.
        254    2    1    2    0    0  0.44876115993E+02  0.29699111773E+03 -0.60076205511E+03  0.11260315418E+04  0.90377784691E+03 0.  0.
         23    2    4    4    0    0  0.13503675988E+03  0.57076216804E+03 -0.56911282274E+03  0.82211188225E+03  0.89298168757E+02 0.  0.
         23    2    4    4    0    0 -0.90160643889E+02 -0.27377105032E+03 -0.31649232366E+02  0.30391965958E+03  0.91027226002E+02 0.  0.
          3    1    3    3  502    0  0.23563579219E+01 -0.16339220290E+03 -0.12773155720E+04  0.12877257607E+04  0.00000000000E+00 0. -1.
         -2    1    3    3    0  502 -0.47232473915E+02 -0.13359891482E+03 -0.16891755112E+04  0.16951086940E+04  0.00000000000E+00 0.  1.
         11    1    5    5    0    0  0.30947956970E+02  0.76671836535E+02 -0.12375232756E+03  0.14883207025E+03  0.00000000000E+00 0.  1.
        -11    1    5    5    0    0  0.10408880291E+03  0.49409033151E+03 -0.44536049518E+03  0.67327981200E+03  0.00000000000E+00 0. -1.
          3    1    6    6  503    0 -0.18543507067E+02 -0.12680379467E+03 -0.53704530129E+02  0.13895049677E+03  0.00000000000E+00 0. -1.
         -3    1    6    6    0  503 -0.71617136822E+02 -0.14696725565E+03  0.22055297762E+02  0.16496916281E+03  0.00000000000E+00 0.  1.
<mgrwt>
<rscale>  0 0.20389911E+04</rscale>
<asrwt>0</asrwt>
<pdfrwt beam="1">  1        1 0.59047064E+00 0.20389911E+04</pdfrwt>
<pdfrwt beam="2">  1       -2 0.41662532E-01 0.20389911E+04</pdfrwt>
<totfact> 0.59078271E-01</totfact>
</mgrwt>
</event>
<event>
12    4  0.4424320E-008  0.2080029E+04  0.7818608E-02  0.8570092E-01
          1   -1    0    0  501    0  0.00000000000E+00  0.00000000000E+00  0.10326425227E+04  0.10326425227E+04  0.00000000000E+00 0. -1.
         -2   -1    0    0    0  501 -0.00000000000E+00 -0.00000000000E+00 -0.10474388259E+04  0.10474388259E+04  0.00000000000E+00 0.  1.
        -24    2    1    2    0    0 -0.29071883901E+03  0.45805872643E+02  0.77877816701E+03  0.83632958219E+03  0.79599719299E+02 0.  0.
        254    2    1    2    0    0  0.29071883901E+03 -0.45805872643E+02 -0.79357447025E+03  0.12437517664E+04  0.91134098735E+03 0.  0.
         23    2    4    4    0    0  0.43604234785E+03  0.21085768594E+03 -0.79544710183E+03  0.93624568268E+03  0.96052036366E+02 0.  0.
         23    2    4    4    0    0 -0.14532350884E+03 -0.25666355858E+03  0.18726315796E+01  0.30750608370E+03  0.86956197252E+02 0.  0.
          3    1    3    3  502    0 -0.24320128546E+03  0.59045746229E+02  0.69988439543E+03  0.74328422045E+03  0.00000000000E+00 0. -1.
         -4    1    3    3    0  502 -0.47517553557E+02 -0.13239873587E+02  0.78893771581E+02  0.93045361748E+02  0.00000000000E+00 0.  1.
         11    1    5    5    0    0  0.17631962672E+01 -0.72120228747E+01 -0.17249644567E+02  0.18779573283E+02  0.00000000000E+00 0. -1.
        -11    1    5    5    0    0  0.43427915158E+03  0.21806970881E+03 -0.77819745726E+03  0.91746610940E+03  0.00000000000E+00 0.  1.
          2    1    6    6  503    0 -0.95770783472E+02 -0.10468236924E+03 -0.28694736062E+02  0.14475437567E+03  0.00000000000E+00 0. -1.
         -2    1    6    6    0  503 -0.49552725364E+02 -0.15198118934E+03  0.30567367642E+02  0.16275170803E+03  0.00000000000E+00 0.  1.
<mgrwt>
<rscale>  0 0.20800287E+04</rscale>
<asrwt>0</asrwt>
<pdfrwt beam="1">  1        1 0.15886808E+00 0.20800287E+04</pdfrwt>
<pdfrwt beam="2">  1       -2 0.16114443E+00 0.20800287E+04</pdfrwt>
<totfact> 0.28476388E+00</totfact>
</mgrwt>
</event>
<event>
12    4  0.4424320E-008  0.2760750E+04  0.7818608E-02  0.8315559E-01
          1   -1    0    0  501    0  0.00000000000E+00  0.00000000000E+00  0.13697868249E+04  0.13697868249E+04  0.00000000000E+00 0. -1.
         -2   -1    0    0    0  501 -0.00000000000E+00 -0.00000000000E+00 -0.13910449946E+04  0.13910449946E+04  0.00000000000E+00 0.  1.
        -24    2    1    2    0    0 -0.28541478957E+03 -0.69881090961E+03  0.96154997233E+03  0.12250462044E+04  0.79759414528E+02 0.  0.
        254    2    1    2    0    0  0.28541478957E+03  0.69881090961E+03 -0.98280814209E+03  0.15357856150E+04  0.90715341686E+03 0.  0.
         23    2    4    4    0    0  0.43968475585E+03  0.24949870427E+03 -0.92170767429E+02  0.52227593412E+03  0.93297443912E+02 0.  0.
         23    2    4    4    0    0 -0.15426996627E+03  0.44931220534E+03 -0.89063737466E+03  0.10135096809E+04  0.91028895518E+02 0.  0.
          1    1    3    3  502    0 -0.16819651267E+03 -0.48243986087E+03  0.69023098099E+03  0.85875322028E+03  0.00000000000E+00 0. -1.
         -2    1    3    3    0  502 -0.11721827691E+03 -0.21637104874E+03  0.27131899134E+03  0.36629298414E+03  0.00000000000E+00 0.  1.
         11    1    5    5    0    0  0.43478541540E+03  0.24972048594E+03 -0.10165572763E+03  0.51159805073E+03  0.00000000000E+00 0. -1.
        -11    1    5    5    0    0  0.48993404440E+01 -0.22178167614E+00  0.94849601977E+01  0.10677883397E+02  0.00000000000E+00 0.  1.
          3    1    6    6  503    0 -0.15174838222E+03  0.32713435325E+03 -0.69100798232E+03  0.77944627025E+03  0.00000000000E+00 0. -1.
         -3    1    6    6    0  503 -0.25215840504E+01  0.12217785208E+03 -0.19962939234E+03  0.23406341067E+03  0.00000000000E+00 0.  1.
<mgrwt>
<rscale>  0 0.27607500E+04</rscale>
<asrwt>0</asrwt>
<pdfrwt beam="1">  1        1 0.21073644E+00 0.27607500E+04</pdfrwt>
<pdfrwt beam="2">  1       -2 0.21400692E+00 0.27607500E+04</pdfrwt>
<totfact> 0.66408495E-01</totfact>
</mgrwt>
</event>
<event>
12    4  0.4424320E-008  0.1174964E+04  0.7818608E-02  0.9135057E-01
          1   -1    0    0  501    0  0.00000000000E+00  0.00000000000E+00  0.11550211074E+04  0.11550211074E+04  0.00000000000E+00 0. -1.
         -2   -1    0    0    0  501 -0.00000000000E+00 -0.00000000000E+00 -0.29881298335E+03  0.29881298335E+03  0.00000000000E+00 0.  1.
        -24    2    1    2    0    0 -0.13101133474E+03 -0.19618567338E+03  0.26755914103E+03  0.36550894267E+03  0.79725183922E+02 0.  0.
        254    2    1    2    0    0  0.13101133474E+03  0.19618567338E+03  0.58864898306E+03  0.10883251481E+04  0.88447228025E+03 0.  0.
         23    2    4    4    0    0 -0.39400200493E+01  0.15683574471E+03  0.79920472928E+03  0.81945577885E+03  0.90369240374E+02 0.  0.
         23    2    4    4    0    0  0.13495135478E+03  0.39349928664E+02 -0.21055574622E+03  0.26886936928E+03  0.90535796376E+02 0.  0.
          3    1    3    3  502    0 -0.41673912080E+02 -0.11317127766E+03  0.17443562701E+03  0.21206659569E+03  0.00000000000E+00 0. -1.
         -4    1    3    3    0  502 -0.89337422655E+02 -0.83014395721E+02  0.93123514020E+02  0.15344234698E+03  0.00000000000E+00 0.  1.
         11    1    5    5    0    0  0.13882727623E+02  0.15338534486E+03  0.60094173284E+03  0.62036340996E+03  0.00000000000E+00 0.  1.
        -11    1    5    5    0    0 -0.17822747672E+02  0.34503998574E+01  0.19826299644E+03  0.19909236889E+03  0.00000000000E+00 0. -1.
          1    1    6    6  503    0  0.27035472920E+02  0.45706312826E+02 -0.38194212164E+02  0.65412396921E+02  0.00000000000E+00 0. -1.
         -1    1    6    6    0  503  0.10791588187E+03 -0.63563841620E+01 -0.17236153406E+03  0.20345697236E+03  0.00000000000E+00 0.  1.
<mgrwt>
<rscale>  0 0.11749643E+04</rscale>
<asrwt>0</asrwt>
<pdfrwt beam="1">  1        1 0.17769555E+00 0.11749643E+04</pdfrwt>
<pdfrwt beam="2">  1       -2 0.45971229E-01 0.11749643E+04</pdfrwt>
<totfact> 0.44981487E+01</totfact>
</mgrwt>
</event>
<event>
12    4  0.4424320E-008  0.1151842E+04  0.7818608E-02  0.9156086E-01
          1   -1    0    0  501    0  0.00000000000E+00  0.00000000000E+00  0.16888313649E+04  0.16888313649E+04  0.00000000000E+00 0. -1.
         -2   -1    0    0    0  501 -0.00000000000E+00 -0.00000000000E+00 -0.19639917505E+03  0.19639917505E+03  0.00000000000E+00 0.  1.
        -24    2    1    2    0    0 -0.12399670208E+03  0.53583598485E+02  0.23781204047E+02  0.15833303976E+03  0.79103866286E+02 0.  0.
        254    2    1    2    0    0  0.12399670208E+03 -0.53583598485E+02  0.14686509858E+04  0.17268975002E+04  0.89832782095E+03 0.  0.
         23    2    4    4    0    0  0.18780722629E+03  0.24772057191E+03  0.13445030821E+04  0.13827317639E+04  0.87301529398E+02 0.  0.
         23    2    4    4    0    0 -0.63810524210E+02 -0.30130417039E+03  0.12414790370E+03  0.34416573631E+03  0.90450903619E+02 0.  0.
          3    1    3    3  502    0 -0.15348489019E+02 -0.17658501403E+02 -0.77360029194E+01  0.24642332036E+02  0.00000000000E+00 0. -1.
         -4    1    3    3    0  502 -0.10864821306E+03  0.71242099888E+02  0.31517206967E+02  0.13369070773E+03  0.00000000000E+00 0.  1.
         11    1    5    5    0    0  0.16436201467E+03  0.24376266141E+03  0.11588357013E+04  0.11955481126E+04  0.00000000000E+00 0. -1.
        -11    1    5    5    0    0  0.23445211615E+02  0.39579104922E+01  0.18566738077E+03  0.18718365122E+03  0.00000000000E+00 0.  1.
          1    1    6    6  503    0 -0.77356612184E+02 -0.28560846901E+03  0.12912167397E+03  0.32284462162E+03  0.00000000000E+00 0. -1.
         -1    1    6    6    0  503  0.13546087973E+02 -0.15695701377E+02 -0.49737702703E+01  0.21321114694E+02  0.00000000000E+00 0.  1.
<mgrwt>
<rscale>  0 0.11518422E+04</rscale>
<asrwt>0</asrwt>
<pdfrwt beam="1">  1        1 0.25982020E+00 0.11518422E+04</pdfrwt>
<pdfrwt beam="2">  1       -2 0.30215259E-01 0.11518422E+04</pdfrwt>
<totfact> 0.42795284E+01</totfact>
</mgrwt>
</event>
<event>
12    4  0.4424320E-008  0.1728720E+04  0.7818608E-02  0.8745152E-01
         -2   -1    0    0    0  501 -0.00000000000E+00  0.00000000000E+00  0.51446727315E+03  0.51446727315E+03  0.00000000000E+00 0.  1.
          1   -1    0    0  501    0  0.00000000000E+00 -0.00000000000E+00 -0.14522177715E+04  0.14522177715E+04  0.00000000000E+00 0. -1.
        -24    2    1    2    0    0  0.18444663647E+02 -0.44247891889E+03 -0.84327111974E+03  0.95551194967E+03  0.75954626519E+02 0.  0.
        254    2    1    2    0    0 -0.18444663647E+02  0.44247891889E+03 -0.94479378608E+02  0.10111730950E+04  0.90411109702E+03 0.  0.
         23    2    4    4    0    0 -0.81839288933E+02  0.64797067982E+03 -0.27699510528E+03  0.71500883173E+03  0.89149705445E+02 0.  0.
         23    2    4    4    0    0  0.63394625286E+02 -0.20549176092E+03  0.18251572667E+03  0.29616426326E+03  0.90308017509E+02 0.  0.
          1    1    3    3  502    0 -0.12624069555E+02 -0.36317258761E+03 -0.66041437865E+03  0.75379098366E+03  0.00000000000E+00 0. -1.
         -2    1    3    3    0  502  0.31068733203E+02 -0.79306331289E+02 -0.18285674109E+03  0.20172096601E+03  0.00000000000E+00 0.  1.
         11    1    5    5    0    0 -0.57923983035E+02  0.60666244309E+03 -0.24150836589E+03  0.65553092868E+03  0.00000000000E+00 0.  1.
        -11    1    5    5    0    0 -0.23915305898E+02  0.41308236731E+02 -0.35486739394E+02  0.59477903047E+02  0.00000000000E+00 0. -1.
          2    1    6    6  503    0  0.13824466990E+02  0.57996128155E+01  0.50619236729E+01  0.15823225576E+02  0.00000000000E+00 0. -1.
         -2    1    6    6    0  503  0.49570158296E+02 -0.21129137374E+03  0.17745380300E+03  0.28034103768E+03  0.00000000000E+00 0.  1.
<mgrwt>
<rscale>  0 0.17287204E+04</rscale>
<asrwt>0</asrwt>
<pdfrwt beam="1">  1        1 0.22341812E+00 0.17287204E+04</pdfrwt>
<pdfrwt beam="2">  1       -2 0.79148811E-01 0.17287204E+04</pdfrwt>
<totfact> 0.83298155E+00</totfact>
</mgrwt>
</event>
<event>
12    4  0.4424320E-008  0.1394920E+04  0.7818608E-02  0.8957504E-01
          1   -1    0    0  501    0  0.00000000000E+00  0.00000000000E+00  0.12545042616E+04  0.12545042616E+04  0.00000000000E+00 0. -1.
         -2   -1    0    0    0  501 -0.00000000000E+00 -0.00000000000E+00 -0.38776316481E+03  0.38776316481E+03  0.00000000000E+00 0.  1.
        -24    2    1    2    0    0  0.85169890754E+02 -0.17403971385E+03  0.67376330842E+03  0.70551265642E+03  0.79040371436E+02 0.  0.
        254    2    1    2    0    0 -0.85169890754E+02  0.17403971385E+03  0.19297778836E+03  0.93675476998E+03  0.89594940705E+03 0.  0.
         23    2    4    4    0    0 -0.22738927115E+03  0.13961310278E+03  0.50604975819E+03  0.57933968398E+03  0.91380591814E+02 0.  0.
         23    2    4    4    0    0  0.14221938040E+03  0.34426611074E+02 -0.31307196983E+03  0.35741508601E+03  0.91213714444E+02 0.  0.
          3    1    3    3  502    0  0.31386674454E+02 -0.14455966121E+03  0.47793046411E+03  0.50030005747E+03  0.00000000000E+00 0. -1.
         -4    1    3    3    0  502  0.53783216300E+02 -0.29480052646E+02  0.19583284431E+03  0.20521259895E+03  0.00000000000E+00 0.  1.
         11    1    5    5    0    0 -0.29215822445E+02  0.62865598053E+02  0.13415527094E+03  0.15100756411E+03  0.00000000000E+00 0. -1.
        -11    1    5    5    0    0 -0.19817344871E+03  0.76747504726E+02  0.37189448726E+03  0.42833211986E+03  0.00000000000E+00 0.  1.
          1    1    6    6  503    0  0.18442175276E+02  0.43650541883E+02 -0.10376771710E+03  0.11407551335E+03  0.00000000000E+00 0. -1.
         -1    1    6    6    0  503  0.12377720512E+03 -0.92239308097E+01 -0.20930425273E+03  0.24333957265E+03  0.00000000000E+00 0.  1.
<mgrwt>
<rscale>  0 0.13949201E+04</rscale>
<asrwt>0</asrwt>
<pdfrwt beam="1">  1        1 0.19300065E+00 0.13949201E+04</pdfrwt>
<pdfrwt beam="2">  1       -2 0.59655872E-01 0.13949201E+04</pdfrwt>
<totfact> 0.21877010E+01</totfact>
</mgrwt>
</event>
<event>
12    4  0.4424320E-008  0.5067845E+04  0.7818608E-02  0.7818126E-01
         -2   -1    0    0    0  501 -0.00000000000E+00  0.00000000000E+00  0.50370929310E+04  0.50370929310E+04  0.00000000000E+00 0.  1.
          1   -1    0    0  501    0  0.00000000000E+00 -0.00000000000E+00 -0.12746961056E+04  0.12746961056E+04  0.00000000000E+00 0. -1.
        -24    2    1    2    0    0 -0.16929473427E+04 -0.17738158307E+04  0.17849667109E+04  0.30342195187E+04  0.88817918255E+02 0.  0.
        254    2    1    2    0    0  0.16929473427E+04  0.17738158307E+04  0.19774301146E+04  0.32775695178E+04  0.90539426761E+03 0.  0.
         23    2    4    4    0    0  0.52016891409E+03  0.10570854733E+04  0.58138604035E+03  0.13163936635E+04  0.82928597539E+02 0.  0.
         23    2    4    4    0    0  0.11727784287E+04  0.71673035732E+03  0.13960440742E+04  0.19611758543E+04  0.90332865576E+02 0.  0.
          1    1    3    3  502    0 -0.53836063203E+03 -0.51909516543E+03  0.57727886323E+03  0.94474485805E+03  0.00000000000E+00 0. -1.
         -2    1    3    3    0  502 -0.11545867107E+04 -0.12547206652E+04  0.12076878477E+04  0.20894746607E+04  0.00000000000E+00 0.  1.
         11    1    5    5    0    0  0.51364259816E+03  0.10561189762E+04  0.57904945780E+03  0.13093946254E+04  0.00000000000E+00 0.  1.
        -11    1    5    5    0    0  0.65263159230E+01  0.96649716800E+00  0.23365825502E+01  0.69990380993E+01  0.00000000000E+00 0. -1.
          3    1    6    6  503    0  0.13916536865E+03  0.73055791526E+02  0.19997102847E+03  0.25434732304E+03  0.00000000000E+00 0. -1.
         -3    1    6    6    0  503  0.10336130600E+04  0.64367456580E+03  0.11960730457E+04  0.17068285313E+04  0.00000000000E+00 0.  1.
<mgrwt>
<rscale>  0 0.50678448E+04</rscale>
<asrwt>0</asrwt>
<pdfrwt beam="1">  1        1 0.19610710E+00 0.50678448E+04</pdfrwt>
<pdfrwt beam="2">  1       -2 0.77493736E+00 0.50678448E+04</pdfrwt>
<totfact> 0.64638419E-04</totfact>
</mgrwt>
</event>
<event>
12    4  0.4424320E-008  0.3785640E+04  0.7818608E-02  0.8049243E-01
         -2   -1    0    0    0  501 -0.00000000000E+00  0.00000000000E+00  0.16393019593E+04  0.16393019593E+04  0.00000000000E+00 0.  1.
          1   -1    0    0  501    0  0.00000000000E+00 -0.00000000000E+00 -0.21855450993E+04  0.21855450993E+04  0.00000000000E+00 0. -1.
        -24    2    1    2    0    0  0.71877583028E+03  0.21826301799E+03  0.13816286224E+04  0.15747020572E+04  0.80693739596E+02 0.  0.
        254    2    1    2    0    0 -0.71877583028E+03 -0.21826301799E+03 -0.19278717624E+04  0.22501450013E+04  0.88441254816E+03 0.  0.
         23    2    4    4    0    0  0.33570211101E+02  0.19933326019E+03 -0.79197816895E+03  0.82225031532E+03  0.89473198535E+02 0.  0.
         23    2    4    4    0    0 -0.75234604138E+03 -0.41759627819E+03 -0.11358935935E+04  0.14278946860E+04  0.90651867246E+02 0.  0.
          1    1    3    3  502    0  0.10773615415E+02 -0.51371135736E+01  0.12784407217E+02  0.17490048395E+02  0.00000000000E+00 0. -1.
         -2    1    3    3    0  502  0.70800221487E+03  0.22340013157E+03  0.13688442152E+04  0.15572120088E+04  0.00000000000E+00 0.  1.
         11    1    5    5    0    0 -0.28578930039E+01  0.22162754445E+01  0.14467019960E+01  0.38951734149E+01  0.00000000000E+00 0. -1.
        -11    1    5    5    0    0  0.36428104104E+02  0.19711698475E+03 -0.79342487094E+03  0.81835514190E+03  0.00000000000E+00 0.  1.
          3    1    6    6  503    0 -0.12894176921E+03 -0.99846913453E+02 -0.25872119568E+03  0.30583008856E+03  0.00000000000E+00 0. -1.
         -3    1    6    6    0  503 -0.62340427217E+03 -0.31774936474E+03 -0.87717239777E+03  0.11220645974E+04  0.00000000000E+00 0.  1.
<mgrwt>
<rscale>  0 0.37856404E+04</rscale>
<asrwt>0</asrwt>
<pdfrwt beam="1">  1        1 0.33623771E+00 0.37856404E+04</pdfrwt>
<pdfrwt beam="2">  1       -2 0.25220030E+00 0.37856404E+04</pdfrwt>
<totfact> 0.97256157E-02</totfact>
</mgrwt>
</event>
<event>
12    4  0.4424320E-008  0.1776203E+04  0.7818608E-02  0.8719058E-01
          1   -1    0    0  501    0  0.00000000000E+00  0.00000000000E+00  0.17270191905E+04  0.17270191905E+04  0.00000000000E+00 0. -1.
         -2   -1    0    0    0  501 -0.00000000000E+00 -0.00000000000E+00 -0.45669693018E+03  0.45669693018E+03  0.00000000000E+00 0.  1.
        -24    2    1    2    0    0 -0.27706737877E+03  0.58437142001E+03  0.67060136585E+03  0.93499735124E+03  0.79104778975E+02 0.  0.
        254    2    1    2    0    0  0.27706737877E+03 -0.58437142001E+03  0.59972089451E+03  0.12487187695E+04  0.88395538633E+03 0.  0.
         23    2    4    4    0    0  0.34709080095E+03 -0.26393905151E+03 -0.11205192966E+03  0.45937124946E+03  0.91271369405E+02 0.  0.
         23    2    4    4    0    0 -0.70023422184E+02 -0.32043236851E+03  0.71177282417E+03  0.78934752002E+03  0.94174156182E+02 0.  0.
          3    1    3    3  502    0 -0.11064726210E+03  0.30993022875E+03  0.30776408938E+03  0.45057551865E+03  0.00000000000E+00 0. -1.
         -4    1    3    3    0  502 -0.16642011667E+03  0.27444119127E+03  0.36283727647E+03  0.48442183259E+03  0.00000000000E+00 0.  1.
         11    1    5    5    0    0  0.80899367768E+02 -0.19891562290E+02 -0.33510460695E+02  0.89796063007E+02  0.00000000000E+00 0. -1.
        -11    1    5    5    0    0  0.26619143319E+03 -0.24404748922E+03 -0.78541468961E+02  0.36957518645E+03  0.00000000000E+00 0.  1.
          4    1    6    6  503    0 -0.68487528917E+02 -0.11875890252E+03  0.24242761478E+03  0.27850559591E+03  0.00000000000E+00 0. -1.
         -4    1    6    6    0  503 -0.15358932676E+01 -0.20167346599E+03  0.46934520939E+03  0.51084192411E+03  0.00000000000E+00 0.  1.
<mgrwt>
<rscale>  0 0.17762031E+04</rscale>
<asrwt>0</asrwt>
<pdfrwt beam="1">  1        1 0.26569526E+00 0.17762031E+04</pdfrwt>
<pdfrwt beam="2">  1       -2 0.70261067E-01 0.17762031E+04</pdfrwt>
<totfact> 0.69905122E+00</totfact>
</mgrwt>
</event>
<event>
12    4  0.4424320E-008  0.3021605E+04  0.7818608E-02  0.8237588E-01
          1   -1    0    0  501    0  0.00000000000E+00  0.00000000000E+00  0.22484744880E+04  0.22484744880E+04  0.00000000000E+00 0. -1.
         -2   -1    0    0    0  501 -0.00000000000E+00 -0.00000000000E+00 -0.10151435386E+04  0.10151435386E+04  0.00000000000E+00 0.  1.
        -24    2    1    2    0    0  0.28435754020E+03 -0.26297127590E+03 -0.86187101944E+03  0.94835223179E+03  0.80852945374E+02 0.  0.
        254    2    1    2    0    0 -0.28435754020E+03  0.26297127590E+03  0.20952019688E+04  0.23152657949E+04  0.90585391094E+03 0.  0.
         23    2    4    4    0    0 -0.86890338857E+02 -0.32895343322E+03  0.66003708465E+03  0.74754859905E+03  0.86137463431E+02 0.  0.
         23    2    4    4    0    0 -0.19746720135E+03  0.59192470912E+03  0.14351648842E+04  0.15677171958E+04  0.93117153809E+02 0.  0.
          3    1    3    3  502    0  0.48493805343E+02 -0.95480786949E+01 -0.11212152768E+03  0.12253184049E+03  0.00000000000E+00 0. -1.
         -4    1    3    3    0  502  0.23586373486E+03 -0.25342319720E+03 -0.74974949175E+03  0.82582039130E+03  0.00000000000E+00 0.  1.
         11    1    5    5    0    0 -0.17737687446E+02 -0.19215753725E+03  0.30617688432E+03  0.36191632896E+03  0.00000000000E+00 0. -1.
        -11    1    5    5    0    0 -0.69152651411E+02 -0.13679589598E+03  0.35386020033E+03  0.38563227009E+03  0.00000000000E+00 0.  1.
          4    1    6    6  503    0 -0.40292052828E+02  0.12867776129E+03  0.22343072608E+03  0.26096495000E+03  0.00000000000E+00 0.  1.
         -4    1    6    6    0  503 -0.15717514852E+03  0.46324694784E+03  0.12117341581E+04  0.13067522458E+04  0.00000000000E+00 0. -1.
<mgrwt>
<rscale>  0 0.30216051E+04</rscale>
<asrwt>0</asrwt>
<pdfrwt beam="1">  1        1 0.34591915E+00 0.30216051E+04</pdfrwt>
<pdfrwt beam="2">  1       -2 0.15617593E+00 0.30216051E+04</pdfrwt>
<totfact> 0.40562069E-01</totfact>
</mgrwt>
</event>
<event>
12    4  0.4424320E-008  0.1341347E+04  0.7818608E-02  0.8997404E-01
          1   -1    0    0  501    0  0.00000000000E+00  0.00000000000E+00  0.99998736321E+03  0.99998736321E+03  0.00000000000E+00 0. -1.
         -2   -1    0    0    0  501 -0.00000000000E+00 -0.00000000000E+00 -0.44980843421E+03  0.44980843421E+03  0.00000000000E+00 0.  1.
        -24    2    1    2    0    0  0.27605478140E+03  0.17531560021E+03 -0.27830084284E+02  0.33750731350E+03  0.78707503263E+02 0.  0.
        254    2    1    2    0    0 -0.27605478140E+03 -0.17531560021E+03  0.57800901329E+03  0.11122884839E+04  0.89227207173E+03 0.  0.
         23    2    4    4    0    0  0.30139808263E+03  0.59512248497E+02  0.18014160188E+03  0.36705532195E+03  0.88860006239E+02 0.  0.
         23    2    4    4    0    0 -0.57745286403E+03 -0.23482784870E+03  0.39786741141E+03  0.74523316196E+03  0.92076380925E+02 0.  0.
          3    1    3    3  502    0  0.21235937883E+03  0.94248591964E+02 -0.76901456721E+01  0.23246169836E+03  0.00000000000E+00 0. -1.
         -4    1    3    3    0  502  0.63695402564E+02  0.81067008241E+02 -0.20139938612E+02  0.10504561514E+03  0.00000000000E+00 0.  1.
         11    1    5    5    0    0  0.11902377754E+03  0.60289809660E+02  0.47819083624E+02  0.14173279623E+03  0.00000000000E+00 0. -1.
        -11    1    5    5    0    0  0.18237430509E+03 -0.77756116331E+00  0.13232251825E+03  0.22532252572E+03  0.00000000000E+00 0.  1.
          4    1    6    6  503    0 -0.12575901736E+02  0.28325710221E+01 -0.26021611086E+01  0.13150969755E+02  0.00000000000E+00 0. -1.
         -4    1    6    6    0  503 -0.56487696229E+03 -0.23766041972E+03  0.40046957252E+03  0.73208219221E+03  0.00000000000E+00 0.  1.
<mgrwt>
<rscale>  0 0.13413467E+04</rscale>
<asrwt>0</asrwt>
<pdfrwt beam="1">  1        1 0.15384421E+00 0.13413467E+04</pdfrwt>
<pdfrwt beam="2">  1       -2 0.69201298E-01 0.13413467E+04</pdfrwt>
<totfact> 0.24767600E+01</totfact>
</mgrwt>
</event>
<event>
12    4  0.4424320E-008  0.3659194E+04  0.7818608E-02  0.8077066E-01
         -4   -1    0    0    0  501 -0.00000000000E+00  0.00000000000E+00  0.11161237202E+04  0.11161237202E+04  0.00000000000E+00 0.  1.
          1   -1    0    0  501    0  0.00000000000E+00 -0.00000000000E+00 -0.29991525785E+04  0.29991525785E+04  0.00000000000E+00 0. -1.
        -24    2    1    2    0    0  0.12099697869E+04 -0.33896005448E+03  0.42158226990E+03  0.13277126708E+04  0.78539939862E+02 0.  0.
        254    2    1    2    0    0 -0.12099697869E+04  0.33896005448E+03 -0.23046111282E+04  0.27875636279E+04  0.93827380000E+03 0.  0.
         23    2    4    4    0    0 -0.20520852505E+03 -0.93718894622E+02 -0.12196094857E+04  0.12437376026E+04  0.92423788311E+02 0.  0.
         23    2    4    4    0    0 -0.10047612619E+04  0.43267894910E+03 -0.10850016425E+04  0.15438260253E+04  0.97025593507E+02 0.  0.
          3    1    3    3  502    0  0.50781762430E+03 -0.10884078225E+03  0.15144754641E+03  0.54098189872E+03  0.00000000000E+00 0. -1.
         -4    1    3    3    0  502  0.70215216263E+03 -0.23011927222E+03  0.27013472349E+03  0.78673077210E+03  0.00000000000E+00 0.  1.
         11    1    5    5    0    0 -0.19626219612E+03 -0.10840041461E+03 -0.11684437418E+04  0.11897605966E+04  0.00000000000E+00 0.  1.
        -11    1    5    5    0    0 -0.89463289264E+01  0.14681519983E+02 -0.51165743947E+02  0.53977006067E+02  0.00000000000E+00 0. -1.
          3    1    6    6  503    0 -0.14774162381E+03  0.58540742408E+02 -0.11275905058E+03  0.19485689470E+03  0.00000000000E+00 0. -1.
         -3    1    6    6    0  503 -0.85701963808E+03  0.37413820669E+03 -0.97224259193E+03  0.13489691306E+04  0.00000000000E+00 0.  1.
<mgrwt>
<rscale>  0 0.36591941E+04</rscale>
<asrwt>0</asrwt>
<pdfrwt beam="1">  1        1 0.46140809E+00 0.36591941E+04</pdfrwt>
<pdfrwt beam="2">  1       -4 0.17171134E+00 0.36591941E+04</pdfrwt>
<totfact> 0.48661388E-02</totfact>
</mgrwt>
</event>
<event>
12    4  0.4424320E-008  0.1324961E+04  0.7818608E-02  0.9010002E-01
         -4   -1    0    0    0  501 -0.00000000000E+00  0.00000000000E+00  0.10753735369E+04  0.10753735369E+04  0.00000000000E+00 0.  1.
          3   -1    0    0  501    0  0.00000000000E+00 -0.00000000000E+00 -0.40811922755E+03  0.40811922755E+03  0.00000000000E+00 0. -1.
        -24    2    1    2    0    0  0.77646259732E+02  0.15137452180E+03  0.52705293972E+03  0.55945758445E+03  0.79150489802E+02 0.  0.
        254    2    1    2    0    0 -0.77646259732E+02 -0.15137452180E+03  0.14020136961E+03  0.92403517999E+03  0.89735244041E+03 0.  0.
         23    2    4    4    0    0  0.17723178348E+03  0.30134344857E+03 -0.45399044955E+02  0.36400038388E+03  0.90643406324E+02 0.  0.
         23    2    4    4    0    0 -0.25487804321E+03 -0.45271797038E+03  0.18560041457E+03  0.56003479610E+03  0.96307223751E+02 0.  0.
          1    1    3    3  502    0  0.38914042053E+02  0.10958683463E+03  0.23859532680E+03  0.26542665082E+03  0.00000000000E+00 0. -1.
         -2    1    3    3    0  502  0.38732217679E+02  0.41787687178E+02  0.28845761292E+03  0.29403093364E+03  0.00000000000E+00 0.  1.
         11    1    5    5    0    0  0.62561336564E+02  0.15401095706E+03  0.17121609061E+02  0.16711207384E+03  0.00000000000E+00 0. -1.
        -11    1    5    5    0    0  0.11467044692E+03  0.14733249151E+03 -0.62520654015E+02  0.19688831004E+03  0.00000000000E+00 0.  1.
          4    1    6    6  503    0 -0.18749615227E+02 -0.30752715399E+02  0.42614007975E+02  0.55796337256E+02  0.00000000000E+00 0. -1.
         -4    1    6    6    0  503 -0.23612842799E+03 -0.42196525498E+03  0.14298640659E+03  0.50423845885E+03  0.00000000000E+00 0.  1.
<mgrwt>
<rscale>  0 0.13249613E+04</rscale>
<asrwt>0</asrwt>
<pdfrwt beam="1">  1        3 0.62787574E-01 0.13249613E+04</pdfrwt>
<pdfrwt beam="2">  1       -4 0.16544208E+00 0.13249613E+04</pdfrwt>
<totfact> 0.12590511E+00</totfact>
</mgrwt>
</event>
<event>
12    4  0.4424320E-008  0.2615168E+04  0.7818608E-02  0.8363067E-01
          1   -1    0    0  501    0  0.00000000000E+00  0.00000000000E+00  0.27465044549E+04  0.27465044549E+04  0.00000000000E+00 0. -1.
         -2   -1    0    0    0  501 -0.00000000000E+00 -0.00000000000E+00 -0.62252783179E+03  0.62252783179E+03  0.00000000000E+00 0.  1.
        -24    2    1    2    0    0  0.19121221576E+03 -0.63939172964E+02 -0.52202640570E+03  0.56542333932E+03  0.80880498932E+02 0.  0.
        254    2    1    2    0    0 -0.19121221576E+03  0.63939172964E+02  0.26460030289E+04  0.28036089474E+04  0.90456662108E+03 0.  0.
         23    2    4    4    0    0  0.10101638026E+03  0.42258424406E+03  0.10623525068E+04  0.11512368736E+04  0.89284589505E+02 0.  0.
         23    2    4    4    0    0 -0.29222859603E+03 -0.35864507110E+03  0.15836505221E+04  0.16523720739E+04  0.91436617790E+02 0.  0.
          1    1    3    3  502    0  0.38792381687E+02  0.11503569556E+02 -0.54157539552E+02  0.67603402871E+02  0.00000000000E+00 0. -1.
         -2    1    3    3    0  502  0.15241983408E+03 -0.75442742520E+02 -0.46786886615E+03  0.49781993645E+03  0.00000000000E+00 0.  1.
         11    1    5    5    0    0  0.43128756550E+01  0.19980200170E+03  0.51532362986E+03  0.55271863030E+03  0.00000000000E+00 0. -1.
        -11    1    5    5    0    0  0.96703504606E+02  0.22278224236E+03  0.54702887693E+03  0.59851824326E+03  0.00000000000E+00 0.  1.
          3    1    6    6  503    0 -0.16421063337E+03 -0.20654250878E+03  0.74073024155E+03  0.78632450730E+03  0.00000000000E+00 0. -1.
         -3    1    6    6    0  503 -0.12801796265E+03 -0.15210256232E+03  0.84292028052E+03  0.86604756655E+03  0.00000000000E+00 0.  1.
<mgrwt>
<rscale>  0 0.26151677E+04</rscale>
<asrwt>0</asrwt>
<pdfrwt beam="1">  1        1 0.42253914E+00 0.26151677E+04</pdfrwt>
<pdfrwt beam="2">  1       -2 0.95773514E-01 0.26151677E+04</pdfrwt>
<totfact> 0.64330916E-01</totfact>
</mgrwt>
</event>
<event>
12    4  0.4424320E-008  0.1138024E+04  0.7818608E-02  0.9168904E-01
          1   -1    0    0  501    0  0.00000000000E+00  0.00000000000E+00  0.29327486846E+03  0.29327486846E+03  0.00000000000E+00 0. -1.
         -2   -1    0    0    0  501 -0.00000000000E+00 -0.00000000000E+00 -0.11039969431E+04  0.11039969431E+04  0.00000000000E+00 0.  1.
        -24    2    1    2    0    0  0.48608299026E+02 -0.12973612042E+03  0.10587239843E+03  0.19148727740E+03  0.79146604362E+02 0.  0.
        254    2    1    2    0    0 -0.48608299026E+02  0.12973612042E+03 -0.91659447310E+03  0.12057845342E+04  0.77108798921E+03 0.  0.
         23    2    4    4    0    0  0.31211452577E+03 -0.10315445870E+03 -0.45797929076E+03  0.57111039538E+03  0.91464383190E+02 0.  0.
         23    2    4    4    0    0 -0.36072282480E+03  0.23289057912E+03 -0.45861518234E+03  0.63467413881E+03  0.90135447151E+02 0.  0.
          3    1    3    3  502    0  0.52872633570E+02 -0.11680448085E+03  0.11725053141E+03  0.17374259478E+03  0.00000000000E+00 0. -1.
         -4    1    3    3    0  502 -0.42643345439E+01 -0.12931639572E+02 -0.11378132980E+02  0.17744682619E+02  0.00000000000E+00 0.  1.
         11    1    5    5    0    0  0.26832366405E+03 -0.85445794101E+02 -0.32519619693E+03  0.43017570703E+03  0.00000000000E+00 0.  1.
        -11    1    5    5    0    0  0.43790861721E+02 -0.17708664599E+02 -0.13278309383E+03  0.14093468835E+03  0.00000000000E+00 0. -1.
          2    1    6    6  503    0 -0.20849251065E+03  0.16846754438E+03 -0.23418991403E+03  0.35594291163E+03  0.00000000000E+00 0. -1.
         -2    1    6    6    0  503 -0.15223031415E+03  0.64423034737E+02 -0.22442526831E+03  0.27873122718E+03  0.00000000000E+00 0.  1.
<mgrwt>
<rscale>  0 0.11380238E+04</rscale>
<asrwt>0</asrwt>
<pdfrwt beam="1">  1        1 0.45119210E-01 0.11380238E+04</pdfrwt>
<pdfrwt beam="2">  1       -2 0.16984568E+00 0.11380238E+04</pdfrwt>
<totfact> 0.16717942E+01</totfact>
</mgrwt>
</event>
<event>
12    4  0.4424320E-008  0.1923128E+04  0.7818608E-02  0.8643429E-01
          1   -1    0    0  501    0  0.00000000000E+00  0.00000000000E+00  0.12633857477E+04  0.12633857477E+04  0.00000000000E+00 0. -1.
         -2   -1    0    0    0  501 -0.00000000000E+00 -0.00000000000E+00 -0.73184687267E+03  0.73184687267E+03  0.00000000000E+00 0.  1.
        -24    2    1    2    0    0  0.53232809379E+03 -0.39016749137E+03  0.59661578661E+03  0.89330649238E+03  0.80263451988E+02 0.  0.
        254    2    1    2    0    0 -0.53232809379E+03  0.39016749137E+03 -0.65076911528E+02  0.11019261280E+04  0.88000131618E+03 0.  0.
         23    2    4    4    0    0 -0.49407525336E+03 -0.16214941396E+03 -0.10636704688E+03  0.53876546644E+03  0.92474270685E+02 0.  0.
         23    2    4    4    0    0 -0.38252840433E+02  0.55231690533E+03  0.41290135348E+02  0.56316066160E+03  0.94487098508E+02 0.  0.
          3    1    3    3  502    0  0.35505603746E+03 -0.29827725885E+03  0.38922496983E+03  0.60541736846E+03  0.00000000000E+00 0. -1.
         -4    1    3    3    0  502  0.17727205633E+03 -0.91890232519E+02  0.20739081678E+03  0.28788912392E+03  0.00000000000E+00 0.  1.
         11    1    5    5    0    0 -0.73012610530E+02  0.78514602982E+01 -0.24102951618E+02  0.77288026252E+02  0.00000000000E+00 0.  1.
        -11    1    5    5    0    0 -0.42106264283E+03 -0.17000087426E+03 -0.82264095257E+02  0.46147744019E+03  0.00000000000E+00 0. -1.
          3    1    6    6  503    0  0.18268494943E+02  0.35398113808E+03  0.41961090041E+02  0.35692732748E+03  0.00000000000E+00 0. -1.
         -3    1    6    6    0  503 -0.56521335376E+02  0.19833576725E+03 -0.67095469276E+00  0.20623333413E+03  0.00000000000E+00 0.  1.
<mgrwt>
<rscale>  0 0.19231276E+04</rscale>
<asrwt>0</asrwt>
<pdfrwt beam="1">  1        1 0.19436704E+00 0.19231276E+04</pdfrwt>
<pdfrwt beam="2">  1       -2 0.11259183E+00 0.19231276E+04</pdfrwt>
<totfact> 0.48882668E+00</totfact>
</mgrwt>
</event>
<event>
12    4  0.4424320E-008  0.2282812E+04  0.7818608E-02  0.8484729E-01
         -2   -1    0    0    0  501 -0.00000000000E+00  0.00000000000E+00  0.10438267037E+04  0.10438267037E+04  0.00000000000E+00 0.  1.
          1   -1    0    0  501    0  0.00000000000E+00 -0.00000000000E+00 -0.12481077128E+04  0.12481077128E+04  0.00000000000E+00 0. -1.
        -24    2    1    2    0    0 -0.65449088701E+02  0.89984601453E+03 -0.42614027721E+03  0.10009656947E+04  0.79563515960E+02 0.  0.
        254    2    1    2    0    0  0.65449088701E+02 -0.89984601453E+03  0.22185926812E+03  0.12909687217E+04  0.89631036623E+03 0.  0.
         23    2    4    4    0    0  0.25036022511E+03 -0.77139766356E+03 -0.16634883521E+03  0.83296891776E+03  0.91818763493E+02 0.  0.
         23    2    4    4    0    0 -0.18491113641E+03 -0.12844835097E+03  0.38820810333E+03  0.45799980398E+03  0.91472300300E+02 0.  0.
          3    1    3    3  502    0 -0.18114341928E+02  0.46033694015E+03 -0.17688056347E+03  0.49348248356E+03  0.00000000000E+00 0. -1.
         -4    1    3    3    0  502 -0.47334746773E+02  0.43950907438E+03 -0.24925971373E+03  0.50748321115E+03  0.00000000000E+00 0.  1.
         11    1    5    5    0    0  0.25443991341E+03 -0.77120727949E+03 -0.16523689490E+03  0.82873612744E+03  0.00000000000E+00 0.  1.
        -11    1    5    5    0    0 -0.40796883010E+01 -0.19038406306E+00 -0.11119403073E+01  0.42327903293E+01  0.00000000000E+00 0. -1.
          1    1    6    6  503    0 -0.15457421874E+02 -0.39857154283E+02  0.30912045909E+02  0.52754897600E+02  0.00000000000E+00 0. -1.
         -1    1    6    6    0  503 -0.16945371453E+03 -0.88591196687E+02  0.35729605742E+03  0.40524490638E+03  0.00000000000E+00 0.  1.
<mgrwt>
<rscale>  0 0.22828124E+04</rscale>
<asrwt>0</asrwt>
<pdfrwt beam="1">  1        1 0.19201657E+00 0.22828124E+04</pdfrwt>
<pdfrwt beam="2">  1       -2 0.16058872E+00 0.22828124E+04</pdfrwt>
<totfact> 0.19526481E+00</totfact>
</mgrwt>
</event>
<event>
12    4  0.4424320E-008  0.2104251E+04  0.7818608E-02  0.8559373E-01
          1   -1    0    0  501    0  0.00000000000E+00  0.00000000000E+00  0.13091838867E+04  0.13091838867E+04  0.00000000000E+00 0. -1.
         -2   -1    0    0    0  501 -0.00000000000E+00 -0.00000000000E+00 -0.84554031737E+03  0.84554031737E+03  0.00000000000E+00 0.  1.
        -24    2    1    2    0    0 -0.11788059414E+02 -0.32448136580E+03  0.99728679600E+03  0.10516757520E+04  0.77548815013E+02 0.  0.
        254    2    1    2    0    0  0.11788059414E+02  0.32448136580E+03 -0.53364322667E+03  0.11030484521E+04  0.90912797736E+03 0.  0.
         23    2    4    4    0    0 -0.35915439198E+03  0.37172713996E+03 -0.12056871232E+03  0.53805901773E+03  0.88304860027E+02 0.  0.
         23    2    4    4    0    0  0.37094245140E+03 -0.47245774154E+02 -0.41307451435E+03  0.56498943438E+03  0.93552344323E+02 0.  0.
          3    1    3    3  502    0 -0.10164819733E+02 -0.28621624385E+03  0.77736598600E+03  0.82844489134E+03  0.00000000000E+00 0. -1.
         -4    1    3    3    0  502 -0.16232396808E+01 -0.38265121951E+02  0.21992081001E+03  0.22323086063E+03  0.00000000000E+00 0.  1.
         11    1    5    5    0    0 -0.23602811390E+03  0.29509821194E+03 -0.68920906273E+02  0.38411237492E+03  0.00000000000E+00 0.  1.
        -11    1    5    5    0    0 -0.12312627808E+03  0.76628928018E+02 -0.51647806042E+02  0.15394664281E+03  0.00000000000E+00 0. -1.
          2    1    6    6  503    0  0.21096947063E+03  0.19344228393E+02 -0.21554965577E+03  0.30223165091E+03  0.00000000000E+00 0. -1.
         -2    1    6    6    0  503  0.15997298077E+03 -0.66590002547E+02 -0.19752485858E+03  0.26275778347E+03  0.00000000000E+00 0.  1.
<mgrwt>
<rscale>  0 0.21042507E+04</rscale>
<asrwt>0</asrwt>
<pdfrwt beam="1">  1        1 0.20141290E+00 0.21042507E+04</pdfrwt>
<pdfrwt beam="2">  1       -2 0.13008313E+00 0.21042507E+04</pdfrwt>
<totfact> 0.31166265E+00</totfact>
</mgrwt>
</event>
<event>
12    4  0.4424320E-008  0.1878052E+04  0.7818608E-02  0.8665859E-01
         -4   -1    0    0    0  501 -0.00000000000E+00  0.00000000000E+00  0.73373300518E+03  0.73373300518E+03  0.00000000000E+00 0.  1.
          1   -1    0    0  501    0  0.00000000000E+00 -0.00000000000E+00 -0.12017581910E+04  0.12017581910E+04  0.00000000000E+00 0. -1.
        -24    2    1    2    0    0  0.43580320594E+03  0.42602024616E+03  0.23743231357E+03  0.65886383507E+03  0.79434030402E+02 0.  0.
        254    2    1    2    0    0 -0.43580320594E+03 -0.42602024616E+03 -0.70545749942E+03  0.12766273611E+04  0.87217512648E+03 0.  0.
         23    2    4    4    0    0 -0.44321036023E+03  0.11274693228E+03 -0.52144411952E+03  0.69983233439E+03  0.93348981452E+02 0.  0.
         23    2    4    4    0    0  0.74071542829E+01 -0.53876717844E+03 -0.18401337990E+03  0.57679502674E+03  0.92231450095E+02 0.  0.
          1    1    3    3  502    0  0.80916397681E+02  0.92390997188E+02  0.81620191795E+02  0.14746326825E+03  0.00000000000E+00 0. -1.
         -2    1    3    3    0  502  0.35488680826E+03  0.33362924897E+03  0.15581212178E+03  0.51140056682E+03  0.00000000000E+00 0.  1.
         11    1    5    5    0    0 -0.31289469240E+00 -0.32032452877E+01  0.24777248623E+01  0.40617488789E+01  0.00000000000E+00 0. -1.
        -11    1    5    5    0    0 -0.44289746553E+03  0.11595017757E+03 -0.52392184438E+03  0.69577058552E+03  0.00000000000E+00 0.  1.
          3    1    6    6  503    0 -0.16967739105E+02 -0.17314031918E+03 -0.10067315005E+03  0.20099889909E+03  0.00000000000E+00 0. -1.
         -3    1    6    6    0  503  0.24374893387E+02 -0.36562685926E+03 -0.83340229855E+02  0.37579612764E+03  0.00000000000E+00 0.  1.
<mgrwt>
<rscale>  0 0.18780518E+04</rscale>
<asrwt>0</asrwt>
<pdfrwt beam="1">  1        1 0.18488587E+00 0.18780518E+04</pdfrwt>
<pdfrwt beam="2">  1       -4 0.11288200E+00 0.18780518E+04</pdfrwt>
<totfact> 0.29956800E+00</totfact>
</mgrwt>
</event>
<event>
12    4  0.4424320E-008  0.2977178E+04  0.7818608E-02  0.8250278E-01
          1   -1    0    0  501    0  0.00000000000E+00  0.00000000000E+00  0.95039033147E+03  0.95039033147E+03  0.00000000000E+00 0. -1.
         -2   -1    0    0    0  501 -0.00000000000E+00 -0.00000000000E+00 -0.23315653884E+04  0.23315653884E+04  0.00000000000E+00 0.  1.
        -24    2    1    2    0    0  0.77028375990E+03 -0.10368123454E+04 -0.18705932834E+03  0.13074672838E+04  0.78502200381E+02 0.  0.
        254    2    1    2    0    0 -0.77028375990E+03  0.10368123454E+04 -0.11941157286E+04  0.19744884361E+04  0.89686972337E+03 0.  0.
         23    2    4    4    0    0 -0.84132467993E+03  0.90988209074E+03 -0.12788184957E+04  0.17833680724E+04  0.96500263225E+02 0.  0.
         23    2    4    4    0    0  0.71040920028E+02  0.12693025467E+03  0.84702767032E+02  0.19112036370E+03  0.90522554153E+02 0.  0.
          1    1    3    3  502    0  0.57866892126E+03 -0.72837424360E+03 -0.11597803626E+03  0.93746342013E+03  0.00000000000E+00 0. -1.
         -2    1    3    3    0  502  0.19161483864E+03 -0.30843810180E+03 -0.71081292079E+02  0.37000386365E+03  0.00000000000E+00 0.  1.
         11    1    5    5    0    0 -0.69243827510E+03  0.70012715707E+03 -0.98348287815E+03  0.13917210110E+04  0.00000000000E+00 0.  1.
        -11    1    5    5    0    0 -0.14888640483E+03  0.20975493366E+03 -0.29533561751E+03  0.39164706141E+03  0.00000000000E+00 0. -1.
          1    1    6    6  503    0  0.31209717634E+02  0.16546963368E+02 -0.13784106208E+02  0.37918993333E+02  0.00000000000E+00 0. -1.
         -1    1    6    6    0  503  0.39831202394E+02  0.11038329130E+03  0.98486873240E+02  0.15320137037E+03  0.00000000000E+00 0.  1.
<mgrwt>
<rscale>  0 0.29771780E+04</rscale>
<asrwt>0</asrwt>
<pdfrwt beam="1">  1        1 0.14621390E+00 0.29771780E+04</pdfrwt>
<pdfrwt beam="2">  1       -2 0.35870236E+00 0.29771780E+04</pdfrwt>
<totfact> 0.16978128E-01</totfact>
</mgrwt>
</event>
<event>
12    4  0.4424320E-008  0.3069981E+04  0.7818608E-02  0.8224025E-01
         -2   -1    0    0    0  501 -0.00000000000E+00  0.00000000000E+00  0.97176601286E+03  0.97176601286E+03  0.00000000000E+00 0.  1.
          1   -1    0    0  501    0  0.00000000000E+00 -0.00000000000E+00 -0.24246530142E+04  0.24246530142E+04  0.00000000000E+00 0. -1.
        -24    2    1    2    0    0  0.99116957936E+03  0.22046888875E+03 -0.17315646156E+04  0.20091957307E+04  0.86762896880E+02 0.  0.
        254    2    1    2    0    0 -0.99116957936E+03 -0.22046888875E+03  0.27867761421E+03  0.13872232964E+04  0.90316310570E+03 0.  0.
         23    2    4    4    0    0  0.28848241200E+02  0.11573033339E+03 -0.16045271860E+03  0.22372659411E+03  0.10041306148E+03 0.  0.
         23    2    4    4    0    0 -0.10200178206E+04 -0.33619922214E+03  0.43913033281E+03  0.11634967023E+04  0.86155997283E+02 0.  0.
          1    1    3    3  502    0  0.80811182816E+03  0.21248253204E+03 -0.14379876790E+04  0.16631302169E+04  0.00000000000E+00 0. -1.
         -2    1    3    3    0  502  0.18305775120E+03  0.79863567023E+01 -0.29357693656E+03  0.34606551381E+03  0.00000000000E+00 0.  1.
         11    1    5    5    0    0 -0.17416241593E+01  0.53489045691E+02 -0.52998686541E+01  0.53779176931E+02  0.00000000000E+00 0. -1.
        -11    1    5    5    0    0  0.30589865359E+02  0.62241287701E+02 -0.15515284995E+03  0.16994741717E+03  0.00000000000E+00 0.  1.
          4    1    6    6  503    0 -0.43985121748E+03 -0.18840449935E+03  0.18270718806E+03  0.51219846296E+03  0.00000000000E+00 0. -1.
         -4    1    6    6    0  503 -0.58016660308E+03 -0.14779472279E+03  0.25642314475E+03  0.65129823935E+03  0.00000000000E+00 0.  1.
<mgrwt>
<rscale>  0 0.30699807E+04</rscale>
<asrwt>0</asrwt>
<pdfrwt beam="1">  1        1 0.37302354E+00 0.30699807E+04</pdfrwt>
<pdfrwt beam="2">  1       -2 0.14950246E+00 0.30699807E+04</pdfrwt>
<totfact> 0.34358096E-01</totfact>
</mgrwt>
</event>
<event>
12    4  0.4424320E-008  0.2911062E+04  0.7818608E-02  0.8269594E-01
         -2   -1    0    0    0  501 -0.00000000000E+00  0.00000000000E+00  0.97047650874E+03  0.97047650874E+03  0.00000000000E+00 0.  1.
          1   -1    0    0  501    0  0.00000000000E+00 -0.00000000000E+00 -0.21830210421E+04  0.21830210421E+04  0.00000000000E+00 0. -1.
        -24    2    1    2    0    0  0.24181065292E+03 -0.10573632636E+03  0.84903993769E+03  0.89268645327E+03  0.79798029251E+02 0.  0.
        254    2    1    2    0    0 -0.24181065292E+03  0.10573632636E+03 -0.20615844710E+04  0.22608110976E+04  0.88965371073E+03 0.  0.
         23    2    4    4    0    0 -0.29553881054E+02  0.36938725420E+03 -0.36426565661E+03  0.52762532744E+03  0.91534922964E+02 0.  0.
         23    2    4    4    0    0 -0.21225677187E+03 -0.26365092784E+03 -0.16973188144E+04  0.17331857701E+04  0.92070662768E+02 0.  0.
          3    1    3    3  502    0  0.10280564590E+03 -0.67837958570E+01  0.37401731589E+03  0.38794841577E+03  0.00000000000E+00 0. -1.
         -4    1    3    3    0  502  0.13900500702E+03 -0.98952530503E+02  0.47502262180E+03  0.50473803750E+03  0.00000000000E+00 0.  1.
         11    1    5    5    0    0 -0.86783111421E+01  0.29018561680E+03 -0.32806656002E+03  0.43807610422E+03  0.00000000000E+00 0. -1.
        -11    1    5    5    0    0 -0.20875569912E+02  0.79201637403E+02 -0.36199096584E+02  0.89549223224E+02  0.00000000000E+00 0.  1.
          4    1    6    6  503    0 -0.13733052959E+03 -0.11624497716E+03 -0.10359941413E+04  0.10515019876E+04  0.00000000000E+00 0.  1.
         -4    1    6    6    0  503 -0.74926242280E+02 -0.14740595068E+03 -0.66132467313E+03  0.68168378253E+03  0.00000000000E+00 0. -1.
<mgrwt>
<rscale>  0 0.29110621E+04</rscale>
<asrwt>0</asrwt>
<pdfrwt beam="1">  1        1 0.33584939E+00 0.29110621E+04</pdfrwt>
<pdfrwt beam="2">  1       -2 0.14930408E+00 0.29110621E+04</pdfrwt>
<totfact> 0.51172870E-01</totfact>
</mgrwt>
</event>
<event>
12    4  0.4424320E-008  0.1777894E+04  0.7818608E-02  0.8718144E-01
          1   -1    0    0  501    0  0.00000000000E+00  0.00000000000E+00  0.11034809146E+04  0.11034809146E+04  0.00000000000E+00 0. -1.
         -2   -1    0    0    0  501 -0.00000000000E+00 -0.00000000000E+00 -0.71612167077E+03  0.71612167077E+03  0.00000000000E+00 0.  1.
        -24    2    1    2    0    0  0.13154324946E+03  0.64108354598E+03 -0.35479649027E+02  0.66037438933E+03  0.80893690647E+02 0.  0.
        254    2    1    2    0    0 -0.13154324946E+03 -0.64108354598E+03  0.42283889285E+03  0.11592281960E+04  0.85832717640E+03 0.  0.
         23    2    4    4    0    0 -0.29932909091E+03 -0.67910801018E+03  0.61644062748E+02  0.74996004601E+03  0.88625538001E+02 0.  0.
         23    2    4    4    0    0  0.16778584144E+03  0.38024464202E+02  0.36119483010E+03  0.40926815001E+03  0.86259868165E+02 0.  0.
          1    1    3    3  502    0  0.12960329947E+02  0.80029974178E+01 -0.25350504187E+01  0.15441651487E+02  0.00000000000E+00 0. -1.
         -2    1    3    3    0  502  0.11858291952E+03  0.63308054856E+03 -0.32944598609E+02  0.64493273785E+03  0.00000000000E+00 0.  1.
         11    1    5    5    0    0 -0.94156871730E+02 -0.22703049768E+03 -0.20977807284E+02  0.24667474895E+03  0.00000000000E+00 0. -1.
        -11    1    5    5    0    0 -0.20517221918E+03 -0.45207751250E+03  0.82621870032E+02  0.50328529706E+03  0.00000000000E+00 0.  1.
          3    1    6    6  503    0  0.13898380587E+02  0.28690499786E+02  0.11008380596E+03  0.11460695483E+03  0.00000000000E+00 0. -1.
         -3    1    6    6    0  503  0.15388746086E+03  0.93339644164E+01  0.25111102414E+03  0.29466119518E+03  0.00000000000E+00 0.  1.
<mgrwt>
<rscale>  0 0.17778938E+04</rscale>
<asrwt>0</asrwt>
<pdfrwt beam="1">  1        1 0.16976630E+00 0.17778938E+04</pdfrwt>
<pdfrwt beam="2">  1       -2 0.11017256E+00 0.17778938E+04</pdfrwt>
<totfact> 0.68383113E+00</totfact>
</mgrwt>
</event>
<event>
12    4  0.4424320E-008  0.2370142E+04  0.7818608E-02  0.8450767E-01
          1   -1    0    0  501    0  0.00000000000E+00  0.00000000000E+00  0.15534852328E+04  0.15534852328E+04  0.00000000000E+00 0. -1.
         -2   -1    0    0    0  501 -0.00000000000E+00 -0.00000000000E+00 -0.90402711495E+03  0.90402711495E+03  0.00000000000E+00 0.  1.
        -24    2    1    2    0    0 -0.73434302921E+02  0.28112788632E+03 -0.72719028174E+03  0.78677276308E+03  0.76027557961E+02 0.  0.
        254    2    1    2    0    0  0.73434302921E+02 -0.28112788632E+03  0.13766483996E+04  0.16707395847E+04  0.90099082037E+03 0.  0.
         23    2    4    4    0    0  0.40989751713E+03  0.95581851669E+02  0.57611745241E+03  0.71953402364E+03  0.93091499507E+02 0.  0.
         23    2    4    4    0    0 -0.33646321421E+03 -0.37670973799E+03  0.80053094721E+03  0.95120556106E+03  0.93938813805E+02 0.  0.
          3    1    3    3  502    0  0.85041585872E+01  0.77257257227E+02 -0.24139167420E+03  0.25359602694E+03  0.00000000000E+00 0. -1.
         -4    1    3    3    0  502 -0.81938461508E+02  0.20387062909E+03 -0.48579860754E+03  0.53317673614E+03  0.00000000000E+00 0.  1.
         11    1    5    5    0    0  0.31049210323E+03  0.10343355238E+03  0.48063902100E+03  0.58147890283E+03  0.00000000000E+00 0.  1.
        -11    1    5    5    0    0  0.99405413901E+02 -0.78517007099E+01  0.95478431405E+02  0.13805512080E+03  0.00000000000E+00 0. -1.
          3    1    6    6  503    0 -0.73527721329E+02 -0.32570808280E+02  0.13630055130E+03  0.15825619622E+03  0.00000000000E+00 0. -1.
         -3    1    6    6    0  503 -0.26293549289E+03 -0.34413892971E+03  0.66423039591E+03  0.79294936484E+03  0.00000000000E+00 0.  1.
<mgrwt>
<rscale>  0 0.23701416E+04</rscale>
<asrwt>0</asrwt>
<pdfrwt beam="1">  1        1 0.23899773E+00 0.23701416E+04</pdfrwt>
<pdfrwt beam="2">  1       -2 0.13908110E+00 0.23701416E+04</pdfrwt>
<totfact> 0.17315701E+00</totfact>
</mgrwt>
</event>
<event>
12    4  0.4424320E-008  0.1262334E+04  0.7818608E-02  0.9059980E-01
         -2   -1    0    0    0  501 -0.00000000000E+00  0.00000000000E+00  0.22830932930E+03  0.22830932930E+03  0.00000000000E+00 0.  1.
          1   -1    0    0  501    0  0.00000000000E+00 -0.00000000000E+00 -0.17448770554E+04  0.17448770554E+04  0.00000000000E+00 0. -1.
        -24    2    1    2    0    0 -0.18416288744E+03 -0.15546656364E+03 -0.94105135406E+02  0.27222436998E+03  0.84643426093E+02 0.  0.
        254    2    1    2    0    0  0.18416288744E+03  0.15546656364E+03 -0.14224625907E+04  0.17009620147E+04  0.90099174915E+03 0.  0.
         23    2    4    4    0    0 -0.20573130310E+03  0.87059814387E+02 -0.12276384792E+04  0.12506667199E+04  0.84653577068E+02 0.  0.
         23    2    4    4    0    0  0.38989419053E+03  0.68406749251E+02 -0.19482411141E+03  0.45029529481E+03  0.90069167770E+02 0.  0.
          1    1    3    3  502    0 -0.70192035450E+02 -0.44723395659E+02 -0.75236997893E+02  0.11219496340E+03  0.00000000000E+00 0. -1.
         -2    1    3    3    0  502 -0.11397085199E+03 -0.11074316798E+03 -0.18868137513E+02  0.16002940658E+03  0.00000000000E+00 0.  1.
         11    1    5    5    0    0 -0.34648757225E+02  0.25240496698E+02 -0.44990396390E+03  0.45194158448E+03  0.00000000000E+00 0. -1.
        -11    1    5    5    0    0 -0.17108254587E+03  0.61819317689E+02 -0.77773451535E+03  0.79872513540E+03  0.00000000000E+00 0.  1.
          4    1    6    6  503    0  0.30896087567E+02  0.27786525009E+02 -0.41001620768E+01  0.41754886278E+02  0.00000000000E+00 0. -1.
         -4    1    6    6    0  503  0.35899810297E+03  0.40620224242E+02 -0.19072394934E+03  0.40854040853E+03  0.00000000000E+00 0.  1.
<mgrwt>
<rscale>  0 0.12623339E+04</rscale>
<asrwt>0</asrwt>
<pdfrwt beam="1">  1        1 0.26844262E+00 0.12623339E+04</pdfrwt>
<pdfrwt beam="2">  1       -2 0.35124513E-01 0.12623339E+04</pdfrwt>
<totfact> 0.29237282E+01</totfact>
</mgrwt>
</event>
<event>
12    4  0.4424320E-008  0.1256223E+04  0.7818608E-02  0.9065020E-01
          1   -1    0    0  501    0  0.00000000000E+00  0.00000000000E+00  0.26412396759E+04  0.26412396759E+04  0.00000000000E+00 0. -1.
         -2   -1    0    0    0  501 -0.00000000000E+00 -0.00000000000E+00 -0.14937068079E+03  0.14937068079E+03  0.00000000000E+00 0.  1.
        -24    2    1    2    0    0  0.89875743343E+02 -0.43743065810E+02 -0.60645106919E+01  0.12851269528E+03  0.80545822428E+02 0.  0.
        254    2    1    2    0    0 -0.89875743343E+02  0.43743065810E+02  0.24979335058E+04  0.26620976614E+04  0.91493226766E+03 0.  0.
         23    2    4    4    0    0  0.19564841969E+03 -0.18371363833E+03  0.20820947769E+04  0.21013389281E+04  0.92074022988E+02 0.  0.
         23    2    4    4    0    0 -0.28552416304E+03  0.22745670414E+03  0.41583872885E+03  0.56075873325E+03  0.90928040644E+02 0.  0.
          3    1    3    3  502    0  0.45018144615E+01 -0.25222378428E+02  0.24997120069E+02  0.35795121438E+02  0.00000000000E+00 0. -1.
         -4    1    3    3    0  502  0.85373928881E+02 -0.18520687382E+02 -0.31061630761E+02  0.92717573843E+02  0.00000000000E+00 0.  1.
         11    1    5    5    0    0  0.78990099525E+01 -0.35942310230E+02  0.49432877754E+03  0.49569666564E+03  0.00000000000E+00 0. -1.
        -11    1    5    5    0    0  0.18774940974E+03 -0.14777132810E+03  0.15877659994E+04  0.16056422625E+04  0.00000000000E+00 0.  1.
          1    1    6    6  503    0 -0.22899949010E+02  0.43529525785E+02  0.24815988067E+02  0.55091383568E+02  0.00000000000E+00 0. -1.
         -1    1    6    6    0  503 -0.26262421403E+03  0.18392717835E+03  0.39102274078E+03  0.50566734969E+03  0.00000000000E+00 0.  1.
<mgrwt>
<rscale>  0 0.12562225E+04</rscale>
<asrwt>0</asrwt>
<pdfrwt beam="1">  1        1 0.40634453E+00 0.12562225E+04</pdfrwt>
<pdfrwt beam="2">  1       -2 0.22980107E-01 0.12562225E+04</pdfrwt>
<totfact> 0.15709522E+01</totfact>
</mgrwt>
</event>
<event>
12    4  0.4424320E-008  0.1911161E+04  0.7818608E-02  0.8649321E-01
         -2   -1    0    0    0  501 -0.00000000000E+00  0.00000000000E+00  0.88310315781E+03  0.88310315781E+03  0.00000000000E+00 0.  1.
          1   -1    0    0  501    0  0.00000000000E+00 -0.00000000000E+00 -0.10340064675E+04  0.10340064675E+04  0.00000000000E+00 0. -1.
        -24    2    1    2    0    0  0.29230723130E+03 -0.64288161415E+03  0.16390557579E+03  0.72936936256E+03  0.79839476286E+02 0.  0.
        254    2    1    2    0    0 -0.29230723130E+03  0.64288161415E+03 -0.31480888552E+03  0.11877402628E+04  0.90159969509E+03 0.  0.
         23    2    4    4    0    0 -0.26170717721E+03  0.86052057501E+03 -0.28329436551E+03  0.94718413996E+03  0.88970730280E+02 0.  0.
         23    2    4    4    0    0 -0.30600054093E+02 -0.21763896086E+03 -0.31514520011E+02  0.24055612283E+03  0.92579709786E+02 0.  0.
          1    1    3    3  502    0  0.28106872949E+03 -0.58679441142E+03  0.13206984616E+03  0.66390493012E+03  0.00000000000E+00 0. -1.
         -2    1    3    3    0  502  0.11238501810E+02 -0.56087202728E+02  0.31835729626E+02  0.65464432432E+02  0.00000000000E+00 0.  1.
         11    1    5    5    0    0 -0.33433144926E+01  0.35961766125E+02 -0.29390385031E+02  0.46564161185E+02  0.00000000000E+00 0. -1.
        -11    1    5    5    0    0 -0.25836386272E+03  0.82455880889E+03 -0.25390398048E+03  0.90061997878E+03  0.00000000000E+00 0.  1.
          3    1    6    6  503    0 -0.40618985652E+02 -0.75814198872E+02 -0.46180638056E+02  0.97623491421E+02  0.00000000000E+00 0. -1.
         -3    1    6    6    0  503  0.10018931558E+02 -0.14182476199E+03  0.14666118045E+02  0.14293263141E+03  0.00000000000E+00 0.  1.
<mgrwt>
<rscale>  0 0.19111613E+04</rscale>
<asrwt>0</asrwt>
<pdfrwt beam="1">  1        1 0.15907792E+00 0.19111613E+04</pdfrwt>
<pdfrwt beam="2">  1       -2 0.13586202E+00 0.19111613E+04</pdfrwt>
<totfact> 0.45283926E+00</totfact>
</mgrwt>
</event>
<event>
12    4  0.4424320E-008  0.1279318E+04  0.7818608E-02  0.9046129E-01
          1   -1    0    0  501    0  0.00000000000E+00  0.00000000000E+00  0.54767079378E+03  0.54767079378E+03  0.00000000000E+00 0. -1.
         -2   -1    0    0    0  501 -0.00000000000E+00 -0.00000000000E+00 -0.74709782561E+03  0.74709782561E+03  0.00000000000E+00 0.  1.
        -24    2    1    2    0    0  0.27911246829E+03 -0.68078816201E+02  0.10907369242E+03  0.31741534895E+03  0.79479168322E+02 0.  0.
        254    2    1    2    0    0 -0.27911246829E+03  0.68078816201E+02 -0.30850072426E+03  0.97735327044E+03  0.88176426736E+03 0.  0.
         23    2    4    4    0    0 -0.45069330378E+03 -0.20654334292E+03  0.23718677040E+02  0.50490339987E+03  0.92629698131E+02 0.  0.
         23    2    4    4    0    0  0.17158083549E+03  0.27462215913E+03 -0.33221940130E+03  0.47244987057E+03  0.89341122751E+02 0.  0.
          3    1    3    3  502    0  0.26008007614E+03 -0.48427584092E+02  0.77563177305E+02  0.27568627710E+03  0.00000000000E+00 0. -1.
         -4    1    3    3    0  502  0.19032392151E+02 -0.19651232109E+02  0.31510515119E+02  0.41729071849E+02  0.00000000000E+00 0.  1.
         11    1    5    5    0    0 -0.58543226463E+02  0.42894520417E+01  0.93401080991E+01  0.59438593379E+02  0.00000000000E+00 0. -1.
        -11    1    5    5    0    0 -0.39215007732E+03 -0.21083279497E+03  0.14378568941E+02  0.44546480649E+03  0.00000000000E+00 0.  1.
          4    1    6    6  503    0  0.33021278148E+02  0.21303460334E+02 -0.79727434176E+02  0.88885915605E+02  0.00000000000E+00 0. -1.
         -4    1    6    6    0  503  0.13855955734E+03  0.25331869879E+03 -0.25249196712E+03  0.38356395497E+03  0.00000000000E+00 0.  1.
<mgrwt>
<rscale>  0 0.12793180E+04</rscale>
<asrwt>0</asrwt>
<pdfrwt beam="1">  1        1 0.84257044E-01 0.12793180E+04</pdfrwt>
<pdfrwt beam="2">  1       -2 0.11493813E+00 0.12793180E+04</pdfrwt>
<totfact> 0.19830800E+01</totfact>
</mgrwt>
</event>
<event>
12    4  0.4424320E-008  0.1491381E+04  0.7818608E-02  0.8890205E-01
          1   -1    0    0  501    0  0.00000000000E+00  0.00000000000E+00  0.11218521698E+04  0.11218521698E+04  0.00000000000E+00 0. -1.
         -2   -1    0    0    0  501 -0.00000000000E+00 -0.00000000000E+00 -0.49565762828E+03  0.49565762828E+03  0.00000000000E+00 0.  1.
        -24    2    1    2    0    0 -0.15856971963E+02 -0.41376388535E+03  0.43649395905E+03  0.60963875991E+03  0.98389252086E+02 0.  0.
        254    2    1    2    0    0  0.15856971963E+02  0.41376388535E+03  0.18970058251E+03  0.10078710382E+04  0.89909160950E+03 0.  0.
         23    2    4    4    0    0  0.21703550416E+03 -0.21260816593E+03  0.12364966962E+03  0.34044771328E+03  0.91152413001E+02 0.  0.
         23    2    4    4    0    0 -0.20117853220E+03  0.62637205128E+03  0.66050912899E+02  0.66742332493E+03  0.90974848812E+02 0.  0.
          1    1    3    3  502    0 -0.17472999513E+02 -0.35959430714E+03  0.32217726696E+03  0.48312685993E+03  0.00000000000E+00 0. -1.
         -2    1    3    3    0  502  0.16160275498E+01 -0.54169578213E+02  0.11431669209E+03  0.12651189999E+03  0.00000000000E+00 0.  1.
         11    1    5    5    0    0  0.21057487485E+03 -0.22098980265E+03  0.11317062747E+03  0.32555469849E+03  0.00000000000E+00 0.  1.
        -11    1    5    5    0    0  0.64606293145E+01  0.83816367145E+01  0.10479042147E+02  0.14893014788E+02  0.00000000000E+00 0. -1.
          2    1    6    6  503    0 -0.44549574508E+02  0.53079163574E+02 -0.13451076614E+01  0.69309966883E+02  0.00000000000E+00 0. -1.
         -2    1    6    6    0  503 -0.15662895769E+03  0.57329288771E+03  0.67396020561E+02  0.59811335804E+03  0.00000000000E+00 0.  1.
<mgrwt>
<rscale>  0 0.14913814E+04</rscale>
<asrwt>0</asrwt>
<pdfrwt beam="1">  1        1 0.17259264E+00 0.14913814E+04</pdfrwt>
<pdfrwt beam="2">  1       -2 0.76255020E-01 0.14913814E+04</pdfrwt>
<totfact> 0.15949270E+01</totfact>
</mgrwt>
</event>
<event>
12    4  0.4424320E-008  0.1121329E+04  0.7818608E-02  0.9184649E-01
          1   -1    0    0  501    0  0.00000000000E+00  0.00000000000E+00  0.16808886128E+04  0.16808886128E+04  0.00000000000E+00 0. -1.
         -2   -1    0    0    0  501 -0.00000000000E+00 -0.00000000000E+00 -0.18701097383E+03  0.18701097383E+03  0.00000000000E+00 0.  1.
        -24    2    1    2    0    0 -0.22651411847E+02 -0.18513780112E+03  0.34109512082E+03  0.39683684715E+03  0.79652432135E+02 0.  0.
        254    2    1    2    0    0  0.22651411847E+02  0.18513780112E+03  0.11527825182E+04  0.14710627395E+04  0.89461106492E+03 0.  0.
         23    2    4    4    0    0 -0.18853536664E+03  0.24811667752E+03  0.11862465093E+04  0.12300975723E+04  0.94083933114E+02 0.  0.
         23    2    4    4    0    0  0.21118677849E+03 -0.62978876403E+02 -0.33463991114E+02  0.24096516718E+03  0.91532392164E+02 0.  0.
          1    1    3    3  502    0 -0.41829906905E+02 -0.15715947333E+03  0.31325071666E+03  0.35295162934E+03  0.00000000000E+00 0. -1.
         -2    1    3    3    0  502  0.19178495058E+02 -0.27978327791E+02  0.27844404160E+02  0.43885217804E+02  0.00000000000E+00 0.  1.
         11    1    5    5    0    0 -0.35722327374E+02  0.48576246344E+02  0.40376983563E+03  0.40824724928E+03  0.00000000000E+00 0. -1.
        -11    1    5    5    0    0 -0.15281303926E+03  0.19954043118E+03  0.78247667366E+03  0.82185032304E+03  0.00000000000E+00 0.  1.
          3    1    6    6  503    0 -0.83202006965E+01  0.32664282760E+01  0.13901057834E+01  0.90458657630E+01  0.00000000000E+00 0. -1.
         -3    1    6    6    0  503  0.21950697918E+03 -0.66245304679E+02 -0.34854096897E+02  0.23191930142E+03  0.00000000000E+00 0.  1.
<mgrwt>
<rscale>  0 0.11213289E+04</rscale>
<asrwt>0</asrwt>
<pdfrwt beam="1">  1        1 0.25859824E+00 0.11213289E+04</pdfrwt>
<pdfrwt beam="2">  1       -2 0.28770920E-01 0.11213289E+04</pdfrwt>
<totfact> 0.47574746E+01</totfact>
</mgrwt>
</event>
<event>
12    4  0.4424320E-008  0.1384122E+04  0.7818608E-02  0.8965393E-01
          1   -1    0    0  501    0  0.00000000000E+00  0.00000000000E+00  0.62380272816E+03  0.62380272816E+03  0.00000000000E+00 0. -1.
         -2   -1    0    0    0  501 -0.00000000000E+00 -0.00000000000E+00 -0.76778816179E+03  0.76778816179E+03  0.00000000000E+00 0.  1.
        -24    2    1    2    0    0  0.24787677995E+03 -0.20600194417E+03 -0.26204416137E+03  0.42301633506E+03  0.79974859669E+02 0.  0.
        254    2    1    2    0    0 -0.24787677995E+03  0.20600194417E+03  0.11805872775E+03  0.96857455489E+03  0.90571469356E+03 0.  0.
         23    2    4    4    0    0 -0.36691006784E+03 -0.26652851531E+03  0.99057271441E+02  0.47250004056E+03  0.88224134684E+02 0.  0.
         23    2    4    4    0    0  0.11903328789E+03  0.47253045948E+03  0.19001456306E+02  0.49607451433E+03  0.90966530438E+02 0.  0.
          3    1    3    3  502    0  0.47508267802E+02 -0.46520350856E+01 -0.31719461040E+02  0.57313184771E+02  0.00000000000E+00 0. -1.
         -4    1    3    3    0  502  0.20036851215E+03 -0.20134990908E+03 -0.23032470033E+03  0.36570315029E+03  0.00000000000E+00 0.  1.
         11    1    5    5    0    0 -0.29843232235E+03 -0.20963359835E+03  0.42847662747E+02  0.36721113652E+03  0.00000000000E+00 0.  1.
        -11    1    5    5    0    0 -0.68477745499E+02 -0.56894916957E+02  0.56209608694E+02  0.10528890404E+03  0.00000000000E+00 0. -1.
          3    1    6    6  503    0  0.14463500662E+02  0.14180476374E+03 -0.30298305995E+02  0.14572498487E+03  0.00000000000E+00 0. -1.
         -3    1    6    6    0  503  0.10456978723E+03  0.33072569575E+03  0.49299762301E+02  0.35034952946E+03  0.00000000000E+00 0.  1.
<mgrwt>
<rscale>  0 0.13841219E+04</rscale>
<asrwt>0</asrwt>
<pdfrwt beam="1">  1        1 0.95969651E-01 0.13841219E+04</pdfrwt>
<pdfrwt beam="2">  1       -2 0.11812125E+00 0.13841219E+04</pdfrwt>
<totfact> 0.15265588E+01</totfact>
</mgrwt>
</event>
<event>
12    4  0.4424320E-008  0.1790398E+04  0.7818608E-02  0.8711423E-01
          1   -1    0    0  501    0  0.00000000000E+00  0.00000000000E+00  0.15094954551E+04  0.15094954551E+04  0.00000000000E+00 0. -1.
         -2   -1    0    0    0  501 -0.00000000000E+00 -0.00000000000E+00 -0.53089323044E+03  0.53089323044E+03  0.00000000000E+00 0.  1.
        -24    2    1    2    0    0 -0.85108965533E+02  0.42559412592E+03 -0.21395805169E+03  0.49054290292E+03  0.80500904870E+02 0.  0.
        254    2    1    2    0    0  0.85108965533E+02 -0.42559412592E+03  0.11925602763E+04  0.15498457826E+04  0.88963365555E+03 0.  0.
         23    2    4    4    0    0 -0.35610378114E+03 -0.48585151872E+02  0.27924701347E+03  0.46386393627E+03  0.89556892043E+02 0.  0.
         23    2    4    4    0    0  0.44121274667E+03 -0.37700897405E+03  0.91331326286E+03  0.10859818463E+04  0.91711504625E+02 0.  0.
          1    1    3    3  502    0  0.16213835002E+01  0.31923131220E+02 -0.40760032272E+02  0.51798604442E+02  0.00000000000E+00 0. -1.
         -2    1    3    3    0  502 -0.86730349033E+02  0.39367099470E+03 -0.17319801942E+03  0.43874429848E+03  0.00000000000E+00 0.  1.
         11    1    5    5    0    0 -0.17382847256E+03 -0.38452085392E+02  0.19097187668E+03  0.26108458098E+03  0.00000000000E+00 0. -1.
        -11    1    5    5    0    0 -0.18227530858E+03 -0.10133066480E+02  0.88275136789E+02  0.20277935529E+03  0.00000000000E+00 0.  1.
          2    1    6    6  503    0  0.38581599821E+03 -0.28535619483E+03  0.72746845466E+03  0.87148866598E+03  0.00000000000E+00 0. -1.
         -2    1    6    6    0  503  0.55396748469E+02 -0.91652779220E+02  0.18584480820E+03  0.21449318035E+03  0.00000000000E+00 0.  1.
<mgrwt>
<rscale>  0 0.17903976E+04</rscale>
<asrwt>0</asrwt>
<pdfrwt beam="1">  1        1 0.23223007E+00 0.17903976E+04</pdfrwt>
<pdfrwt beam="2">  1       -2 0.81675882E-01 0.17903976E+04</pdfrwt>
<totfact> 0.70440036E+00</totfact>
</mgrwt>
</event>
<event>
12    4  0.4424320E-008  0.1579189E+04  0.7818608E-02  0.8833436E-01
         -2   -1    0    0    0  501 -0.00000000000E+00  0.00000000000E+00  0.32841904496E+03  0.32841904496E+03  0.00000000000E+00 0.  1.
          1   -1    0    0  501    0  0.00000000000E+00 -0.00000000000E+00 -0.18983669383E+04  0.18983669383E+04  0.00000000000E+00 0. -1.
        -24    2    1    2    0    0  0.36718637265E+03 -0.37332235413E+03 -0.60063218501E+03  0.80066582713E+03  0.78175013279E+02 0.  0.
        254    2    1    2    0    0 -0.36718637265E+03  0.37332235413E+03 -0.96931570836E+03  0.14261201562E+04  0.90556631176E+03 0.  0.
         23    2    4    4    0    0 -0.28919586765E+03 -0.20453994542E+02 -0.96812217340E+03  0.10146380450E+04  0.90427893338E+02 0.  0.
         23    2    4    4    0    0 -0.77990505000E+02  0.39377634867E+03 -0.11935349615E+01  0.41148211121E+03  0.90408913687E+02 0.  0.
          1    1    3    3  502    0  0.35162441670E+03 -0.34377109857E+03 -0.58366137133E+03  0.76320304967E+03  0.00000000000E+00 0. -1.
         -2    1    3    3    0  502  0.15561955951E+02 -0.29551255558E+02 -0.16970813679E+02  0.37462777460E+02  0.00000000000E+00 0.  1.
         11    1    5    5    0    0 -0.11490705853E+03 -0.31620357619E+02 -0.52464601275E+03  0.53801200527E+03  0.00000000000E+00 0.  1.
        -11    1    5    5    0    0 -0.17428880913E+03  0.11166363077E+02 -0.44347616064E+03  0.47662603969E+03  0.00000000000E+00 0. -1.
          3    1    6    6  503    0  0.16677873383E+02  0.13292457492E+03 -0.20082580226E+01  0.13398181659E+03  0.00000000000E+00 0. -1.
         -3    1    6    6    0  503 -0.94668378384E+02  0.26085177376E+03  0.81472306102E+00  0.27750029462E+03  0.00000000000E+00 0.  1.
<mgrwt>
<rscale>  0 0.15791895E+04</rscale>
<asrwt>0</asrwt>
<pdfrwt beam="1">  1        1 0.29205645E+00 0.15791895E+04</pdfrwt>
<pdfrwt beam="2">  1       -2 0.50526007E-01 0.15791895E+04</pdfrwt>
<totfact> 0.10920174E+01</totfact>
</mgrwt>
</event>
<event>
12    4  0.4424320E-008  0.1877074E+04  0.7818608E-02  0.8666353E-01
          3   -1    0    0  501    0  0.00000000000E+00  0.00000000000E+00  0.17614063826E+04  0.17614063826E+04  0.00000000000E+00 0. -1.
         -4   -1    0    0    0  501 -0.00000000000E+00 -0.00000000000E+00 -0.50008421570E+03  0.50008421570E+03  0.00000000000E+00 0.  1.
        -24    2    1    2    0    0 -0.52685714375E+03  0.99945947028E+02 -0.81371113669E+02  0.54960180510E+03  0.88731301025E+02 0.  0.
        254    2    1    2    0    0  0.52685714375E+03 -0.99945947028E+02  0.13426932806E+04  0.17118887932E+04  0.91660806910E+03 0.  0.
         23    2    4    4    0    0  0.66393100395E+03 -0.28290959167E+03  0.64534206126E+03  0.97251292909E+03  0.92047847149E+02 0.  0.
         23    2    4    4    0    0 -0.13707386020E+03  0.18296364464E+03  0.69735121930E+03  0.73937586409E+03  0.90072231779E+02 0.  0.
          3    1    3    3  502    0 -0.14521565179E+02  0.91191326044E+01 -0.18934336762E+02  0.25544931852E+02  0.00000000000E+00 0. -1.
         -4    1    3    3    0  502 -0.51233557857E+03  0.90826814424E+02 -0.62436776907E+02  0.52405687324E+03  0.00000000000E+00 0.  1.
         11    1    5    5    0    0  0.65672480056E+03 -0.28276455777E+03  0.64787237848E+03  0.96487402162E+03  0.00000000000E+00 0. -1.
        -11    1    5    5    0    0  0.72062033908E+01 -0.14503389918E+00 -0.25303172239E+01  0.76389074740E+01  0.00000000000E+00 0.  1.
          3    1    6    6  503    0 -0.95086969068E+02  0.16864849508E+03  0.62696058171E+03  0.65617331369E+03  0.00000000000E+00 0. -1.
         -3    1    6    6    0  503 -0.41986891132E+02  0.14315149563E+02  0.70390637587E+02  0.83202550405E+02  0.00000000000E+00 0.  1.
<mgrwt>
<rscale>  0 0.18770738E+04</rscale>
<asrwt>0</asrwt>
<pdfrwt beam="1">  1        3 0.27098560E+00 0.18770738E+04</pdfrwt>
<pdfrwt beam="2">  1       -4 0.76936034E-01 0.18770738E+04</pdfrwt>
<totfact> 0.18316440E-01</totfact>
</mgrwt>
</event>
<event>
12    4  0.4424320E-008  0.2995171E+04  0.7818608E-02  0.8245111E-01
          1   -1    0    0  501    0  0.00000000000E+00  0.00000000000E+00  0.11147785343E+04  0.11147785343E+04  0.00000000000E+00 0. -1.
         -2   -1    0    0    0  501 -0.00000000000E+00 -0.00000000000E+00 -0.20118462785E+04  0.20118462785E+04  0.00000000000E+00 0.  1.
        -24    2    1    2    0    0  0.11763816757E+04  0.14619383100E+03  0.28948025777E+03  0.12229077644E+04  0.80362287978E+02 0.  0.
        254    2    1    2    0    0 -0.11763816757E+04 -0.14619383100E+03 -0.11865480020E+04  0.19037170485E+04  0.90055313910E+03 0.  0.
         23    2    4    4    0    0  0.69115833416E+02  0.15362551914E+03 -0.76366016643E+02  0.20575766518E+03  0.90147932426E+02 0.  0.
         23    2    4    4    0    0 -0.12454975091E+04 -0.29981935014E+03 -0.11101819854E+04  0.16979593833E+04  0.96986280931E+02 0.  0.
          1    1    3    3  502    0  0.10573906543E+04  0.15533080399E+03  0.26442517603E+03  0.11009647262E+04  0.00000000000E+00 0. -1.
         -2    1    3    3    0  502  0.11899102137E+03 -0.91369729916E+01  0.25055081733E+02  0.12194303819E+03  0.00000000000E+00 0.  1.
         11    1    5    5    0    0 -0.16986043812E+02  0.60593368972E+02 -0.13924131013E+02  0.64451248803E+02  0.00000000000E+00 0.  1.
        -11    1    5    5    0    0  0.86101877228E+02  0.93032150170E+02 -0.62441885630E+02  0.14130641637E+03  0.00000000000E+00 0. -1.
          1    1    6    6  503    0 -0.90024493882E+03 -0.17205569898E+03 -0.79995070807E+03  0.12165382233E+04  0.00000000000E+00 0. -1.
         -1    1    6    6    0  503 -0.34525257030E+03 -0.12776365116E+03 -0.31023127729E+03  0.48142115997E+03  0.00000000000E+00 0.  1.
<mgrwt>
<rscale>  0 0.29951715E+04</rscale>
<asrwt>0</asrwt>
<pdfrwt beam="1">  1        1 0.17150439E+00 0.29951715E+04</pdfrwt>
<pdfrwt beam="2">  1       -2 0.30951481E+00 0.29951715E+04</pdfrwt>
<totfact> 0.25655433E-01</totfact>
</mgrwt>
</event>
<event>
12    4  0.4424320E-008  0.2807533E+04  0.7818608E-02  0.8300934E-01
          1   -1    0    0  501    0  0.00000000000E+00  0.00000000000E+00  0.20746099286E+04  0.20746099286E+04  0.00000000000E+00 0. -1.
         -2   -1    0    0    0  501 -0.00000000000E+00 -0.00000000000E+00 -0.94984600355E+03  0.94984600355E+03  0.00000000000E+00 0.  1.
        -24    2    1    2    0    0  0.10753455224E+04 -0.64365324897E+03  0.41249846440E+03  0.13218327830E+04  0.80183699450E+02 0.  0.
        254    2    1    2    0    0 -0.10753455224E+04  0.64365324897E+03  0.71226546067E+03  0.17026231491E+04  0.90606070657E+03 0.  0.
         23    2    4    4    0    0 -0.33582409418E+03 -0.21047624031E+03  0.12474392699E+03  0.42586906926E+03  0.93409565189E+02 0.  0.
         23    2    4    4    0    0 -0.73952142826E+03  0.85412948927E+03  0.58752153368E+03  0.12767540799E+04  0.92142827380E+02 0.  0.
          3    1    3    3  502    0  0.10478109448E+04 -0.61869278912E+03  0.41191384988E+03  0.12846639884E+04  0.00000000000E+00 0. -1.
         -4    1    3    3    0  502  0.27534577648E+02 -0.24960459849E+02  0.58461451951E+00  0.37168794657E+02  0.00000000000E+00 0.  1.
         11    1    5    5    0    0  0.16889579004E+01 -0.19134046786E+02  0.55244576834E+01  0.19987094783E+02  0.00000000000E+00 0.  1.
        -11    1    5    5    0    0 -0.33751305208E+03 -0.19134219352E+03  0.11921946930E+03  0.40588197448E+03  0.00000000000E+00 0. -1.
          3    1    6    6  503    0 -0.56191102795E+03  0.58884486934E+03  0.40741370126E+03  0.91020228931E+03  0.00000000000E+00 0. -1.
         -3    1    6    6    0  503 -0.17761040030E+03  0.26528461993E+03  0.18010783242E+03  0.36655179056E+03  0.00000000000E+00 0.  1.
<mgrwt>
<rscale>  0 0.28075327E+04</rscale>
<asrwt>0</asrwt>
<pdfrwt beam="1">  1        1 0.31917076E+00 0.28075327E+04</pdfrwt>
<pdfrwt beam="2">  1       -2 0.14613016E+00 0.28075327E+04</pdfrwt>
<totfact> 0.64750620E-01</totfact>
</mgrwt>
</event>
<event>
12    4  0.4424320E-008  0.1563637E+04  0.7818608E-02  0.8843204E-01
          1   -1    0    0  501    0  0.00000000000E+00  0.00000000000E+00  0.12266485269E+04  0.12266485269E+04  0.00000000000E+00 0. -1.
         -2   -1    0    0    0  501 -0.00000000000E+00 -0.00000000000E+00 -0.49830105401E+03  0.49830105401E+03  0.00000000000E+00 0.  1.
        -24    2    1    2    0    0  0.74984791738E+02  0.12899768257E+03 -0.30486288168E+03  0.34961258739E+03  0.83812072706E+02 0.  0.
        254    2    1    2    0    0 -0.74984791738E+02 -0.12899768257E+03  0.10332103545E+04  0.13753369935E+04  0.89541336144E+03 0.  0.
         23    2    4    4    0    0  0.37875511348E+03  0.43572921875E+02  0.60935700600E+03  0.72450733810E+03  0.90779329616E+02 0.  0.
         23    2    4    4    0    0 -0.45373990522E+03 -0.17257060445E+03  0.42385334852E+03  0.65082965538E+03  0.90923397192E+02 0.  0.
          1    1    3    3  502    0  0.66995112867E+02  0.71929558023E+02 -0.11544694909E+03  0.15162521070E+03  0.00000000000E+00 0. -1.
         -2    1    3    3    0  502  0.79896788706E+01  0.57068124551E+02 -0.18941593259E+03  0.19798737669E+03  0.00000000000E+00 0.  1.
         11    1    5    5    0    0  0.62222227619E+02  0.47138451593E+01  0.17393346557E+03  0.18478819332E+03  0.00000000000E+00 0. -1.
        -11    1    5    5    0    0  0.31653288587E+03  0.38859076716E+02  0.43542354043E+03  0.53971914478E+03  0.00000000000E+00 0.  1.
          2    1    6    6  503    0 -0.45726008222E+03 -0.17270895326E+03  0.41465195338E+03  0.64097691673E+03  0.00000000000E+00 0.  1.
         -2    1    6    6    0  503  0.35201770003E+01  0.13834880882E+00  0.92013951367E+01  0.98527386532E+01  0.00000000000E+00 0. -1.
<mgrwt>
<rscale>  0 0.15636371E+04</rscale>
<asrwt>0</asrwt>
<pdfrwt beam="1">  1        1 0.18871516E+00 0.15636371E+04</pdfrwt>
<pdfrwt beam="2">  1       -2 0.76661701E-01 0.15636371E+04</pdfrwt>
<totfact> 0.13117058E+01</totfact>
</mgrwt>
</event>
<event>
12    4  0.4424320E-008  0.1558206E+04  0.7818608E-02  0.8846643E-01
         -2   -1    0    0    0  501 -0.00000000000E+00  0.00000000000E+00  0.19906355511E+03  0.19906355511E+03  0.00000000000E+00 0.  1.
          1   -1    0    0  501    0  0.00000000000E+00 -0.00000000000E+00 -0.30492851523E+04  0.30492851523E+04  0.00000000000E+00 0. -1.
        -24    2    1    2    0    0 -0.10496453287E+03 -0.22852124423E+03 -0.18972195111E+04  0.19154833988E+04  0.79970404380E+02 0.  0.
        254    2    1    2    0    0  0.10496453287E+03  0.22852124423E+03 -0.95300208613E+03  0.13328653087E+04  0.89726107829E+03 0.  0.
         23    2    4    4    0    0  0.43807041468E+03 -0.72178737941E+02 -0.33296217727E+03  0.56188886022E+03  0.87976254280E+02 0.  0.
         23    2    4    4    0    0 -0.33310588180E+03  0.30069998217E+03 -0.62003990886E+03  0.77097644844E+03  0.92602309377E+02 0.  0.
          3    1    3    3  502    0 -0.86350225632E+02 -0.21618475761E+03 -0.15324229232E+04  0.15500039440E+04  0.00000000000E+00 0. -1.
         -4    1    3    3    0  502 -0.18614307242E+02 -0.12336486617E+02 -0.36479658789E+03  0.36547945479E+03  0.00000000000E+00 0.  1.
         11    1    5    5    0    0  0.12877355653E+03 -0.57258047800E+02 -0.12931936072E+03  0.19127103794E+03  0.00000000000E+00 0. -1.
        -11    1    5    5    0    0  0.30929685815E+03 -0.14920690141E+02 -0.20364281655E+03  0.37061782228E+03  0.00000000000E+00 0.  1.
          4    1    6    6  503    0 -0.21458517880E+03  0.24299956451E+03 -0.40526920988E+03  0.51897853500E+03  0.00000000000E+00 0. -1.
         -4    1    6    6    0  503 -0.11852070300E+03  0.57700417655E+02 -0.21477069898E+03  0.25199791343E+03  0.00000000000E+00 0.  1.
<mgrwt>
<rscale>  0 0.15582061E+04</rscale>
<asrwt>0</asrwt>
<pdfrwt beam="1">  1        1 0.46912076E+00 0.15582061E+04</pdfrwt>
<pdfrwt beam="2">  1       -2 0.30625165E-01 0.15582061E+04</pdfrwt>
<totfact> 0.46156703E+00</totfact>
</mgrwt>
</event>
<event>
12    4  0.4424320E-008  0.1602792E+04  0.7818608E-02  0.8818835E-01
         -2   -1    0    0    0  501 -0.00000000000E+00  0.00000000000E+00  0.31523728586E+04  0.31523728586E+04  0.00000000000E+00 0.  1.
          1   -1    0    0  501    0  0.00000000000E+00 -0.00000000000E+00 -0.20373077825E+03  0.20373077825E+03  0.00000000000E+00 0. -1.
        -24    2    1    2    0    0 -0.32135699485E+03  0.24658508034E+03  0.17616929781E+04  0.18094464893E+04  0.80373680891E+02 0.  0.
        254    2    1    2    0    0  0.32135699485E+03 -0.24658508034E+03  0.11869491023E+04  0.15466571476E+04  0.90511084445E+03 0.  0.
         23    2    4    4    0    0  0.35211768982E+02 -0.55001756544E+03  0.74095999185E+03  0.92845111821E+03  0.96127927415E+02 0.  0.
         23    2    4    4    0    0  0.28614522586E+03  0.30343248509E+03  0.44598911041E+03  0.61820602934E+03  0.96550737003E+02 0.  0.
          3    1    3    3  502    0 -0.72072526665E+02  0.53158989671E+02  0.55523579498E+03  0.56241187337E+03  0.00000000000E+00 0. -1.
         -4    1    3    3    0  502 -0.24928446818E+03  0.19342609067E+03  0.12064571831E+04  0.12470346160E+04  0.00000000000E+00 0.  1.
         11    1    5    5    0    0 -0.93604880898E+01 -0.18608559002E+03  0.31919995979E+03  0.36959989162E+03  0.00000000000E+00 0.  1.
        -11    1    5    5    0    0  0.44572257072E+02 -0.36393197542E+03  0.42176003205E+03  0.55885122660E+03  0.00000000000E+00 0. -1.
          4    1    6    6  503    0  0.28544563017E+03  0.30981701857E+03  0.43551908648E+03  0.60592298807E+03  0.00000000000E+00 0. -1.
         -4    1    6    6    0  503  0.69959569555E+00 -0.63845334789E+01  0.10470023929E+02  0.12283041275E+02  0.00000000000E+00 0.  1.
<mgrwt>
<rscale>  0 0.16027918E+04</rscale>
<asrwt>0</asrwt>
<pdfrwt beam="1">  1        1 0.31343199E-01 0.16027918E+04</pdfrwt>
<pdfrwt beam="2">  1       -2 0.48498040E+00 0.16027918E+04</pdfrwt>
<totfact> 0.25020931E-01</totfact>
</mgrwt>
</event>
<event>
12    4  0.4424320E-008  0.1423869E+04  0.7818608E-02  0.8936720E-01
         -2   -1    0    0    0  501 -0.00000000000E+00  0.00000000000E+00  0.38994199378E+03  0.38994199378E+03  0.00000000000E+00 0.  1.
          1   -1    0    0  501    0  0.00000000000E+00 -0.00000000000E+00 -0.12998110429E+04  0.12998110429E+04  0.00000000000E+00 0. -1.
        -24    2    1    2    0    0  0.40219993574E+03 -0.22612194573E+03 -0.32216317524E+03  0.56801978043E+03  0.77210341474E+02 0.  0.
        254    2    1    2    0    0 -0.40219993574E+03  0.22612194573E+03 -0.58770587385E+03  0.11217332562E+04  0.83665487586E+03 0.  0.
         23    2    4    4    0    0 -0.32369460044E+03  0.46281311817E+03 -0.12153651077E+03  0.58504383954E+03  0.92363380386E+02 0.  0.
         23    2    4    4    0    0 -0.78505335303E+02 -0.23669117243E+03 -0.46616936308E+03  0.53668941667E+03  0.92389697045E+02 0.  0.
          3    1    3    3  502    0  0.11852663401E+03 -0.35220957627E+02 -0.61696914960E+02  0.13818678715E+03  0.00000000000E+00 0. -1.
         -4    1    3    3    0  502  0.28367330173E+03 -0.19090098811E+03 -0.26046626028E+03  0.42983299329E+03  0.00000000000E+00 0.  1.
         11    1    5    5    0    0 -0.32373921813E+03  0.46237600503E+03 -0.11194125001E+03  0.57543852394E+03  0.00000000000E+00 0. -1.
        -11    1    5    5    0    0  0.44617694323E-01  0.43711313475E+00 -0.95952607626E+01  0.96053155978E+01  0.00000000000E+00 0.  1.
          2    1    6    6  503    0 -0.62717875085E+02 -0.23208559246E+03 -0.38519677616E+03  0.45406366343E+03  0.00000000000E+00 0. -1.
         -2    1    6    6    0  503 -0.15787460217E+02 -0.46055799697E+01 -0.80972586920E+02  0.82625753246E+02  0.00000000000E+00 0.  1.
<mgrwt>
<rscale>  0 0.14238692E+04</rscale>
<asrwt>0</asrwt>
<pdfrwt beam="1">  1        1 0.19997093E+00 0.14238692E+04</pdfrwt>
<pdfrwt beam="2">  1       -2 0.59991076E-01 0.14238692E+04</pdfrwt>
<totfact> 0.20012735E+01</totfact>
</mgrwt>
</event>
<event>
12    4  0.4424320E-008  0.1329151E+04  0.7818608E-02  0.9006762E-01
          1   -1    0    0  501    0  0.00000000000E+00  0.00000000000E+00  0.95826742054E+03  0.95826742054E+03  0.00000000000E+00 0. -1.
         -2   -1    0    0    0  501 -0.00000000000E+00 -0.00000000000E+00 -0.46089525922E+03  0.46089525922E+03  0.00000000000E+00 0.  1.
        -24    2    1    2    0    0 -0.19846150327E+03 -0.33878922350E+01 -0.17677468541E+03  0.27756271920E+03  0.79958286609E+02 0.  0.
        254    2    1    2    0    0  0.19846150327E+03  0.33878922350E+01  0.67414684673E+03  0.11415999606E+04  0.89965440748E+03 0.  0.
         23    2    4    4    0    0  0.46155035087E+03  0.21154432443E+03  0.59102049621E+03  0.78420332257E+03  0.88825089950E+02 0.  0.
         23    2    4    4    0    0 -0.26308884761E+03 -0.20815643220E+03  0.83126350522E+02  0.35739663799E+03  0.90980902899E+02 0.  0.
          3    1    3    3  502    0 -0.34015290608E+02 -0.30717421632E+02 -0.25465385218E+02  0.52431725426E+02  0.00000000000E+00 0. -1.
         -4    1    3    3    0  502 -0.16444621266E+03  0.27329529397E+02 -0.15130930019E+03  0.22513099378E+03  0.00000000000E+00 0.  1.
         11    1    5    5    0    0  0.44724461065E+03  0.20083096058E+03  0.53622129063E+03  0.72656320373E+03  0.00000000000E+00 0.  1.
        -11    1    5    5    0    0  0.14305740218E+02  0.10713363851E+02  0.54799205582E+02  0.57640118846E+02  0.00000000000E+00 0. -1.
          2    1    6    6  503    0 -0.88763261221E+02 -0.83063003257E+02 -0.13047173036E+02  0.12226449925E+03  0.00000000000E+00 0. -1.
         -2    1    6    6    0  503 -0.17432558639E+03 -0.12509342894E+03  0.96173523558E+02  0.23513213874E+03  0.00000000000E+00 0.  1.
<mgrwt>
<rscale>  0 0.13291515E+04</rscale>
<asrwt>0</asrwt>
<pdfrwt beam="1">  1        1 0.14742576E+00 0.13291515E+04</pdfrwt>
<pdfrwt beam="2">  1       -2 0.70906963E-01 0.13291515E+04</pdfrwt>
<totfact> 0.25356159E+01</totfact>
</mgrwt>
</event>
<event>
12    4  0.4424320E-008  0.2446706E+04  0.7818608E-02  0.8422222E-01
          1   -1    0    0  501    0  0.00000000000E+00  0.00000000000E+00  0.13683406227E+04  0.13683406227E+04  0.00000000000E+00 0. -1.
         -2   -1    0    0    0  501 -0.00000000000E+00 -0.00000000000E+00 -0.10937282290E+04  0.10937282290E+04  0.00000000000E+00 0.  1.
        -24    2    1    2    0    0  0.11420688019E+02 -0.14382276545E+03 -0.93755816584E+03  0.95143683199E+03  0.73493611595E+02 0.  0.
        254    2    1    2    0    0 -0.11420688019E+02  0.14382276545E+03  0.12121705595E+04  0.15106320197E+04  0.88985179301E+03 0.  0.
         23    2    4    4    0    0  0.41343865857E+03  0.13850853104E+03  0.45318545712E+03  0.63535647057E+03  0.90469047640E+02 0.  0.
         23    2    4    4    0    0 -0.42485934659E+03  0.53142344146E+01  0.75898510238E+03  0.87527554909E+03  0.97545864720E+02 0.  0.
          1    1    3    3  502    0  0.10492979409E+02 -0.11675485123E+03 -0.52216827508E+03  0.53516493290E+03  0.00000000000E+00 0. -1.
         -2    1    3    3    0  502  0.92770861046E+00 -0.27067914221E+02 -0.41538989077E+03  0.41627189909E+03  0.00000000000E+00 0.  1.
         11    1    5    5    0    0  0.32252136581E+03  0.71261016543E+02  0.31088666218E+03  0.45359528282E+03  0.00000000000E+00 0. -1.
        -11    1    5    5    0    0  0.90917292766E+02  0.67247514497E+02  0.14229879494E+03  0.18176118775E+03  0.00000000000E+00 0.  1.
          1    1    6    6  503    0 -0.42225552889E+03  0.18622606862E+01  0.70983180185E+03  0.82593243466E+03  0.00000000000E+00 0. -1.
         -1    1    6    6    0  503 -0.26038176994E+01  0.34519737284E+01  0.49153300526E+02  0.49343114432E+02  0.00000000000E+00 0.  1.
<mgrwt>
<rscale>  0 0.24467062E+04</rscale>
<asrwt>0</asrwt>
<pdfrwt beam="1">  1        1 0.21051394E+00 0.24467062E+04</pdfrwt>
<pdfrwt beam="2">  1       -2 0.16826588E+00 0.24467062E+04</pdfrwt>
<totfact> 0.13896124E+00</totfact>
</mgrwt>
</event>
<event>
12    4  0.4424320E-008  0.2389760E+04  0.7818608E-02  0.8443347E-01
          1   -1    0    0  501    0  0.00000000000E+00  0.00000000000E+00  0.19290544078E+04  0.19290544078E+04  0.00000000000E+00 0. -1.
         -2   -1    0    0    0  501 -0.00000000000E+00 -0.00000000000E+00 -0.74012311918E+03  0.74012311918E+03  0.00000000000E+00 0.  1.
        -24    2    1    2    0    0 -0.49458784643E+03 -0.43927371567E+03 -0.36336265476E+03  0.75874865504E+03  0.78029273598E+02 0.  0.
        254    2    1    2    0    0  0.49458784643E+03  0.43927371567E+03  0.15522939433E+04  0.19104288719E+04  0.89584789610E+03 0.  0.
         23    2    4    4    0    0 -0.20676077600E+03 -0.31855709290E+02  0.15718533158E+03  0.27700351211E+03  0.90878559359E+02 0.  0.
         23    2    4    4    0    0  0.70134862243E+03  0.47112942496E+03  0.13951086118E+04  0.16334253598E+04  0.88868116580E+02 0.  0.
          3    1    3    3  502    0 -0.90130930970E+02 -0.78891412253E+02 -0.10175858038E+03  0.15716948917E+03  0.00000000000E+00 0. -1.
         -4    1    3    3    0  502 -0.40445691546E+03 -0.36038230342E+03 -0.26160407438E+03  0.60157916587E+03  0.00000000000E+00 0.  1.
         11    1    5    5    0    0 -0.11483516531E+02  0.27557288353E+01  0.50391455181E+02  0.51756776837E+02  0.00000000000E+00 0.  1.
        -11    1    5    5    0    0 -0.19527725947E+03 -0.34611438126E+02  0.10679387640E+03  0.22524673527E+03  0.00000000000E+00 0. -1.
          3    1    6    6  503    0  0.70080802868E+03  0.47220141883E+03  0.13960572690E+04  0.16318952085E+04  0.00000000000E+00 0. -1.
         -3    1    6    6    0  503  0.54059374846E+00 -0.10719938700E+01 -0.94865726741E+00  0.15301513223E+01  0.00000000000E+00 0.  1.
<mgrwt>
<rscale>  0 0.23897596E+04</rscale>
<asrwt>0</asrwt>
<pdfrwt beam="1">  1        1 0.29677760E+00 0.23897596E+04</pdfrwt>
<pdfrwt beam="2">  1       -2 0.11386510E+00 0.23897596E+04</pdfrwt>
<totfact> 0.15848746E+00</totfact>
</mgrwt>
</event>
<event>
12    4  0.4424320E-008  0.2028209E+04  0.7818608E-02  0.8593544E-01
         -2   -1    0    0    0  501 -0.00000000000E+00  0.00000000000E+00  0.67770178332E+03  0.67770178332E+03  0.00000000000E+00 0.  1.
          1   -1    0    0  501    0  0.00000000000E+00 -0.00000000000E+00 -0.15174935627E+04  0.15174935627E+04  0.00000000000E+00 0. -1.
        -24    2    1    2    0    0 -0.65322504039E+03 -0.28120289123E+03 -0.76091768661E+03  0.10445698233E+04  0.79701759578E+02 0.  0.
        254    2    1    2    0    0  0.65322504039E+03  0.28120289123E+03 -0.78874092769E+02  0.11506255227E+04  0.90107710638E+03 0.  0.
         23    2    4    4    0    0 -0.17000117616E+03  0.67847132296E+02  0.16192823874E+03  0.26207760642E+03  0.94658776822E+02 0.  0.
         23    2    4    4    0    0  0.82322621655E+03  0.21335575894E+03 -0.24080233151E+03  0.88854791632E+03  0.91156750962E+02 0.  0.
          1    1    3    3  502    0 -0.58135702666E+03 -0.24570778776E+03 -0.70821898159E+03  0.94864241699E+03  0.00000000000E+00 0. -1.
         -2    1    3    3    0  502 -0.71868013725E+02 -0.35495103473E+02 -0.52698705013E+02  0.95927406290E+02  0.00000000000E+00 0.  1.
         11    1    5    5    0    0 -0.38310440247E+02  0.62320880122E+02  0.45042397835E+02  0.85909251736E+02  0.00000000000E+00 0.  1.
        -11    1    5    5    0    0 -0.13169073592E+03  0.55262521744E+01  0.11688584091E+03  0.17616835469E+03  0.00000000000E+00 0. -1.
          2    1    6    6  503    0  0.36499012585E+03  0.13157619600E+03 -0.13850486998E+03  0.41196320992E+03  0.00000000000E+00 0. -1.
         -2    1    6    6    0  503  0.45823609070E+03  0.81779562933E+02 -0.10229746153E+03  0.47658470639E+03  0.00000000000E+00 0.  1.
<mgrwt>
<rscale>  0 0.20282092E+04</rscale>
<asrwt>0</asrwt>
<pdfrwt beam="1">  1        1 0.23346055E+00 0.20282092E+04</pdfrwt>
<pdfrwt beam="2">  1       -2 0.10426181E+00 0.20282092E+04</pdfrwt>
<totfact> 0.38633975E+00</totfact>
</mgrwt>
</event>
<event>
12    4  0.4424320E-008  0.2083384E+04  0.7818608E-02  0.8568598E-01
         -2   -1    0    0    0  501 -0.00000000000E+00  0.00000000000E+00  0.41920887443E+03  0.41920887443E+03  0.00000000000E+00 0.  1.
          1   -1    0    0  501    0  0.00000000000E+00 -0.00000000000E+00 -0.25885011994E+04  0.25885011994E+04  0.00000000000E+00 0. -1.
        -24    2    1    2    0    0 -0.80369100137E+03 -0.22739248461E+03 -0.10711223439E+04  0.13606314864E+04  0.79927456572E+02 0.  0.
        254    2    1    2    0    0  0.80369100137E+03  0.22739248461E+03 -0.10981699811E+04  0.16470785875E+04  0.89959101726E+03 0.  0.
         23    2    4    4    0    0  0.26422179910E+03  0.33613939202E+01 -0.10114874055E+04  0.10494555051E+04  0.91791217066E+02 0.  0.
         23    2    4    4    0    0  0.53946920227E+03  0.22403109069E+03 -0.86682575562E+02  0.59762308242E+03  0.91774342529E+02 0.  0.
          1    1    3    3  502    0 -0.44894065482E+02 -0.17213999905E+02 -0.95513323504E+02  0.10693266047E+03  0.00000000000E+00 0. -1.
         -2    1    3    3    0  502 -0.75879693588E+03 -0.21017848470E+03 -0.97560902042E+03  0.12536988259E+04  0.00000000000E+00 0.  1.
         11    1    5    5    0    0  0.90608772618E+02  0.24320368593E+02 -0.22526554002E+03  0.24402047768E+03  0.00000000000E+00 0. -1.
        -11    1    5    5    0    0  0.17361302648E+03 -0.20958974672E+02 -0.78622186550E+03  0.80543502741E+03  0.00000000000E+00 0.  1.
          3    1    6    6  503    0  0.66731927662E+02  0.38547025374E+02 -0.42180091932E+02  0.87853192828E+02  0.00000000000E+00 0. -1.
         -3    1    6    6    0  503  0.47273727460E+03  0.18548406532E+03 -0.44502483630E+02  0.50976988959E+03  0.00000000000E+00 0.  1.
<mgrwt>
<rscale>  0 0.20833844E+04</rscale>
<asrwt>0</asrwt>
<pdfrwt beam="1">  1        1 0.39823096E+00 0.20833844E+04</pdfrwt>
<pdfrwt beam="2">  1       -2 0.64493671E-01 0.20833844E+04</pdfrwt>
<totfact> 0.21126263E+00</totfact>
</mgrwt>
</event>
<event>
12    4  0.4424320E-008  0.1933527E+04  0.7818608E-02  0.8638346E-01
          1   -1    0    0  501    0  0.00000000000E+00  0.00000000000E+00  0.88330828067E+03  0.88330828067E+03  0.00000000000E+00 0. -1.
         -2   -1    0    0    0  501 -0.00000000000E+00 -0.00000000000E+00 -0.10581035035E+04  0.10581035035E+04  0.00000000000E+00 0.  1.
        -24    2    1    2    0    0 -0.74732832087E+03 -0.71982338451E+02 -0.70837962344E+01  0.75513400194E+03  0.80598414942E+02 0.  0.
        254    2    1    2    0    0  0.74732832087E+03  0.71982338451E+02 -0.16771142664E+03  0.11862777823E+04  0.90302091774E+03 0.  0.
         23    2    4    4    0    0  0.11336051205E+03  0.29325347472E+03 -0.35450781143E+03  0.48322664853E+03  0.94783961474E+02 0.  0.
         23    2    4    4    0    0  0.63396780883E+03 -0.22127113627E+03  0.18679638479E+03  0.70305113375E+03  0.92260007191E+02 0.  0.
          3    1    3    3  502    0 -0.27752817969E+03 -0.34139386179E+01  0.28591292878E+02  0.27901793406E+03  0.00000000000E+00 0. -1.
         -4    1    3    3    0  502 -0.46980014119E+03 -0.68568399833E+02 -0.35675089113E+02  0.47611606788E+03  0.00000000000E+00 0.  1.
         11    1    5    5    0    0  0.31896443661E+02  0.20626477453E+03 -0.23812535530E+03  0.31664842518E+03  0.00000000000E+00 0. -1.
        -11    1    5    5    0    0  0.81464068385E+02  0.86988700183E+02 -0.11638245613E+03  0.16657822334E+03  0.00000000000E+00 0.  1.
          4    1    6    6  503    0  0.49739308551E+03 -0.16780656231E+03  0.10575557807E+03  0.53548404847E+03  0.00000000000E+00 0. -1.
         -4    1    6    6    0  503  0.13657472331E+03 -0.53464573955E+02  0.81040806726E+02  0.16756708529E+03  0.00000000000E+00 0.  1.
<mgrwt>
<rscale>  0 0.19335269E+04</rscale>
<asrwt>0</asrwt>
<pdfrwt beam="1">  1        1 0.13589358E+00 0.19335269E+04</pdfrwt>
<pdfrwt beam="2">  1       -2 0.16278515E+00 0.19335269E+04</pdfrwt>
<totfact> 0.36887865E+00</totfact>
</mgrwt>
</event>
<event>
12    4  0.4424320E-008  0.2577181E+04  0.7818608E-02  0.8375994E-01
          1   -1    0    0  501    0  0.00000000000E+00  0.00000000000E+00  0.15349747866E+04  0.15349747866E+04  0.00000000000E+00 0. -1.
         -2   -1    0    0    0  501 -0.00000000000E+00 -0.00000000000E+00 -0.10817541534E+04  0.10817541534E+04  0.00000000000E+00 0.  1.
        -24    2    1    2    0    0 -0.98259523243E+03 -0.52100697354E+03  0.38569482455E+03  0.11797442903E+04  0.78066865718E+02 0.  0.
        254    2    1    2    0    0  0.98259523243E+03  0.52100697354E+03  0.67525808640E+02  0.14369846496E+04  0.90742685172E+03 0.  0.
         23    2    4    4    0    0 -0.15712237302E+03  0.13141977925E+03  0.51704676670E+02  0.22936839619E+03  0.89319029896E+02 0.  0.
         23    2    4    4    0    0  0.11397176054E+04  0.38958719429E+03  0.15821131971E+02  0.12076162535E+04  0.85745584548E+02 0.  0.
          1    1    3    3  502    0 -0.10250471369E+03 -0.77468467713E+02  0.59803627285E+02  0.14172174729E+03  0.00000000000E+00 0. -1.
         -2    1    3    3    0  502 -0.88009051874E+03 -0.44353850582E+03  0.32589119727E+03  0.10380225430E+04  0.00000000000E+00 0.  1.
         11    1    5    5    0    0  0.73701797717E+00  0.35025804210E+02 -0.61475570803E+01  0.35568843305E+02  0.00000000000E+00 0.  1.
        -11    1    5    5    0    0 -0.15785939099E+03  0.96393975038E+02  0.57852233750E+02  0.19379955289E+03  0.00000000000E+00 0. -1.
          3    1    6    6  503    0  0.10266027727E+04  0.32869556049E+03 -0.18658668327E+01  0.10779413277E+04  0.00000000000E+00 0. -1.
         -3    1    6    6    0  503  0.11311483271E+03  0.60891633802E+02  0.17686998803E+02  0.12967492576E+03  0.00000000000E+00 0.  1.
<mgrwt>
<rscale>  0 0.25771809E+04</rscale>
<asrwt>0</asrwt>
<pdfrwt beam="1">  1        1 0.23614997E+00 0.25771809E+04</pdfrwt>
<pdfrwt beam="2">  1       -2 0.16642372E+00 0.25771809E+04</pdfrwt>
<totfact> 0.10840755E+00</totfact>
</mgrwt>
</event>
<event>
12    4  0.4424320E-008  0.2756112E+04  0.7818608E-02  0.8317025E-01
          1   -1    0    0  501    0  0.00000000000E+00  0.00000000000E+00  0.14306417433E+04  0.14306417433E+04  0.00000000000E+00 0. -1.
         -2   -1    0    0    0  501 -0.00000000000E+00 -0.00000000000E+00 -0.13274035197E+04  0.13274035197E+04  0.00000000000E+00 0.  1.
        -24    2    1    2    0    0  0.51192443519E+03 -0.10320021274E+04  0.47566435672E+03  0.12489515645E+04  0.80798589693E+02 0.  0.
        254    2    1    2    0    0 -0.51192443519E+03  0.10320021274E+04 -0.37242613307E+03  0.15090936984E+04  0.90087043899E+03 0.  0.
         23    2    4    4    0    0 -0.84807989334E+02 -0.79496197389E+02 -0.26921434266E+03  0.31055465221E+03  0.10225355380E+03 0.  0.
         23    2    4    4    0    0 -0.42711644585E+03  0.11114983248E+04 -0.10321179042E+03  0.11985390462E+04  0.89365470966E+02 0.  0.
          1    1    3    3  502    0  0.39202510686E+03 -0.77531622811E+03  0.39509068164E+03  0.95440849991E+03  0.00000000000E+00 0. -1.
         -2    1    3    3    0  502  0.11989932833E+03 -0.25668589925E+03  0.80573675088E+02  0.29454306464E+03  0.00000000000E+00 0.  1.
         11    1    5    5    0    0 -0.76080514930E+02 -0.36959408820E+02 -0.80003545254E+02  0.11642512575E+03  0.00000000000E+00 0.  1.
        -11    1    5    5    0    0 -0.87274744042E+01 -0.42536788569E+02 -0.18921079740E+03  0.19412952646E+03  0.00000000000E+00 0. -1.
          4    1    6    6  503    0 -0.15006594479E+03  0.51403693175E+03 -0.49805397184E+02  0.53780510650E+03  0.00000000000E+00 0. -1.
         -4    1    6    6    0  503 -0.27705050106E+03  0.59746139301E+03 -0.53406393235E+02  0.66073393973E+03  0.00000000000E+00 0.  1.
<mgrwt>
<rscale>  0 0.27561124E+04</rscale>
<asrwt>0</asrwt>
<pdfrwt beam="1">  1        1 0.22009873E+00 0.27561124E+04</pdfrwt>
<pdfrwt beam="2">  1       -2 0.20421593E+00 0.27561124E+04</pdfrwt>
<totfact> 0.69637721E-01</totfact>
</mgrwt>
</event>
<event>
12    4  0.4424320E-008  0.1392487E+04  0.7818608E-02  0.8959275E-01
          1   -1    0    0  501    0  0.00000000000E+00  0.00000000000E+00  0.38319160054E+04  0.38319160054E+04  0.00000000000E+00 0. -1.
         -2   -1    0    0    0  501 -0.00000000000E+00 -0.00000000000E+00 -0.12650465341E+03  0.12650465341E+03  0.00000000000E+00 0.  1.
        -24    2    1    2    0    0 -0.32986440557E+03 -0.20372165515E+03  0.78706074741E+03  0.88086271911E+03  0.78367537742E+02 0.  0.
        254    2    1    2    0    0  0.32986440557E+03  0.20372165515E+03  0.29183506046E+04  0.30775579397E+04  0.89681635920E+03 0.  0.
         23    2    4    4    0    0  0.30779495173E+03  0.44710509702E+03  0.26363753064E+04  0.26931861488E+04  0.90200752386E+02 0.  0.
         23    2    4    4    0    0  0.22069453838E+02 -0.24338344186E+03  0.28197529818E+03  0.38437179091E+03  0.92244481143E+02 0.  0.
          3    1    3    3  502    0 -0.32201880986E+03 -0.19102665061E+03  0.71317500300E+03  0.80548487264E+03  0.00000000000E+00 0. -1.
         -4    1    3    3    0  502 -0.78455957131E+01 -0.12695004549E+02  0.73885744409E+02  0.75377846476E+02  0.00000000000E+00 0.  1.
         11    1    5    5    0    0  0.17671862332E+03  0.32619443745E+03  0.18525134300E+04  0.18892957130E+04  0.00000000000E+00 0. -1.
        -11    1    5    5    0    0  0.13107632842E+03  0.12091065956E+03  0.78386187645E+03  0.80389043583E+03  0.00000000000E+00 0.  1.
          1    1    6    6  503    0  0.47232341550E+02 -0.62293165410E+02  0.77542407376E+02  0.11010975201E+03  0.00000000000E+00 0. -1.
         -1    1    6    6    0  503 -0.25162887712E+02 -0.18109027645E+03  0.20443289080E+03  0.27426203891E+03  0.00000000000E+00 0.  1.
<mgrwt>
<rscale>  0 0.13924873E+04</rscale>
<asrwt>0</asrwt>
<pdfrwt beam="1">  1        1 0.58952545E+00 0.13924873E+04</pdfrwt>
<pdfrwt beam="2">  1       -2 0.19462257E-01 0.13924873E+04</pdfrwt>
<totfact> 0.26267920E+00</totfact>
</mgrwt>
</event>
<event>
12    4  0.4424320E-008  0.3028775E+04  0.7818608E-02  0.8235561E-01
          1   -1    0    0  501    0  0.00000000000E+00  0.00000000000E+00  0.11693717348E+04  0.11693717348E+04  0.00000000000E+00 0. -1.
         -2   -1    0    0    0  501 -0.00000000000E+00 -0.00000000000E+00 -0.19611982581E+04  0.19611982581E+04  0.00000000000E+00 0.  1.
        -24    2    1    2    0    0  0.54421908178E+03  0.84809816971E+03 -0.13390333923E+04  0.16777323608E+04  0.79564655685E+02 0.  0.
        254    2    1    2    0    0 -0.54421908178E+03 -0.84809816971E+03  0.54720686898E+03  0.14528376321E+04  0.89210812875E+03 0.  0.
         23    2    4    4    0    0 -0.77532788668E+02 -0.61194804927E+03 -0.82572534355E+02  0.62898873682E+03  0.91196816234E+02 0.  0.
         23    2    4    4    0    0 -0.46668629311E+03 -0.23615012044E+03  0.62977940333E+03  0.82384889529E+03  0.92422561366E+02 0.  0.
          3    1    3    3  502    0  0.14638867364E+03  0.16746561431E+03 -0.29995908196E+03  0.37342981482E+03  0.00000000000E+00 0. -1.
         -4    1    3    3    0  502  0.39783040814E+03  0.68063255540E+03 -0.10390743103E+04  0.13043025460E+04  0.00000000000E+00 0.  1.
         11    1    5    5    0    0  0.13721494034E+02 -0.19895170375E+02  0.73687824790E+00  0.24179333992E+02  0.00000000000E+00 0. -1.
        -11    1    5    5    0    0 -0.91254282701E+02 -0.59205287889E+03 -0.83309412603E+02  0.60480940282E+03  0.00000000000E+00 0.  1.
          1    1    6    6  503    0 -0.10523391174E+03 -0.90934994811E+02  0.20247622804E+03  0.24564195973E+03  0.00000000000E+00 0. -1.
         -1    1    6    6    0  503 -0.36145238137E+03 -0.14521512563E+03  0.42730317529E+03  0.57820693556E+03  0.00000000000E+00 0.  1.
<mgrwt>
<rscale>  0 0.30287752E+04</rscale>
<asrwt>0</asrwt>
<pdfrwt beam="1">  1        1 0.17990334E+00 0.30287752E+04</pdfrwt>
<pdfrwt beam="2">  1       -2 0.30172281E+00 0.30287752E+04</pdfrwt>
<totfact> 0.26012798E-01</totfact>
</mgrwt>
</event>
<event>
12    4  0.4424320E-008  0.1639728E+04  0.7818608E-02  0.8796507E-01
          1   -1    0    0  501    0  0.00000000000E+00  0.00000000000E+00  0.26671424365E+04  0.26671424365E+04  0.00000000000E+00 0. -1.
         -2   -1    0    0    0  501 -0.00000000000E+00 -0.00000000000E+00 -0.25202133919E+03  0.25202133919E+03  0.00000000000E+00 0.  1.
        -24    2    1    2    0    0 -0.32269707014E+03 -0.14399726585E+03  0.53699003423E+02  0.36617888106E+03  0.79591320590E+02 0.  0.
        254    2    1    2    0    0  0.32269707014E+03  0.14399726585E+03  0.23614220939E+04  0.25529848946E+04  0.90363098390E+03 0.  0.
         23    2    4    4    0    0 -0.14750312401E+03  0.35457027535E+03  0.14434455701E+04  0.14963834120E+04  0.90282612059E+02 0.  0.
         23    2    4    4    0    0  0.47020019415E+03 -0.21057300950E+03  0.91797652379E+03  0.10566014827E+04  0.91085564225E+02 0.  0.
          1    1    3    3  502    0 -0.14163904471E+02 -0.55829971305E+01  0.21702279266E+02  0.26509903285E+02  0.00000000000E+00 0. -1.
         -2    1    3    3    0  502 -0.30853316567E+03 -0.13841426872E+03  0.31996724156E+02  0.33966897777E+03  0.00000000000E+00 0.  1.
         11    1    5    5    0    0 -0.15903506898E+03  0.34212404033E+03  0.13696718253E+04  0.14206836105E+04  0.00000000000E+00 0.  1.
        -11    1    5    5    0    0  0.11531944968E+02  0.12446235023E+02  0.73773744821E+02  0.75699801492E+02  0.00000000000E+00 0. -1.
          4    1    6    6  503    0  0.13905633619E+03 -0.35833792055E+02  0.32497414135E+03  0.35528709212E+03  0.00000000000E+00 0. -1.
         -4    1    6    6    0  503  0.33114385797E+03 -0.17473921745E+03  0.59300238244E+03  0.70131439053E+03  0.00000000000E+00 0.  1.
<mgrwt>
<rscale>  0 0.16397278E+04</rscale>
<asrwt>0</asrwt>
<pdfrwt beam="1">  1        1 0.41032959E+00 0.16397278E+04</pdfrwt>
<pdfrwt beam="2">  1       -2 0.38772515E-01 0.16397278E+04</pdfrwt>
<totfact> 0.54792783E+00</totfact>
</mgrwt>
</event>
<event>
12    4  0.4424320E-008  0.1672397E+04  0.7818608E-02  0.8777266E-01
         -2   -1    0    0    0  501 -0.00000000000E+00  0.00000000000E+00  0.15105626396E+04  0.15105626396E+04  0.00000000000E+00 0.  1.
          1   -1    0    0  501    0  0.00000000000E+00 -0.00000000000E+00 -0.46289222020E+03  0.46289222020E+03  0.00000000000E+00 0. -1.
        -24    2    1    2    0    0  0.96987661127E+02  0.31821195959E+03 -0.20010089623E+03  0.39682854213E+03  0.82262175627E+02 0.  0.
        254    2    1    2    0    0 -0.96987661127E+02 -0.31821195959E+03  0.12477713156E+04  0.15766263177E+04  0.90451745800E+03 0.  0.
         23    2    4    4    0    0 -0.17662426681E+03 -0.57924044396E+03  0.55482526189E+03  0.82630566708E+03  0.90743378168E+02 0.  0.
         23    2    4    4    0    0  0.79636605681E+02  0.26102848437E+03  0.69294605375E+03  0.75032065060E+03  0.91263282238E+02 0.  0.
          3    1    3    3  502    0  0.35459167479E+02  0.24211007074E+03 -0.13800521503E+03  0.28092717613E+03  0.00000000000E+00 0. -1.
         -4    1    3    3    0  502  0.61528493648E+02  0.76101888851E+02 -0.62095681194E+02  0.11590136600E+03  0.00000000000E+00 0.  1.
         11    1    5    5    0    0 -0.17868565151E+02 -0.44548279150E+02  0.82388554383E+02  0.95350451961E+02  0.00000000000E+00 0. -1.
        -11    1    5    5    0    0 -0.15875570166E+03 -0.53469216481E+03  0.47243670750E+03  0.73095521512E+03  0.00000000000E+00 0.  1.
          3    1    6    6  503    0  0.44443543996E+02  0.77562783820E+02  0.13485088881E+03  0.16178991393E+03  0.00000000000E+00 0. -1.
         -3    1    6    6    0  503  0.35193061685E+02  0.18346570055E+03  0.55809516494E+03  0.58853073667E+03  0.00000000000E+00 0.  1.
<mgrwt>
<rscale>  0 0.16723967E+04</rscale>
<asrwt>0</asrwt>
<pdfrwt beam="1">  1        1 0.71214189E-01 0.16723967E+04</pdfrwt>
<pdfrwt beam="2">  1       -2 0.23239425E+00 0.16723967E+04</pdfrwt>
<totfact> 0.33942200E+00</totfact>
</mgrwt>
</event>
<event>
12    4  0.4424320E-008  0.1411210E+04  0.7818608E-02  0.8945744E-01
          3   -1    0    0  501    0  0.00000000000E+00  0.00000000000E+00  0.11662707532E+04  0.11662707532E+04  0.00000000000E+00 0. -1.
         -4   -1    0    0    0  501 -0.00000000000E+00 -0.00000000000E+00 -0.42689783953E+03  0.42689783953E+03  0.00000000000E+00 0.  1.
        -24    2    1    2    0    0 -0.19914490430E+03 -0.12018718184E+03  0.60157083297E+03  0.65016916368E+03  0.82029401639E+02 0.  0.
        254    2    1    2    0    0  0.19914490430E+03  0.12018718184E+03  0.13780208072E+03  0.94299942908E+03  0.90341289464E+03 0.  0.
         23    2    4    4    0    0  0.17669533905E+03 -0.35166278908E+03 -0.86186651398E+02  0.41295552978E+03  0.90643094785E+02 0.  0.
         23    2    4    4    0    0  0.22449565247E+02  0.47184997092E+03  0.22398873212E+03  0.53004389930E+03  0.87345320597E+02 0.  0.
          1    1    3    3  502    0 -0.12732962510E+03 -0.80935584386E+02  0.48360101266E+03  0.50658991471E+03  0.00000000000E+00 0. -1.
         -2    1    3    3    0  502 -0.71815279194E+02 -0.39251597455E+02  0.11796982032E+03  0.14357924897E+03  0.00000000000E+00 0.  1.
         11    1    5    5    0    0  0.53090821207E+02 -0.13115839180E+03 -0.74475881756E+02  0.15989939337E+03  0.00000000000E+00 0. -1.
        -11    1    5    5    0    0  0.12360451784E+03 -0.22050439728E+03 -0.11710769642E+02  0.25305613641E+03  0.00000000000E+00 0.  1.
          2    1    6    6  503    0 -0.24210959774E+02  0.45967423550E+02  0.25080472006E+02  0.57690594355E+02  0.00000000000E+00 0.  1.
         -2    1    6    6    0  503  0.46660525021E+02  0.42588254737E+03  0.19890826011E+03  0.47235330494E+03  0.00000000000E+00 0. -1.
<mgrwt>
<rscale>  0 0.14112101E+04</rscale>
<asrwt>0</asrwt>
<pdfrwt beam="1">  1        3 0.17942627E+00 0.14112101E+04</pdfrwt>
<pdfrwt beam="2">  1       -4 0.65676591E-01 0.14112101E+04</pdfrwt>
<totfact> 0.96203015E-01</totfact>
</mgrwt>
</event>
<event>
12    4  0.4424320E-008  0.1204682E+04  0.7818608E-02  0.9108768E-01
          1   -1    0    0  501    0  0.00000000000E+00  0.00000000000E+00  0.23903615559E+04  0.23903615559E+04  0.00000000000E+00 0. -1.
         -2   -1    0    0    0  501 -0.00000000000E+00 -0.00000000000E+00 -0.15178230039E+03  0.15178230039E+03  0.00000000000E+00 0.  1.
        -24    2    1    2    0    0 -0.27610847833E+02  0.21027520853E+03  0.84632720868E+03  0.87608346674E+03  0.79211579331E+02 0.  0.
        254    2    1    2    0    0  0.27610847833E+02 -0.21027520853E+03  0.13922520469E+04  0.16660603896E+04  0.89017607109E+03 0.  0.
         23    2    4    4    0    0  0.33992788439E+03  0.39013818544E+02  0.11176529376E+04  0.11729347319E+04  0.97748410517E+02 0.  0.
         23    2    4    4    0    0 -0.31231703656E+03 -0.24928902707E+03  0.27459910931E+03  0.49312565773E+03  0.89896012924E+02 0.  0.
          3    1    3    3  502    0 -0.41570324481E+02  0.19039670342E+03  0.80399987749E+03  0.82728157211E+03  0.00000000000E+00 0. -1.
         -2    1    3    3    0  502  0.13959476648E+02  0.19878505104E+02  0.42327331193E+02  0.48801894629E+02  0.00000000000E+00 0.  1.
         11    1    5    5    0    0  0.22508747697E+03  0.69285331327E+02  0.68928618812E+03  0.72840941685E+03  0.00000000000E+00 0.  1.
        -11    1    5    5    0    0  0.11484040742E+03 -0.30271512782E+02  0.42836674944E+03  0.44452531502E+03  0.00000000000E+00 0. -1.
          4    1    6    6  503    0 -0.31495721467E+03 -0.25357601575E+03  0.26932443742E+03  0.48583381462E+03  0.00000000000E+00 0. -1.
         -4    1    6    6    0  503  0.26401781191E+01  0.42869886772E+01  0.52746718849E+01  0.72918431081E+01  0.00000000000E+00 0.  1.
<mgrwt>
<rscale>  0 0.12046818E+04</rscale>
<asrwt>0</asrwt>
<pdfrwt beam="1">  1        1 0.36774791E+00 0.12046818E+04</pdfrwt>
<pdfrwt beam="2">  1       -2 0.23351125E-01 0.12046818E+04</pdfrwt>
<totfact> 0.22856133E+01</totfact>
</mgrwt>
</event>
<event>
12    4  0.4424320E-008  0.1133685E+04  0.7818608E-02  0.9172968E-01
         -2   -1    0    0    0  501 -0.00000000000E+00  0.00000000000E+00  0.74512995968E+03  0.74512995968E+03  0.00000000000E+00 0.  1.
          1   -1    0    0  501    0  0.00000000000E+00 -0.00000000000E+00 -0.43121403785E+03  0.43121403785E+03  0.00000000000E+00 0. -1.
        -24    2    1    2    0    0 -0.13380353504E+02  0.74993879760E+02  0.24250797175E+03  0.26631853821E+03  0.79450182969E+02 0.  0.
        254    2    1    2    0    0  0.13380353504E+02 -0.74993879760E+02  0.71407950088E+02  0.91002545932E+03  0.90401555595E+03 0.  0.
         23    2    4    4    0    0 -0.41965925017E+03 -0.37399276871E+02 -0.83317906526E+02  0.43938750485E+03  0.92773453668E+02 0.  0.
         23    2    4    4    0    0  0.43303960368E+03 -0.37594602888E+02  0.15472585661E+03  0.47063795447E+03  0.92861945709E+02 0.  0.
          1    1    3    3  502    0  0.26966605554E+02  0.43809654142E+02  0.72993798322E+02  0.89300493866E+02  0.00000000000E+00 0. -1.
         -2    1    3    3    0  502 -0.40346959058E+02  0.31184225618E+02  0.16951417343E+03  0.17701804435E+03  0.00000000000E+00 0.  1.
         11    1    5    5    0    0 -0.12629685745E+03  0.28141528770E+02 -0.41570049398E+02  0.13590772917E+03  0.00000000000E+00 0.  1.
        -11    1    5    5    0    0 -0.29336239273E+03 -0.65540805641E+02 -0.41747857127E+02  0.30347977568E+03  0.00000000000E+00 0. -1.
          3    1    6    6  503    0  0.33128801758E+03 -0.55946022985E+02  0.87074436139E+02  0.34707875981E+03  0.00000000000E+00 0. -1.
         -3    1    6    6    0  503  0.10175158609E+03  0.18351420097E+02  0.67651420474E+02  0.12355919466E+03  0.00000000000E+00 0.  1.
<mgrwt>
<rscale>  0 0.11336851E+04</rscale>
<asrwt>0</asrwt>
<pdfrwt beam="1">  1        1 0.66340621E-01 0.11336851E+04</pdfrwt>
<pdfrwt beam="2">  1       -2 0.11463538E+00 0.11336851E+04</pdfrwt>
<totfact> 0.28002618E+01</totfact>
</mgrwt>
</event>
<event>
12    4  0.4424320E-008  0.1283949E+04  0.7818608E-02  0.9042392E-01
          1   -1    0    0  501    0  0.00000000000E+00  0.00000000000E+00  0.29130893867E+03  0.29130893867E+03  0.00000000000E+00 0. -1.
         -2   -1    0    0    0  501 -0.00000000000E+00 -0.00000000000E+00 -0.14147563019E+04  0.14147563019E+04  0.00000000000E+00 0.  1.
        -24    2    1    2    0    0 -0.13900963506E+03  0.27913037136E+03 -0.21135663863E+03  0.38613982133E+03  0.84822697838E+02 0.  0.
        254    2    1    2    0    0  0.13900963506E+03 -0.27913037136E+03 -0.91209072457E+03  0.13199254192E+04  0.90169627899E+03 0.  0.
         23    2    4    4    0    0  0.20962442554E+03  0.75891183312E+02 -0.91602816191E+03  0.94714972495E+03  0.91011738719E+02 0.  0.
         23    2    4    4    0    0 -0.70614790483E+02 -0.35502155468E+03  0.39374373408E+01  0.37277569424E+03  0.88991358487E+02 0.  0.
          1    1    3    3  502    0 -0.96128505869E+02  0.19064379188E+03 -0.94692353812E+02  0.23356452405E+03  0.00000000000E+00 0. -1.
         -2    1    3    3    0  502 -0.42881129187E+02  0.88486579485E+02 -0.11666428482E+03  0.15257529728E+03  0.00000000000E+00 0.  1.
         11    1    5    5    0    0  0.31035930380E+02 -0.16776047482E+02 -0.21282597243E+03  0.21573029293E+03  0.00000000000E+00 0.  1.
        -11    1    5    5    0    0  0.17858849516E+03  0.92667230794E+02 -0.70320218947E+03  0.73141943203E+03  0.00000000000E+00 0. -1.
          3    1    6    6  503    0 -0.83278928640E+02 -0.25855006316E+03 -0.20659251413E+02  0.27241571134E+03  0.00000000000E+00 0. -1.
         -3    1    6    6    0  503  0.12664138157E+02 -0.96471491518E+02  0.24596688754E+02  0.10035998290E+03  0.00000000000E+00 0.  1.
<mgrwt>
<rscale>  0 0.12839488E+04</rscale>
<asrwt>0</asrwt>
<pdfrwt beam="1">  1        1 0.44816760E-01 0.12839488E+04</pdfrwt>
<pdfrwt beam="2">  1       -2 0.21765482E+00 0.12839488E+04</pdfrwt>
<totfact> 0.79999763E+00</totfact>
</mgrwt>
</event>
<event>
12    4  0.4424320E-008  0.1537551E+04  0.7818608E-02  0.8859859E-01
          1   -1    0    0  501    0  0.00000000000E+00  0.00000000000E+00  0.10059891712E+04  0.10059891712E+04  0.00000000000E+00 0. -1.
         -2   -1    0    0    0  501 -0.00000000000E+00 -0.00000000000E+00 -0.58749725284E+03  0.58749725284E+03  0.00000000000E+00 0.  1.
        -24    2    1    2    0    0 -0.35350921052E+03 -0.76336800432E+02 -0.22313900015E+03  0.43143345837E+03  0.74483196680E+02 0.  0.
        254    2    1    2    0    0  0.35350921052E+03  0.76336800432E+02  0.64163091854E+03  0.11620529657E+04  0.89882189027E+03 0.  0.
         23    2    4    4    0    0  0.44570353918E+03  0.40791476906E+03  0.36882599584E+03  0.71379016845E+03  0.91747946638E+02 0.  0.
         23    2    4    4    0    0 -0.92194328661E+02 -0.33157796863E+03  0.27280492269E+03  0.44826279724E+03  0.89851355157E+02 0.  0.
          3    1    3    3  502    0 -0.16116062694E+03  0.13807708898E+01 -0.85159117600E+02  0.18228200546E+03  0.00000000000E+00 0. -1.
         -4    1    3    3    0  502 -0.19234858359E+03 -0.77717571322E+02 -0.13797988255E+03  0.24915145291E+03  0.00000000000E+00 0.  1.
         11    1    5    5    0    0  0.43324287860E+03  0.40668889866E+03  0.34561934210E+03  0.68742125497E+03  0.00000000000E+00 0. -1.
        -11    1    5    5    0    0  0.12460660581E+02  0.12258704041E+01  0.23206653743E+02  0.26368913484E+02  0.00000000000E+00 0.  1.
          2    1    6    6  503    0 -0.43596919342E+02 -0.28319102506E+03  0.23001318103E+03  0.36742878425E+03  0.00000000000E+00 0. -1.
         -2    1    6    6    0  503 -0.48597409319E+02 -0.48386943571E+02  0.42791741666E+02  0.80834012986E+02  0.00000000000E+00 0.  1.
<mgrwt>
<rscale>  0 0.15375511E+04</rscale>
<asrwt>0</asrwt>
<pdfrwt beam="1">  1        1 0.15476756E+00 0.15375511E+04</pdfrwt>
<pdfrwt beam="2">  1       -2 0.90384193E-01 0.15375511E+04</pdfrwt>
<totfact> 0.13244206E+01</totfact>
</mgrwt>
</event>
<event>
12    4  0.4424320E-008  0.4375964E+04  0.7818608E-02  0.7932719E-01
          1   -1    0    0  501    0  0.00000000000E+00  0.00000000000E+00  0.33419625966E+04  0.33419625966E+04  0.00000000000E+00 0. -1.
         -2   -1    0    0    0  501 -0.00000000000E+00 -0.00000000000E+00 -0.14324715255E+04  0.14324715255E+04  0.00000000000E+00 0.  1.
        -24    2    1    2    0    0  0.10375496454E+03  0.22589762124E+03 -0.13537819569E+04  0.13783707298E+04  0.73385651972E+02 0.  0.
        254    2    1    2    0    0 -0.10375496454E+03 -0.22589762124E+03  0.32632730280E+04  0.33960633923E+04  0.90691834319E+03 0.  0.
         23    2    4    4    0    0 -0.34668951933E+03  0.22294096886E+03  0.13906244519E+04  0.14529591514E+04  0.85776633883E+02 0.  0.
         23    2    4    4    0    0  0.24293455479E+03 -0.44883859010E+03  0.18726485761E+04  0.19431042409E+04  0.91477448777E+02 0.  0.
          1    1    3    3  502    0  0.10158680098E+02  0.80861624496E+02 -0.57071142146E+03  0.57650093467E+03  0.00000000000E+00 0. -1.
         -2    1    3    3    0  502  0.93596284444E+02  0.14503599674E+03 -0.78307053546E+03  0.80186979511E+03  0.00000000000E+00 0.  1.
         11    1    5    5    0    0 -0.33986925039E+03  0.20629005404E+03  0.12637049797E+04  0.13247705346E+04  0.00000000000E+00 0.  1.
        -11    1    5    5    0    0 -0.68202689420E+01  0.16650914816E+02  0.12691947228E+03  0.12818861680E+03  0.00000000000E+00 0. -1.
          1    1    6    6  503    0  0.26290820409E+02 -0.49494786587E+02  0.11863929288E+03  0.13121060533E+03  0.00000000000E+00 0. -1.
         -1    1    6    6    0  503  0.21664373438E+03 -0.39934380351E+03  0.17540092832E+04  0.18118936356E+04  0.00000000000E+00 0.  1.
<mgrwt>
<rscale>  0 0.43759645E+04</rscale>
<asrwt>0</asrwt>
<pdfrwt beam="1">  1        1 0.51414809E+00 0.43759645E+04</pdfrwt>
<pdfrwt beam="2">  1       -2 0.22038024E+00 0.43759645E+04</pdfrwt>
<totfact> 0.21774269E-02</totfact>
</mgrwt>
</event>
<event>
12    4  0.4424320E-008  0.1277493E+04  0.7818608E-02  0.9047606E-01
          1   -1    0    0  501    0  0.00000000000E+00  0.00000000000E+00  0.81819734227E+03  0.81819734227E+03  0.00000000000E+00 0. -1.
         -2   -1    0    0    0  501 -0.00000000000E+00 -0.00000000000E+00 -0.49865388188E+03  0.49865388188E+03  0.00000000000E+00 0.  1.
        -24    2    1    2    0    0  0.23287124712E+03 -0.22422530788E+03  0.54414792317E+02  0.33708382042E+03  0.78476276268E+02 0.  0.
        254    2    1    2    0    0 -0.23287124712E+03  0.22422530788E+03  0.26512866806E+03  0.97976740373E+03  0.88608405265E+03 0.  0.
         23    2    4    4    0    0  0.17184844908E+03  0.43250616551E+03  0.18441210244E+03  0.50875656272E+03  0.90730060778E+02 0.  0.
         23    2    4    4    0    0 -0.40471969620E+03 -0.20828085763E+03  0.80716565627E+02  0.47101084101E+03  0.90316666402E+02 0.  0.
          3    1    3    3  502    0  0.12425062229E+03 -0.13991650233E+03  0.67585494281E+02  0.19895387355E+03  0.00000000000E+00 0. -1.
         -4    1    3    3    0  502  0.10862062483E+03 -0.84308805552E+02 -0.13170701965E+02  0.13812994687E+03  0.00000000000E+00 0.  1.
         11    1    5    5    0    0  0.17603967473E+03  0.37414799654E+03  0.14486054434E+03  0.43813384679E+03  0.00000000000E+00 0. -1.
        -11    1    5    5    0    0 -0.41912256451E+01  0.58358168970E+02  0.39551558097E+02  0.70622715933E+02  0.00000000000E+00 0.  1.
          3    1    6    6  503    0 -0.16117777776E+03 -0.12986784963E+03  0.52960702682E+02  0.21365572878E+03  0.00000000000E+00 0. -1.
         -3    1    6    6    0  503 -0.24354191844E+03 -0.78413008000E+02  0.27755862945E+02  0.25735511223E+03  0.00000000000E+00 0.  1.
<mgrwt>
<rscale>  0 0.12774933E+04</rscale>
<asrwt>0</asrwt>
<pdfrwt beam="1">  1        1 0.12587651E+00 0.12774933E+04</pdfrwt>
<pdfrwt beam="2">  1       -2 0.76715982E-01 0.12774933E+04</pdfrwt>
<totfact> 0.27920020E+01</totfact>
</mgrwt>
</event>
<event>
12    4  0.4424320E-008  0.1276968E+04  0.7818608E-02  0.9048032E-01
         -2   -1    0    0    0  501 -0.00000000000E+00  0.00000000000E+00  0.78276444054E+03  0.78276444054E+03  0.00000000000E+00 0.  1.
          1   -1    0    0  501    0  0.00000000000E+00 -0.00000000000E+00 -0.52079753004E+03  0.52079753004E+03  0.00000000000E+00 0. -1.
        -24    2    1    2    0    0  0.16298037517E+02  0.20467331223E+03  0.24899464690E+03  0.33114979861E+03  0.74196119610E+02 0.  0.
        254    2    1    2    0    0 -0.16298037517E+02 -0.20467331223E+03  0.12972263601E+02  0.97241217198E+03  0.95040010618E+03 0.  0.
         23    2    4    4    0    0 -0.45715676687E+03 -0.10853027985E+03  0.13432477093E+03  0.49695661695E+03  0.90286233197E+02 0.  0.
         23    2    4    4    0    0  0.44085872936E+03 -0.96143032380E+02 -0.12135250733E+03  0.47545555503E+03  0.87929812062E+02 0.  0.
          1    1    3    3  502    0  0.12987032244E+02  0.82102735311E+01  0.46585285785E+02  0.49053648688E+02  0.00000000000E+00 0. -1.
         -2    1    3    3    0  502  0.33110052727E+01  0.19646303870E+03  0.20240936111E+03  0.28209614992E+03  0.00000000000E+00 0.  1.
         11    1    5    5    0    0 -0.14716267220E+02 -0.71670818102E+00 -0.11609206775E+02  0.18757821661E+02  0.00000000000E+00 0.  1.
        -11    1    5    5    0    0 -0.44244049965E+03 -0.10781357167E+03  0.14593397770E+03  0.47819879529E+03  0.00000000000E+00 0. -1.
          4    1    6    6  503    0  0.17352316776E+03 -0.33812176203E+02 -0.92258967263E+02  0.19941231168E+03  0.00000000000E+00 0. -1.
         -4    1    6    6    0  503  0.26733556159E+03 -0.62330856177E+02 -0.29093540063E+02  0.27604324335E+03  0.00000000000E+00 0.  1.
<mgrwt>
<rscale>  0 0.12769680E+04</rscale>
<asrwt>0</asrwt>
<pdfrwt beam="1">  1        1 0.80122697E-01 0.12769680E+04</pdfrwt>
<pdfrwt beam="2">  1       -2 0.12042530E+00 0.12769680E+04</pdfrwt>
<totfact> 0.18969855E+01</totfact>
</mgrwt>
</event>
<event>
12    4  0.4424320E-008  0.2495362E+04  0.7818608E-02  0.8404640E-01
         -2   -1    0    0    0  501 -0.00000000000E+00  0.00000000000E+00  0.50843653927E+03  0.50843653927E+03  0.00000000000E+00 0.  1.
          1   -1    0    0  501    0  0.00000000000E+00 -0.00000000000E+00 -0.30617553907E+04  0.30617553907E+04  0.00000000000E+00 0. -1.
        -24    2    1    2    0    0 -0.95398663929E+03  0.99558006671E+02 -0.18393761034E+04  0.20760050073E+04  0.80560759473E+02 0.  0.
        254    2    1    2    0    0  0.95398663929E+03 -0.99558006671E+02 -0.71394274806E+03  0.14941869227E+04  0.89603460192E+03 0.  0.
         23    2    4    4    0    0  0.27579054196E+03  0.27085092058E+03  0.50480764266E+02  0.40256684876E+03  0.10045454665E+03 0.  0.
         23    2    4    4    0    0  0.67819609732E+03 -0.37040892725E+03 -0.76442351233E+03  0.10916200739E+04  0.10068942265E+03 0.  0.
          3    1    3    3  502    0 -0.72799560957E+03  0.10245325687E+03 -0.13585814566E+04  0.15447387648E+04  0.00000000000E+00 0. -1.
         -4    1    3    3    0  502 -0.22599102971E+03 -0.28952502034E+01 -0.48079464679E+03  0.53126624245E+03  0.00000000000E+00 0.  1.
         11    1    5    5    0    0  0.10570205820E+03  0.17419005107E+03  0.25359917968E+02  0.20532468054E+03  0.00000000000E+00 0. -1.
        -11    1    5    5    0    0  0.17008848377E+03  0.96660869505E+02  0.25120846297E+02  0.19724216821E+03  0.00000000000E+00 0.  1.
          4    1    6    6  503    0  0.49913158727E+03 -0.28305582912E+03 -0.50396495458E+03  0.76369733484E+03  0.00000000000E+00 0. -1.
         -4    1    6    6    0  503  0.17906451006E+03 -0.87353098129E+02 -0.26045855775E+03  0.32792273911E+03  0.00000000000E+00 0.  1.
<mgrwt>
<rscale>  0 0.24953624E+04</rscale>
<asrwt>0</asrwt>
<pdfrwt beam="1">  1        1 0.47103928E+00 0.24953624E+04</pdfrwt>
<pdfrwt beam="2">  1       -2 0.78221008E-01 0.24953624E+04</pdfrwt>
<totfact> 0.61196631E-01</totfact>
</mgrwt>
</event>
<event>
12    4  0.4424320E-008  0.1413752E+04  0.7818608E-02  0.8943924E-01
         -2   -1    0    0    0  501 -0.00000000000E+00  0.00000000000E+00  0.21775929476E+03  0.21775929476E+03  0.00000000000E+00 0.  1.
          1   -1    0    0  501    0  0.00000000000E+00 -0.00000000000E+00 -0.22946146543E+04  0.22946146543E+04  0.00000000000E+00 0. -1.
        -24    2    1    2    0    0 -0.24571545754E+03 -0.24893222726E+03 -0.22851827433E+03  0.42431895726E+03  0.74044823864E+02 0.  0.
        254    2    1    2    0    0  0.24571545754E+03  0.24893222726E+03 -0.18483370852E+04  0.20880549918E+04  0.90624518116E+03 0.  0.
         23    2    4    4    0    0  0.86642440058E+02 -0.21850672368E+03 -0.13719925236E+04  0.13951422925E+04  0.93842584828E+02 0.  0.
         23    2    4    4    0    0  0.15907301749E+03  0.46743895094E+03 -0.47634456160E+03  0.69291269931E+03  0.97059104466E+02 0.  0.
          3    1    3    3  502    0 -0.92441586363E+01 -0.13250538923E+02 -0.34694912698E+02  0.38272290469E+02  0.00000000000E+00 0. -1.
         -4    1    3    3    0  502 -0.23647129891E+03 -0.23568168833E+03 -0.19382336164E+03  0.38604666679E+03  0.00000000000E+00 0.  1.
         11    1    5    5    0    0  0.10687213806E+03 -0.17754960215E+03 -0.11440303419E+04  0.11626482436E+04  0.00000000000E+00 0.  1.
        -11    1    5    5    0    0 -0.20229698004E+02 -0.40957121530E+02 -0.22796218174E+03  0.23249404894E+03  0.00000000000E+00 0. -1.
          1    1    6    6  503    0  0.54831483933E+02  0.54458730814E+02 -0.72935074455E+02  0.10626274078E+03  0.00000000000E+00 0. -1.
         -1    1    6    6    0  503  0.10424153355E+03  0.41298022012E+03 -0.40340948715E+03  0.58664995853E+03  0.00000000000E+00 0.  1.
<mgrwt>
<rscale>  0 0.14137520E+04</rscale>
<asrwt>0</asrwt>
<pdfrwt beam="1">  1        1 0.35301765E+00 0.14137520E+04</pdfrwt>
<pdfrwt beam="2">  1       -2 0.33501429E-01 0.14137520E+04</pdfrwt>
<totfact> 0.13397145E+01</totfact>
</mgrwt>
</event>
<event>
12    4  0.4424320E-008  0.1604974E+04  0.7818608E-02  0.8817498E-01
          1   -1    0    0  501    0  0.00000000000E+00  0.00000000000E+00  0.13333346689E+04  0.13333346689E+04  0.00000000000E+00 0. -1.
         -2   -1    0    0    0  501 -0.00000000000E+00 -0.00000000000E+00 -0.48298858701E+03  0.48298858701E+03  0.00000000000E+00 0.  1.
        -24    2    1    2    0    0 -0.48785016351E+03 -0.13079614891E+03  0.19079319671E+03  0.54609074372E+03  0.81900194526E+02 0.  0.
        254    2    1    2    0    0  0.48785016351E+03  0.13079614891E+03  0.65955288513E+03  0.12702325121E+04  0.96092414478E+03 0.  0.
         23    2    4    4    0    0  0.34391442660E+03  0.11344993524E+03  0.90022432627E+03  0.97507188930E+03  0.95986098342E+02 0.  0.
         23    2    4    4    0    0  0.14393573690E+03  0.17346213678E+02 -0.24067144114E+03  0.29516062284E+03  0.90435961942E+02 0.  0.
          1    1    3    3  502    0 -0.73179571427E+02 -0.19729110096E+02 -0.12566651599E+01  0.75802814372E+02  0.00000000000E+00 0. -1.
         -4    1    3    3    0  502 -0.41467059208E+03 -0.11106703882E+03  0.19204986187E+03  0.47028792935E+03  0.00000000000E+00 0.  1.
         11    1    5    5    0    0  0.31646167476E+03  0.73932402798E+02  0.81119683408E+03  0.87387315750E+03  0.00000000000E+00 0.  1.
        -11    1    5    5    0    0  0.27452751845E+02  0.39517532438E+02  0.89027492191E+02  0.10119873181E+03  0.00000000000E+00 0. -1.
          1    1    6    6  503    0  0.64979310166E+02 -0.25318519815E+02 -0.54574041926E+02  0.88553171866E+02  0.00000000000E+00 0. -1.
         -1    1    6    6    0  503  0.78956426737E+02  0.42664733493E+02 -0.18609739921E+03  0.20660745098E+03  0.00000000000E+00 0.  1.
<mgrwt>
<rscale>  0 0.16049741E+04</rscale>
<asrwt>0</asrwt>
<pdfrwt beam="1">  1        1 0.20512841E+00 0.16049741E+04</pdfrwt>
<pdfrwt beam="2">  1       -2 0.74305937E-01 0.16049741E+04</pdfrwt>
<totfact> 0.11745714E+01</totfact>
</mgrwt>
</event>
<event>
12    4  0.4424320E-008  0.1970747E+04  0.7818608E-02  0.8620421E-01
         -2   -1    0    0    0  501 -0.00000000000E+00  0.00000000000E+00  0.11719458282E+04  0.11719458282E+04  0.00000000000E+00 0.  1.
          1   -1    0    0  501    0  0.00000000000E+00 -0.00000000000E+00 -0.82850335665E+03  0.82850335665E+03  0.00000000000E+00 0. -1.
        -24    2    1    2    0    0 -0.62955158689E+03  0.25106913486E+03 -0.10854824942E+03  0.69125001443E+03  0.81688120123E+02 0.  0.
        254    2    1    2    0    0  0.62955158689E+03 -0.25106913486E+03  0.45199072100E+03  0.13091991704E+04  0.10248589879E+04 0.  0.
         23    2    4    4    0    0  0.41955697883E+03 -0.39055973537E+03 -0.19203423841E+03  0.61131489087E+03  0.90905344735E+02 0.  0.
         23    2    4    4    0    0  0.20999460806E+03  0.13949060052E+03  0.64402495941E+03  0.69788427958E+03  0.93375351632E+02 0.  0.
          1    1    3    3  502    0 -0.57895547927E+03  0.22693451490E+03 -0.12177220789E+03  0.63365384213E+03  0.00000000000E+00 0. -1.
         -2    1    3    3    0  502 -0.50596107621E+02  0.24134619951E+02  0.13223958469E+02  0.57596172305E+02  0.00000000000E+00 0.  1.
         11    1    5    5    0    0  0.20658448772E+02 -0.85353826113E+00 -0.17171473448E+02  0.26876747080E+02  0.00000000000E+00 0.  1.
        -11    1    5    5    0    0  0.39889853005E+03 -0.38970619711E+03 -0.17486276496E+03  0.58443814379E+03  0.00000000000E+00 0. -1.
          2    1    6    6  503    0  0.14749103496E+03  0.14295885780E+03  0.46924742964E+03  0.51223431224E+03  0.00000000000E+00 0. -1.
         -2    1    6    6    0  503  0.62503573108E+02 -0.34682572779E+01  0.17477752977E+03  0.18564996734E+03  0.00000000000E+00 0.  1.
<mgrwt>
<rscale>  0 0.19707471E+04</rscale>
<asrwt>0</asrwt>
<pdfrwt beam="1">  1        1 0.12746205E+00 0.19707471E+04</pdfrwt>
<pdfrwt beam="2">  1       -2 0.18029936E+00 0.19707471E+04</pdfrwt>
<totfact> 0.30705981E+00</totfact>
</mgrwt>
</event>
<event>
12    4  0.4424320E-008  0.1207200E+04  0.7818608E-02  0.9106577E-01
         -2   -1    0    0    0  501 -0.00000000000E+00  0.00000000000E+00  0.28992935042E+03  0.28992935042E+03  0.00000000000E+00 0.  1.
          1   -1    0    0  501    0  0.00000000000E+00 -0.00000000000E+00 -0.12566275411E+04  0.12566275411E+04  0.00000000000E+00 0. -1.
        -24    2    1    2    0    0 -0.11617905659E+03 -0.17037485085E+03 -0.63656784286E+03  0.67371539568E+03  0.78413345899E+02 0.  0.
        254    2    1    2    0    0  0.11617905659E+03  0.17037485085E+03 -0.33013034783E+03  0.87284149586E+03  0.78124328307E+03 0.  0.
         23    2    4    4    0    0 -0.14280239527E+03 -0.69084901645E+02  0.17453193544E+03  0.25040888405E+03  0.84130642403E+02 0.  0.
         23    2    4    4    0    0  0.25898145186E+03  0.23945975249E+03 -0.50466228327E+03  0.62243261181E+03  0.91246756745E+02 0.  0.
          3    1    3    3  502    0 -0.61250370604E+02 -0.14852792598E+03 -0.49038569333E+03  0.51603321687E+03  0.00000000000E+00 0. -1.
         -4    1    3    3    0  502 -0.54928685987E+02 -0.21846924871E+02 -0.14618214953E+03  0.15768217881E+03  0.00000000000E+00 0.  1.
         11    1    5    5    0    0  0.76900880957E+01 -0.34120700331E+01  0.31647294349E+02  0.32746464182E+02  0.00000000000E+00 0. -1.
        -11    1    5    5    0    0 -0.15049248337E+03 -0.65672831612E+02  0.14288464109E+03  0.21766241986E+03  0.00000000000E+00 0.  1.
          1    1    6    6  503    0  0.32064014636E+02  0.12804320537E+02 -0.16323581130E+02  0.38190456398E+02  0.00000000000E+00 0. -1.
         -1    1    6    6    0  503  0.22691743723E+03  0.22665543196E+03 -0.48833870214E+03  0.58424215541E+03  0.00000000000E+00 0.  1.
<mgrwt>
<rscale>  0 0.12072004E+04</rscale>
<asrwt>0</asrwt>
<pdfrwt beam="1">  1        1 0.19332731E+00 0.12072004E+04</pdfrwt>
<pdfrwt beam="2">  1       -2 0.44604516E-01 0.12072004E+04</pdfrwt>
<totfact> 0.40187774E+01</totfact>
</mgrwt>
</event>
<event>
12    4  0.4424320E-008  0.2068248E+04  0.7818608E-02  0.8575361E-01
         -2   -1    0    0    0  501 -0.00000000000E+00  0.00000000000E+00  0.15391526208E+04  0.15391526208E+04  0.00000000000E+00 0.  1.
          1   -1    0    0  501    0  0.00000000000E+00 -0.00000000000E+00 -0.69480626978E+03  0.69480626978E+03  0.00000000000E+00 0. -1.
        -24    2    1    2    0    0  0.49753193864E+03  0.14887657349E+03  0.10457141238E+04  0.11702449830E+04  0.79076086715E+02 0.  0.
        254    2    1    2    0    0 -0.49753193864E+03 -0.14887657349E+03 -0.20136777275E+03  0.10637139076E+04  0.90622074197E+03 0.  0.
         23    2    4    4    0    0 -0.57632044648E+03 -0.43766246675E+03 -0.16079999243E+03  0.74689585865E+03  0.91121316226E+02 0.  0.
         23    2    4    4    0    0  0.78788507841E+02  0.28878589326E+03 -0.40567780317E+02  0.31681804893E+03  0.95514450278E+02 0.  0.
          1    1    3    3  502    0  0.29116582334E+03  0.57442142969E+02  0.53320006703E+03  0.61022901270E+03  0.00000000000E+00 0. -1.
         -2    1    3    3    0  502  0.20636611530E+03  0.91434430517E+02  0.51251405676E+03  0.56001597031E+03  0.00000000000E+00 0.  1.
         11    1    5    5    0    0 -0.75783030403E+02 -0.22682856995E+02 -0.13864648460E+02  0.80310697764E+02  0.00000000000E+00 0. -1.
        -11    1    5    5    0    0 -0.50053741608E+03 -0.41497960975E+03 -0.14693534397E+03  0.66658516089E+03  0.00000000000E+00 0.  1.
          1    1    6    6  503    0 -0.29710852784E+01  0.73681811693E+02 -0.45495896527E+02  0.86647061825E+02  0.00000000000E+00 0. -1.
         -1    1    6    6    0  503  0.81759593119E+02  0.21510408157E+03  0.49281162100E+01  0.23017098710E+03  0.00000000000E+00 0.  1.
<mgrwt>
<rscale>  0 0.20682484E+04</rscale>
<asrwt>0</asrwt>
<pdfrwt beam="1">  1        1 0.10689327E+00 0.20682484E+04</pdfrwt>
<pdfrwt beam="2">  1       -2 0.23679271E+00 0.20682484E+04</pdfrwt>
<totfact> 0.17257095E+00</totfact>
</mgrwt>
</event>
<event>
12    4  0.4424320E-008  0.2124348E+04  0.7818608E-02  0.8550593E-01
         -2   -1    0    0    0  501 -0.00000000000E+00  0.00000000000E+00  0.11675222320E+04  0.11675222320E+04  0.00000000000E+00 0.  1.
          1   -1    0    0  501    0  0.00000000000E+00 -0.00000000000E+00 -0.96633193655E+03  0.96633193655E+03  0.00000000000E+00 0. -1.
        -24    2    1    2    0    0  0.51494996271E+03  0.43987961272E+02  0.79369048383E+03  0.95059172560E+03  0.81065651318E+02 0.  0.
        254    2    1    2    0    0 -0.51494996271E+03 -0.43987961272E+02 -0.59250018841E+03  0.11832624429E+04  0.88427661438E+03 0.  0.
         23    2    4    4    0    0 -0.46084118217E+03 -0.20669041284E+03 -0.76703152733E+03  0.92320363476E+03  0.94191641672E+02 0.  0.
         23    2    4    4    0    0 -0.54108780546E+02  0.16270245156E+03  0.17453133893E+03  0.26005880817E+03  0.88145037064E+02 0.  0.
          1    1    3    3  502    0  0.12157129354E+03  0.16986789742E+02  0.13145343043E+03  0.17985587233E+03  0.00000000000E+00 0. -1.
         -2    1    3    3    0  502  0.39337866917E+03  0.27001171530E+02  0.66223705341E+03  0.77073585328E+03  0.00000000000E+00 0.  1.
         11    1    5    5    0    0 -0.32335154911E+03 -0.12988090158E+03 -0.44938437177E+03  0.56865770592E+03  0.00000000000E+00 0. -1.
        -11    1    5    5    0    0 -0.13748963305E+03 -0.76809511258E+02 -0.31764715556E+03  0.35454592883E+03  0.00000000000E+00 0.  1.
          4    1    6    6  503    0  0.24533273646E+02  0.37862261692E+02  0.45017312415E+02  0.63733749249E+02  0.00000000000E+00 0. -1.
         -4    1    6    6    0  503 -0.78642054192E+02  0.12484018987E+03  0.12951402651E+03  0.19632505892E+03  0.00000000000E+00 0.  1.
<mgrwt>
<rscale>  0 0.21243484E+04</rscale>
<asrwt>0</asrwt>
<pdfrwt beam="1">  1        1 0.14866645E+00 0.21243484E+04</pdfrwt>
<pdfrwt beam="2">  1       -2 0.17961881E+00 0.21243484E+04</pdfrwt>
<totfact> 0.23604032E+00</totfact>
</mgrwt>
</event>
<event>
12    4  0.4424320E-008  0.1870333E+04  0.7818608E-02  0.8669766E-01
         -4   -1    0    0    0  501 -0.00000000000E+00  0.00000000000E+00  0.19326426532E+04  0.19326426532E+04  0.00000000000E+00 0.  1.
          3   -1    0    0  501    0  0.00000000000E+00 -0.00000000000E+00 -0.45250785688E+03  0.45250785688E+03  0.00000000000E+00 0. -1.
        -24    2    1    2    0    0 -0.97579729770E+01 -0.69626061666E+03  0.74277335015E+03  0.10216340901E+04  0.84557081913E+02 0.  0.
        254    2    1    2    0    0  0.97579729770E+01  0.69626061666E+03  0.73736144621E+03  0.13635164200E+04  0.91137317322E+03 0.  0.
         23    2    4    4    0    0  0.10264403206E+03  0.19649700138E+03 -0.18717124783E+03  0.30429242870E+03  0.91727516487E+02 0.  0.
         23    2    4    4    0    0 -0.92886059083E+02  0.49976361528E+03  0.92453269404E+03  0.10592239913E+04  0.93825743985E+02 0.  0.
          3    1    3    3  502    0  0.28833088851E+02 -0.12599439879E+03  0.12070849247E+03  0.17685156401E+03  0.00000000000E+00 0. -1.
         -4    1    3    3    0  502 -0.38591061828E+02 -0.57026621787E+03  0.62206485767E+03  0.84478252613E+03  0.00000000000E+00 0.  1.
         11    1    5    5    0    0  0.42271572777E+02  0.14073288167E+03 -0.74273413950E+02  0.16464862546E+03  0.00000000000E+00 0. -1.
        -11    1    5    5    0    0  0.60372459283E+02  0.55764119711E+02 -0.11289783388E+03  0.13964380324E+03  0.00000000000E+00 0.  1.
          3    1    6    6  503    0 -0.70725857455E+02  0.47330448028E+03  0.88939346508E+03  0.10099703034E+04  0.00000000000E+00 0. -1.
         -3    1    6    6    0  503 -0.22160201628E+02  0.26459134995E+02  0.35139228960E+02  0.49253687910E+02  0.00000000000E+00 0.  1.
<mgrwt>
<rscale>  0 0.18703326E+04</rscale>
<asrwt>0</asrwt>
<pdfrwt beam="1">  1        3 0.69616594E-01 0.18703326E+04</pdfrwt>
<pdfrwt beam="2">  1       -4 0.29732963E+00 0.18703326E+04</pdfrwt>
<totfact> 0.13625548E-01</totfact>
</mgrwt>
</event>
<event>
12    4  0.4424320E-008  0.2189398E+04  0.7818608E-02  0.8522854E-01
         -2   -1    0    0    0  501 -0.00000000000E+00  0.00000000000E+00  0.11741045016E+04  0.11741045016E+04  0.00000000000E+00 0.  1.
          1   -1    0    0  501    0  0.00000000000E+00 -0.00000000000E+00 -0.10206633561E+04  0.10206633561E+04  0.00000000000E+00 0. -1.
        -24    2    1    2    0    0  0.59331726338E+03  0.70470322713E+03  0.39494165998E+02  0.92559276512E+03  0.80809432298E+02 0.  0.
        254    2    1    2    0    0 -0.59331726338E+03 -0.70470322713E+03  0.11394697950E+03  0.12691750925E+04  0.86555732799E+03 0.  0.
         23    2    4    4    0    0 -0.77738900669E+03 -0.61673401037E+03 -0.42080207981E+02  0.99687635233E+03  0.85423712543E+02 0.  0.
         23    2    4    4    0    0  0.18407174332E+03 -0.87969216760E+02  0.15602718748E+03  0.27229874020E+03  0.90449604185E+02 0.  0.
          3    1    3    3  502    0  0.52400452714E+03  0.65321038770E+03  0.23293461567E+02  0.83773930337E+03  0.00000000000E+00 0. -1.
         -4    1    3    3    0  502  0.69312736234E+02  0.51492839426E+02  0.16200704431E+02  0.87853461745E+02  0.00000000000E+00 0.  1.
         11    1    5    5    0    0 -0.57223895355E+02 -0.31202835252E+02 -0.20990886242E+02  0.68474874462E+02  0.00000000000E+00 0. -1.
        -11    1    5    5    0    0 -0.72016511134E+03 -0.58553117511E+03 -0.21089321739E+02  0.92840147787E+03  0.00000000000E+00 0.  1.
          3    1    6    6  503    0  0.61078257521E+01 -0.15299060263E+02  0.50265102761E+02  0.52895626813E+02  0.00000000000E+00 0. -1.
         -3    1    6    6    0  503  0.17796391757E+03 -0.72670156497E+02  0.10576208472E+03  0.21940311339E+03  0.00000000000E+00 0.  1.
<mgrwt>
<rscale>  0 0.21893976E+04</rscale>
<asrwt>0</asrwt>
<pdfrwt beam="1">  1        1 0.15702513E+00 0.21893976E+04</pdfrwt>
<pdfrwt beam="2">  1       -2 0.18063146E+00 0.21893976E+04</pdfrwt>
<totfact> 0.20940353E+00</totfact>
</mgrwt>
</event>
<event>
12    4  0.4424320E-008  0.2114067E+04  0.7818608E-02  0.8555072E-01
         -2   -1    0    0    0  501 -0.00000000000E+00  0.00000000000E+00  0.71688659885E+03  0.71688659885E+03  0.00000000000E+00 0.  1.
          1   -1    0    0  501    0  0.00000000000E+00 -0.00000000000E+00 -0.15585728141E+04  0.15585728141E+04  0.00000000000E+00 0. -1.
        -24    2    1    2    0    0  0.35311677515E+03  0.77497185258E+03 -0.21067327916E+03  0.88085654403E+03  0.79070800038E+02 0.  0.
        254    2    1    2    0    0 -0.35311677515E+03 -0.77497185258E+03 -0.63101293609E+03  0.13946028689E+04  0.90634817112E+03 0.  0.
         23    2    4    4    0    0 -0.13227433747E+03 -0.66096192720E+03  0.31207010194E+02  0.68094182019E+03  0.91327517427E+02 0.  0.
         23    2    4    4    0    0 -0.22084243768E+03 -0.11400992539E+03 -0.66221994629E+03  0.71366104873E+03  0.94906216049E+02 0.  0.
          3    1    3    3  502    0  0.31980852131E+03  0.67546587794E+03 -0.15980565184E+03  0.76424439084E+03  0.00000000000E+00 0. -1.
         -2    1    3    3    0  502  0.33308253843E+02  0.99505974644E+02 -0.50867627317E+02  0.11661215320E+03  0.00000000000E+00 0.  1.
         11    1    5    5    0    0  0.65241008357E+01 -0.28771285078E+01 -0.24445768982E+01  0.75377527404E+01  0.00000000000E+00 0. -1.
        -11    1    5    5    0    0 -0.13879843831E+03 -0.65808479869E+03  0.33651587093E+02  0.67340406745E+03  0.00000000000E+00 0.  1.
          3    1    6    6  503    0 -0.59144620708E+02 -0.10334434070E+02 -0.76486944119E+02  0.97237540625E+02  0.00000000000E+00 0. -1.
         -3    1    6    6    0  503 -0.16169781697E+03 -0.10367549131E+03 -0.58573300217E+03  0.61642350810E+03  0.00000000000E+00 0.  1.
<mgrwt>
<rscale>  0 0.21140671E+04</rscale>
<asrwt>0</asrwt>
<pdfrwt beam="1">  1        1 0.23978043E+00 0.21140671E+04</pdfrwt>
<pdfrwt beam="2">  1       -2 0.11029025E+00 0.21140671E+04</pdfrwt>
<totfact> 0.31370918E+00</totfact>
</mgrwt>
</event>
<event>
12    4  0.4424320E-008  0.1257647E+04  0.7818608E-02  0.9063842E-01
         -2   -1    0    0    0  501 -0.00000000000E+00  0.00000000000E+00  0.17207613467E+03  0.17207613467E+03  0.00000000000E+00 0.  1.
          1   -1    0    0  501    0  0.00000000000E+00 -0.00000000000E+00 -0.22979314115E+04  0.22979314115E+04  0.00000000000E+00 0. -1.
        -24    2    1    2    0    0 -0.23099283128E+03  0.14264235766E+03 -0.27523904231E+03  0.39510894724E+03  0.81547651579E+02 0.  0.
        254    2    1    2    0    0  0.23099283128E+03 -0.14264235766E+03 -0.18506162345E+04  0.20748985989E+04  0.89817549401E+03 0.  0.
         23    2    4    4    0    0  0.22233605884E+03 -0.65189364177E+02 -0.30385906077E+02  0.25079217099E+03  0.91051817532E+02 0.  0.
         23    2    4    4    0    0  0.86567724379E+01 -0.77452993480E+02 -0.18202303284E+04  0.18241064279E+04  0.89732413025E+02 0.  0.
          1    1    3    3  502    0 -0.37749794879E+02 -0.59193051484E+01 -0.52384670605E+02  0.64840102569E+02  0.00000000000E+00 0. -1.
         -2    1    3    3    0  502 -0.19324303640E+03  0.14856166281E+03 -0.22285437170E+03  0.33026884467E+03  0.00000000000E+00 0.  1.
         11    1    5    5    0    0  0.88101388637E+02 -0.37206496919E+02  0.31033232751E+02  0.10054471457E+03  0.00000000000E+00 0. -1.
        -11    1    5    5    0    0  0.13423467021E+03 -0.27982867257E+02 -0.61419138828E+02  0.15024745642E+03  0.00000000000E+00 0.  1.
          4    1    6    6  503    0 -0.31745176026E+02 -0.27809723825E+01 -0.35894250259E+03  0.36035428425E+03  0.00000000000E+00 0.  1.
         -4    1    6    6    0  503  0.40401948464E+02 -0.74672021098E+02 -0.14612878258E+04  0.14637521437E+04  0.00000000000E+00 0. -1.
<mgrwt>
<rscale>  0 0.12576473E+04</rscale>
<asrwt>0</asrwt>
<pdfrwt beam="1">  1        1 0.35352785E+00 0.12576473E+04</pdfrwt>
<pdfrwt beam="2">  1       -2 0.26473256E-01 0.12576473E+04</pdfrwt>
<totfact> 0.20954188E+01</totfact>
</mgrwt>
</event>
<event>
12    4  0.4424320E-008  0.1111519E+04  0.7818608E-02  0.9194037E-01
          1   -1    0    0  501    0  0.00000000000E+00  0.00000000000E+00  0.30327550697E+03  0.30327550697E+03  0.00000000000E+00 0. -1.
         -2   -1    0    0    0  501 -0.00000000000E+00 -0.00000000000E+00 -0.10184423128E+04  0.10184423128E+04  0.00000000000E+00 0.  1.
        -24    2    1    2    0    0  0.37846043241E+02 -0.16617767901E+03 -0.77854458148E+02  0.20470036274E+03  0.82423163379E+02 0.  0.
        254    2    1    2    0    0 -0.37846043241E+02  0.16617767901E+03 -0.63731234771E+03  0.11170174571E+04  0.90139537764E+03 0.  0.
         23    2    4    4    0    0  0.39565461733E+03  0.22872513393E+03 -0.26647319167E+03  0.53590768686E+03  0.85623150183E+02 0.  0.
         23    2    4    4    0    0 -0.43350066057E+03 -0.62547454923E+02 -0.37083915603E+03  0.58110977020E+03  0.91279124338E+02 0.  0.
          3    1    3    3  502    0  0.82742333656E+01 -0.14899379558E+03 -0.81964726697E+02  0.17025225544E+03  0.00000000000E+00 0. -1.
         -4    1    3    3    0  502  0.29571809875E+02 -0.17183883431E+02  0.41102685495E+01  0.34448107301E+02  0.00000000000E+00 0.  1.
         11    1    5    5    0    0  0.39015072242E+03  0.23054320021E+03 -0.24810523356E+03  0.51664684291E+03  0.00000000000E+00 0.  1.
        -11    1    5    5    0    0  0.55038949045E+01 -0.18180662832E+01 -0.18367958116E+02  0.19260843945E+02  0.00000000000E+00 0. -1.
          3    1    6    6  503    0 -0.83667657008E+02 -0.49078548382E+02 -0.71711185088E+02  0.12062949394E+03  0.00000000000E+00 0. -1.
         -3    1    6    6    0  503 -0.34983300356E+03 -0.13468906541E+02 -0.29912797095E+03  0.46048027626E+03  0.00000000000E+00 0.  1.
<mgrwt>
<rscale>  0 0.11115190E+04</rscale>
<asrwt>0</asrwt>
<pdfrwt beam="1">  1        1 0.46657770E-01 0.11115190E+04</pdfrwt>
<pdfrwt beam="2">  1       -2 0.15668343E+00 0.11115190E+04</pdfrwt>
<totfact> 0.20004257E+01</totfact>
</mgrwt>
</event>
<event>
12    4  0.4424320E-008  0.1480765E+04  0.7818608E-02  0.8897346E-01
         -2   -1    0    0    0  501 -0.00000000000E+00  0.00000000000E+00  0.10983342031E+04  0.10983342031E+04  0.00000000000E+00 0.  1.
          1   -1    0    0  501    0  0.00000000000E+00 -0.00000000000E+00 -0.49908858831E+03  0.49908858831E+03  0.00000000000E+00 0. -1.
        -24    2    1    2    0    0  0.44697931837E+03 -0.90900640930E+02  0.19745030673E+03  0.50357257477E+03  0.80902885366E+02 0.  0.
        254    2    1    2    0    0 -0.44697931837E+03  0.90900640930E+02  0.40179530802E+03  0.10938502166E+04  0.90940386476E+03 0.  0.
         23    2    4    4    0    0  0.12952028659E+03 -0.24840315622E+03 -0.23786424962E+02  0.29579304877E+03  0.91913551924E+02 0.  0.
         23    2    4    4    0    0 -0.57649960497E+03  0.33930379715E+03  0.42558173298E+03  0.79805716784E+03  0.91085511481E+02 0.  0.
          1    1    3    3  502    0  0.47486076049E+02 -0.30482350494E+02  0.43309146843E+02  0.71132153844E+02  0.00000000000E+00 0. -1.
         -2    1    3    3    0  502  0.39949324233E+03 -0.60418290436E+02  0.15414115989E+03  0.43244042093E+03  0.00000000000E+00 0.  1.
         11    1    5    5    0    0  0.13499369421E+03 -0.20626969776E+03 -0.41088878646E+02  0.24991754968E+03  0.00000000000E+00 0. -1.
        -11    1    5    5    0    0 -0.54734076182E+01 -0.42133458464E+02  0.17302453684E+02  0.45875499088E+02  0.00000000000E+00 0.  1.
          2    1    6    6  503    0 -0.46703651980E+03  0.23224508115E+03  0.34042082307E+03  0.62285409634E+03  0.00000000000E+00 0. -1.
         -2    1    6    6    0  503 -0.10946308516E+03  0.10705871600E+03  0.85160909912E+02  0.17520307150E+03  0.00000000000E+00 0.  1.
<mgrwt>
<rscale>  0 0.14807648E+04</rscale>
<asrwt>0</asrwt>
<pdfrwt beam="1">  1        1 0.76782860E-01 0.14807648E+04</pdfrwt>
<pdfrwt beam="2">  1       -2 0.16897449E+00 0.14807648E+04</pdfrwt>
<totfact> 0.81528764E+00</totfact>
</mgrwt>
</event>
<event>
12    4  0.4424320E-008  0.1286899E+04  0.7818608E-02  0.9040019E-01
          1   -1    0    0  501    0  0.00000000000E+00  0.00000000000E+00  0.14034009700E+04  0.14034009700E+04  0.00000000000E+00 0. -1.
         -2   -1    0    0    0  501 -0.00000000000E+00 -0.00000000000E+00 -0.29501701339E+03  0.29501701339E+03  0.00000000000E+00 0.  1.
        -24    2    1    2    0    0 -0.24873923620E+03 -0.11944362101E+03  0.51510323148E+03  0.58984909781E+03  0.80328281903E+02 0.  0.
        254    2    1    2    0    0  0.24873923620E+03  0.11944362101E+03  0.59328072512E+03  0.11085688856E+04  0.89487706923E+03 0.  0.
         23    2    4    4    0    0  0.21710273316E+03 -0.29840637296E+03  0.47446511029E+01  0.38030040833E+03  0.91792857516E+02 0.  0.
         23    2    4    4    0    0  0.31636503041E+02  0.41784999397E+03  0.58853607402E+03  0.72826847725E+03  0.91655762183E+02 0.  0.
          3    1    3    3  502    0 -0.15814621971E+03 -0.49225010901E+02  0.36640704637E+03  0.40210378280E+03  0.00000000000E+00 0. -1.
         -2    1    3    3    0  502 -0.90593016490E+02 -0.70218610108E+02  0.14869618511E+03  0.18774531501E+03  0.00000000000E+00 0.  1.
         11    1    5    5    0    0  0.17999478782E+03 -0.27510679248E+03  0.29319777438E+02  0.33006290350E+03  0.00000000000E+00 0. -1.
        -11    1    5    5    0    0  0.37107945337E+02 -0.23299580479E+02 -0.24575126336E+02  0.50237504835E+02  0.00000000000E+00 0.  1.
          4    1    6    6  503    0  0.29211843000E+02  0.33507283240E+03  0.40180822540E+03  0.52400093968E+03  0.00000000000E+00 0. -1.
         -4    1    6    6    0  503  0.24246600415E+01  0.82777161571E+02  0.18672784862E+03  0.20426753757E+03  0.00000000000E+00 0.  1.
<mgrwt>
<rscale>  0 0.12868989E+04</rscale>
<asrwt>0</asrwt>
<pdfrwt beam="1">  1        1 0.21590784E+00 0.12868989E+04</pdfrwt>
<pdfrwt beam="2">  1       -2 0.45387234E-01 0.12868989E+04</pdfrwt>
<totfact> 0.30345345E+01</totfact>
</mgrwt>
</event>
<event>
12    4  0.4424320E-008  0.1300922E+04  0.7818608E-02  0.9028834E-01
         -2   -1    0    0    0  501 -0.00000000000E+00  0.00000000000E+00  0.25764739917E+03  0.25764739917E+03  0.00000000000E+00 0.  1.
          1   -1    0    0  501    0  0.00000000000E+00 -0.00000000000E+00 -0.16421644390E+04  0.16421644390E+04  0.00000000000E+00 0. -1.
        -24    2    1    2    0    0  0.95162071171E+02 -0.31145563023E+03 -0.31769584144E+03  0.46214329689E+03  0.81150168194E+02 0.  0.
        254    2    1    2    0    0 -0.95162071171E+02  0.31145563023E+03 -0.10668211984E+04  0.14376685412E+04  0.90704075753E+03 0.  0.
         23    2    4    4    0    0  0.16784637435E+03 -0.14082212883E+03  0.93484442916E+01  0.23772192938E+03  0.91766251688E+02 0.  0.
         23    2    4    4    0    0 -0.26300844552E+03  0.45227775906E+03 -0.10761696426E+04  0.11999466119E+04  0.89454780819E+02 0.  0.
          3    1    3    3  502    0  0.43831387087E+02 -0.48580911325E+02 -0.85527143743E+02  0.10768559679E+03  0.00000000000E+00 0. -1.
         -4    1    3    3    0  502  0.51330684084E+02 -0.26287471891E+03 -0.23216869770E+03  0.35445770010E+03  0.00000000000E+00 0.  1.
         11    1    5    5    0    0  0.14925923657E+03 -0.86314362092E+02 -0.19126422889E+02  0.17347711336E+03  0.00000000000E+00 0. -1.
        -11    1    5    5    0    0  0.18587137775E+02 -0.54507766737E+02  0.28474867181E+02  0.64244816026E+02  0.00000000000E+00 0.  1.
          2    1    6    6  503    0 -0.25977304436E+03  0.42241769819E+03 -0.96728392876E+03  0.10869944550E+04  0.00000000000E+00 0. -1.
         -2    1    6    6    0  503 -0.32354011595E+01  0.29860060868E+02 -0.10888571388E+03  0.11295215688E+03  0.00000000000E+00 0.  1.
<mgrwt>
<rscale>  0 0.13009218E+04</rscale>
<asrwt>0</asrwt>
<pdfrwt beam="1">  1        1 0.25264069E+00 0.13009218E+04</pdfrwt>
<pdfrwt beam="2">  1       -2 0.39638061E-01 0.13009218E+04</pdfrwt>
<totfact> 0.27102586E+01</totfact>
</mgrwt>
</event>
<event>
12    4  0.4424320E-008  0.2710329E+04  0.7818608E-02  0.8331661E-01
          1   -1    0    0  501    0  0.00000000000E+00  0.00000000000E+00  0.12484972480E+04  0.12484972480E+04  0.00000000000E+00 0. -1.
         -2   -1    0    0    0  501 -0.00000000000E+00 -0.00000000000E+00 -0.14709445192E+04  0.14709445192E+04  0.00000000000E+00 0.  1.
        -24    2    1    2    0    0 -0.48242750224E+03 -0.18807259296E+03 -0.11901081918E+04  0.13003043967E+04  0.79538800636E+02 0.  0.
        254    2    1    2    0    0  0.48242750224E+03  0.18807259296E+03  0.96766092055E+03  0.14191373706E+04  0.89970863294E+03 0.  0.
         23    2    4    4    0    0  0.62860237002E+03  0.38707476396E+03  0.54753160249E+03  0.92348341152E+03  0.89793892511E+02 0.  0.
         23    2    4    4    0    0 -0.14617486779E+03 -0.19900217099E+03  0.42012931806E+03  0.49565395903E+03  0.90527604506E+02 0.  0.
          3    1    3    3  502    0 -0.68381996895E+02 -0.15020697929E+02 -0.10652032253E+03  0.12746881178E+03  0.00000000000E+00 0. -1.
         -4    1    3    3    0  502 -0.41404550534E+03 -0.17305189503E+03 -0.10835878692E+04  0.11728355849E+04  0.00000000000E+00 0.  1.
         11    1    5    5    0    0  0.62008961694E+03  0.38862458220E+03  0.54881790685E+03  0.91473564149E+03  0.00000000000E+00 0. -1.
        -11    1    5    5    0    0  0.85127530785E+01 -0.15498182448E+01 -0.12863043581E+01  0.87477700283E+01  0.00000000000E+00 0.  1.
          4    1    6    6  503    0 -0.15463274506E+03 -0.15784172925E+03  0.35421677167E+03  0.41748630956E+03  0.00000000000E+00 0. -1.
         -4    1    6    6    0  503  0.84578772726E+01 -0.41160441741E+02  0.65912546398E+02  0.78167649478E+02  0.00000000000E+00 0.  1.
<mgrwt>
<rscale>  0 0.27103285E+04</rscale>
<asrwt>0</asrwt>
<pdfrwt beam="1">  1        1 0.19207650E+00 0.27103285E+04</pdfrwt>
<pdfrwt beam="2">  1       -2 0.22629916E+00 0.27103285E+04</pdfrwt>
<totfact> 0.68031121E-01</totfact>
</mgrwt>
</event>
<event>
12    4  0.4424320E-008  0.4113018E+04  0.7818608E-02  0.7982127E-01
          1   -1    0    0  501    0  0.00000000000E+00  0.00000000000E+00  0.20385577020E+04  0.20385577020E+04  0.00000000000E+00 0. -1.
         -2   -1    0    0    0  501 -0.00000000000E+00 -0.00000000000E+00 -0.20746185931E+04  0.20746185931E+04  0.00000000000E+00 0.  1.
        -24    2    1    2    0    0  0.17865188128E+04 -0.70494888287E+03 -0.40442926246E+03  0.19642616548E+04  0.78475629310E+02 0.  0.
        254    2    1    2    0    0 -0.17865188128E+04  0.70494888287E+03  0.36836837144E+03  0.21489146403E+04  0.89080664459E+03 0.  0.
         23    2    4    4    0    0 -0.14673685456E+04  0.16312794661E+03  0.21228432920E+03  0.14944317216E+04  0.92088861551E+02 0.  0.
         23    2    4    4    0    0 -0.31915026720E+03  0.54182093626E+03  0.15608404224E+03  0.65448291868E+03  0.92514012865E+02 0.  0.
          1    1    3    3  502    0  0.27524029093E+03 -0.87178512881E+02 -0.40733916266E+02  0.29157599831E+03  0.00000000000E+00 0. -1.
         -2    1    3    3    0  502  0.15112785219E+04 -0.61777036999E+03 -0.36369534619E+03  0.16726856565E+04  0.00000000000E+00 0.  1.
         11    1    5    5    0    0 -0.31918263391E+02 -0.63057963365E+00 -0.81567858924E+01  0.32950058038E+02  0.00000000000E+00 0. -1.
        -11    1    5    5    0    0 -0.14354502822E+04  0.16375852625E+03  0.22044111509E+03  0.14614816635E+04  0.00000000000E+00 0.  1.
          3    1    6    6  503    0 -0.22802847950E+03  0.30860439065E+03  0.72387728757E+02  0.39047873267E+03  0.00000000000E+00 0. -1.
         -3    1    6    6    0  503 -0.91121787697E+02  0.23321654561E+03  0.83696313482E+02  0.26400418601E+03  0.00000000000E+00 0.  1.
<mgrwt>
<rscale>  0 0.41130182E+04</rscale>
<asrwt>0</asrwt>
<pdfrwt beam="1">  1        1 0.31362426E+00 0.41130182E+04</pdfrwt>
<pdfrwt beam="2">  1       -2 0.31917209E+00 0.41130182E+04</pdfrwt>
<totfact> 0.46328274E-02</totfact>
</mgrwt>
</event>
<event>
12    4  0.4424320E-008  0.1748344E+04  0.7818608E-02  0.8734262E-01
          1   -1    0    0  501    0  0.00000000000E+00  0.00000000000E+00  0.12157897895E+04  0.12157897895E+04  0.00000000000E+00 0. -1.
         -2   -1    0    0    0  501 -0.00000000000E+00 -0.00000000000E+00 -0.62854335838E+03  0.62854335838E+03  0.00000000000E+00 0.  1.
        -24    2    1    2    0    0 -0.19511845960E+03 -0.51962880872E+03  0.54208925131E+03  0.78001465021E+03  0.80478481751E+02 0.  0.
        254    2    1    2    0    0  0.19511845960E+03  0.51962880872E+03  0.45157179816E+02  0.10643184977E+04  0.90700021028E+03 0.  0.
         23    2    4    4    0    0 -0.65322711739E+02  0.49329900147E+03 -0.32534554862E+03  0.60149959012E+03  0.91329455213E+02 0.  0.
         23    2    4    4    0    0  0.26044117134E+03  0.26329807254E+02  0.37050272844E+03  0.46281890754E+03  0.91685369163E+02 0.  0.
          3    1    3    3  502    0 -0.95120315636E+02 -0.29873661947E+03  0.25420251537E+03  0.40362155676E+03  0.00000000000E+00 0. -1.
         -4    1    3    3    0  502 -0.99998143969E+02 -0.22089218926E+03  0.28788673593E+03  0.37639309345E+03  0.00000000000E+00 0.  1.
         11    1    5    5    0    0 -0.74238772727E+02  0.46871348790E+03 -0.32530095793E+03  0.57534723632E+03  0.00000000000E+00 0.  1.
        -11    1    5    5    0    0  0.89160609875E+01  0.24585513567E+02 -0.44590696200E-01  0.26152353799E+02  0.00000000000E+00 0. -1.
          4    1    6    6  503    0  0.15753764439E+03 -0.28643071615E+02  0.19952208287E+03  0.25582727865E+03  0.00000000000E+00 0. -1.
         -4    1    6    6    0  503  0.10290352695E+03  0.54972878870E+02  0.17098064557E+03  0.20699162889E+03  0.00000000000E+00 0.  1.
<mgrwt>
<rscale>  0 0.17483439E+04</rscale>
<asrwt>0</asrwt>
<pdfrwt beam="1">  1        1 0.18704458E+00 0.17483439E+04</pdfrwt>
<pdfrwt beam="2">  1       -2 0.96698978E-01 0.17483439E+04</pdfrwt>
<totfact> 0.77340926E+00</totfact>
</mgrwt>
</event>
<event>
12    4  0.4424320E-008  0.1380054E+04  0.7818608E-02  0.8968384E-01
          1   -1    0    0  501    0  0.00000000000E+00  0.00000000000E+00  0.30530504446E+04  0.30530504446E+04  0.00000000000E+00 0. -1.
         -2   -1    0    0    0  501 -0.00000000000E+00 -0.00000000000E+00 -0.15595464899E+03  0.15595464899E+03  0.00000000000E+00 0.  1.
        -24    2    1    2    0    0 -0.50382274835E+02 -0.34446630166E+03  0.13091710690E+04  0.13570695193E+04  0.80705549346E+02 0.  0.
        254    2    1    2    0    0  0.50382274835E+02  0.34446630166E+03  0.15879247267E+04  0.18519355743E+04  0.88711049332E+03 0.  0.
         23    2    4    4    0    0  0.27755172469E+03 -0.63701206830E+02  0.12008499469E+04  0.12382948178E+04  0.10119613223E+03 0.  0.
         23    2    4    4    0    0 -0.22716944986E+03  0.40816750849E+03  0.38707477976E+03  0.61364075654E+03  0.92311532491E+02 0.  0.
          1    1    3    3  502    0 -0.49981998073E+02 -0.34744824723E+03  0.12651103999E+04  0.13129062451E+04  0.00000000000E+00 0. -1.
         -2    1    3    3    0  502 -0.40027676225E+00  0.29819455760E+01  0.44060669120E+02  0.44163274156E+02  0.00000000000E+00 0.  1.
         11    1    5    5    0    0  0.22483430900E+03 -0.48468253682E+02  0.75992222930E+03  0.79396563698E+03  0.00000000000E+00 0. -1.
        -11    1    5    5    0    0  0.52717415698E+02 -0.15232953148E+02  0.44092771759E+03  0.44432918081E+03  0.00000000000E+00 0.  1.
          1    1    6    6  503    0 -0.21324649979E+03  0.38988430698E+03  0.33434544818E+03  0.55612113898E+03  0.00000000000E+00 0. -1.
         -1    1    6    6    0  503 -0.13922950066E+02  0.18283201511E+02  0.52729331576E+02  0.57519617562E+02  0.00000000000E+00 0.  1.
<mgrwt>
<rscale>  0 0.13800542E+04</rscale>
<asrwt>0</asrwt>
<pdfrwt beam="1">  1        1 0.46970002E+00 0.13800542E+04</pdfrwt>
<pdfrwt beam="2">  1       -2 0.23993025E-01 0.13800542E+04</pdfrwt>
<totfact> 0.73082102E+00</totfact>
</mgrwt>
</event>
<event>
12    4  0.4424320E-008  0.1304103E+04  0.7818608E-02  0.9026318E-01
         -2   -1    0    0    0  501 -0.00000000000E+00  0.00000000000E+00  0.12672679780E+04  0.12672679780E+04  0.00000000000E+00 0.  1.
          3   -1    0    0  501    0  0.00000000000E+00 -0.00000000000E+00 -0.33550201055E+03  0.33550201055E+03  0.00000000000E+00 0. -1.
        -24    2    1    2    0    0 -0.17275731091E+03  0.27859817515E+03  0.14385926759E+03  0.36733943397E+03  0.82345243980E+02 0.  0.
        254    2    1    2    0    0  0.17275731091E+03 -0.27859817515E+03  0.78790669987E+03  0.12354305546E+04  0.89332505610E+03 0.  0.
         23    2    4    4    0    0  0.40465258103E+03 -0.40175458175E+03  0.76371112804E+03  0.95654837832E+03  0.81115089088E+02 0.  0.
         23    2    4    4    0    0 -0.23189527013E+03  0.12315640660E+03  0.24195571827E+02  0.27888217627E+03  0.90812585882E+02 0.  0.
          1    1    3    3  502    0 -0.11160991386E+03  0.21342866135E+03  0.68391401069E+02  0.25037162399E+03  0.00000000000E+00 0. -1.
         -2    1    3    3    0  502 -0.61147397046E+02  0.65169513804E+02  0.75467866518E+02  0.11696780998E+03  0.00000000000E+00 0.  1.
         11    1    5    5    0    0  0.40267250012E+03 -0.39152816890E+03  0.76095084220E+03  0.94577250628E+03  0.00000000000E+00 0.  1.
        -11    1    5    5    0    0  0.19800809148E+01 -0.10226412848E+02  0.27602858360E+01  0.10775872033E+02  0.00000000000E+00 0. -1.
          4    1    6    6  503    0 -0.14656860518E+03  0.52564019416E+02 -0.25001387776E+02  0.15770352422E+03  0.00000000000E+00 0. -1.
         -4    1    6    6    0  503 -0.85326664945E+02  0.70592387179E+02  0.49196959604E+02  0.12117865205E+03  0.00000000000E+00 0.  1.
<mgrwt>
<rscale>  0 0.13041027E+04</rscale>
<asrwt>0</asrwt>
<pdfrwt beam="1">  1        3 0.51615695E-01 0.13041027E+04</pdfrwt>
<pdfrwt beam="2">  1       -2 0.19496430E+00 0.13041027E+04</pdfrwt>
<totfact> 0.21956543E+00</totfact>
</mgrwt>
</event>
<event>
12    4  0.4424320E-008  0.2258882E+04  0.7818608E-02  0.8494312E-01
         -2   -1    0    0    0  501 -0.00000000000E+00  0.00000000000E+00  0.11173875356E+04  0.11173875356E+04  0.00000000000E+00 0.  1.
          1   -1    0    0  501    0  0.00000000000E+00 -0.00000000000E+00 -0.11416243661E+04  0.11416243661E+04  0.00000000000E+00 0. -1.
        -24    2    1    2    0    0 -0.13564935458E+03  0.19615401190E+03 -0.92862253281E+03  0.96208785049E+03  0.79975495312E+02 0.  0.
        254    2    1    2    0    0  0.13564935458E+03 -0.19615401190E+03  0.90438570236E+03  0.12969240512E+04  0.89845498059E+03 0.  0.
         23    2    4    4    0    0  0.99486699508E+02 -0.21383798227E+03 -0.11125479147E+03  0.27650258922E+03  0.91933493232E+02 0.  0.
         23    2    4    4    0    0  0.36162655068E+02  0.17683970370E+02  0.10156404938E+04  0.10204214620E+04  0.90077116590E+02 0.  0.
          1    1    3    3  502    0 -0.16219315939E+02  0.34440224895E+02 -0.29217854624E+03  0.29464809211E+03  0.00000000000E+00 0. -1.
         -2    1    3    3    0  502 -0.11943003864E+03  0.16171378701E+03 -0.63644398656E+03  0.66743975838E+03  0.00000000000E+00 0.  1.
         11    1    5    5    0    0  0.61673375459E+02 -0.10299124161E+03 -0.79068055180E+01  0.12030510655E+03  0.00000000000E+00 0.  1.
        -11    1    5    5    0    0  0.37813324050E+02 -0.11084674066E+03 -0.10334798595E+03  0.15619748267E+03  0.00000000000E+00 0. -1.
          2    1    6    6  503    0  0.66451276796E+02  0.10214522242E+02  0.66009335280E+03  0.66350835945E+03  0.00000000000E+00 0. -1.
         -2    1    6    6    0  503 -0.30288621728E+02  0.74694481273E+01  0.35554714103E+03  0.35691310253E+03  0.00000000000E+00 0.  1.
<mgrwt>
<rscale>  0 0.22588819E+04</rscale>
<asrwt>0</asrwt>
<pdfrwt beam="1">  1        1 0.17563452E+00 0.22588819E+04</pdfrwt>
<pdfrwt beam="2">  1       -2 0.17190578E+00 0.22588819E+04</pdfrwt>
<totfact> 0.19397239E+00</totfact>
</mgrwt>
</event>
<event>
12    4  0.4424320E-008  0.1462861E+04  0.7818608E-02  0.8909532E-01
         -2   -1    0    0    0  501 -0.00000000000E+00  0.00000000000E+00  0.68765383925E+03  0.68765383925E+03  0.00000000000E+00 0.  1.
          1   -1    0    0  501    0  0.00000000000E+00 -0.00000000000E+00 -0.77799448345E+03  0.77799448345E+03  0.00000000000E+00 0. -1.
        -24    2    1    2    0    0 -0.68922450217E+02 -0.13353538335E+03 -0.45806593270E+03  0.48901465994E+03  0.82030093155E+02 0.  0.
        254    2    1    2    0    0  0.68922450217E+02  0.13353538335E+03  0.36772528850E+03  0.97663366276E+03  0.89219360045E+03 0.  0.
         23    2    4    4    0    0  0.40788136900E+03  0.91248820549E+02  0.44224131545E+03  0.61536942470E+03  0.91698360610E+02 0.  0.
         23    2    4    4    0    0 -0.33895891878E+03  0.42286562797E+02 -0.74516026948E+02  0.36126423806E+03  0.90983017164E+02 0.  0.
          3    1    3    3  502    0 -0.23469933998E+02 -0.10496331084E+03 -0.21888869420E+03  0.24388602845E+03  0.00000000000E+00 0. -1.
         -4    1    3    3    0  502 -0.45452516218E+02 -0.28572072506E+02 -0.23917723850E+03  0.24512863149E+03  0.00000000000E+00 0.  1.
         11    1    5    5    0    0  0.13879254412E+03  0.76018702637E+02  0.15610602199E+03  0.22228653480E+03  0.00000000000E+00 0. -1.
        -11    1    5    5    0    0  0.26908882488E+03  0.15230117913E+02  0.28613529346E+03  0.39308288990E+03  0.00000000000E+00 0.  1.
          3    1    6    6  503    0 -0.31778705226E+02 -0.31073138883E+01  0.18769465068E+02  0.37038281876E+02  0.00000000000E+00 0. -1.
         -3    1    6    6    0  503 -0.30718021356E+03  0.45393876685E+02 -0.93285492016E+02  0.32422595618E+03  0.00000000000E+00 0.  1.
<mgrwt>
<rscale>  0 0.14628614E+04</rscale>
<asrwt>0</asrwt>
<pdfrwt beam="1">  1        1 0.11969146E+00 0.14628614E+04</pdfrwt>
<pdfrwt beam="2">  1       -2 0.10579290E+00 0.14628614E+04</pdfrwt>
<totfact> 0.14183352E+01</totfact>
</mgrwt>
</event>
<event>
12    4  0.4424320E-008  0.2167458E+04  0.7818608E-02  0.8532096E-01
         -2   -1    0    0    0  501 -0.00000000000E+00  0.00000000000E+00  0.17199101995E+04  0.17199101995E+04  0.00000000000E+00 0.  1.
          1   -1    0    0  501    0  0.00000000000E+00 -0.00000000000E+00 -0.68286588921E+03  0.68286588921E+03  0.00000000000E+00 0. -1.
        -24    2    1    2    0    0  0.74725612716E+03 -0.37786068551E+03  0.51083239454E+02  0.84316231069E+03  0.84514895612E+02 0.  0.
        254    2    1    2    0    0 -0.74725612716E+03  0.37786068551E+03  0.98596107088E+03  0.15596137781E+04  0.87126659880E+03 0.  0.
         23    2    4    4    0    0 -0.58307125883E+03  0.25008644360E+02  0.11514494481E+03  0.60174320268E+03  0.90768929104E+02 0.  0.
         23    2    4    4    0    0 -0.16418486832E+03  0.35285204115E+03  0.87081612607E+03  0.95787057537E+03  0.87943617180E+02 0.  0.
          3    1    3    3  502    0  0.59086804647E+03 -0.29096664402E+03  0.74101950154E+02  0.66278030695E+03  0.00000000000E+00 0. -1.
         -4    1    3    3    0  502  0.15638808069E+03 -0.86894041494E+02 -0.23018710700E+02  0.18038200374E+03  0.00000000000E+00 0.  1.
         11    1    5    5    0    0 -0.49404152891E+03 -0.17737559347E+01  0.72053194521E+02  0.49927131035E+03  0.00000000000E+00 0.  1.
        -11    1    5    5    0    0 -0.89029729928E+02  0.26782400295E+02  0.43091750286E+02  0.10247189234E+03  0.00000000000E+00 0. -1.
          1    1    6    6  503    0 -0.31334037727E+02  0.48023832740E+02  0.68218829504E+02  0.89117445712E+02  0.00000000000E+00 0. -1.
         -1    1    6    6    0  503 -0.13285083060E+03  0.30482820841E+03  0.80259729657E+03  0.86875312966E+03  0.00000000000E+00 0.  1.
<mgrwt>
<rscale>  0 0.21674575E+04</rscale>
<asrwt>0</asrwt>
<pdfrwt beam="1">  1        1 0.10505629E+00 0.21674575E+04</pdfrwt>
<pdfrwt beam="2">  1       -2 0.26460157E+00 0.21674575E+04</pdfrwt>
<totfact> 0.11849446E+00</totfact>
</mgrwt>
</event>
<event>
12    4  0.4424320E-008  0.1741821E+04  0.7818608E-02  0.8737865E-01
          1   -1    0    0  501    0  0.00000000000E+00  0.00000000000E+00  0.20116259144E+04  0.20116259144E+04  0.00000000000E+00 0. -1.
         -2   -1    0    0    0  501 -0.00000000000E+00 -0.00000000000E+00 -0.37705073751E+03  0.37705073751E+03  0.00000000000E+00 0.  1.
        -24    2    1    2    0    0 -0.30819518328E+03  0.49188617259E+03  0.24702108199E+03  0.63615637960E+03  0.82092914250E+02 0.  0.
        254    2    1    2    0    0  0.30819518328E+03 -0.49188617259E+03  0.13875540949E+04  0.17525202723E+04  0.89949133447E+03 0.  0.
         23    2    4    4    0    0  0.15817238252E+03 -0.54031574375E+03  0.29122752289E+03  0.64033526868E+03  0.90863527800E+02 0.  0.
         23    2    4    4    0    0  0.15002280076E+03  0.48429571162E+02  0.10963265720E+04  0.11121850036E+04  0.10085269301E+03 0.  0.
          1    1    3    3  502    0 -0.77618701952E+01  0.44878536763E+02  0.54332756198E+01  0.45867746565E+02  0.00000000000E+00 0. -1.
         -2    1    3    3    0  502 -0.30043331309E+03  0.44700763583E+03  0.24158780637E+03  0.59028863303E+03  0.00000000000E+00 0.  1.
         11    1    5    5    0    0  0.31049698546E+02 -0.39074290392E+02  0.74044739850E+01  0.50455031309E+02  0.00000000000E+00 0.  1.
        -11    1    5    5    0    0  0.12712268398E+03 -0.50124145336E+03  0.28382304890E+03  0.58988023737E+03  0.00000000000E+00 0. -1.
          3    1    6    6  503    0  0.10076467184E+03  0.62344542417E+02  0.94580236449E+03  0.95319592621E+03  0.00000000000E+00 0. -1.
         -3    1    6    6    0  503  0.49258128917E+02 -0.13914971255E+02  0.15052420751E+03  0.15898907741E+03  0.00000000000E+00 0.  1.
<mgrwt>
<rscale>  0 0.17418209E+04</rscale>
<asrwt>0</asrwt>
<pdfrwt beam="1">  1        1 0.30948090E+00 0.17418209E+04</pdfrwt>
<pdfrwt beam="2">  1       -2 0.58007807E-01 0.17418209E+04</pdfrwt>
<totfact> 0.67778583E+00</totfact>
</mgrwt>
</event>
<event>
12    4  0.4424320E-008  0.2314782E+04  0.7818608E-02  0.8472116E-01
          1   -1    0    0  501    0  0.00000000000E+00  0.00000000000E+00  0.12156169678E+04  0.12156169678E+04  0.00000000000E+00 0. -1.
         -2   -1    0    0    0  501 -0.00000000000E+00 -0.00000000000E+00 -0.11019538195E+04  0.11019538195E+04  0.00000000000E+00 0.  1.
        -24    2    1    2    0    0 -0.86632277077E+03  0.44900417844E+03 -0.11362674356E+03  0.98583075228E+03  0.82651919962E+02 0.  0.
        254    2    1    2    0    0  0.86632277077E+03 -0.44900417844E+03  0.22728989192E+03  0.13317400350E+04  0.87735450671E+03 0.  0.
         23    2    4    4    0    0  0.42970483932E+03 -0.40172281619E+03  0.52434619970E+03  0.79345857044E+03  0.92790602378E+02 0.  0.
         23    2    4    4    0    0  0.43661793145E+03 -0.47281362251E+02 -0.29705630778E+03  0.53828146456E+03  0.92917919780E+02 0.  0.
          3    1    3    3  502    0 -0.37328988915E+03  0.15639225211E+03 -0.22941117959E+02  0.40537658141E+03  0.00000000000E+00 0. -1.
         -4    1    3    3    0  502 -0.49303288162E+03  0.29261192632E+03 -0.90685625601E+02  0.58045417087E+03  0.00000000000E+00 0.  1.
         11    1    5    5    0    0  0.76046668375E+02 -0.44076292269E+02  0.11630937766E+03  0.14578644190E+03  0.00000000000E+00 0. -1.
        -11    1    5    5    0    0  0.35365817094E+03 -0.35764652392E+03  0.40803682204E+03  0.64767212854E+03  0.00000000000E+00 0.  1.
          4    1    6    6  503    0  0.14287532844E+02  0.14060522011E+02 -0.36159246209E+01  0.20369260783E+02  0.00000000000E+00 0. -1.
         -4    1    6    6    0  503  0.42233039861E+03 -0.61341884262E+02 -0.29344038316E+03  0.51791220378E+03  0.00000000000E+00 0.  1.
<mgrwt>
<rscale>  0 0.23147819E+04</rscale>
<asrwt>0</asrwt>
<pdfrwt beam="1">  1        1 0.18701800E+00 0.23147819E+04</pdfrwt>
<pdfrwt beam="2">  1       -2 0.16953136E+00 0.23147819E+04</pdfrwt>
<totfact> 0.17706130E+00</totfact>
</mgrwt>
</event>
<event>
12    4  0.4424320E-008  0.1261369E+04  0.7818608E-02  0.9060774E-01
          1   -1    0    0  501    0  0.00000000000E+00  0.00000000000E+00  0.14054794820E+04  0.14054794820E+04  0.00000000000E+00 0. -1.
         -2   -1    0    0    0  501 -0.00000000000E+00 -0.00000000000E+00 -0.28300868345E+03  0.28300868345E+03  0.00000000000E+00 0.  1.
        -24    2    1    2    0    0 -0.84258065729E+02  0.64730834116E+02 -0.94348395666E+02  0.16281281919E+03  0.79478876443E+02 0.  0.
        254    2    1    2    0    0  0.84258065729E+02 -0.64730834116E+02  0.12168191942E+04  0.15256753462E+04  0.91419188810E+03 0.  0.
         23    2    4    4    0    0 -0.36887166886E+03 -0.68388898706E+02  0.86026308081E+03  0.94216802354E+03  0.82973892448E+02 0.  0.
         23    2    4    4    0    0  0.45312973459E+03  0.36580645893E+01  0.35655611338E+03  0.58350732270E+03  0.89490758501E+02 0.  0.
          3    1    3    3  502    0  0.85727910652E+01  0.36255462401E+01 -0.36210734559E+02  0.37387894156E+02  0.00000000000E+00 0. -1.
         -4    1    3    3    0  502 -0.92830856794E+02  0.61105287876E+02 -0.58137661107E+02  0.12542492503E+03  0.00000000000E+00 0.  1.
         11    1    5    5    0    0 -0.36582780592E+02 -0.17975929160E+02  0.16460402214E+03  0.16957569982E+03  0.00000000000E+00 0. -1.
        -11    1    5    5    0    0 -0.33228888827E+03 -0.50412969546E+02  0.69565905867E+03  0.77259232372E+03  0.00000000000E+00 0.  1.
          3    1    6    6  503    0  0.29874680636E+02 -0.10701486502E+02  0.55409793519E+02  0.63853453895E+02  0.00000000000E+00 0. -1.
         -3    1    6    6    0  503  0.42325505395E+03  0.14359551091E+02  0.30114631986E+03  0.51965386881E+03  0.00000000000E+00 0.  1.
<mgrwt>
<rscale>  0 0.12613689E+04</rscale>
<asrwt>0</asrwt>
<pdfrwt beam="1">  1        1 0.21622761E+00 0.12613689E+04</pdfrwt>
<pdfrwt beam="2">  1       -2 0.43539798E-01 0.12613689E+04</pdfrwt>
<totfact> 0.32923367E+01</totfact>
</mgrwt>
</event>
<event>
12    4  0.4424320E-008  0.2093004E+04  0.7818608E-02  0.8564332E-01
         -2   -1    0    0    0  501 -0.00000000000E+00  0.00000000000E+00  0.54488944652E+03  0.54488944652E+03  0.00000000000E+00 0.  1.
          1   -1    0    0  501    0  0.00000000000E+00 -0.00000000000E+00 -0.20098870393E+04  0.20098870393E+04  0.00000000000E+00 0. -1.
        -24    2    1    2    0    0  0.58465177292E+03  0.44674631486E+02 -0.13571777732E+04  0.14814122828E+04  0.94007048729E+02 0.  0.
        254    2    1    2    0    0 -0.58465177292E+03 -0.44674631486E+02 -0.10781981953E+03  0.10733642030E+04  0.89256488868E+03 0.  0.
         23    2    4    4    0    0 -0.42217132356E+03  0.39930615469E+03 -0.50384977760E+02  0.59063533329E+03  0.92937717486E+02 0.  0.
         23    2    4    4    0    0 -0.16248044936E+03 -0.44398078618E+03 -0.57434841765E+02  0.48272886971E+03  0.78800797445E+02 0.  0.
          1    1    3    3  502    0  0.19212251394E+03 -0.52771793386E+01 -0.54667330996E+03  0.57947443153E+03  0.00000000000E+00 0. -1.
         -2    1    3    3    0  502  0.39252925899E+03  0.49951810825E+02 -0.81050446325E+03  0.90193785125E+03  0.00000000000E+00 0.  1.
         11    1    5    5    0    0 -0.49053023125E+02  0.12453387836E+02 -0.10516284119E+02  0.51690213561E+02  0.00000000000E+00 0.  1.
        -11    1    5    5    0    0 -0.37311830044E+03  0.38685276686E+03 -0.39868693641E+02  0.53894511973E+03  0.00000000000E+00 0. -1.
          2    1    6    6  503    0 -0.13890595792E+02 -0.11629826126E+03 -0.34952305661E+02  0.12222887505E+03  0.00000000000E+00 0. -1.
         -2    1    6    6    0  503 -0.14858985357E+03 -0.32768252492E+03 -0.22482536105E+02  0.36049999466E+03  0.00000000000E+00 0.  1.
<mgrwt>
<rscale>  0 0.20930038E+04</rscale>
<asrwt>0</asrwt>
<pdfrwt beam="1">  1        1 0.30921338E+00 0.20930038E+04</pdfrwt>
<pdfrwt beam="2">  1       -2 0.83829148E-01 0.20930038E+04</pdfrwt>
<totfact> 0.29491956E+00</totfact>
</mgrwt>
</event>
<event>
12    4  0.4424320E-008  0.1639575E+04  0.7818608E-02  0.8796598E-01
         -2   -1    0    0    0  501 -0.00000000000E+00  0.00000000000E+00  0.11067969001E+04  0.11067969001E+04  0.00000000000E+00 0.  1.
          1   -1    0    0  501    0  0.00000000000E+00 -0.00000000000E+00 -0.60720400604E+03  0.60720400604E+03  0.00000000000E+00 0. -1.
        -24    2    1    2    0    0 -0.28067751960E+03 -0.47611801636E+03  0.24884343905E+03  0.61147466382E+03  0.80684396380E+02 0.  0.
        254    2    1    2    0    0  0.28067751960E+03  0.47611801636E+03  0.25074945501E+03  0.11025262423E+04  0.92044586496E+03 0.  0.
         23    2    4    4    0    0  0.24056630766E+03  0.38344965110E+03  0.58304427608E+03  0.74354990942E+03  0.89554768807E+02 0.  0.
         23    2    4    4    0    0  0.40111211937E+02  0.92668365263E+02 -0.33229482107E+03  0.35897633291E+03  0.90817532620E+02 0.  0.
          3    1    3    3  502    0 -0.17526986106E+03 -0.34670335767E+03  0.20327679425E+03  0.43845660846E+03  0.00000000000E+00 0. -1.
         -4    1    3    3    0  502 -0.10540765854E+03 -0.12941465869E+03  0.45566644795E+02  0.17301805536E+03  0.00000000000E+00 0.  1.
         11    1    5    5    0    0  0.19251978565E+03  0.30481105256E+03  0.39917626877E+03  0.53788041346E+03  0.00000000000E+00 0. -1.
        -11    1    5    5    0    0  0.48046522011E+02  0.78638598539E+02  0.18386800731E+03  0.20566949596E+03  0.00000000000E+00 0.  1.
          2    1    6    6  503    0 -0.22359803922E+02  0.86280139577E+00 -0.84964098662E+02  0.87861273148E+02  0.00000000000E+00 0. -1.
         -2    1    6    6    0  503  0.62471015859E+02  0.91805563867E+02 -0.24733072241E+03  0.27111505976E+03  0.00000000000E+00 0.  1.
<mgrwt>
<rscale>  0 0.16395750E+04</rscale>
<asrwt>0</asrwt>
<pdfrwt beam="1">  1        1 0.93416001E-01 0.16395750E+04</pdfrwt>
<pdfrwt beam="2">  1       -2 0.17027645E+00 0.16395750E+04</pdfrwt>
<totfact> 0.59733820E+00</totfact>
</mgrwt>
</event>
<event>
12    4  0.4424320E-008  0.1565511E+04  0.7818608E-02  0.8842021E-01
          1   -1    0    0  501    0  0.00000000000E+00  0.00000000000E+00  0.50535875388E+03  0.50535875388E+03  0.00000000000E+00 0. -1.
         -4   -1    0    0    0  501 -0.00000000000E+00 -0.00000000000E+00 -0.12124183947E+04  0.12124183947E+04  0.00000000000E+00 0.  1.
        -24    2    1    2    0    0  0.48199557993E+03  0.17998342346E+03 -0.15975667048E+03  0.54411221418E+03  0.76302923023E+02 0.  0.
        254    2    1    2    0    0 -0.48199557993E+03 -0.17998342346E+03 -0.54730297030E+03  0.11736649344E+04  0.90179546743E+03 0.  0.
         23    2    4    4    0    0  0.11421559833E+03 -0.35261854703E+03 -0.77411111808E+02  0.38956387424E+03  0.91555935182E+02 0.  0.
         23    2    4    4    0    0 -0.59621117826E+03  0.17263512357E+03 -0.46989185849E+03  0.78410106012E+03  0.93517157994E+02 0.  0.
          1    1    3    3  502    0  0.34404777483E+03  0.10532303278E+03 -0.13971136393E+03  0.38598067026E+03  0.00000000000E+00 0. -1.
         -2    1    3    3    0  502  0.13794780510E+03  0.74660390680E+02 -0.20045306548E+02  0.15813154392E+03  0.00000000000E+00 0.  1.
         11    1    5    5    0    0  0.27311711034E+02 -0.38902856069E+02 -0.39558576772E+02  0.61840462208E+02  0.00000000000E+00 0. -1.
        -11    1    5    5    0    0  0.86903887300E+02 -0.31371569097E+03 -0.37852535036E+02  0.32772341203E+03  0.00000000000E+00 0.  1.
          2    1    6    6  503    0 -0.35156433317E+01 -0.68465229819E+01 -0.10578311207E+02  0.13081868864E+02  0.00000000000E+00 0. -1.
         -2    1    6    6    0  503 -0.59269553493E+03  0.17948164655E+03 -0.45931354728E+03  0.77101919126E+03  0.00000000000E+00 0.  1.
<mgrwt>
<rscale>  0 0.15655111E+04</rscale>
<asrwt>0</asrwt>
<pdfrwt beam="1">  1        1 0.77747501E-01 0.15655111E+04</pdfrwt>
<pdfrwt beam="2">  1       -4 0.18652591E+00 0.15655111E+04</pdfrwt>
<totfact> 0.32589387E+00</totfact>
</mgrwt>
</event>
<event>
12    4  0.4424320E-008  0.2134261E+04  0.7818608E-02  0.8546299E-01
          1   -1    0    0  501    0  0.00000000000E+00  0.00000000000E+00  0.15795788618E+04  0.15795788618E+04  0.00000000000E+00 0. -1.
         -2   -1    0    0    0  501 -0.00000000000E+00 -0.00000000000E+00 -0.72093132620E+03  0.72093132620E+03  0.00000000000E+00 0.  1.
        -24    2    1    2    0    0  0.71426537762E+03  0.58291120637E+02  0.87333949715E+03  0.11326842670E+04  0.81724458433E+02 0.  0.
        254    2    1    2    0    0 -0.71426537762E+03 -0.58291120637E+02 -0.14691961592E+02  0.11678259209E+04  0.92196997967E+03 0.  0.
         23    2    4    4    0    0 -0.92400207869E+03 -0.77927848626E+02  0.39814925555E+02  0.93253610860E+03  0.90475270284E+02 0.  0.
         23    2    4    4    0    0  0.20973670107E+03  0.19636727989E+02 -0.54506887147E+02  0.23528981231E+03  0.89527706148E+02 0.  0.
          3    1    3    3  502    0  0.40077293316E+03  0.58918531260E+02  0.54056909867E+03  0.67550372887E+03  0.00000000000E+00 0. -1.
         -4    1    3    3    0  502  0.31349244446E+03 -0.62741062304E+00  0.33277039848E+03  0.45718053817E+03  0.00000000000E+00 0.  1.
         11    1    5    5    0    0 -0.79745676519E+03 -0.36007296411E+02  0.29132276328E+02  0.79880066804E+03  0.00000000000E+00 0.  1.
        -11    1    5    5    0    0 -0.12654531351E+03 -0.41920552215E+02  0.10682649227E+02  0.13373544056E+03  0.00000000000E+00 0. -1.
          3    1    6    6  503    0  0.14843751348E+03 -0.26108774755E+02 -0.22543219023E+02  0.15239278281E+03  0.00000000000E+00 0. -1.
         -3    1    6    6    0  503  0.61299187588E+02  0.45745502744E+02 -0.31963668123E+02  0.82897029501E+02  0.00000000000E+00 0.  1.
<mgrwt>
<rscale>  0 0.21342614E+04</rscale>
<asrwt>0</asrwt>
<pdfrwt beam="1">  1        1 0.24301213E+00 0.21342614E+04</pdfrwt>
<pdfrwt beam="2">  1       -2 0.11091251E+00 0.21342614E+04</pdfrwt>
<totfact> 0.29880225E+00</totfact>
</mgrwt>
</event>
<event>
12    4  0.4424320E-008  0.2131862E+04  0.7818608E-02  0.8547336E-01
         -2   -1    0    0    0  501 -0.00000000000E+00  0.00000000000E+00  0.66968314959E+03  0.66968314959E+03  0.00000000000E+00 0.  1.
          1   -1    0    0  501    0  0.00000000000E+00 -0.00000000000E+00 -0.16966362013E+04  0.16966362013E+04  0.00000000000E+00 0. -1.
        -24    2    1    2    0    0  0.64511885599E+03  0.33794655831E+03 -0.94772533763E+03  0.11978743637E+04  0.79583044300E+02 0.  0.
        254    2    1    2    0    0 -0.64511885599E+03 -0.33794655831E+03 -0.79227714078E+02  0.11684449872E+04  0.91027492708E+03 0.  0.
         23    2    4    4    0    0 -0.35528923279E+03 -0.51786093283E+03 -0.34662579526E+03  0.72312443325E+03  0.91373515477E+02 0.  0.
         23    2    4    4    0    0 -0.28982962320E+03  0.17991437452E+03  0.26739808118E+03  0.44532055397E+03  0.10216784882E+03 0.  0.
          1    1    3    3  502    0  0.61339822957E+03  0.30020990921E+03 -0.89330544846E+03  0.11244456420E+04  0.00000000000E+00 0. -1.
         -2    1    3    3    0  502  0.31720626423E+02  0.37736649098E+02 -0.54419889172E+02  0.73428721651E+02  0.00000000000E+00 0.  1.
         11    1    5    5    0    0 -0.23108621341E+03 -0.30773475086E+03 -0.16423931860E+03  0.41842092286E+03  0.00000000000E+00 0. -1.
        -11    1    5    5    0    0 -0.12420301938E+03 -0.21012618197E+03 -0.18238647666E+03  0.30470351038E+03  0.00000000000E+00 0.  1.
          4    1    6    6  503    0 -0.93999697563E+02  0.78766880097E+02  0.15577676562E+03  0.19825883397E+03  0.00000000000E+00 0. -1.
         -4    1    6    6    0  503 -0.19582992563E+03  0.10114749443E+03  0.11162131556E+03  0.24706172000E+03  0.00000000000E+00 0.  1.
<mgrwt>
<rscale>  0 0.21318618E+04</rscale>
<asrwt>0</asrwt>
<pdfrwt beam="1">  1        1 0.26102095E+00 0.21318618E+04</pdfrwt>
<pdfrwt beam="2">  1       -2 0.10302818E+00 0.21318618E+04</pdfrwt>
<totfact> 0.29682334E+00</totfact>
</mgrwt>
</event>
<event>
12    4  0.4424320E-008  0.1299424E+04  0.7818608E-02  0.9030022E-01
         -2   -1    0    0    0  501 -0.00000000000E+00  0.00000000000E+00  0.37864868814E+03  0.37864868814E+03  0.00000000000E+00 0.  1.
          1   -1    0    0  501    0  0.00000000000E+00 -0.00000000000E+00 -0.11148209147E+04  0.11148209147E+04  0.00000000000E+00 0. -1.
        -24    2    1    2    0    0 -0.31123601784E+03  0.21832960743E+02 -0.72318404294E+02  0.32999196872E+03  0.79499753708E+02 0.  0.
        254    2    1    2    0    0  0.31123601784E+03 -0.21832960743E+02 -0.66385382224E+03  0.11634776341E+04  0.90312444921E+03 0.  0.
         23    2    4    4    0    0  0.57592942792E+03 -0.26332570485E+02 -0.66341571739E+03  0.88349094715E+03  0.89709137759E+02 0.  0.
         23    2    4    4    0    0 -0.26469341007E+03  0.44996097426E+01 -0.43810484840E+00  0.27998668695E+03  0.91156486929E+02 0.  0.
          3    1    3    3  502    0 -0.95593122176E+02 -0.54072105564E+00  0.14049054165E+02  0.96621495070E+02  0.00000000000E+00 0. -1.
         -4    1    3    3    0  502 -0.21564289567E+03  0.22373681798E+02 -0.86367458460E+02  0.23337047365E+03  0.00000000000E+00 0.  1.
         11    1    5    5    0    0  0.54158925652E+03 -0.40669971033E+02 -0.64057682343E+03  0.83982833724E+03  0.00000000000E+00 0.  1.
        -11    1    5    5    0    0  0.34340171404E+02  0.14337400548E+02 -0.22838893963E+02  0.43662609908E+02  0.00000000000E+00 0. -1.
          3    1    6    6  503    0 -0.22630270325E+02 -0.20502984243E+02  0.18827251479E+02  0.35874320845E+02  0.00000000000E+00 0. -1.
         -3    1    6    6    0  503 -0.24206313975E+03  0.25002593985E+02 -0.19265356328E+02  0.24411236611E+03  0.00000000000E+00 0.  1.
<mgrwt>
<rscale>  0 0.12994237E+04</rscale>
<asrwt>0</asrwt>
<pdfrwt beam="1">  1        1 0.17151091E+00 0.12994237E+04</pdfrwt>
<pdfrwt beam="2">  1       -2 0.58253644E-01 0.12994237E+04</pdfrwt>
<totfact> 0.29349540E+01</totfact>
</mgrwt>
</event>
<event>
12    4  0.6233854E-008  0.1826994E+04  0.7818608E-02  0.8692074E-01
          1   -1    0    0  501    0  0.00000000000E+00  0.00000000000E+00  0.73570205329E+03  0.73570205329E+03  0.00000000000E+00 0. -1.
         -2   -1    0    0    0  501 -0.00000000000E+00 -0.00000000000E+00 -0.11342595907E+04  0.11342595907E+04  0.00000000000E+00 0.  1.
        -24    2    1    2    0    0 -0.42432510494E+03  0.25128346220E+03 -0.63767597987E+03  0.80961034157E+03  0.75120415457E+02 0.  0.
        254    2    1    2    0    0  0.42432510494E+03 -0.25128346220E+03  0.23911844248E+03  0.10603513024E+04  0.90772907958E+03 0.  0.
         23    2    4    4    0    0  0.10268623530E+03  0.32126522785E+03 -0.15939126078E+02  0.34987854980E+03  0.91679519636E+02 0.  0.
         23    2    4    4    0    0  0.32163886964E+03 -0.57254869005E+03  0.25505756855E+03  0.71047275261E+03  0.91943482511E+02 0.  0.
          1    1    3    3  502    0 -0.16025674918E+02  0.20423758436E+01 -0.45967198494E+02  0.48723473737E+02  0.00000000000E+00 0. -1.
         -2    1    3    3    0  502 -0.40829943002E+03  0.24924108636E+03 -0.59170878138E+03  0.76088686784E+03  0.00000000000E+00 0.  1.
         11    1    5    5    0    0  0.17271147151E+02  0.49895900743E+02 -0.37202903665E+02  0.64590629939E+02  0.00000000000E+00 0. -1.
        -11    1    5    5    0    0  0.85415088150E+02  0.27136932711E+03  0.21263777587E+02  0.28528791986E+03  0.00000000000E+00 0.  1.
          3    1    6    6  503    0  0.64597769886E+02 -0.94793159092E+02  0.82073618740E+02  0.14104855114E+03  0.00000000000E+00 0. -1.
         -3    1    6    6    0  503  0.25704109975E+03 -0.47775553096E+03  0.17298394981E+03  0.56942420147E+03  0.00000000000E+00 0.  1.
<mgrwt>
<rscale>  0 0.18269944E+04</rscale>
<asrwt>0</asrwt>
<pdfrwt beam="1">  1        1 0.11318493E+00 0.18269944E+04</pdfrwt>
<pdfrwt beam="2">  1       -2 0.17450147E+00 0.18269944E+04</pdfrwt>
<totfact> 0.41195382E+00</totfact>
</mgrwt>
</event>
<event>
12    4  0.4424320E-008  0.1373986E+04  0.7818608E-02  0.8972867E-01
         -2   -1    0    0    0  501 -0.00000000000E+00  0.00000000000E+00  0.63857835603E+03  0.63857835603E+03  0.00000000000E+00 0.  1.
          1   -1    0    0  501    0  0.00000000000E+00 -0.00000000000E+00 -0.73907878887E+03  0.73907878887E+03  0.00000000000E+00 0. -1.
        -24    2    1    2    0    0 -0.27515577997E+03 -0.20231027729E+03  0.16572757707E+03  0.38870562001E+03  0.83583955860E+02 0.  0.
        254    2    1    2    0    0  0.27515577997E+03  0.20231027729E+03 -0.26622800991E+03  0.98895152489E+03  0.88910495094E+03 0.  0.
         23    2    4    4    0    0 -0.20232165369E+03  0.23189758627E+03 -0.37120874527E+03  0.49202506180E+03  0.97888644933E+02 0.  0.
         23    2    4    4    0    0  0.47747743366E+03 -0.29587308975E+02  0.10498073536E+03  0.49692646309E+03  0.83993133144E+02 0.  0.
          3    1    3    3  502    0 -0.17509348085E+03 -0.88316062129E+02  0.64882359590E+02  0.20656034095E+03  0.00000000000E+00 0. -1.
         -4    1    3    3    0  502 -0.10006229911E+03 -0.11399421516E+03  0.10084521748E+03  0.18214527906E+03  0.00000000000E+00 0.  1.
         11    1    5    5    0    0  0.27861578576E+01  0.12187749305E+02 -0.52393051013E+02  0.53864048336E+02  0.00000000000E+00 0.  1.
        -11    1    5    5    0    0 -0.20510781155E+03  0.21970983696E+03 -0.31881569426E+03  0.43816101347E+03  0.00000000000E+00 0. -1.
          2    1    6    6  503    0  0.45697940652E+03 -0.39981178145E+02  0.11325615456E+03  0.47249934300E+03  0.00000000000E+00 0. -1.
         -2    1    6    6    0  503  0.20498027136E+02  0.10393869169E+02 -0.82754192002E+01  0.24427120086E+02  0.00000000000E+00 0.  1.
<mgrwt>
<rscale>  0 0.13739865E+04</rscale>
<asrwt>0</asrwt>
<pdfrwt beam="1">  1        1 0.11370443E+00 0.13739865E+04</pdfrwt>
<pdfrwt beam="2">  1       -2 0.98242824E-01 0.13739865E+04</pdfrwt>
<totfact> 0.18471278E+01</totfact>
</mgrwt>
</event>
<event>
12    4  0.4424320E-008  0.1628840E+04  0.7818608E-02  0.8803024E-01
         -2   -1    0    0    0  501 -0.00000000000E+00  0.00000000000E+00  0.27849428376E+03  0.27849428376E+03  0.00000000000E+00 0.  1.
          1   -1    0    0  501    0  0.00000000000E+00 -0.00000000000E+00 -0.23816648700E+04  0.23816648700E+04  0.00000000000E+00 0. -1.
        -24    2    1    2    0    0  0.33225801090E+03 -0.34785915846E+03 -0.12081733837E+04  0.13030376099E+04  0.82599683415E+02 0.  0.
        254    2    1    2    0    0 -0.33225801090E+03  0.34785915846E+03 -0.89499720256E+03  0.13571215439E+04  0.89964299166E+03 0.  0.
         23    2    4    4    0    0 -0.59040415158E+03  0.23512907171E+03 -0.83577867406E+03  0.10539317972E+04  0.91561446417E+02 0.  0.
         23    2    4    4    0    0  0.25814614069E+03  0.11273008675E+03 -0.59218528505E+02  0.30318974676E+03  0.95234899133E+02 0.  0.
          1    1    3    3  502    0  0.14774194478E+03 -0.20027385369E+03 -0.54830556407E+03  0.60214308126E+03  0.00000000000E+00 0. -1.
         -2    1    3    3    0  502  0.18451606612E+03 -0.14758530477E+03 -0.65986781963E+03  0.70089452861E+03  0.00000000000E+00 0.  1.
         11    1    5    5    0    0 -0.47691047234E+03  0.15647368554E+03 -0.68864839066E+03  0.85215269691E+03  0.00000000000E+00 0.  1.
        -11    1    5    5    0    0 -0.11349367924E+03  0.78655386169E+02 -0.14713028340E+03  0.20177910024E+03  0.00000000000E+00 0. -1.
          4    1    6    6  503    0  0.23089782450E+03  0.12550975311E+03 -0.68698312879E+02  0.27163571503E+03  0.00000000000E+00 0.  1.
         -4    1    6    6    0  503  0.27248316183E+02 -0.12779666355E+02  0.94797843744E+01  0.31554031735E+02  0.00000000000E+00 0. -1.
<mgrwt>
<rscale>  0 0.16288401E+04</rscale>
<asrwt>0</asrwt>
<pdfrwt beam="1">  1        1 0.36640997E+00 0.16288401E+04</pdfrwt>
<pdfrwt beam="2">  1       -2 0.42845275E-01 0.16288401E+04</pdfrwt>
<totfact> 0.71104368E+00</totfact>
</mgrwt>
</event>
<event>
12    4  0.4424320E-008  0.1869174E+04  0.7818608E-02  0.8670354E-01
          1   -1    0    0  501    0  0.00000000000E+00  0.00000000000E+00  0.11331825415E+04  0.11331825415E+04  0.00000000000E+00 0. -1.
         -2   -1    0    0    0  501 -0.00000000000E+00 -0.00000000000E+00 -0.77079655667E+03  0.77079655667E+03  0.00000000000E+00 0.  1.
        -24    2    1    2    0    0 -0.22931477793E+03  0.33584339504E+03 -0.44167883242E+03  0.60567845907E+03  0.79938422621E+02 0.  0.
        254    2    1    2    0    0  0.22931477793E+03 -0.33584339504E+03  0.80406481726E+03  0.12983006391E+04  0.93471293227E+03 0.  0.
         23    2    4    4    0    0 -0.15504775533E+03  0.64988763810E+02 -0.11410336358E+03  0.22138883003E+03  0.87920933966E+02 0.  0.
         23    2    4    4    0    0  0.38436253325E+03 -0.40083215884E+03  0.91816818084E+03  0.10769118091E+04  0.91133197262E+02 0.  0.
          3    1    3    3  502    0 -0.95521281483E+02  0.75884900939E+02 -0.13561616354E+03  0.18241320462E+03  0.00000000000E+00 0. -1.
         -4    1    3    3    0  502 -0.13379349644E+03  0.25995849410E+03 -0.30606266888E+03  0.42326525445E+03  0.00000000000E+00 0.  1.
         11    1    5    5    0    0 -0.67823583064E+02 -0.16376604989E+02 -0.51146974547E+02  0.86511528804E+02  0.00000000000E+00 0. -1.
        -11    1    5    5    0    0 -0.87224172261E+02  0.81365368799E+02 -0.62956389037E+02  0.13487730123E+03  0.00000000000E+00 0.  1.
          4    1    6    6  503    0  0.29667513684E+03 -0.35865563436E+03  0.75745039336E+03  0.88903380098E+03  0.00000000000E+00 0. -1.
         -4    1    6    6    0  503  0.87687396407E+02 -0.42176524480E+02  0.16071778748E+03  0.18787800808E+03  0.00000000000E+00 0.  1.
<mgrwt>
<rscale>  0 0.18691744E+04</rscale>
<asrwt>0</asrwt>
<pdfrwt beam="1">  1        1 0.17433577E+00 0.18691744E+04</pdfrwt>
<pdfrwt beam="2">  1       -2 0.11858409E+00 0.18691744E+04</pdfrwt>
<totfact> 0.53867218E+00</totfact>
</mgrwt>
</event>
<event>
12    4  0.4424320E-008  0.2089638E+04  0.7818608E-02  0.8565822E-01
         -2   -1    0    0    0  501 -0.00000000000E+00  0.00000000000E+00  0.10195049124E+04  0.10195049124E+04  0.00000000000E+00 0.  1.
          1   -1    0    0  501    0  0.00000000000E+00 -0.00000000000E+00 -0.10707614276E+04  0.10707614276E+04  0.00000000000E+00 0. -1.
        -24    2    1    2    0    0 -0.20606770910E+03  0.13962247271E+03 -0.83472032360E+03  0.87471575193E+03  0.80070546508E+02 0.  0.
        254    2    1    2    0    0  0.20606770910E+03 -0.13962247271E+03  0.78346380837E+03  0.12155505881E+04  0.89542691357E+03 0.  0.
         23    2    4    4    0    0  0.36722147247E+03 -0.34591013935E+03  0.16653641468E+03  0.53917991298E+03  0.92060669128E+02 0.  0.
         23    2    4    4    0    0 -0.16115376337E+03  0.20628766664E+03  0.61692739369E+03  0.67637067510E+03  0.91393348791E+02 0.  0.
          3    1    3    3  502    0 -0.19701632542E+03  0.10092357728E+03 -0.72359433440E+03  0.75669661141E+03  0.00000000000E+00 0. -1.
         -4    1    3    3    0  502 -0.90513836747E+01  0.38698895429E+02 -0.11112598920E+03  0.11801914052E+03  0.00000000000E+00 0.  1.
         11    1    5    5    0    0  0.75187277724E+02 -0.11535007672E+03  0.71538976605E+02  0.15516633689E+03  0.00000000000E+00 0. -1.
        -11    1    5    5    0    0  0.29203419474E+03 -0.23056006263E+03  0.94997438079E+02  0.38401357609E+03  0.00000000000E+00 0.  1.
          2    1    6    6  503    0  0.43345183471E+01  0.14855900155E+02  0.95953576216E+02  0.97193490561E+02  0.00000000000E+00 0. -1.
         -2    1    6    6    0  503 -0.16548828172E+03  0.19143176649E+03  0.52097381747E+03  0.57917718454E+03  0.00000000000E+00 0.  1.
<mgrwt>
<rscale>  0 0.20896378E+04</rscale>
<asrwt>0</asrwt>
<pdfrwt beam="1">  1        1 0.16473253E+00 0.20896378E+04</pdfrwt>
<pdfrwt beam="2">  1       -2 0.15684691E+00 0.20896378E+04</pdfrwt>
<totfact> 0.28633410E+00</totfact>
</mgrwt>
</event>
<event>
12    4  0.4424320E-008  0.2372146E+04  0.7818608E-02  0.8450006E-01
         -2   -1    0    0    0  501 -0.00000000000E+00  0.00000000000E+00  0.11608336968E+04  0.11608336968E+04  0.00000000000E+00 0.  1.
          1   -1    0    0  501    0  0.00000000000E+00 -0.00000000000E+00 -0.12118609621E+04  0.12118609621E+04  0.00000000000E+00 0. -1.
        -24    2    1    2    0    0 -0.66166174573E+03 -0.57118681747E+02  0.73908326973E+03  0.99681873440E+03  0.79653625633E+02 0.  0.
        254    2    1    2    0    0  0.66166174573E+03  0.57118681747E+02 -0.79011053506E+03  0.13758759246E+04  0.90978079371E+03 0.  0.
         23    2    4    4    0    0  0.43636207680E+03  0.11293493153E+03 -0.96649242570E+03  0.10703859895E+04  0.91936917642E+02 0.  0.
         23    2    4    4    0    0  0.22529966893E+03 -0.55816249787E+02  0.17638189065E+03  0.30548993502E+03  0.91313386138E+02 0.  0.
          3    1    3    3  502    0 -0.27356822855E+03 -0.61108120801E+02  0.32822556655E+03  0.43163155658E+03  0.00000000000E+00 0. -1.
         -4    1    3    3    0  502 -0.38809351718E+03  0.39894390541E+01  0.41085770318E+03  0.56518717781E+03  0.00000000000E+00 0.  1.
         11    1    5    5    0    0  0.54359017176E+02 -0.13020614384E+02 -0.15282369574E+03  0.16272529344E+03  0.00000000000E+00 0. -1.
        -11    1    5    5    0    0  0.38200305962E+03  0.12595554592E+03 -0.81366872997E+03  0.90766069610E+03  0.00000000000E+00 0.  1.
          2    1    6    6  503    0  0.52449435782E+02 -0.25979201102E+02  0.26224894981E+01  0.58589586574E+02  0.00000000000E+00 0. -1.
         -2    1    6    6    0  503  0.17285023315E+03 -0.29837048685E+02  0.17375940115E+03  0.24690034845E+03  0.00000000000E+00 0.  1.
<mgrwt>
<rscale>  0 0.23721459E+04</rscale>
<asrwt>0</asrwt>
<pdfrwt beam="1">  1        1 0.18644015E+00 0.23721459E+04</pdfrwt>
<pdfrwt beam="2">  1       -2 0.17858980E+00 0.23721459E+04</pdfrwt>
<totfact> 0.15309768E+00</totfact>
</mgrwt>
</event>
<event>
12    4  0.4424320E-008  0.1413882E+04  0.7818608E-02  0.8943831E-01
          1   -1    0    0  501    0  0.00000000000E+00  0.00000000000E+00  0.23646117519E+04  0.23646117519E+04  0.00000000000E+00 0. -1.
         -2   -1    0    0    0  501 -0.00000000000E+00 -0.00000000000E+00 -0.21135198635E+03  0.21135198635E+03  0.00000000000E+00 0.  1.
        -24    2    1    2    0    0 -0.11148710418E+03  0.34096262719E+03  0.27619911010E+03  0.45966178990E+03  0.79486634923E+02 0.  0.
        254    2    1    2    0    0  0.11148710418E+03 -0.34096262719E+03  0.18770606554E+04  0.21163019484E+04  0.90922623414E+03 0.  0.
         23    2    4    4    0    0 -0.37806882187E+03 -0.92731070730E+02  0.10103990327E+04  0.10866905094E+04  0.91950923912E+02 0.  0.
         23    2    4    4    0    0  0.48955592605E+03 -0.24823155646E+03  0.86666162279E+03  0.10296114390E+04  0.87826172198E+02 0.  0.
          3    1    3    3  502    0 -0.28551595872E+02  0.17894526071E+02  0.29708911959E+02  0.44922456967E+02  0.00000000000E+00 0. -1.
         -4    1    3    3    0  502 -0.82935508307E+02  0.32306810112E+03  0.24649019814E+03  0.41473933293E+03  0.00000000000E+00 0.  1.
         11    1    5    5    0    0 -0.13028975236E+03  0.51694370856E+01  0.39902455504E+03  0.41978892098E+03  0.00000000000E+00 0.  1.
        -11    1    5    5    0    0 -0.24777906951E+03 -0.97900507816E+02  0.61137447761E+03  0.66690158839E+03  0.00000000000E+00 0. -1.
          4    1    6    6  503    0  0.48609049510E+03 -0.23646516761E+03  0.82612779598E+03  0.98726231581E+03  0.00000000000E+00 0. -1.
         -4    1    6    6    0  503  0.34654309463E+01 -0.11766388853E+02  0.40533826809E+02  0.42349123179E+02  0.00000000000E+00 0.  1.
<mgrwt>
<rscale>  0 0.14138817E+04</rscale>
<asrwt>0</asrwt>
<pdfrwt beam="1">  1        1 0.36378640E+00 0.14138817E+04</pdfrwt>
<pdfrwt beam="2">  1       -2 0.32515692E-01 0.14138817E+04</pdfrwt>
<totfact> 0.12697906E+01</totfact>
</mgrwt>
</event>
<event>
12    4  0.4424320E-008  0.1587427E+04  0.7818608E-02  0.8828310E-01
          1   -1    0    0  501    0  0.00000000000E+00  0.00000000000E+00  0.12903439645E+04  0.12903439645E+04  0.00000000000E+00 0. -1.
         -2   -1    0    0    0  501 -0.00000000000E+00 -0.00000000000E+00 -0.48822726237E+03  0.48822726237E+03  0.00000000000E+00 0.  1.
        -24    2    1    2    0    0 -0.42413690158E+03  0.18600314082E+03 -0.17920424711E+02  0.47010883254E+03  0.78688583250E+02 0.  0.
        254    2    1    2    0    0  0.42413690158E+03 -0.18600314082E+03  0.82003712684E+03  0.13084623943E+04  0.90836318084E+03 0.  0.
         23    2    4    4    0    0  0.50422593967E+03 -0.45592744480E+03  0.39582572409E+03  0.79162439235E+03  0.88755515651E+02 0.  0.
         23    2    4    4    0    0 -0.80089038086E+02  0.26992430398E+03  0.42421140274E+03  0.51683800198E+03  0.88841556563E+02 0.  0.
          3    1    3    3  502    0 -0.21519235923E+02  0.15619534137E+02 -0.19408806533E+02  0.32920345265E+02  0.00000000000E+00 0. -1.
         -4    1    3    3    0  502 -0.40261766566E+03  0.17038360668E+03  0.14883818221E+01  0.43718848727E+03  0.00000000000E+00 0.  1.
         11    1    5    5    0    0  0.16011258910E+03 -0.11037036950E+03  0.14938212359E+03  0.24521965358E+03  0.00000000000E+00 0. -1.
        -11    1    5    5    0    0  0.34411335056E+03 -0.34555707530E+03  0.24644360051E+03  0.54640473877E+03  0.00000000000E+00 0.  1.
          4    1    6    6  503    0 -0.50040514557E+02  0.24762087296E+03  0.33096433371E+03  0.41636227016E+03  0.00000000000E+00 0.  1.
         -4    1    6    6    0  503 -0.30048523529E+02  0.22303431014E+02  0.93247069032E+02  0.10047573182E+03  0.00000000000E+00 0. -1.
<mgrwt>
<rscale>  0 0.15874270E+04</rscale>
<asrwt>0</asrwt>
<pdfrwt beam="1">  1        1 0.19851445E+00 0.15874270E+04</pdfrwt>
<pdfrwt beam="2">  1       -2 0.75111887E-01 0.15874270E+04</pdfrwt>
<totfact> 0.12324855E+01</totfact>
</mgrwt>
</event>
<event>
12    4  0.4424320E-008  0.1526165E+04  0.7818608E-02  0.8867237E-01
          3   -1    0    0  501    0  0.00000000000E+00  0.00000000000E+00  0.71568680989E+03  0.71568680989E+03  0.00000000000E+00 0. -1.
         -4   -1    0    0    0  501 -0.00000000000E+00 -0.00000000000E+00 -0.81361738336E+03  0.81361738336E+03  0.00000000000E+00 0.  1.
        -24    2    1    2    0    0 -0.10330309099E+03  0.39622015153E+01  0.45108485272E+03  0.46984590869E+03  0.81181315036E+02 0.  0.
        254    2    1    2    0    0  0.10330309099E+03 -0.39622015153E+01 -0.54901542619E+03  0.10594582846E+04  0.90019258544E+03 0.  0.
         23    2    4    4    0    0 -0.32954532226E+03  0.11776651692E+03 -0.23317648093E+02  0.36173124739E+03  0.88525198089E+02 0.  0.
         23    2    4    4    0    0  0.43284841326E+03 -0.12172871843E+03 -0.52569777810E+03  0.69772703717E+03  0.91045234622E+02 0.  0.
          3    1    3    3  502    0 -0.10944434026E+03  0.10401030471E+02  0.44650176485E+03  0.45983700489E+03  0.00000000000E+00 0. -1.
         -4    1    3    3    0  502  0.61412492678E+01 -0.64388289554E+01  0.45830878661E+01  0.10008903800E+02  0.00000000000E+00 0.  1.
         11    1    5    5    0    0 -0.31035943521E+03  0.98561428946E+02  0.47460315012E+00  0.32563408843E+03  0.00000000000E+00 0. -1.
        -11    1    5    5    0    0 -0.19185887051E+02  0.19205087970E+02 -0.23792251243E+02  0.36097158961E+02  0.00000000000E+00 0.  1.
          2    1    6    6  503    0  0.19177661381E+03 -0.86276346773E+01 -0.23653572159E+03  0.30463396605E+03  0.00000000000E+00 0. -1.
         -2    1    6    6    0  503  0.24107179944E+03 -0.11310108375E+03 -0.28916205651E+03  0.39309307111E+03  0.00000000000E+00 0.  1.
<mgrwt>
<rscale>  0 0.15261654E+04</rscale>
<asrwt>0</asrwt>
<pdfrwt beam="1">  1        3 0.11010566E+00 0.15261654E+04</pdfrwt>
<pdfrwt beam="2">  1       -4 0.12517191E+00 0.15261654E+04</pdfrwt>
<totfact> 0.73238123E-01</totfact>
</mgrwt>
</event>
<event>
12    4  0.4424320E-008  0.1817021E+04  0.7818608E-02  0.8697300E-01
         -2   -1    0    0    0  501 -0.00000000000E+00  0.00000000000E+00  0.31611405565E+03  0.31611405565E+03  0.00000000000E+00 0.  1.
          1   -1    0    0  501    0  0.00000000000E+00 -0.00000000000E+00 -0.26110556618E+04  0.26110556618E+04  0.00000000000E+00 0. -1.
        -24    2    1    2    0    0  0.59952399028E+03  0.16327230375E+03 -0.41042499860E+03  0.74906143513E+03  0.80978355385E+02 0.  0.
        254    2    1    2    0    0 -0.59952399028E+03 -0.16327230375E+03 -0.18845166076E+04  0.21781082823E+04  0.89814585970E+03 0.  0.
         23    2    4    4    0    0 -0.47407397046E+03 -0.51521937122E+03 -0.12719860035E+04  0.14548533454E+04  0.91938749133E+02 0.  0.
         23    2    4    4    0    0 -0.12545001981E+03  0.35194706747E+03 -0.61253060408E+03  0.72325493694E+03  0.91101685494E+02 0.  0.
          1    1    3    3  502    0  0.18039099148E+03  0.11606865621E+02 -0.11181825612E+03  0.21255340867E+03  0.00000000000E+00 0. -1.
         -2    1    3    3    0  502  0.41913299880E+03  0.15166543813E+03 -0.29860674248E+03  0.53650802646E+03  0.00000000000E+00 0.  1.
         11    1    5    5    0    0 -0.25982868507E+03 -0.28548579349E+03 -0.79430807578E+03  0.88314121358E+03  0.00000000000E+00 0. -1.
        -11    1    5    5    0    0 -0.21424528539E+03 -0.22973357773E+03 -0.47767792770E+03  0.57171213182E+03  0.00000000000E+00 0.  1.
          1    1    6    6  503    0 -0.88631655794E+02  0.32988012847E+03 -0.54865932878E+03  0.64629987515E+03  0.00000000000E+00 0. -1.
         -1    1    6    6    0  503 -0.36818364018E+02  0.22066939004E+02 -0.63871275302E+02  0.76955061787E+02  0.00000000000E+00 0.  1.
<mgrwt>
<rscale>  0 0.18170211E+04</rscale>
<asrwt>0</asrwt>
<pdfrwt beam="1">  1        1 0.40170087E+00 0.18170211E+04</pdfrwt>
<pdfrwt beam="2">  1       -2 0.48632932E-01 0.18170211E+04</pdfrwt>
<totfact> 0.37611935E+00</totfact>
</mgrwt>
</event>
<event>
12    4  0.4424320E-008  0.2323353E+04  0.7818608E-02  0.8468770E-01
         -2   -1    0    0    0  501 -0.00000000000E+00  0.00000000000E+00  0.10981055958E+04  0.10981055958E+04  0.00000000000E+00 0.  1.
          1   -1    0    0  501    0  0.00000000000E+00 -0.00000000000E+00 -0.12289280527E+04  0.12289280527E+04  0.00000000000E+00 0. -1.
        -24    2    1    2    0    0 -0.40019027404E+03 -0.45800228164E+03 -0.83193080329E+03  0.10337069734E+04  0.80764471595E+02 0.  0.
        254    2    1    2    0    0  0.40019027404E+03  0.45800228164E+03  0.70110834632E+03  0.12933266751E+04  0.90067898269E+03 0.  0.
         23    2    4    4    0    0  0.23086400016E+03 -0.30307525434E+02 -0.15153952494E+03  0.29205724091E+03  0.90091462859E+02 0.  0.
         23    2    4    4    0    0  0.16932627388E+03  0.48830980707E+03  0.85264787126E+03  0.10012694342E+04  0.91729127328E+02 0.  0.
          1    1    3    3  502    0 -0.34195128774E+03 -0.35183750868E+03 -0.69756301113E+03  0.85282733903E+03  0.00000000000E+00 0. -1.
         -2    1    3    3    0  502 -0.58238986306E+02 -0.10616477296E+03 -0.13436779216E+03  0.18087963432E+03  0.00000000000E+00 0.  1.
         11    1    5    5    0    0  0.11322131594E+03  0.24067895712E+02 -0.44652504628E+02  0.12406520929E+03  0.00000000000E+00 0. -1.
        -11    1    5    5    0    0  0.11764268422E+03 -0.54375421146E+02 -0.10688702031E+03  0.16799203162E+03  0.00000000000E+00 0.  1.
          3    1    6    6  503    0 -0.51371568689E+01  0.44396682743E+02  0.45846384034E+02  0.64026141132E+02  0.00000000000E+00 0. -1.
         -3    1    6    6    0  503  0.17446343075E+03  0.44391312433E+03  0.80680148723E+03  0.93724329307E+03  0.00000000000E+00 0.  1.
<mgrwt>
<rscale>  0 0.23233534E+04</rscale>
<asrwt>0</asrwt>
<pdfrwt beam="1">  1        1 0.18906586E+00 0.23233534E+04</pdfrwt>
<pdfrwt beam="2">  1       -2 0.16893932E+00 0.23233534E+04</pdfrwt>
<totfact> 0.17472556E+00</totfact>
</mgrwt>
</event>
<event>
12    4  0.4424320E-008  0.2235263E+04  0.7818608E-02  0.8503893E-01
          1   -1    0    0  501    0  0.00000000000E+00  0.00000000000E+00  0.13742742171E+04  0.13742742171E+04  0.00000000000E+00 0. -1.
         -2   -1    0    0    0  501 -0.00000000000E+00 -0.00000000000E+00 -0.90891617820E+03  0.90891617820E+03  0.00000000000E+00 0.  1.
        -24    2    1    2    0    0 -0.27611436221E+03  0.75495388520E+03 -0.26721869809E+03  0.85084418275E+03  0.79595734254E+02 0.  0.
        254    2    1    2    0    0  0.27611436221E+03 -0.75495388520E+03  0.73257673694E+03  0.14323462125E+04  0.93206892834E+03 0.  0.
         23    2    4    4    0    0 -0.16397667520E+03 -0.74951840991E+03  0.54281327186E+03  0.94435292086E+03  0.92141164765E+02 0.  0.
         23    2    4    4    0    0  0.44009103741E+03 -0.54354752933E+01  0.18976346509E+03  0.48799329164E+03  0.91747558055E+02 0.  0.
          3    1    3    3  502    0 -0.20619302418E+03  0.51727294536E+03 -0.21940999867E+03  0.59852118654E+03  0.00000000000E+00 0. -1.
         -4    1    3    3    0  502 -0.69921338032E+02  0.23768093983E+03 -0.47808699416E+02  0.25232299620E+03  0.00000000000E+00 0.  1.
         11    1    5    5    0    0 -0.10745033735E+03 -0.43353841645E+03  0.36872313444E+03  0.57918726108E+03  0.00000000000E+00 0. -1.
        -11    1    5    5    0    0 -0.56526337848E+02 -0.31597999346E+03  0.17409013742E+03  0.36516565978E+03  0.00000000000E+00 0.  1.
          4    1    6    6  503    0  0.36860120789E+03  0.13587364287E+02  0.12436551020E+03  0.38925344835E+03  0.00000000000E+00 0. -1.
         -4    1    6    6    0  503  0.71489829515E+02 -0.19022839580E+02  0.65397954882E+02  0.98739843288E+02  0.00000000000E+00 0.  1.
<mgrwt>
<rscale>  0 0.22352629E+04</rscale>
<asrwt>0</asrwt>
<pdfrwt beam="1">  1        1 0.21142680E+00 0.22352629E+04</pdfrwt>
<pdfrwt beam="2">  1       -2 0.13983326E+00 0.22352629E+04</pdfrwt>
<totfact> 0.23023728E+00</totfact>
</mgrwt>
</event>
<event>
12    4  0.4424320E-008  0.1711827E+04  0.7818608E-02  0.8754647E-01
         -2   -1    0    0    0  501 -0.00000000000E+00  0.00000000000E+00  0.58178133368E+03  0.58178133368E+03  0.00000000000E+00 0.  1.
          1   -1    0    0  501    0  0.00000000000E+00 -0.00000000000E+00 -0.12592157042E+04  0.12592157042E+04  0.00000000000E+00 0. -1.
        -24    2    1    2    0    0  0.28311561599E+03  0.53321197530E+02  0.34235998425E+03  0.45399787295E+03  0.76851204947E+02 0.  0.
        254    2    1    2    0    0 -0.28311561599E+03 -0.53321197530E+02 -0.10197943548E+04  0.13869991649E+04  0.89486789827E+03 0.  0.
         23    2    4    4    0    0 -0.16347533713E+02  0.33571091571E+02  0.15028596524E+03  0.18025388167E+03  0.92256872174E+02 0.  0.
         23    2    4    4    0    0 -0.26676808228E+03 -0.86892289101E+02 -0.11700803200E+04  0.12067452832E+04  0.91819081658E+02 0.  0.
          1    1    3    3  502    0  0.30985393267E+02  0.24674511937E+02  0.78463718478E+02  0.87894716864E+02  0.00000000000E+00 0. -1.
         -4    1    3    3    0  502  0.25213022272E+03  0.28646685593E+02  0.26389626577E+03  0.36610315608E+03  0.00000000000E+00 0.  1.
         11    1    5    5    0    0 -0.23110307266E+02  0.63923619681E+02  0.11087073992E+03  0.13004859255E+03  0.00000000000E+00 0. -1.
        -11    1    5    5    0    0  0.67627735526E+01 -0.30352528109E+02  0.39415225317E+02  0.50205289119E+02  0.00000000000E+00 0.  1.
          4    1    6    6  503    0 -0.15285885555E+03 -0.23053284181E+02 -0.47550378063E+03  0.50000112902E+03  0.00000000000E+00 0.  1.
         -4    1    6    6    0  503 -0.11390922673E+03 -0.63839004920E+02 -0.69457653937E+03  0.70674415422E+03  0.00000000000E+00 0. -1.
<mgrwt>
<rscale>  0 0.17118273E+04</rscale>
<asrwt>0</asrwt>
<pdfrwt beam="1">  1        1 0.19372549E+00 0.17118273E+04</pdfrwt>
<pdfrwt beam="2">  1       -2 0.89504821E-01 0.17118273E+04</pdfrwt>
<totfact> 0.86380687E+00</totfact>
</mgrwt>
</event>
<event>
12    4  0.4424320E-008  0.1876645E+04  0.7818608E-02  0.8666570E-01
          1   -1    0    0  501    0  0.00000000000E+00  0.00000000000E+00  0.15634407084E+04  0.15634407084E+04  0.00000000000E+00 0. -1.
         -2   -1    0    0    0  501 -0.00000000000E+00 -0.00000000000E+00 -0.56314843879E+03  0.56314843879E+03  0.00000000000E+00 0.  1.
        -24    2    1    2    0    0 -0.52279748930E+03 -0.25056096597E+02 -0.18110660643E+03  0.55962402751E+03  0.80214876939E+02 0.  0.
        254    2    1    2    0    0  0.52279748930E+03  0.25056096597E+02  0.11813988761E+04  0.15669651197E+04  0.88641489116E+03 0.  0.
         23    2    4    4    0    0  0.15498872521E+03  0.39548553588E+03  0.26857537203E+03  0.51111197940E+03  0.93125780443E+02 0.  0.
         23    2    4    4    0    0  0.36780876408E+03 -0.37042943929E+03  0.91282350405E+03  0.10558531403E+04  0.95277741336E+02 0.  0.
          1    1    3    3  502    0 -0.16870642703E+03 -0.14062018652E+02 -0.20064451111E+02  0.17047633586E+03  0.00000000000E+00 0. -1.
         -4    1    3    3    0  502 -0.35409106226E+03 -0.10994077945E+02 -0.16104215532E+03  0.38914769165E+03  0.00000000000E+00 0.  1.
         11    1    5    5    0    0  0.26991510979E+02  0.19569126273E+03  0.11869502757E+03  0.23046067245E+03  0.00000000000E+00 0. -1.
        -11    1    5    5    0    0  0.12799721424E+03  0.19979427315E+03  0.14988034447E+03  0.28065130695E+03  0.00000000000E+00 0.  1.
          2    1    6    6  503    0  0.21518589568E+03 -0.15455951968E+03  0.41960553686E+03  0.49624834648E+03  0.00000000000E+00 0. -1.
         -2    1    6    6    0  503  0.15262286841E+03 -0.21586991960E+03  0.49321796719E+03  0.55960479386E+03  0.00000000000E+00 0.  1.
<mgrwt>
<rscale>  0 0.18766451E+04</rscale>
<asrwt>0</asrwt>
<pdfrwt beam="1">  1        1 0.24052934E+00 0.18766451E+04</pdfrwt>
<pdfrwt beam="2">  1       -2 0.86638222E-01 0.18766451E+04</pdfrwt>
<totfact> 0.56121411E+00</totfact>
</mgrwt>
</event>
<event>
12    4  0.4424320E-008  0.9869831E+03  0.7818608E-02  0.9322938E-01
          1   -1    0    0  501    0  0.00000000000E+00  0.00000000000E+00  0.31834847548E+03  0.31834847548E+03  0.00000000000E+00 0. -1.
         -2   -1    0    0    0  501 -0.00000000000E+00 -0.00000000000E+00 -0.76499161825E+03  0.76499161825E+03  0.00000000000E+00 0.  1.
        -24    2    1    2    0    0  0.60953694392E+01 -0.28572059575E+02 -0.13011471429E+03  0.15640640347E+03  0.81728869156E+02 0.  0.
        254    2    1    2    0    0 -0.60953694392E+01  0.28572059575E+02 -0.31652842848E+03  0.92693369026E+03  0.87072515985E+03 0.  0.
         23    2    4    4    0    0  0.38369374724E+03 -0.85385732651E+02 -0.31278346287E+03  0.51046072303E+03  0.90692006851E+02 0.  0.
         23    2    4    4    0    0 -0.38978911668E+03  0.11395779223E+03 -0.37449656101E+01  0.41647296723E+03  0.92270113125E+02 0.  0.
          3    1    3    3  502    0 -0.34375454264E+02  0.38816774270E+01 -0.45540632299E+02  0.57189933254E+02  0.00000000000E+00 0. -1.
         -4    1    3    3    0  502  0.40470823703E+02 -0.32453737002E+02 -0.84574081994E+02  0.99216470214E+02  0.00000000000E+00 0.  1.
         11    1    5    5    0    0  0.31795939327E+03 -0.35435235034E+02 -0.23428232175E+03  0.39653756182E+03  0.00000000000E+00 0. -1.
        -11    1    5    5    0    0  0.65734353965E+02 -0.49950497616E+02 -0.78501141118E+02  0.11392316121E+03  0.00000000000E+00 0.  1.
          3    1    6    6  503    0 -0.34618214290E+03  0.71095649134E+02 -0.17348654296E+02  0.35383278988E+03  0.00000000000E+00 0. -1.
         -3    1    6    6    0  503 -0.43606973777E+02  0.42862143091E+02  0.13603688686E+02  0.62640177348E+02  0.00000000000E+00 0.  1.
<mgrwt>
<rscale>  0 0.98698311E+03</rscale>
<asrwt>0</asrwt>
<pdfrwt beam="1">  1        1 0.48976689E-01 0.98698311E+03</pdfrwt>
<pdfrwt beam="2">  1       -2 0.11769102E+00 0.98698311E+03</pdfrwt>
<totfact> 0.39566204E+01</totfact>
</mgrwt>
</event>
<event>
12    4  0.4424320E-008  0.2249422E+04  0.7818608E-02  0.8498135E-01
          1   -1    0    0  501    0  0.00000000000E+00  0.00000000000E+00  0.95689114576E+03  0.95689114576E+03  0.00000000000E+00 0. -1.
         -2   -1    0    0    0  501 -0.00000000000E+00 -0.00000000000E+00 -0.13219633439E+04  0.13219633439E+04  0.00000000000E+00 0.  1.
        -24    2    1    2    0    0 -0.87164754842E+03 -0.10188104598E+03 -0.43357189752E+03  0.98220896950E+03  0.81244527536E+02 0.  0.
        254    2    1    2    0    0  0.87164754842E+03  0.10188104598E+03  0.68499699353E+02  0.12966455202E+04  0.95207573229E+03 0.  0.
         23    2    4    4    0    0  0.80750769781E+03 -0.25926893123E+03  0.23182261564E+03  0.88408397477E+03  0.92594214701E+02 0.  0.
         23    2    4    4    0    0  0.64139850612E+02  0.36114997721E+03 -0.16332291629E+03  0.41256154542E+03  0.94812590412E+02 0.  0.
          1    1    3    3  502    0 -0.23672736356E+03 -0.20963381189E+02 -0.78626403950E+02  0.25032263063E+03  0.00000000000E+00 0. -1.
         -2    1    3    3    0  502 -0.63492018487E+03 -0.80917664795E+02 -0.35494549357E+03  0.73188633887E+03  0.00000000000E+00 0.  1.
         11    1    5    5    0    0  0.63931843120E+03 -0.21500313755E+03  0.22118085132E+03  0.70984179548E+03  0.00000000000E+00 0. -1.
        -11    1    5    5    0    0  0.16818926661E+03 -0.44265793678E+02  0.10641764320E+02  0.17424217928E+03  0.00000000000E+00 0.  1.
          1    1    6    6  503    0  0.63458860175E+02  0.36323102855E+03 -0.16963419207E+03  0.40588122173E+03  0.00000000000E+00 0. -1.
         -1    1    6    6    0  503  0.68099043688E+00 -0.20810513366E+01  0.63112757814E+01  0.66803236920E+01  0.00000000000E+00 0.  1.
<mgrwt>
<rscale>  0 0.22494222E+04</rscale>
<asrwt>0</asrwt>
<pdfrwt beam="1">  1        1 0.14721402E+00 0.22494222E+04</pdfrwt>
<pdfrwt beam="2">  1       -2 0.20337898E+00 0.22494222E+04</pdfrwt>
<totfact> 0.16461080E+00</totfact>
</mgrwt>
</event>
<event>
12    4  0.4424320E-008  0.1687954E+04  0.7818608E-02  0.8768265E-01
          1   -1    0    0  501    0  0.00000000000E+00  0.00000000000E+00  0.35173183963E+04  0.35173183963E+04  0.00000000000E+00 0. -1.
         -2   -1    0    0    0  501 -0.00000000000E+00 -0.00000000000E+00 -0.20251138155E+03  0.20251138155E+03  0.00000000000E+00 0.  1.
        -24    2    1    2    0    0  0.58763378998E+03 -0.60936257967E+02  0.86655511027E+03  0.10510854861E+04  0.69543089320E+02 0.  0.
        254    2    1    2    0    0 -0.58763378998E+03  0.60936257967E+02  0.24482519045E+04  0.26687442918E+04  0.88274118991E+03 0.  0.
         23    2    4    4    0    0 -0.18765133818E+03  0.22811595325E+02  0.25044139659E+02  0.21068178605E+03  0.89589131275E+02 0.  0.
         23    2    4    4    0    0 -0.39998245181E+03  0.38124662641E+02  0.24232077648E+04  0.24580625057E+04  0.93252125043E+02 0.  0.
          3    1    3    3  502    0  0.16241931576E+03  0.11428542205E+02  0.26092264412E+03  0.30755694095E+03  0.00000000000E+00 0. -1.
         -4    1    3    3    0  502  0.42521447422E+03 -0.72364800172E+02  0.60563246614E+03  0.74352854514E+03  0.00000000000E+00 0.  1.
         11    1    5    5    0    0 -0.12030128387E+03  0.34515170676E+02  0.54171787391E+02  0.13637550534E+03  0.00000000000E+00 0.  1.
        -11    1    5    5    0    0 -0.67350054307E+02 -0.11703575351E+02 -0.29127647732E+02  0.74306280714E+02  0.00000000000E+00 0. -1.
          4    1    6    6  503    0 -0.36418901351E+03  0.64246564761E+01  0.21047451627E+04  0.21360306912E+04  0.00000000000E+00 0. -1.
         -4    1    6    6    0  503 -0.35793438298E+02  0.31700006165E+02  0.31846260211E+03  0.32203181451E+03  0.00000000000E+00 0.  1.
<mgrwt>
<rscale>  0 0.16879538E+04</rscale>
<asrwt>0</asrwt>
<pdfrwt beam="1">  1        1 0.54112586E+00 0.16879538E+04</pdfrwt>
<pdfrwt beam="2">  1       -2 0.31155600E-01 0.16879538E+04</pdfrwt>
<totfact> 0.19516776E+00</totfact>
</mgrwt>
</event>
<event>
12    4  0.4424320E-008  0.1127471E+04  0.7818608E-02  0.9178822E-01
          1   -1    0    0  501    0  0.00000000000E+00  0.00000000000E+00  0.21333335796E+03  0.21333335796E+03  0.00000000000E+00 0. -1.
         -2   -1    0    0    0  501 -0.00000000000E+00 -0.00000000000E+00 -0.14896777843E+04  0.14896777843E+04  0.00000000000E+00 0.  1.
        -24    2    1    2    0    0 -0.10949341459E+02  0.18712503042E+03 -0.17021046179E+03  0.26556737463E+03  0.80117189638E+02 0.  0.
        254    2    1    2    0    0  0.10949341459E+02 -0.18712503042E+03 -0.11061339646E+04  0.14374437677E+04  0.89865264287E+03 0.  0.
         23    2    4    4    0    0 -0.17481242674E+03  0.88677458561E+02 -0.10687661483E+04  0.10905759238E+04  0.93121907622E+02 0.  0.
         23    2    4    4    0    0  0.18576176820E+03 -0.27580248898E+03 -0.37367816319E+02  0.34686784388E+03  0.91359181101E+02 0.  0.
          3    1    3    3  502    0  0.64950563581E+01  0.18280963014E+03 -0.13974177265E+03  0.23019406955E+03  0.00000000000E+00 0. -1.
         -4    1    3    3    0  502 -0.17444397817E+02  0.43154002794E+01 -0.30468689135E+02  0.35373305081E+02  0.00000000000E+00 0.  1.
         11    1    5    5    0    0 -0.12757944883E+03  0.92529585461E+02 -0.94491314076E+03  0.95796611815E+03  0.00000000000E+00 0.  1.
        -11    1    5    5    0    0 -0.47232977904E+02 -0.38521269003E+01 -0.12385300751E+03  0.13260980564E+03  0.00000000000E+00 0. -1.
          1    1    6    6  503    0  0.24509995880E+02  0.93696044864E+00 -0.14955605347E+01  0.24573451004E+02  0.00000000000E+00 0. -1.
         -1    1    6    6    0  503  0.16125177232E+03 -0.27673944943E+03 -0.35872255784E+02  0.32229439288E+03  0.00000000000E+00 0.  1.
<mgrwt>
<rscale>  0 0.11274714E+04</rscale>
<asrwt>0</asrwt>
<pdfrwt beam="1">  1        1 0.32820517E-01 0.11274714E+04</pdfrwt>
<pdfrwt beam="2">  1       -2 0.22918119E+00 0.11274714E+04</pdfrwt>
<totfact> 0.10275655E+01</totfact>
</mgrwt>
</event>
<event>
12    4  0.4424320E-008  0.1215344E+04  0.7818608E-02  0.9099531E-01
         -2   -1    0    0    0  501 -0.00000000000E+00  0.00000000000E+00  0.32712990020E+03  0.32712990020E+03  0.00000000000E+00 0.  1.
          1   -1    0    0  501    0  0.00000000000E+00 -0.00000000000E+00 -0.11288030886E+04  0.11288030886E+04  0.00000000000E+00 0. -1.
        -24    2    1    2    0    0 -0.20820265445E+03 -0.17111923362E+03 -0.21102934380E+03  0.35129357168E+03  0.79016783833E+02 0.  0.
        254    2    1    2    0    0  0.20820265445E+03  0.17111923362E+03 -0.59064384457E+03  0.11046394171E+04  0.89372140695E+03 0.  0.
         23    2    4    4    0    0  0.48527742341E+02 -0.35824335436E+03 -0.22629730593E+03  0.43614513217E+03  0.91207800777E+02 0.  0.
         23    2    4    4    0    0  0.15967491211E+03  0.52936258798E+03 -0.36434653864E+03  0.66849428492E+03  0.91735389276E+02 0.  0.
          3    1    3    3  502    0 -0.16447025307E+03 -0.17017136645E+03 -0.18502741165E+03  0.30040622691E+03  0.00000000000E+00 0. -1.
         -4    1    3    3    0  502 -0.43732401377E+02 -0.94786716886E+00 -0.26001932142E+02  0.50887344767E+02  0.00000000000E+00 0.  1.
         11    1    5    5    0    0  0.84164972034E+01 -0.42622436163E+02  0.36340023482E+01  0.43597195583E+02  0.00000000000E+00 0.  1.
        -11    1    5    5    0    0  0.40111245138E+02 -0.31562091820E+03 -0.22993130828E+03  0.39254793659E+03  0.00000000000E+00 0. -1.
          1    1    6    6  503    0  0.53205864288E+02  0.12619709197E+03 -0.48123406690E+02  0.14516346747E+03  0.00000000000E+00 0. -1.
         -1    1    6    6    0  503  0.10646904782E+03  0.40316549602E+03 -0.31622313195E+03  0.52333081746E+03  0.00000000000E+00 0.  1.
<mgrwt>
<rscale>  0 0.12153440E+04</rscale>
<asrwt>0</asrwt>
<pdfrwt beam="1">  1        1 0.17366201E+00 0.12153440E+04</pdfrwt>
<pdfrwt beam="2">  1       -2 0.50327677E-01 0.12153440E+04</pdfrwt>
<totfact> 0.39046347E+01</totfact>
</mgrwt>
</event>
<event>
12    4  0.4424320E-008  0.1719426E+04  0.7818608E-02  0.8750362E-01
         -2   -1    0    0    0  501 -0.00000000000E+00  0.00000000000E+00  0.76683256099E+03  0.76683256099E+03  0.00000000000E+00 0.  1.
          1   -1    0    0  501    0  0.00000000000E+00 -0.00000000000E+00 -0.96384329475E+03  0.96384329475E+03  0.00000000000E+00 0. -1.
        -24    2    1    2    0    0 -0.57947124485E+03 -0.22137057447E+03 -0.62471931261E+02  0.62866385302E+03  0.80769072348E+02 0.  0.
        254    2    1    2    0    0  0.57947124485E+03  0.22137057447E+03 -0.13453880251E+03  0.11020120027E+04  0.90085398923E+03 0.  0.
         23    2    4    4    0    0  0.33687368543E+03  0.16438343257E+03  0.36826521608E+03  0.53351526326E+03  0.92268488232E+02 0.  0.
         23    2    4    4    0    0  0.24259755942E+03  0.56987141899E+02 -0.50280401859E+03  0.56849673945E+03  0.90970058181E+02 0.  0.
          3    1    3    3  502    0 -0.10720624320E+03 -0.37365922330E+02 -0.43136184276E+02  0.12145007669E+03  0.00000000000E+00 0. -1.
         -4    1    3    3    0  502 -0.47226500165E+03 -0.18400465214E+03 -0.19335746985E+02  0.50721377633E+03  0.00000000000E+00 0.  1.
         11    1    5    5    0    0  0.29368664925E+03  0.13659253361E+03  0.26617547076E+03  0.41923591141E+03  0.00000000000E+00 0. -1.
        -11    1    5    5    0    0  0.43187036183E+02  0.27790898957E+02  0.10208974532E+03  0.11427935185E+03  0.00000000000E+00 0.  1.
          3    1    6    6  503    0  0.24864056686E+03  0.62767683305E+02 -0.49214077460E+03  0.55494545280E+03  0.00000000000E+00 0. -1.
         -3    1    6    6    0  503 -0.60430074356E+01 -0.57805414063E+01 -0.10663243986E+02  0.13551286659E+02  0.00000000000E+00 0.  1.
<mgrwt>
<rscale>  0 0.17194260E+04</rscale>
<asrwt>0</asrwt>
<pdfrwt beam="1">  1        1 0.14828358E+00 0.17194260E+04</pdfrwt>
<pdfrwt beam="2">  1       -2 0.11797424E+00 0.17194260E+04</pdfrwt>
<totfact> 0.74527819E+00</totfact>
</mgrwt>
</event>
<event>
12    4  0.4424320E-008  0.2023045E+04  0.7818608E-02  0.8595921E-01
          1   -1    0    0  501    0  0.00000000000E+00  0.00000000000E+00  0.14178969658E+04  0.14178969658E+04  0.00000000000E+00 0. -1.
         -2   -1    0    0    0  501 -0.00000000000E+00 -0.00000000000E+00 -0.72161664071E+03  0.72161664071E+03  0.00000000000E+00 0.  1.
        -24    2    1    2    0    0  0.67875651584E+03 -0.47752198390E+03  0.30046631322E+03  0.88634039238E+03  0.81127263474E+02 0.  0.
        254    2    1    2    0    0 -0.67875651584E+03  0.47752198390E+03  0.39581401187E+03  0.12531732141E+04  0.85149088058E+03 0.  0.
         23    2    4    4    0    0 -0.17598594674E+03  0.51319843953E+03 -0.77716470904E+02  0.55532931975E+03  0.89482466133E+02 0.  0.
         23    2    4    4    0    0 -0.50277056910E+03 -0.35676455628E+02  0.47353048277E+03  0.69784389438E+03  0.93294845305E+02 0.  0.
          1    1    3    3  502    0  0.61176505411E+03 -0.40142182063E+03  0.27611400150E+03  0.78207090557E+03  0.00000000000E+00 0. -1.
         -2    1    3    3    0  502  0.66991461735E+02 -0.76100163265E+02  0.24352311720E+02  0.10426948681E+03  0.00000000000E+00 0.  1.
         11    1    5    5    0    0 -0.23755695252E+02  0.19123167090E+03 -0.11177333936E+02  0.19302543306E+03  0.00000000000E+00 0. -1.
        -11    1    5    5    0    0 -0.15223025149E+03  0.32196676863E+03 -0.66539136969E+02  0.36230388670E+03  0.00000000000E+00 0.  1.
          2    1    6    6  503    0 -0.41397518543E+03 -0.13639403908E+02  0.33946019398E+03  0.53553217531E+03  0.00000000000E+00 0. -1.
         -2    1    6    6    0  503 -0.88795383670E+02 -0.22037051721E+02  0.13407028880E+03  0.16231171907E+03  0.00000000000E+00 0.  1.
<mgrwt>
<rscale>  0 0.20230453E+04</rscale>
<asrwt>0</asrwt>
<pdfrwt beam="1">  1        1 0.21813799E+00 0.20230453E+04</pdfrwt>
<pdfrwt beam="2">  1       -2 0.11101795E+00 0.20230453E+04</pdfrwt>
<totfact> 0.38964443E+00</totfact>
</mgrwt>
</event>
<event>
12    4  0.4424320E-008  0.2362541E+04  0.7818608E-02  0.8453662E-01
          1   -1    0    0  501    0  0.00000000000E+00  0.00000000000E+00  0.88824922931E+03  0.88824922931E+03  0.00000000000E+00 0. -1.
         -2   -1    0    0    0  501 -0.00000000000E+00 -0.00000000000E+00 -0.15709560402E+04  0.15709560402E+04  0.00000000000E+00 0.  1.
        -24    2    1    2    0    0  0.93566489772E+03 -0.36617544004E+03 -0.21299102500E+03  0.10303420193E+04  0.81769470082E+02 0.  0.
        254    2    1    2    0    0 -0.93566489772E+03  0.36617544004E+03 -0.46971578593E+03  0.14288632503E+04  0.90081297432E+03 0.  0.
         23    2    4    4    0    0 -0.61675085557E+03  0.15858474109E+03  0.18211150152E+03  0.66863302180E+03  0.91513829030E+02 0.  0.
         23    2    4    4    0    0 -0.31891404215E+03  0.20759069895E+03 -0.65182728745E+03  0.76023022847E+03  0.90945714799E+02 0.  0.
          3    1    3    3  502    0  0.19969504856E+03 -0.82980801185E+02 -0.80320368599E+02  0.23068438915E+03  0.00000000000E+00 0. -1.
         -4    1    3    3    0  502  0.73596984916E+03 -0.28319463886E+03 -0.13267065640E+03  0.79965763013E+03  0.00000000000E+00 0.  1.
         11    1    5    5    0    0 -0.44145326566E+03  0.11278408704E+03  0.17250898460E+03  0.48719666031E+03  0.00000000000E+00 0.  1.
        -11    1    5    5    0    0 -0.17529758990E+03  0.45800654053E+02  0.96025169246E+01  0.18143636149E+03  0.00000000000E+00 0. -1.
          3    1    6    6  503    0  0.24711486662E+01  0.13080804922E+02 -0.10403524652E+02  0.16895187431E+02  0.00000000000E+00 0. -1.
         -3    1    6    6    0  503 -0.32138519081E+03  0.19450989403E+03 -0.64142376280E+03  0.74333504104E+03  0.00000000000E+00 0.  1.
<mgrwt>
<rscale>  0 0.23625414E+04</rscale>
<asrwt>0</asrwt>
<pdfrwt beam="1">  1        1 0.13665373E+00 0.23625414E+04</pdfrwt>
<pdfrwt beam="2">  1       -2 0.24168555E+00 0.23625414E+04</pdfrwt>
<totfact> 0.10604521E+00</totfact>
</mgrwt>
</event>
<event>
12    4  0.4424320E-008  0.1051506E+04  0.7818608E-02  0.9253791E-01
          1   -1    0    0  501    0  0.00000000000E+00  0.00000000000E+00  0.89987522280E+03  0.89987522280E+03  0.00000000000E+00 0. -1.
         -2   -1    0    0    0  501 -0.00000000000E+00 -0.00000000000E+00 -0.30717161937E+03  0.30717161937E+03  0.00000000000E+00 0.  1.
        -24    2    1    2    0    0 -0.71218359156E+02  0.10005473906E+03  0.21757110095E+02  0.14907308536E+03  0.81648070700E+02 0.  0.
        254    2    1    2    0    0  0.71218359156E+02 -0.10005473906E+03  0.57094649333E+03  0.10579737568E+04  0.88218227503E+03 0.  0.
         23    2    4    4    0    0  0.44064541256E+03 -0.18592495688E+03  0.22871070300E+03  0.53818645913E+03  0.92734081790E+02 0.  0.
         23    2    4    4    0    0 -0.36942705341E+03  0.85870217817E+02  0.34223579033E+03  0.51978729768E+03  0.95934647295E+02 0.  0.
          1    1    3    3  502    0  0.17776498164E+02  0.16077636038E+02  0.10588743898E+02  0.26203354077E+02  0.00000000000E+00 0. -1.
         -2    1    3    3    0  502 -0.88994857320E+02  0.83977103022E+02  0.11168366197E+02  0.12286973128E+03  0.00000000000E+00 0.  1.
         11    1    5    5    0    0  0.42496486348E+02  0.92978979559E+01  0.25293518684E+02  0.50320615514E+02  0.00000000000E+00 0. -1.
        -11    1    5    5    0    0  0.39814892622E+03 -0.19522285483E+03  0.20341718432E+03  0.48786584362E+03  0.00000000000E+00 0.  1.
          1    1    6    6  503    0 -0.16573502656E+03  0.72577932097E+02  0.11525540547E+03  0.21452147620E+03  0.00000000000E+00 0. -1.
         -1    1    6    6    0  503 -0.20369202684E+03  0.13292285719E+02  0.22698038485E+03  0.30526582149E+03  0.00000000000E+00 0.  1.
<mgrwt>
<rscale>  0 0.10515058E+04</rscale>
<asrwt>0</asrwt>
<pdfrwt beam="1">  1        1 0.13844234E+00 0.10515058E+04</pdfrwt>
<pdfrwt beam="2">  1       -2 0.47257173E-01 0.10515058E+04</pdfrwt>
<totfact> 0.67659411E+01</totfact>
</mgrwt>
</event>
<event>
12    4  0.4424320E-008  0.1681238E+04  0.7818608E-02  0.8772138E-01
          1   -1    0    0  501    0  0.00000000000E+00  0.00000000000E+00  0.10308486920E+04  0.10308486920E+04  0.00000000000E+00 0. -1.
         -2   -1    0    0    0  501 -0.00000000000E+00 -0.00000000000E+00 -0.68549351452E+03  0.68549351452E+03  0.00000000000E+00 0.  1.
        -24    2    1    2    0    0  0.39035004382E+03 -0.16990245020E+03 -0.30594446617E+03  0.53127172021E+03  0.86067560812E+02 0.  0.
        254    2    1    2    0    0 -0.39035004382E+03  0.16990245020E+03  0.65129964369E+03  0.11850704863E+04  0.89384608990E+03 0.  0.
         23    2    4    4    0    0  0.38514326247E+02 -0.31380789839E+03  0.14870573014E+03  0.36109300482E+03  0.91192179136E+02 0.  0.
         23    2    4    4    0    0 -0.42886437007E+03  0.48371034860E+03  0.50259391355E+03  0.82397748152E+03  0.91858036464E+02 0.  0.
          1    1    3    3  502    0  0.18784785913E+03 -0.49785740431E+02 -0.17684508795E+03  0.26275392150E+03  0.00000000000E+00 0. -1.
         -2    1    3    3    0  502  0.20250218469E+03 -0.12011670977E+03 -0.12909937821E+03  0.26851779871E+03  0.00000000000E+00 0.  1.
         11    1    5    5    0    0  0.42448458081E+02 -0.30553660386E+03  0.12004866791E+03  0.33100781042E+03  0.00000000000E+00 0.  1.
        -11    1    5    5    0    0 -0.39341318342E+01 -0.82712945305E+01  0.28657062230E+02  0.30085194401E+02  0.00000000000E+00 0. -1.
          3    1    6    6  503    0 -0.14722797479E+03  0.12044669401E+03  0.11171348714E+03  0.22059779207E+03  0.00000000000E+00 0. -1.
         -3    1    6    6    0  503 -0.28163639528E+03  0.36326365459E+03  0.39088042641E+03  0.60337968945E+03  0.00000000000E+00 0.  1.
<mgrwt>
<rscale>  0 0.16812377E+04</rscale>
<asrwt>0</asrwt>
<pdfrwt beam="1">  1        1 0.15859211E+00 0.16812377E+04</pdfrwt>
<pdfrwt beam="2">  1       -2 0.10546054E+00 0.16812377E+04</pdfrwt>
<totfact> 0.87024325E+00</totfact>
</mgrwt>
</event>
<event>
12    4  0.4424320E-008  0.1473284E+04  0.7818608E-02  0.8902416E-01
         -2   -1    0    0    0  501 -0.00000000000E+00  0.00000000000E+00  0.31887175388E+03  0.31887175388E+03  0.00000000000E+00 0.  1.
          1   -1    0    0  501    0  0.00000000000E+00 -0.00000000000E+00 -0.17017544169E+04  0.17017544169E+04  0.00000000000E+00 0. -1.
        -24    2    1    2    0    0 -0.42751658974E+03  0.14794003479E+03 -0.48119976595E+03  0.66562475271E+03  0.82743025496E+02 0.  0.
        254    2    1    2    0    0  0.42751658974E+03 -0.14794003479E+03 -0.90168289702E+03  0.13550014180E+04  0.90462152731E+03 0.  0.
         23    2    4    4    0    0  0.12857658293E+03  0.23087993937E+03  0.49006863007E+02  0.28494121701E+03  0.94616808483E+02 0.  0.
         23    2    4    4    0    0  0.29894000681E+03 -0.37881997416E+03 -0.95068976003E+03  0.10700602010E+04  0.91368011322E+02 0.  0.
          1    1    3    3  502    0 -0.82129238466E+02  0.36055847770E+02 -0.52823214401E+02  0.10409384203E+03  0.00000000000E+00 0. -1.
         -2    1    3    3    0  502 -0.34538735128E+03  0.11188418702E+03 -0.42837655155E+03  0.56153091068E+03  0.00000000000E+00 0.  1.
         11    1    5    5    0    0  0.44797337805E+02  0.73755682368E+02 -0.28304193549E+02  0.90817561784E+02  0.00000000000E+00 0.  1.
        -11    1    5    5    0    0  0.83779245128E+02  0.15712425700E+03  0.77311056556E+02  0.19412365522E+03  0.00000000000E+00 0. -1.
          3    1    6    6  503    0  0.27168917328E+03 -0.28726552650E+03 -0.75272334913E+03  0.85025227428E+03  0.00000000000E+00 0. -1.
         -3    1    6    6    0  503  0.27250833530E+02 -0.91554447657E+02 -0.19796641090E+03  0.21980792674E+03  0.00000000000E+00 0.  1.
<mgrwt>
<rscale>  0 0.14732840E+04</rscale>
<asrwt>0</asrwt>
<pdfrwt beam="1">  1        1 0.26180837E+00 0.14732840E+04</pdfrwt>
<pdfrwt beam="2">  1       -2 0.49057193E-01 0.14732840E+04</pdfrwt>
<totfact> 0.15910950E+01</totfact>
</mgrwt>
</event>
<event>
12    4  0.4424320E-008  0.2455276E+04  0.7818608E-02  0.8419094E-01
         -2   -1    0    0    0  501 -0.00000000000E+00  0.00000000000E+00  0.22433154285E+04  0.22433154285E+04  0.00000000000E+00 0.  1.
          1   -1    0    0  501    0  0.00000000000E+00 -0.00000000000E+00 -0.67181582211E+03  0.67181582211E+03  0.00000000000E+00 0. -1.
        -24    2    1    2    0    0  0.74948932487E+03  0.19544786593E+03 -0.15992270455E+03  0.79484590179E+03  0.79187244955E+02 0.  0.
        254    2    1    2    0    0 -0.74948932487E+03 -0.19544786593E+03  0.17314223110E+04  0.21202853489E+04  0.94755085630E+03 0.  0.
         23    2    4    4    0    0  0.11103551732E+03 -0.25632687808E+03  0.77846390318E+03  0.83211350804E+03  0.91512224167E+02 0.  0.
         23    2    4    4    0    0 -0.86052484219E+03  0.60879012151E+02  0.95295840779E+03  0.12881718408E+04  0.83950618569E+02 0.  0.
          1    1    3    3  502    0  0.70031906800E+03  0.16497027030E+03 -0.15968903764E+03  0.73699564167E+03  0.00000000000E+00 0. -1.
         -2    1    3    3    0  502  0.49170256869E+02  0.30477595630E+02 -0.23366691105E+00  0.57850260122E+02  0.00000000000E+00 0.  1.
         11    1    5    5    0    0  0.12649066253E+02 -0.13413137137E+03  0.41240699532E+03  0.43385568275E+03  0.00000000000E+00 0. -1.
        -11    1    5    5    0    0  0.98386451066E+02 -0.12219550672E+03  0.36605690786E+03  0.39825782529E+03  0.00000000000E+00 0.  1.
          1    1    6    6  503    0 -0.33006998060E+03  0.50880289080E+02  0.32369007534E+03  0.46509166923E+03  0.00000000000E+00 0. -1.
         -1    1    6    6    0  503 -0.53045486160E+03  0.99987230713E+01  0.62926833245E+03  0.82308017160E+03  0.00000000000E+00 0.  1.
<mgrwt>
<rscale>  0 0.24552758E+04</rscale>
<asrwt>0</asrwt>
<pdfrwt beam="1">  1        1 0.10335628E+00 0.24552758E+04</pdfrwt>
<pdfrwt beam="2">  1       -2 0.34512545E+00 0.24552758E+04</pdfrwt>
<totfact> 0.37862331E-01</totfact>
</mgrwt>
</event>
<event>
12    4  0.4424320E-008  0.1288110E+04  0.7818608E-02  0.9039048E-01
         -2   -1    0    0    0  501 -0.00000000000E+00  0.00000000000E+00  0.39633591392E+03  0.39633591392E+03  0.00000000000E+00 0.  1.
          1   -1    0    0  501    0  0.00000000000E+00 -0.00000000000E+00 -0.10466038937E+04  0.10466038937E+04  0.00000000000E+00 0. -1.
        -24    2    1    2    0    0  0.26724821634E+03  0.19546338879E+02  0.11176978218E+02  0.27978309768E+03  0.79686814518E+02 0.  0.
        254    2    1    2    0    0 -0.26724821634E+03 -0.19546338879E+02 -0.66144495796E+03  0.11631567099E+04  0.91848812234E+03 0.  0.
         23    2    4    4    0    0 -0.48171963277E+03 -0.30268364493E+03 -0.29916879038E+03  0.64783097570E+03  0.80695814209E+02 0.  0.
         23    2    4    4    0    0  0.21447141643E+03  0.28313730605E+03 -0.36227616758E+03  0.51532573421E+03  0.90287696808E+02 0.  0.
          1    1    3    3  502    0  0.60303946972E+02 -0.22393567592E+00 -0.30779121453E+02  0.67705025552E+02  0.00000000000E+00 0. -1.
         -2    1    3    3    0  502  0.20694426937E+03  0.19770274554E+02  0.41956099671E+02  0.21207807213E+03  0.00000000000E+00 0.  1.
         11    1    5    5    0    0 -0.12876284546E+03 -0.41097383041E+02 -0.76241599098E+02  0.15518262370E+03  0.00000000000E+00 0. -1.
        -11    1    5    5    0    0 -0.35295678730E+03 -0.26158626189E+03 -0.22292719128E+03  0.49264835200E+03  0.00000000000E+00 0.  1.
          1    1    6    6  503    0  0.16780479821E+03  0.14882154212E+03 -0.21987295729E+03  0.31408664258E+03  0.00000000000E+00 0. -1.
         -1    1    6    6    0  503  0.46666618221E+02  0.13431576393E+03 -0.14240321029E+03  0.20123909163E+03  0.00000000000E+00 0.  1.
<mgrwt>
<rscale>  0 0.12881098E+04</rscale>
<asrwt>0</asrwt>
<pdfrwt beam="1">  1        1 0.16101598E+00 0.12881098E+04</pdfrwt>
<pdfrwt beam="2">  1       -2 0.60974757E-01 0.12881098E+04</pdfrwt>
<totfact> 0.30046595E+01</totfact>
</mgrwt>
</event>
<event>
12    4  0.4424320E-008  0.2223137E+04  0.7818608E-02  0.8508859E-01
         -2   -1    0    0    0  501 -0.00000000000E+00  0.00000000000E+00  0.28381485370E+03  0.28381485370E+03  0.00000000000E+00 0.  1.
          1   -1    0    0  501    0  0.00000000000E+00 -0.00000000000E+00 -0.43534886838E+04  0.43534886838E+04  0.00000000000E+00 0. -1.
        -24    2    1    2    0    0 -0.25324267619E+03 -0.44390117766E+03 -0.33200939247E+04  0.33601575095E+04  0.80341213701E+02 0.  0.
        254    2    1    2    0    0  0.25324267619E+03  0.44390117766E+03 -0.74957990540E+03  0.12771460281E+04  0.89891703393E+03 0.  0.
         23    2    4    4    0    0  0.32369934565E+03 -0.13909310038E+02 -0.73093754988E+03  0.80474562356E+03  0.91493614762E+02 0.  0.
         23    2    4    4    0    0 -0.70456669463E+02  0.45781048770E+03 -0.18642355524E+02  0.47240040452E+03  0.90884651345E+02 0.  0.
          3    1    3    3  502    0 -0.13584958700E+03 -0.31425099791E+03 -0.22245199298E+04  0.22507104919E+04  0.00000000000E+00 0. -1.
         -4    1    3    3    0  502 -0.11739308919E+03 -0.12965017975E+03 -0.10955739949E+04  0.11094470176E+04  0.00000000000E+00 0.  1.
         11    1    5    5    0    0  0.83372609946E+01 -0.19521463285E+02 -0.43560113438E+02  0.48457000860E+02  0.00000000000E+00 0. -1.
        -11    1    5    5    0    0  0.31536208466E+03  0.56121532466E+01 -0.68737743644E+03  0.75628862270E+03  0.00000000000E+00 0.  1.
          4    1    6    6  503    0  0.48202107130E+01  0.16209910699E+03 -0.38277896343E+02  0.16662698541E+03  0.00000000000E+00 0. -1.
         -4    1    6    6    0  503 -0.75276880176E+02  0.29571138072E+03  0.19635540819E+02  0.30577341912E+03  0.00000000000E+00 0.  1.
<mgrwt>
<rscale>  0 0.22231372E+04</rscale>
<asrwt>0</asrwt>
<pdfrwt beam="1">  1        1 0.66976746E+00 0.22231372E+04</pdfrwt>
<pdfrwt beam="2">  1       -2 0.43663826E-01 0.22231372E+04</pdfrwt>
<totfact> 0.18104675E-01</totfact>
</mgrwt>
</event>
<event>
12    4  0.4424320E-008  0.2188994E+04  0.7818608E-02  0.8523023E-01
          1   -1    0    0  501    0  0.00000000000E+00  0.00000000000E+00  0.13246665201E+04  0.13246665201E+04  0.00000000000E+00 0. -1.
         -2   -1    0    0    0  501 -0.00000000000E+00 -0.00000000000E+00 -0.90432057778E+03  0.90432057778E+03  0.00000000000E+00 0.  1.
        -24    2    1    2    0    0 -0.59566314853E+03 -0.45030249162E+03 -0.34498386620E+03  0.82653177128E+03  0.80956658352E+02 0.  0.
        254    2    1    2    0    0  0.59566314853E+03  0.45030249162E+03  0.76532980850E+03  0.14024553266E+04  0.90750443898E+03 0.  0.
         23    2    4    4    0    0  0.68410715484E+02  0.15060818841E+03  0.76672990531E+03  0.78903272141E+03  0.85644820904E+02 0.  0.
         23    2    4    4    0    0  0.52725243304E+03  0.29969430321E+03 -0.14000968124E+01  0.61342260516E+03  0.92051771971E+02 0.  0.
          1    1    3    3  502    0 -0.33209853638E+03 -0.20856147580E+03 -0.20466319565E+03  0.44235093614E+03  0.00000000000E+00 0. -1.
         -4    1    3    3    0  502 -0.26356461215E+03 -0.24174101582E+03 -0.14032067056E+03  0.38418083515E+03  0.00000000000E+00 0.  1.
         11    1    5    5    0    0  0.69890247879E+02  0.54640208800E+02  0.41977851972E+03  0.42905035227E+03  0.00000000000E+00 0.  1.
        -11    1    5    5    0    0 -0.14795323950E+01  0.95967979609E+02  0.34695138559E+03  0.35998236913E+03  0.00000000000E+00 0. -1.
          4    1    6    6  503    0  0.51910979242E+03  0.27719399109E+03  0.55389085303E+01  0.58850842372E+03  0.00000000000E+00 0.  1.
         -4    1    6    6    0  503  0.81426406249E+01  0.22500312112E+02 -0.69390053427E+01  0.24914181436E+02  0.00000000000E+00 0. -1.
<mgrwt>
<rscale>  0 0.21889936E+04</rscale>
<asrwt>0</asrwt>
<pdfrwt beam="1">  1        1 0.20379485E+00 0.21889936E+04</pdfrwt>
<pdfrwt beam="2">  1       -2 0.13912624E+00 0.21889936E+04</pdfrwt>
<totfact> 0.25395242E+00</totfact>
</mgrwt>
</event>
<event>
12    4  0.4424320E-008  0.1174195E+04  0.7818608E-02  0.9135748E-01
         -2   -1    0    0    0  501 -0.00000000000E+00  0.00000000000E+00  0.20827156112E+03  0.20827156112E+03  0.00000000000E+00 0.  1.
          1   -1    0    0  501    0  0.00000000000E+00 -0.00000000000E+00 -0.16549724535E+04  0.16549724535E+04  0.00000000000E+00 0. -1.
        -24    2    1    2    0    0 -0.44256192592E+02 -0.13184100898E+03 -0.14438344344E+02  0.16090339326E+03  0.79628976777E+02 0.  0.
        254    2    1    2    0    0  0.44256192592E+02  0.13184100898E+03 -0.14322625480E+04  0.17023406213E+04  0.90953115527E+03 0.  0.
         23    2    4    4    0    0  0.15111317786E+03 -0.23189994535E+03 -0.12264566101E+04  0.12605182536E+04  0.89987077535E+02 0.  0.
         23    2    4    4    0    0 -0.10685698527E+03  0.36374095434E+03 -0.20580593793E+03  0.44182236772E+03  0.95524988181E+02 0.  0.
          1    1    3    3  502    0  0.14532005223E+02 -0.23606413482E+02 -0.24937494565E+02  0.37287002675E+02  0.00000000000E+00 0. -1.
         -2    1    3    3    0  502 -0.58788197816E+02 -0.10823459550E+03  0.10499150222E+02  0.12361639059E+03  0.00000000000E+00 0.  1.
         11    1    5    5    0    0  0.42394390106E+01 -0.37201683813E+02 -0.78917809003E+02  0.87349634799E+02  0.00000000000E+00 0.  1.
        -11    1    5    5    0    0  0.14687373885E+03 -0.19469826154E+03 -0.11475388011E+04  0.11731686188E+04  0.00000000000E+00 0. -1.
          2    1    6    6  503    0 -0.89733098818E+02  0.20256562615E+03 -0.76186192505E+02  0.23428443791E+03  0.00000000000E+00 0. -1.
         -2    1    6    6    0  503 -0.17123886451E+02  0.16117532819E+03 -0.12961974542E+03  0.20753792981E+03  0.00000000000E+00 0.  1.
<mgrwt>
<rscale>  0 0.11741954E+04</rscale>
<asrwt>0</asrwt>
<pdfrwt beam="1">  1        1 0.25461113E+00 0.11741954E+04</pdfrwt>
<pdfrwt beam="2">  1       -2 0.32041781E-01 0.11741954E+04</pdfrwt>
<totfact> 0.40354070E+01</totfact>
</mgrwt>
</event>
<event>
12    4  0.4424320E-008  0.1538453E+04  0.7818608E-02  0.8859277E-01
         -2   -1    0    0    0  501 -0.00000000000E+00  0.00000000000E+00  0.37129405329E+03  0.37129405329E+03  0.00000000000E+00 0.  1.
          1   -1    0    0  501    0  0.00000000000E+00 -0.00000000000E+00 -0.15936405111E+04  0.15936405111E+04  0.00000000000E+00 0. -1.
        -24    2    1    2    0    0  0.44884324083E+03 -0.13124158454E+03 -0.21599276254E+03  0.52074601767E+03  0.76412911794E+02 0.  0.
        254    2    1    2    0    0 -0.44884324083E+03  0.13124158454E+03 -0.10063536953E+04  0.14441885468E+04  0.92425547886E+03 0.  0.
         23    2    4    4    0    0 -0.39785498069E+03 -0.34298836843E+03 -0.65540892015E+03  0.84482349341E+03  0.90753930328E+02 0.  0.
         23    2    4    4    0    0 -0.50988260142E+02  0.47422995297E+03 -0.35094477515E+03  0.59936505335E+03  0.92641141018E+02 0.  0.
          1    1    3    3  502    0  0.64525531209E+02 -0.37785093475E+02 -0.58846110807E+02  0.95153151413E+02  0.00000000000E+00 0. -1.
         -2    1    3    3    0  502  0.38431770962E+03 -0.93456491066E+02 -0.15714665174E+03  0.42559286625E+03  0.00000000000E+00 0.  1.
         11    1    5    5    0    0 -0.33844759239E+03 -0.31065036693E+03 -0.52284563880E+03  0.69600142621E+03  0.00000000000E+00 0. -1.
        -11    1    5    5    0    0 -0.59407388304E+02 -0.32338001503E+02 -0.13256328135E+03  0.14882206721E+03  0.00000000000E+00 0.  1.
          1    1    6    6  503    0 -0.59632617930E+02  0.37774544487E+03 -0.23742570545E+03  0.45013179832E+03  0.00000000000E+00 0. -1.
         -1    1    6    6    0  503  0.86443577880E+01  0.96484508094E+02 -0.11351906970E+03  0.14923325504E+03  0.00000000000E+00 0.  1.
<mgrwt>
<rscale>  0 0.15384528E+04</rscale>
<asrwt>0</asrwt>
<pdfrwt beam="1">  1        1 0.24517546E+00 0.15384528E+04</pdfrwt>
<pdfrwt beam="2">  1       -2 0.57122162E-01 0.15384528E+04</pdfrwt>
<totfact> 0.13702424E+01</totfact>
</mgrwt>
</event>
<event>
12    4  0.4424320E-008  0.1286153E+04  0.7818608E-02  0.9040618E-01
         -2   -1    0    0    0  501 -0.00000000000E+00  0.00000000000E+00  0.20423995584E+03  0.20423995584E+03  0.00000000000E+00 0.  1.
          1   -1    0    0  501    0  0.00000000000E+00 -0.00000000000E+00 -0.20248124336E+04  0.20248124336E+04  0.00000000000E+00 0. -1.
        -24    2    1    2    0    0  0.18312176000E+03 -0.52652617161E+02 -0.13442290842E+02  0.20723500987E+03  0.80372738238E+02 0.  0.
        254    2    1    2    0    0 -0.18312176000E+03  0.52652617161E+02 -0.18071301869E+04  0.20218173796E+04  0.88640855523E+03 0.  0.
         23    2    4    4    0    0 -0.22304128286E+03  0.91349099501E+02 -0.51489455604E+02  0.26317112890E+03  0.92281131363E+02 0.  0.
         23    2    4    4    0    0  0.39919522860E+02 -0.38696482341E+02 -0.17556407313E+04  0.17586462507E+04  0.86436517142E+02 0.  0.
          1    1    3    3  502    0  0.13606056845E+03 -0.56631132390E+02 -0.40454188540E+02  0.15282704216E+03  0.00000000000E+00 0. -1.
         -2    1    3    3    0  502  0.47061191551E+02  0.39785152289E+01  0.27011897698E+02  0.54407967715E+02  0.00000000000E+00 0.  1.
         11    1    5    5    0    0 -0.14386694852E+03  0.10056610498E+03 -0.17107415474E+02  0.17636298935E+03  0.00000000000E+00 0. -1.
        -11    1    5    5    0    0 -0.79174334346E+02 -0.92170054778E+01 -0.34382040129E+02  0.86808139553E+02  0.00000000000E+00 0.  1.
          3    1    6    6  503    0 -0.28607947649E+01 -0.47122528854E+02 -0.13165036391E+04  0.13173498202E+04  0.00000000000E+00 0. -1.
         -3    1    6    6    0  503  0.42780317625E+02  0.84260465138E+01 -0.43913709222E+03  0.44129643053E+03  0.00000000000E+00 0.  1.
<mgrwt>
<rscale>  0 0.12861533E+04</rscale>
<asrwt>0</asrwt>
<pdfrwt beam="1">  1        1 0.31150961E+00 0.12861533E+04</pdfrwt>
<pdfrwt beam="2">  1       -2 0.31421531E-01 0.12861533E+04</pdfrwt>
<totfact> 0.23304691E+01</totfact>
</mgrwt>
</event>
<event>
12    4  0.4424320E-008  0.1212442E+04  0.7818608E-02  0.9102035E-01
         -4   -1    0    0    0  501 -0.00000000000E+00  0.00000000000E+00  0.30515355286E+03  0.30515355286E+03  0.00000000000E+00 0.  1.
          3   -1    0    0  501    0  0.00000000000E+00 -0.00000000000E+00 -0.12043242243E+04  0.12043242243E+04  0.00000000000E+00 0. -1.
        -24    2    1    2    0    0 -0.16771888598E+03 -0.13663455659E+03 -0.41826191578E+03  0.47757698214E+03  0.79612291174E+02 0.  0.
        254    2    1    2    0    0  0.16771888598E+03  0.13663455659E+03 -0.48090875562E+03  0.10319007950E+04  0.88698781991E+03 0.  0.
         23    2    4    4    0    0  0.11497022076E+03 -0.17800237075E+03 -0.62794366302E+03  0.66885040882E+03  0.90247602724E+02 0.  0.
         23    2    4    4    0    0  0.52748665218E+02  0.31463692734E+03  0.14703490740E+03  0.36305038616E+03  0.91692426982E+02 0.  0.
          1    1    3    3  502    0 -0.11669112255E+03 -0.58700418640E+02 -0.29867753894E+03  0.32599206968E+03  0.00000000000E+00 0. -1.
         -2    1    3    3    0  502 -0.51027763435E+02 -0.77934137952E+02 -0.11958437684E+03  0.15158491246E+03  0.00000000000E+00 0.  1.
         11    1    5    5    0    0  0.10809515186E+01  0.70801810225E+01 -0.65385719318E+02  0.65776817422E+02  0.00000000000E+00 0.  1.
        -11    1    5    5    0    0  0.11388926924E+03 -0.18508255177E+03 -0.56255794371E+03  0.60307359140E+03  0.00000000000E+00 0. -1.
          4    1    6    6  503    0  0.60457396718E+02  0.31780110542E+03  0.14183118209E+03  0.35322616500E+03  0.00000000000E+00 0. -1.
         -4    1    6    6    0  503 -0.77087315005E+01 -0.31641780823E+01  0.52037253096E+01  0.98242211589E+01  0.00000000000E+00 0.  1.
<mgrwt>
<rscale>  0 0.12124419E+04</rscale>
<asrwt>0</asrwt>
<pdfrwt beam="1">  1        3 0.18528065E+00 0.12124419E+04</pdfrwt>
<pdfrwt beam="2">  1       -4 0.46946700E-01 0.12124419E+04</pdfrwt>
<totfact> 0.18207560E+00</totfact>
</mgrwt>
</event>
<event>
12    4  0.4424320E-008  0.2007892E+04  0.7818608E-02  0.8602940E-01
          1   -1    0    0  501    0  0.00000000000E+00  0.00000000000E+00  0.35819206281E+04  0.35819206281E+04  0.00000000000E+00 0. -1.
         -2   -1    0    0    0  501 -0.00000000000E+00 -0.00000000000E+00 -0.28138757776E+03  0.28138757776E+03  0.00000000000E+00 0.  1.
        -24    2    1    2    0    0  0.56303519555E+03 -0.49787873161E+03  0.80728662994E+03  0.11058419852E+04  0.79264939269E+02 0.  0.
        254    2    1    2    0    0 -0.56303519555E+03  0.49787873161E+03  0.24932464204E+04  0.27574662207E+04  0.90689050178E+03 0.  0.
         23    2    4    4    0    0 -0.80934454572E+02  0.25256950842E+03  0.20007605020E+04  0.20202521246E+04  0.89634357580E+02 0.  0.
         23    2    4    4    0    0 -0.48210074098E+03  0.24530922319E+03  0.49248591848E+03  0.73721409611E+03  0.91348257536E+02 0.  0.
          3    1    3    3  502    0  0.30873206210E+03 -0.29347307163E+03  0.50956205341E+03  0.66415014584E+03  0.00000000000E+00 0. -1.
         -4    1    3    3    0  502  0.25430313346E+03 -0.20440565998E+03  0.29772457653E+03  0.44169183940E+03  0.00000000000E+00 0.  1.
         11    1    5    5    0    0 -0.70571792562E+02  0.25849987752E+03  0.19233307928E+04  0.19419072849E+04  0.00000000000E+00 0. -1.
        -11    1    5    5    0    0 -0.10362662010E+02 -0.59303691048E+01  0.77429709111E+02  0.78344839617E+02  0.00000000000E+00 0.  1.
          4    1    6    6  503    0 -0.19368129862E+03  0.10547067280E+03  0.14219401322E+03  0.26240359306E+03  0.00000000000E+00 0. -1.
         -4    1    6    6    0  503 -0.28841944236E+03  0.13983855039E+03  0.35029190527E+03  0.47481050305E+03  0.00000000000E+00 0.  1.
<mgrwt>
<rscale>  0 0.20078924E+04</rscale>
<asrwt>0</asrwt>
<pdfrwt beam="1">  1        1 0.55106468E+00 0.20078924E+04</pdfrwt>
<pdfrwt beam="2">  1       -2 0.43290399E-01 0.20078924E+04</pdfrwt>
<totfact> 0.89070075E-01</totfact>
</mgrwt>
</event>
<event>
12    4  0.4424320E-008  0.1382540E+04  0.7818608E-02  0.8966555E-01
         -2   -1    0    0    0  501 -0.00000000000E+00  0.00000000000E+00  0.17148701077E+03  0.17148701077E+03  0.00000000000E+00 0.  1.
          1   -1    0    0  501    0  0.00000000000E+00 -0.00000000000E+00 -0.27865336035E+04  0.27865336035E+04  0.00000000000E+00 0. -1.
        -24    2    1    2    0    0  0.10021170031E+02  0.51979776558E+02  0.75293524642E+02  0.12082296488E+03  0.78273577727E+02 0.  0.
        254    2    1    2    0    0 -0.10021170031E+02 -0.51979776558E+02 -0.26903401174E+04  0.28371976494E+04  0.89942105461E+03 0.  0.
         23    2    4    4    0    0  0.10350338155E+03 -0.44581143898E+03 -0.16514659376E+04  0.17161541545E+04  0.91567187699E+02 0.  0.
         23    2    4    4    0    0 -0.11352455158E+03  0.39383166242E+03 -0.10388741797E+04  0.11210434948E+04  0.97405101816E+02 0.  0.
          1    1    3    3  502    0 -0.24475739361E+02 -0.72527954173E+01  0.25651253963E+02  0.36189110081E+02  0.00000000000E+00 0. -1.
         -4    1    3    3    0  502  0.34496909391E+02  0.59232571976E+02  0.49642270680E+02  0.84633854802E+02  0.00000000000E+00 0.  1.
         11    1    5    5    0    0  0.10560967488E+03 -0.30813374997E+03 -0.10625893788E+04  0.11113937193E+04  0.00000000000E+00 0.  1.
        -11    1    5    5    0    0 -0.21062933298E+01 -0.13767768901E+03 -0.58887655880E+03  0.60476043523E+03  0.00000000000E+00 0. -1.
          4    1    6    6  503    0 -0.74569341600E+02  0.22028748828E+03 -0.71049099852E+03  0.74758586341E+03  0.00000000000E+00 0.  1.
         -4    1    6    6    0  503 -0.38955209980E+02  0.17354417414E+03 -0.32838318122E+03  0.37345763143E+03  0.00000000000E+00 0. -1.
<mgrwt>
<rscale>  0 0.13825402E+04</rscale>
<asrwt>0</asrwt>
<pdfrwt beam="1">  1        1 0.42869746E+00 0.13825402E+04</pdfrwt>
<pdfrwt beam="2">  1       -2 0.26382618E-01 0.13825402E+04</pdfrwt>
<totfact> 0.95576390E+00</totfact>
</mgrwt>
</event>
<event>
12    4  0.4424320E-008  0.1595027E+04  0.7818608E-02  0.8823609E-01
         -2   -1    0    0    0  501 -0.00000000000E+00  0.00000000000E+00  0.10834629987E+04  0.10834629987E+04  0.00000000000E+00 0.  1.
          1   -1    0    0  501    0  0.00000000000E+00 -0.00000000000E+00 -0.58703216759E+03  0.58703216759E+03  0.00000000000E+00 0. -1.
        -24    2    1    2    0    0 -0.21474674954E+03  0.18440774818E+03 -0.30809143501E+03  0.42620376719E+03  0.81283053707E+02 0.  0.
        254    2    1    2    0    0  0.21474674954E+03 -0.18440774818E+03  0.80452226608E+03  0.12442913991E+04  0.90602573095E+03 0.  0.
         23    2    4    4    0    0  0.10664283982E+03 -0.49688085674E+03  0.72730031820E+03  0.89169904353E+03  0.88871538182E+02 0.  0.
         23    2    4    4    0    0  0.10810390972E+03  0.31247310856E+03  0.77221947875E+02  0.35259235553E+03  0.95038103285E+02 0.  0.
          1    1    3    3  502    0 -0.11275895709E+03  0.11150474357E+03 -0.11462362383E+03  0.19566927552E+03  0.00000000000E+00 0. -1.
         -2    1    3    3    0  502 -0.10198779245E+03  0.72903004608E+02 -0.19346781118E+03  0.23053449167E+03  0.00000000000E+00 0.  1.
         11    1    5    5    0    0  0.12858427203E+02 -0.18946710067E+03  0.32925723401E+03  0.38009662920E+03  0.00000000000E+00 0. -1.
        -11    1    5    5    0    0  0.93784412613E+02 -0.30741375606E+03  0.39804308420E+03  0.51160241432E+03  0.00000000000E+00 0.  1.
          1    1    6    6  503    0  0.22672085908E+02  0.82905568164E+01 -0.78554744037E+01  0.25386320920E+02  0.00000000000E+00 0. -1.
         -1    1    6    6    0  503  0.85431823814E+02  0.30418255174E+03  0.85077422279E+02  0.32720603461E+03  0.00000000000E+00 0.  1.
<mgrwt>
<rscale>  0 0.15950268E+04</rscale>
<asrwt>0</asrwt>
<pdfrwt beam="1">  1        1 0.90312641E-01 0.15950268E+04</pdfrwt>
<pdfrwt beam="2">  1       -2 0.16668662E+00 0.15950268E+04</pdfrwt>
<totfact> 0.66783700E+00</totfact>
</mgrwt>
</event>
<event>
12    4  0.4424320E-008  0.1695536E+04  0.7818608E-02  0.8763914E-01
         -2   -1    0    0    0  501 -0.00000000000E+00  0.00000000000E+00  0.37966838542E+03  0.37966838542E+03  0.00000000000E+00 0.  1.
          1   -1    0    0  501    0  0.00000000000E+00 -0.00000000000E+00 -0.18929962723E+04  0.18929962723E+04  0.00000000000E+00 0. -1.
        -24    2    1    2    0    0 -0.45215107451E+03 -0.19750017669E+03 -0.10198332926E+04  0.11363060685E+04  0.87661979452E+02 0.  0.
        254    2    1    2    0    0  0.45215107451E+03  0.19750017669E+03 -0.49349459435E+03  0.11363585893E+04  0.89684280385E+03 0.  0.
         23    2    4    4    0    0  0.17498815549E+03  0.46530807402E+03 -0.23856538404E+01  0.50553540804E+03  0.91803589939E+02 0.  0.
         23    2    4    4    0    0  0.27716291902E+03 -0.26780789733E+03 -0.49110894051E+03  0.63082318124E+03  0.90606517422E+02 0.  0.
          1    1    3    3  502    0 -0.39489042246E+03 -0.15889494651E+03 -0.93177748410E+03  0.10243999852E+04  0.00000000000E+00 0. -1.
         -2    1    3    3    0  502 -0.57260652051E+02 -0.38605230189E+02 -0.88055808464E+02  0.11190608328E+03  0.00000000000E+00 0.  1.
         11    1    5    5    0    0  0.57803990091E+02  0.28124648382E+03 -0.84960528994E+01  0.28725088136E+03  0.00000000000E+00 0.  1.
        -11    1    5    5    0    0  0.11718416540E+03  0.18406159021E+03  0.61103990589E+01  0.21828452668E+03  0.00000000000E+00 0. -1.
          4    1    6    6  503    0  0.23737585219E+03 -0.24642928329E+03 -0.38255445675E+03  0.51324711323E+03  0.00000000000E+00 0. -1.
         -4    1    6    6    0  503  0.39787066831E+02 -0.21378614043E+02 -0.10855448376E+03  0.11757606801E+03  0.00000000000E+00 0.  1.
<mgrwt>
<rscale>  0 0.16955363E+04</rscale>
<asrwt>0</asrwt>
<pdfrwt beam="1">  1        1 0.29123019E+00 0.16955363E+04</pdfrwt>
<pdfrwt beam="2">  1       -2 0.58410522E-01 0.16955363E+04</pdfrwt>
<totfact> 0.80703268E+00</totfact>
</mgrwt>
</event>
<event>
12    4  0.4424320E-008  0.2046953E+04  0.7818608E-02  0.8584978E-01
          1   -1    0    0  501    0  0.00000000000E+00  0.00000000000E+00  0.15773991407E+04  0.15773991407E+04  0.00000000000E+00 0. -1.
         -2   -1    0    0    0  501 -0.00000000000E+00 -0.00000000000E+00 -0.66407030630E+03  0.66407030630E+03  0.00000000000E+00 0.  1.
        -24    2    1    2    0    0  0.10765009899E+03  0.49301649127E+03 -0.34010409749E+03  0.61364929899E+03  0.78999117358E+02 0.  0.
        254    2    1    2    0    0 -0.10765009899E+03 -0.49301649127E+03  0.12534329319E+04  0.16278201480E+04  0.90777228149E+03 0.  0.
         23    2    4    4    0    0 -0.11119382308E+03  0.71102667956E+02  0.98179312277E+03  0.99518057734E+03  0.95115665920E+02 0.  0.
         23    2    4    4    0    0  0.35437240878E+01 -0.56411915923E+03  0.27163980911E+03  0.63263957067E+03  0.90562998504E+02 0.  0.
          1    1    3    3  502    0  0.37729149396E+02  0.77475284066E+02 -0.85117963050E+02  0.12112380439E+03  0.00000000000E+00 0. -1.
         -2    1    3    3    0  502  0.69920949592E+02  0.41554120720E+03 -0.25498613444E+03  0.49252549460E+03  0.00000000000E+00 0.  1.
         11    1    5    5    0    0 -0.10813903692E+03  0.88858944510E+02  0.76959308661E+03  0.78221703017E+03  0.00000000000E+00 0. -1.
        -11    1    5    5    0    0 -0.30547861562E+01 -0.17756276555E+02  0.21220003616E+03  0.21296354717E+03  0.00000000000E+00 0.  1.
          3    1    6    6  503    0  0.41700048928E+02 -0.42289527919E+03  0.20769299840E+03  0.47298593301E+03  0.00000000000E+00 0. -1.
         -3    1    6    6    0  503 -0.38156324840E+02 -0.14122388003E+03  0.63946810706E+02  0.15965363766E+03  0.00000000000E+00 0.  1.
<mgrwt>
<rscale>  0 0.20469528E+04</rscale>
<asrwt>0</asrwt>
<pdfrwt beam="1">  1        1 0.24267679E+00 0.20469528E+04</pdfrwt>
<pdfrwt beam="2">  1       -2 0.10216466E+00 0.20469528E+04</pdfrwt>
<totfact> 0.36818842E+00</totfact>
</mgrwt>
</event>
<event>
12    4  0.4424320E-008  0.1070908E+04  0.7818608E-02  0.9234020E-01
         -2   -1    0    0    0  501 -0.00000000000E+00  0.00000000000E+00  0.19010554455E+04  0.19010554455E+04  0.00000000000E+00 0.  1.
          1   -1    0    0  501    0  0.00000000000E+00 -0.00000000000E+00 -0.15081668042E+03  0.15081668042E+03  0.00000000000E+00 0. -1.
        -24    2    1    2    0    0 -0.33936554813E+02  0.94433133321E+02  0.79832033069E+02  0.15113018132E+03  0.79986697526E+02 0.  0.
        254    2    1    2    0    0  0.33936554813E+02 -0.94433133321E+02  0.16704067320E+04  0.19007419446E+04  0.90138337192E+03 0.  0.
         23    2    4    4    0    0 -0.20406335902E+03  0.11095556561E+03  0.59852787054E+02  0.25735190585E+03  0.93245135515E+02 0.  0.
         23    2    4    4    0    0  0.23799991383E+03 -0.20538869893E+03  0.16105539449E+04  0.16433900387E+04  0.89545146121E+02 0.  0.
          3    1    3    3  502    0 -0.49375842543E+02  0.86328074268E+02  0.39169843200E+02  0.10688679455E+03  0.00000000000E+00 0. -1.
         -4    1    3    3    0  502  0.15439287730E+02  0.81050590530E+01  0.40662189868E+02  0.44243386768E+02  0.00000000000E+00 0.  1.
         11    1    5    5    0    0 -0.64762297717E+01 -0.10458102291E+02  0.17836846085E+02  0.21667176416E+02  0.00000000000E+00 0.  1.
        -11    1    5    5    0    0 -0.19758712924E+03  0.12141366790E+03  0.42015940969E+02  0.23568472944E+03  0.00000000000E+00 0. -1.
          4    1    6    6  503    0  0.22623283663E+03 -0.21352776487E+03  0.15658315313E+04  0.15964347112E+04  0.00000000000E+00 0. -1.
         -4    1    6    6    0  503  0.11767077200E+02  0.81390659474E+01  0.44722413600E+02  0.46955327478E+02  0.00000000000E+00 0.  1.
<mgrwt>
<rscale>  0 0.10709078E+04</rscale>
<asrwt>0</asrwt>
<pdfrwt beam="1">  1        1 0.23202568E-01 0.10709078E+04</pdfrwt>
<pdfrwt beam="2">  1       -2 0.29247005E+00 0.10709078E+04</pdfrwt>
<totfact> 0.66918180E+00</totfact>
</mgrwt>
</event>
<event>
12    4  0.4424320E-008  0.1710966E+04  0.7818608E-02  0.8755135E-01
         -2   -1    0    0    0  501 -0.00000000000E+00  0.00000000000E+00  0.14814151774E+04  0.14814151774E+04  0.00000000000E+00 0.  1.
          1   -1    0    0  501    0  0.00000000000E+00 -0.00000000000E+00 -0.49402166098E+03  0.49402166098E+03  0.00000000000E+00 0. -1.
        -24    2    1    2    0    0 -0.50651079378E+03  0.15648372616E+03 -0.63763729741E+01  0.53614046769E+03  0.79784724020E+02 0.  0.
        254    2    1    2    0    0  0.50651079378E+03 -0.15648372616E+03  0.99376988937E+03  0.14392963707E+04  0.89607762434E+03 0.  0.
         23    2    4    4    0    0  0.72507192395E+03 -0.10318708206E+03  0.50672325499E+03  0.89510064044E+03  0.89776559008E+02 0.  0.
         23    2    4    4    0    0 -0.21856113017E+03 -0.53296644097E+02  0.48704663438E+03  0.54419573024E+03  0.91241815280E+02 0.  0.
          1    1    3    3  502    0 -0.49128927519E+03  0.16502616796E+03 -0.97777833437E+01  0.51835739898E+03  0.00000000000E+00 0. -1.
         -2    1    3    3    0  502 -0.15221518596E+02 -0.85424417999E+01  0.34014103696E+01  0.17783068711E+02  0.00000000000E+00 0.  1.
         11    1    5    5    0    0  0.59235330651E+03 -0.98568256109E+02  0.37452971608E+03  0.70772215528E+03  0.00000000000E+00 0. -1.
        -11    1    5    5    0    0  0.13271861744E+03 -0.46188259559E+01  0.13219353891E+03  0.18737848515E+03  0.00000000000E+00 0.  1.
          2    1    6    6  503    0 -0.35947881654E+02 -0.19515612479E+02  0.29603326333E+02  0.50492239561E+02  0.00000000000E+00 0.  1.
         -2    1    6    6    0  503 -0.18261324852E+03 -0.33781031618E+02  0.45744330804E+03  0.49370349068E+03  0.00000000000E+00 0. -1.
<mgrwt>
<rscale>  0 0.17109660E+04</rscale>
<asrwt>0</asrwt>
<pdfrwt beam="1">  1        1 0.76003333E-01 0.17109660E+04</pdfrwt>
<pdfrwt beam="2">  1       -2 0.22791003E+00 0.17109660E+04</pdfrwt>
<totfact> 0.33013163E+00</totfact>
</mgrwt>
</event>
<event>
12    4  0.4424320E-008  0.1552004E+04  0.7818608E-02  0.8850589E-01
          1   -1    0    0  501    0  0.00000000000E+00  0.00000000000E+00  0.77723474609E+03  0.77723474609E+03  0.00000000000E+00 0. -1.
         -2   -1    0    0    0  501 -0.00000000000E+00 -0.00000000000E+00 -0.77477130663E+03  0.77477130663E+03  0.00000000000E+00 0.  1.
        -24    2    1    2    0    0  0.10344704837E+03 -0.14349692227E+03  0.47421486403E+03  0.51220522169E+03  0.78624381372E+02 0.  0.
        254    2    1    2    0    0 -0.10344704837E+03  0.14349692227E+03 -0.47175142456E+03  0.10398008310E+04  0.90958435734E+03 0.  0.
         23    2    4    4    0    0  0.11276224360E+03 -0.29144519507E+03 -0.43687967695E+03  0.54438759576E+03  0.88534608873E+02 0.  0.
         23    2    4    4    0    0 -0.21620929197E+03  0.43494211734E+03 -0.34871747612E+02  0.49541323527E+03  0.91088591671E+02 0.  0.
          1    1    3    3  502    0  0.19889322699E+02 -0.92211451743E+02  0.26117525005E+03  0.27768876144E+03  0.00000000000E+00 0. -1.
         -2    1    3    3    0  502  0.83557725671E+02 -0.51285470527E+02  0.21303961398E+03  0.23451646025E+03  0.00000000000E+00 0.  1.
         11    1    5    5    0    0  0.57060681093E+02 -0.23357384881E+03 -0.28758620078E+03  0.37485795583E+03  0.00000000000E+00 0.  1.
        -11    1    5    5    0    0  0.55701562510E+02 -0.57871346260E+02 -0.14929347617E+03  0.16952963992E+03  0.00000000000E+00 0. -1.
          1    1    6    6  503    0 -0.21062538421E+01 -0.46671234679E+01 -0.13246885468E+01  0.52889645923E+01  0.00000000000E+00 0. -1.
         -1    1    6    6    0  503 -0.21410303813E+03  0.43960924081E+03 -0.33547059065E+02  0.49012427068E+03  0.00000000000E+00 0.  1.
<mgrwt>
<rscale>  0 0.15520041E+04</rscale>
<asrwt>0</asrwt>
<pdfrwt beam="1">  1        1 0.11957458E+00 0.15520041E+04</pdfrwt>
<pdfrwt beam="2">  1       -2 0.11919559E+00 0.15520041E+04</pdfrwt>
<totfact> 0.10547109E+01</totfact>
</mgrwt>
</event>
<event>
12    4  0.4424320E-008  0.1210278E+04  0.7818608E-02  0.9103907E-01
          1   -1    0    0  501    0  0.00000000000E+00  0.00000000000E+00  0.11495375894E+04  0.11495375894E+04  0.00000000000E+00 0. -1.
         -2   -1    0    0    0  501 -0.00000000000E+00 -0.00000000000E+00 -0.31855719118E+03  0.31855719118E+03  0.00000000000E+00 0.  1.
        -24    2    1    2    0    0 -0.25504944962E+03  0.26329482631E+02  0.14477780743E+03  0.30487249876E+03  0.79013692271E+02 0.  0.
        254    2    1    2    0    0  0.25504944962E+03 -0.26329482631E+02  0.68620259076E+03  0.11632222818E+04  0.90358653039E+03 0.  0.
         23    2    4    4    0    0 -0.12783655341E+03 -0.19353583848E+03 -0.10052797495E+03  0.26774431370E+03  0.88220397910E+02 0.  0.
         23    2    4    4    0    0  0.38288600303E+03  0.16720635585E+03  0.78673056571E+03  0.89547796810E+03  0.91521317590E+02 0.  0.
          1    1    3    3  502    0 -0.25435352828E+03  0.36670036380E+02  0.14375380746E+03  0.29445808882E+03  0.00000000000E+00 0. -1.
         -2    1    3    3    0  502 -0.69592134338E+00 -0.10340553749E+02  0.10239999773E+01  0.10414409935E+02  0.00000000000E+00 0.  1.
         11    1    5    5    0    0 -0.70239055232E+02 -0.33630866339E+02 -0.25342100218E+02  0.81894945473E+02  0.00000000000E+00 0. -1.
        -11    1    5    5    0    0 -0.57597498183E+02 -0.15990497214E+03 -0.75185874732E+02  0.18584936823E+03  0.00000000000E+00 0.  1.
          3    1    6    6  503    0  0.37442934837E+02  0.45780447148E+02  0.14559581092E+03  0.15714949211E+03  0.00000000000E+00 0. -1.
         -3    1    6    6    0  503  0.34544306820E+03  0.12142590870E+03  0.64113475478E+03  0.73832847599E+03  0.00000000000E+00 0.  1.
<mgrwt>
<rscale>  0 0.12102784E+04</rscale>
<asrwt>0</asrwt>
<pdfrwt beam="1">  1        1 0.17685193E+00 0.12102784E+04</pdfrwt>
<pdfrwt beam="2">  1       -2 0.49008799E-01 0.12102784E+04</pdfrwt>
<totfact> 0.39795295E+01</totfact>
</mgrwt>
</event>
<event>
12    4  0.4424320E-008  0.1282800E+04  0.7818608E-02  0.9043317E-01
          1   -1    0    0  501    0  0.00000000000E+00  0.00000000000E+00  0.18430975889E+04  0.18430975889E+04  0.00000000000E+00 0. -1.
         -2   -1    0    0    0  501 -0.00000000000E+00 -0.00000000000E+00 -0.22320792155E+03  0.22320792155E+03  0.00000000000E+00 0.  1.
        -24    2    1    2    0    0  0.14221043707E+02 -0.10288659371E+01 -0.10040999866E+03  0.12976052086E+03  0.80946453256E+02 0.  0.
        254    2    1    2    0    0 -0.14221043707E+02  0.10288659371E+01  0.17202996661E+04  0.19365449896E+04  0.88914130442E+03 0.  0.
         23    2    4    4    0    0 -0.25088139640E+03 -0.35080856985E+03  0.10331488992E+04  0.11240429795E+04  0.10033864754E+03 0.  0.
         23    2    4    4    0    0  0.23666035270E+03  0.35183743579E+03  0.68715076688E+03  0.81250201012E+03  0.90474506193E+02 0.  0.
          3    1    3    3  502    0 -0.24646927869E+02 -0.40153410011E+01 -0.33888380143E+01  0.25200758715E+02  0.00000000000E+00 0. -1.
         -4    1    3    3    0  502  0.38867971576E+02  0.29864750640E+01 -0.97021160642E+02  0.10455976215E+03  0.00000000000E+00 0.  1.
         11    1    5    5    0    0 -0.13072415717E+03 -0.11025461336E+03  0.46575363402E+03  0.49615656061E+03  0.00000000000E+00 0. -1.
        -11    1    5    5    0    0 -0.12015723923E+03 -0.24055395649E+03  0.56739526516E+03  0.62788641891E+03  0.00000000000E+00 0.  1.
          2    1    6    6  503    0  0.37734015698E+01  0.14416687513E+02  0.70083677776E+02  0.71650550095E+02  0.00000000000E+00 0. -1.
         -2    1    6    6    0  503  0.23288695113E+03  0.33742074828E+03  0.61706708910E+03  0.74085146003E+03  0.00000000000E+00 0.  1.
<mgrwt>
<rscale>  0 0.12828000E+04</rscale>
<asrwt>0</asrwt>
<pdfrwt beam="1">  1        1 0.28355347E+00 0.12828000E+04</pdfrwt>
<pdfrwt beam="2">  1       -2 0.34339681E-01 0.12828000E+04</pdfrwt>
<totfact> 0.26146018E+01</totfact>
</mgrwt>
</event>
<event>
12    4  0.4424320E-008  0.1112622E+04  0.7818608E-02  0.9192976E-01
         -2   -1    0    0    0  501 -0.00000000000E+00  0.00000000000E+00  0.11386843350E+03  0.11386843350E+03  0.00000000000E+00 0.  1.
          1   -1    0    0  501    0  0.00000000000E+00 -0.00000000000E+00 -0.27178910106E+04  0.27178910106E+04  0.00000000000E+00 0. -1.
        -24    2    1    2    0    0  0.41140156237E+01 -0.35629415251E+02 -0.89583495268E+03  0.90008809664E+03  0.79699052197E+02 0.  0.
        254    2    1    2    0    0 -0.41140156237E+01  0.35629415251E+02 -0.17081876244E+04  0.19316713475E+04  0.90120078452E+03 0.  0.
         23    2    4    4    0    0 -0.10313781354E+03 -0.24477279851E+03 -0.15653060085E+04  0.15902828593E+04  0.90915019283E+02 0.  0.
         23    2    4    4    0    0  0.99023797921E+02  0.28040221376E+03 -0.14288161588E+03  0.34138848817E+03  0.87748673275E+02 0.  0.
          1    1    3    3  502    0  0.17556415792E+02 -0.29476267110E+02 -0.86705133681E+03  0.86772985353E+03  0.00000000000E+00 0. -1.
         -2    1    3    3    0  502 -0.13442400169E+02 -0.61531481409E+01 -0.28783615874E+02  0.32358243109E+02  0.00000000000E+00 0.  1.
         11    1    5    5    0    0 -0.77229518568E+02 -0.13290542052E+03 -0.11159675233E+04  0.11265042221E+04  0.00000000000E+00 0.  1.
        -11    1    5    5    0    0 -0.25908294977E+02 -0.11186737798E+03 -0.44933848524E+03  0.46377863720E+03  0.00000000000E+00 0. -1.
          3    1    6    6  503    0  0.40783056116E+02  0.65576602523E+02 -0.77494064675E+02  0.10940236983E+03  0.00000000000E+00 0. -1.
         -3    1    6    6    0  503  0.58240741805E+02  0.21482561124E+03 -0.65387551207E+02  0.23198611834E+03  0.00000000000E+00 0.  1.
<mgrwt>
<rscale>  0 0.11126221E+04</rscale>
<asrwt>0</asrwt>
<pdfrwt beam="1">  1        1 0.41813709E+00 0.11126221E+04</pdfrwt>
<pdfrwt beam="2">  1       -2 0.17518220E-01 0.11126221E+04</pdfrwt>
<totfact> 0.22702914E+01</totfact>
</mgrwt>
</event>
<event>
12    4  0.4424320E-008  0.2630453E+04  0.7818608E-02  0.8357930E-01
         -2   -1    0    0    0  501 -0.00000000000E+00  0.00000000000E+00  0.59515694707E+03  0.59515694707E+03  0.00000000000E+00 0.  1.
          1   -1    0    0  501    0  0.00000000000E+00 -0.00000000000E+00 -0.29064945593E+04  0.29064945593E+04  0.00000000000E+00 0. -1.
        -24    2    1    2    0    0  0.19240285772E+03 -0.35306639546E+03  0.42507580117E+03  0.59032295203E+03  0.78211327109E+02 0.  0.
        254    2    1    2    0    0 -0.19240285772E+03  0.35306639546E+03 -0.27364134134E+04  0.29113285543E+04  0.90895590821E+03 0.  0.
         23    2    4    4    0    0  0.18209892267E+03  0.32440411789E+03 -0.22874050947E+04  0.23192054452E+04  0.89965439204E+02 0.  0.
         23    2    4    4    0    0 -0.37450178039E+03  0.28662277567E+02 -0.44900831861E+03  0.59212310910E+03  0.89040420503E+02 0.  0.
          3    1    3    3  502    0  0.46352870573E+02 -0.42211989840E+02  0.40157868123E+02  0.74451964841E+02  0.00000000000E+00 0. -1.
         -4    1    3    3    0  502  0.14604998715E+03 -0.31085440562E+03  0.38491793305E+03  0.51587098719E+03  0.00000000000E+00 0.  1.
         11    1    5    5    0    0  0.14466864424E+03  0.17039343835E+03 -0.12673674828E+04  0.12869278445E+04  0.00000000000E+00 0. -1.
        -11    1    5    5    0    0  0.37430278428E+02  0.15401067954E+03 -0.10200376119E+04  0.10322776007E+04  0.00000000000E+00 0.  1.
          2    1    6    6  503    0 -0.31733051648E+03 -0.55057825457E+01 -0.34656598211E+03  0.46993292105E+03  0.00000000000E+00 0. -1.
         -2    1    6    6    0  503 -0.57171263908E+02  0.34168060112E+02 -0.10244233650E+03  0.12219018805E+03  0.00000000000E+00 0.  1.
<mgrwt>
<rscale>  0 0.26304528E+04</rscale>
<asrwt>0</asrwt>
<pdfrwt beam="1">  1        1 0.44715302E+00 0.26304528E+04</pdfrwt>
<pdfrwt beam="2">  1       -2 0.91562605E-01 0.26304528E+04</pdfrwt>
<totfact> 0.54816069E-01</totfact>
</mgrwt>
</event>
<event>
12    4  0.4424320E-008  0.1387768E+04  0.7818608E-02  0.8962721E-01
          1   -1    0    0  501    0  0.00000000000E+00  0.00000000000E+00  0.14576938912E+04  0.14576938912E+04  0.00000000000E+00 0. -1.
         -2   -1    0    0    0  501 -0.00000000000E+00 -0.00000000000E+00 -0.33029898337E+03  0.33029898337E+03  0.00000000000E+00 0.  1.
        -24    2    1    2    0    0 -0.92768261566E+02  0.20334558693E+03 -0.88062108716E+02  0.25350542300E+03  0.80961017928E+02 0.  0.
        254    2    1    2    0    0  0.92768261566E+02 -0.20334558693E+03  0.12154570165E+04  0.15344874515E+04  0.90959364654E+03 0.  0.
         23    2    4    4    0    0  0.34500195885E+03 -0.35402396003E+03  0.34035208013E+03  0.60725141159E+03  0.92495527177E+02 0.  0.
         23    2    4    4    0    0 -0.25223369728E+03  0.15067837310E+03  0.87510493638E+03  0.92723603994E+03  0.87362542980E+02 0.  0.
          3    1    3    3  502    0  0.64380508569E+01  0.50642071062E+02  0.41054844420E+00  0.51051311543E+02  0.00000000000E+00 0. -1.
         -4    1    3    3    0  502 -0.99206312423E+02  0.15270351587E+03 -0.88472657160E+02  0.20245411146E+03  0.00000000000E+00 0.  1.
         11    1    5    5    0    0  0.34973907042E+03 -0.34428457089E+03  0.33870344558E+03  0.59629632498E+03  0.00000000000E+00 0. -1.
        -11    1    5    5    0    0 -0.47371115741E+01 -0.97393891364E+01  0.16486345476E+01  0.10955086612E+02  0.00000000000E+00 0.  1.
          3    1    6    6  503    0 -0.95579860453E+02  0.10180689577E+03  0.46508737564E+03  0.48559903288E+03  0.00000000000E+00 0. -1.
         -3    1    6    6    0  503 -0.15665383683E+03  0.48871477325E+02  0.41001756074E+03  0.44163700706E+03  0.00000000000E+00 0.  1.
<mgrwt>
<rscale>  0 0.13877677E+04</rscale>
<asrwt>0</asrwt>
<pdfrwt beam="1">  1        1 0.22426060E+00 0.13877677E+04</pdfrwt>
<pdfrwt beam="2">  1       -2 0.50815229E-01 0.13877677E+04</pdfrwt>
<totfact> 0.21945850E+01</totfact>
</mgrwt>
</event>
<event>
12    4  0.4424320E-008  0.2654936E+04  0.7818608E-02  0.8349776E-01
         -2   -1    0    0    0  501 -0.00000000000E+00  0.00000000000E+00  0.10022877335E+04  0.10022877335E+04  0.00000000000E+00 0.  1.
          1   -1    0    0  501    0  0.00000000000E+00 -0.00000000000E+00 -0.17581493244E+04  0.17581493244E+04  0.00000000000E+00 0. -1.
        -24    2    1    2    0    0  0.44317210400E+03 -0.10845283933E+04 -0.25148099069E+03  0.12010195936E+04  0.81252852859E+02 0.  0.
        254    2    1    2    0    0 -0.44317210400E+03  0.10845283933E+04 -0.50438060025E+03  0.15594174642E+04  0.89709513892E+03 0.  0.
         23    2    4    4    0    0 -0.20011646964E+02 -0.12988031340E+03 -0.15648088966E+03  0.22371893947E+03  0.91074328030E+02 0.  0.
         23    2    4    4    0    0 -0.42316045704E+03  0.12144087067E+04 -0.34789971059E+03  0.13356985247E+04  0.95932586703E+02 0.  0.
          3    1    3    3  502    0  0.78914735132E+01 -0.63659208264E+02 -0.62184026612E+01  0.64447177461E+02  0.00000000000E+00 0. -1.
         -4    1    3    3    0  502  0.43528063049E+03 -0.10208691850E+04 -0.24526258803E+03  0.11365724162E+04  0.00000000000E+00 0.  1.
         11    1    5    5    0    0 -0.14772974040E+01 -0.38646604852E+02 -0.11586175615E+03  0.12214617887E+03  0.00000000000E+00 0. -1.
        -11    1    5    5    0    0 -0.18534349560E+02 -0.91233708550E+02 -0.40619133510E+02  0.10157276060E+03  0.00000000000E+00 0.  1.
          2    1    6    6  503    0 -0.28302791549E+03  0.92775015761E+03 -0.27864835414E+03  0.10091927770E+04  0.00000000000E+00 0. -1.
         -2    1    6    6    0  503 -0.14013254155E+03  0.28665854904E+03 -0.69251356452E+02  0.32650574774E+03  0.00000000000E+00 0.  1.
<mgrwt>
<rscale>  0 0.26549362E+04</rscale>
<asrwt>0</asrwt>
<pdfrwt beam="1">  1        1 0.27048451E+00 0.26549362E+04</pdfrwt>
<pdfrwt beam="2">  1       -2 0.15419811E+00 0.26549362E+04</pdfrwt>
<totfact> 0.93262366E-01</totfact>
</mgrwt>
</event>
<event>
12    4  0.4424320E-008  0.1492418E+04  0.7818608E-02  0.8889511E-01
          1   -1    0    0  501    0  0.00000000000E+00  0.00000000000E+00  0.10726227621E+04  0.10726227621E+04  0.00000000000E+00 0. -1.
         -2   -1    0    0    0  501 -0.00000000000E+00 -0.00000000000E+00 -0.51912710870E+03  0.51912710870E+03  0.00000000000E+00 0.  1.
        -24    2    1    2    0    0 -0.35046590321E+03 -0.83534853614E+02 -0.15130183888E+03  0.39924977486E+03  0.81876218747E+02 0.  0.
        254    2    1    2    0    0  0.35046590321E+03  0.83534853614E+02  0.70479749229E+03  0.11925000960E+04  0.89191510394E+03 0.  0.
         23    2    4    4    0    0  0.32938582150E+03 -0.82408644148E+02 -0.10090414419E+03  0.36437662025E+03  0.85454496862E+02 0.  0.
         23    2    4    4    0    0  0.21080081710E+02  0.16594349776E+03  0.80570163649E+03  0.82812347571E+03  0.93014782114E+02 0.  0.
          1    1    3    3  502    0 -0.46551843417E+01  0.25183245435E+01  0.74440520849E+01  0.91338169023E+01  0.00000000000E+00 0. -1.
         -2    1    3    3    0  502 -0.34581071886E+03 -0.86053178158E+02 -0.15874589097E+03  0.39011595795E+03  0.00000000000E+00 0.  1.
         11    1    5    5    0    0  0.33007744058E+02 -0.37115869336E+02 -0.67812835446E+01  0.50130676545E+02  0.00000000000E+00 0. -1.
        -11    1    5    5    0    0  0.29637807744E+03 -0.45292774812E+02 -0.94122860649E+02  0.31424594370E+03  0.00000000000E+00 0.  1.
          2    1    6    6  503    0  0.12636799792E+02  0.12294385799E+03  0.36727482296E+03  0.38751216304E+03  0.00000000000E+00 0. -1.
         -2    1    6    6    0  503  0.84432819184E+01  0.42999639767E+02  0.43842681353E+03  0.44061131267E+03  0.00000000000E+00 0.  1.
<mgrwt>
<rscale>  0 0.14924176E+04</rscale>
<asrwt>0</asrwt>
<pdfrwt beam="1">  1        1 0.16501889E+00 0.14924176E+04</pdfrwt>
<pdfrwt beam="2">  1       -2 0.79865709E-01 0.14924176E+04</pdfrwt>
<totfact> 0.15661786E+01</totfact>
</mgrwt>
</event>
<event>
12    4  0.4424320E-008  0.1137015E+04  0.7818608E-02  0.9169847E-01
          1   -1    0    0  501    0  0.00000000000E+00  0.00000000000E+00  0.13384366882E+04  0.13384366882E+04  0.00000000000E+00 0. -1.
         -2   -1    0    0    0  501 -0.00000000000E+00 -0.00000000000E+00 -0.24147641965E+03  0.24147641965E+03  0.00000000000E+00 0.  1.
        -24    2    1    2    0    0 -0.64747552028E+02  0.19820466806E+03  0.13488455937E+03  0.26055426729E+03  0.78850148491E+02 0.  0.
        254    2    1    2    0    0  0.64747552028E+02 -0.19820466806E+03  0.96207570918E+03  0.13193588405E+04  0.87843084190E+03 0.  0.
         23    2    4    4    0    0  0.45628509990E+03 -0.18470634430E+03  0.57566998170E+03  0.76169924858E+03  0.80481621752E+02 0.  0.
         23    2    4    4    0    0 -0.39153754787E+03 -0.13498323760E+02  0.38640572748E+03  0.55765959197E+03  0.90504022830E+02 0.  0.
          3    1    3    3  502    0 -0.17806657864E+02  0.18768821693E+02  0.50593902778E+02  0.56825071319E+02  0.00000000000E+00 0. -1.
         -4    1    3    3    0  502 -0.46940894163E+02  0.17943584636E+03  0.84290656590E+02  0.20372919598E+03  0.00000000000E+00 0.  1.
         11    1    5    5    0    0  0.66649698625E+02 -0.40246830848E+02  0.54019692677E+02  0.94763478814E+02  0.00000000000E+00 0.  1.
        -11    1    5    5    0    0  0.38963540128E+03 -0.14445951345E+03  0.52165028903E+03  0.66693576977E+03  0.00000000000E+00 0. -1.
          1    1    6    6  503    0 -0.18754797241E+03  0.22960943036E+02  0.13693955747E+03  0.23335357135E+03  0.00000000000E+00 0. -1.
         -1    1    6    6    0  503 -0.20398957546E+03 -0.36459266796E+02  0.24946617001E+03  0.32430602062E+03  0.00000000000E+00 0.  1.
<mgrwt>
<rscale>  0 0.11370152E+04</rscale>
<asrwt>0</asrwt>
<pdfrwt beam="1">  1        1 0.20591333E+00 0.11370152E+04</pdfrwt>
<pdfrwt beam="2">  1       -2 0.37150219E-01 0.11370152E+04</pdfrwt>
<totfact> 0.50563537E+01</totfact>
</mgrwt>
</event>
<event>
12    4  0.4424320E-008  0.2624247E+04  0.7818608E-02  0.8360011E-01
          1   -1    0    0  501    0  0.00000000000E+00  0.00000000000E+00  0.18839409436E+04  0.18839409436E+04  0.00000000000E+00 0. -1.
         -2   -1    0    0    0  501 -0.00000000000E+00 -0.00000000000E+00 -0.91386541649E+03  0.91386541649E+03  0.00000000000E+00 0.  1.
        -24    2    1    2    0    0  0.52784064799E+03 -0.74416021140E+03  0.11921540785E+04  0.15039498259E+04  0.90794063286E+02 0.  0.
        254    2    1    2    0    0 -0.52784064799E+03  0.74416021140E+03 -0.22207855139E+03  0.12938565342E+04  0.89014362791E+03 0.  0.
         23    2    4    4    0    0  0.79674188209E+02 -0.10565346527E+03  0.10682804369E+03  0.19414432994E+03  0.93643787509E+02 0.  0.
         23    2    4    4    0    0 -0.60751483619E+03  0.84981367668E+03 -0.32890659508E+03  0.10997122043E+04  0.99648495880E+02 0.  0.
          1    1    3    3  502    0  0.36384065726E+03 -0.58019077605E+03  0.90084063780E+03  0.11315985221E+04  0.00000000000E+00 0. -1.
         -2    1    3    3    0  502  0.16399999072E+03 -0.16396943536E+03  0.29131344074E+03  0.37235130380E+03  0.00000000000E+00 0.  1.
         11    1    5    5    0    0  0.85632145761E+02 -0.37852589772E+02  0.54894170972E+02  0.10853134546E+03  0.00000000000E+00 0. -1.
        -11    1    5    5    0    0 -0.59579575523E+01 -0.67800875501E+02  0.51933872714E+02  0.85612984483E+02  0.00000000000E+00 0.  1.
          2    1    6    6  503    0 -0.37680788141E+03  0.60683756616E+03 -0.22610856574E+03  0.74924034508E+03  0.00000000000E+00 0. -1.
         -2    1    6    6    0  503 -0.23070695478E+03  0.24297611052E+03 -0.10279802934E+03  0.35047185922E+03  0.00000000000E+00 0.  1.
<mgrwt>
<rscale>  0 0.26242473E+04</rscale>
<asrwt>0</asrwt>
<pdfrwt beam="1">  1        1 0.28983707E+00 0.26242473E+04</pdfrwt>
<pdfrwt beam="2">  1       -2 0.14059468E+00 0.26242473E+04</pdfrwt>
<totfact> 0.98014942E-01</totfact>
</mgrwt>
</event>
<event>
12    4  0.4424320E-008  0.1522700E+04  0.7818608E-02  0.8869496E-01
          1   -1    0    0  501    0  0.00000000000E+00  0.00000000000E+00  0.34162623477E+03  0.34162623477E+03  0.00000000000E+00 0. -1.
         -2   -1    0    0    0  501 -0.00000000000E+00 -0.00000000000E+00 -0.16967490887E+04  0.16967490887E+04  0.00000000000E+00 0.  1.
        -24    2    1    2    0    0  0.28241874906E+03 -0.77793730858E+01 -0.93646637853E+03  0.98204919934E+03  0.87352637965E+02 0.  0.
        254    2    1    2    0    0 -0.28241874906E+03  0.77793730858E+01 -0.41865647540E+03  0.10563261241E+04  0.92775576938E+03 0.  0.
         23    2    4    4    0    0  0.84682091560E+02 -0.27859969420E+03 -0.48921048425E+03  0.57659858922E+03  0.91379368258E+02 0.  0.
         23    2    4    4    0    0 -0.36710084062E+03  0.28637906729E+03  0.70554008852E+02  0.47972753490E+03  0.91567691961E+02 0.  0.
          1    1    3    3  502    0  0.46470582354E+02  0.32015691825E+02 -0.18184389994E+03  0.19039885371E+03  0.00000000000E+00 0. -1.
         -2    1    3    3    0  502  0.23594816670E+03 -0.39795064911E+02 -0.75462247859E+03  0.79165034564E+03  0.00000000000E+00 0.  1.
         11    1    5    5    0    0  0.27617179041E+02 -0.21988568682E+03 -0.32898700453E+03  0.39666720686E+03  0.00000000000E+00 0.  1.
        -11    1    5    5    0    0  0.57064912519E+02 -0.58714007387E+02 -0.16022347972E+03  0.17993138236E+03  0.00000000000E+00 0. -1.
          1    1    6    6  503    0 -0.20809146643E+03  0.10444817928E+03  0.38172719835E+02  0.23594202062E+03  0.00000000000E+00 0. -1.
         -1    1    6    6    0  503 -0.15900937418E+03  0.18193088801E+03  0.32381289016E+02  0.24378551427E+03  0.00000000000E+00 0.  1.
<mgrwt>
<rscale>  0 0.15227002E+04</rscale>
<asrwt>0</asrwt>
<pdfrwt beam="1">  1        1 0.52557884E-01 0.15227002E+04</pdfrwt>
<pdfrwt beam="2">  1       -2 0.26103831E+00 0.15227002E+04</pdfrwt>
<totfact> 0.34334904E+00</totfact>
</mgrwt>
</event>
<event>
12    4  0.4424320E-008  0.2038320E+04  0.7818608E-02  0.8588912E-01
         -2   -1    0    0    0  501 -0.00000000000E+00  0.00000000000E+00  0.46395043022E+03  0.46395043022E+03  0.00000000000E+00 0.  1.
          1   -1    0    0  501    0  0.00000000000E+00 -0.00000000000E+00 -0.22387885894E+04  0.22387885894E+04  0.00000000000E+00 0. -1.
        -24    2    1    2    0    0 -0.64120154504E+03  0.26699416862E+03 -0.14211185169E+03  0.71350823152E+03  0.80454400882E+02 0.  0.
        254    2    1    2    0    0  0.64120154504E+03 -0.26699416862E+03 -0.16327263075E+04  0.19892307881E+04  0.89934344145E+03 0.  0.
         23    2    4    4    0    0  0.28466788587E+03  0.72559007635E+02 -0.14075494132E+04  0.14407682193E+04  0.91198116290E+02 0.  0.
         23    2    4    4    0    0  0.35653365917E+03 -0.33955317625E+03 -0.22517689431E+03  0.54846256877E+03  0.87715141189E+02 0.  0.
          1    1    3    3  502    0 -0.16896692551E+03  0.64867567485E+02 -0.73199344673E+02  0.19523259791E+03  0.00000000000E+00 0. -1.
         -4    1    3    3    0  502 -0.47223461953E+03  0.20212660113E+03 -0.68912507015E+02  0.51827563360E+03  0.00000000000E+00 0.  1.
         11    1    5    5    0    0  0.20068747478E+03  0.87446023508E+02 -0.11023068741E+04  0.11238339353E+04  0.00000000000E+00 0.  1.
        -11    1    5    5    0    0  0.83980411090E+02 -0.14887015872E+02 -0.30524253910E+03  0.31693428399E+03  0.00000000000E+00 0. -1.
          2    1    6    6  503    0  0.26337896307E+03 -0.20548187618E+03 -0.17804355332E+03  0.37853769496E+03  0.00000000000E+00 0. -1.
         -2    1    6    6    0  503  0.93154696098E+02 -0.13407130007E+03 -0.47133340988E+02  0.16992487382E+03  0.00000000000E+00 0.  1.
<mgrwt>
<rscale>  0 0.20383198E+04</rscale>
<asrwt>0</asrwt>
<pdfrwt beam="1">  1        1 0.34442902E+00 0.20383198E+04</pdfrwt>
<pdfrwt beam="2">  1       -2 0.71376988E-01 0.20383198E+04</pdfrwt>
<totfact> 0.29654213E+00</totfact>
</mgrwt>
</event>
<event>
12    4  0.4424320E-008  0.3751354E+04  0.7818608E-02  0.8056676E-01
          1   -1    0    0  501    0  0.00000000000E+00  0.00000000000E+00  0.19386770865E+04  0.19386770865E+04  0.00000000000E+00 0. -1.
         -2   -1    0    0    0  501 -0.00000000000E+00 -0.00000000000E+00 -0.18147237108E+04  0.18147237108E+04  0.00000000000E+00 0.  1.
        -24    2    1    2    0    0 -0.62726309851E+03 -0.12869868492E+04  0.10877701353E+04  0.17998225662E+04  0.79518916238E+02 0.  0.
        254    2    1    2    0    0  0.62726309851E+03  0.12869868492E+04 -0.96381675951E+03  0.19535782310E+04  0.91527646869E+03 0.  0.
         23    2    4    4    0    0  0.79115133527E+03  0.10002152945E+04 -0.98057300687E+03  0.16112197663E+04  0.90303060727E+02 0.  0.
         23    2    4    4    0    0 -0.16388823676E+03  0.28677155467E+03  0.16756247354E+02  0.34235846476E+03  0.88494450949E+02 0.  0.
          3    1    3    3  502    0 -0.59328148857E+03 -0.12380613110E+04  0.10578929427E+04  0.17331809521E+04  0.00000000000E+00 0. -1.
         -2    1    3    3    0  502 -0.33981609946E+02 -0.48925538204E+02  0.29877192578E+02  0.66641614172E+02  0.00000000000E+00 0.  1.
         11    1    5    5    0    0  0.50842154675E+03  0.70176597500E+03 -0.69127345870E+03  0.11085246716E+04  0.00000000000E+00 0. -1.
        -11    1    5    5    0    0  0.28272978852E+03  0.29844931951E+03 -0.28929954817E+03  0.50269509467E+03  0.00000000000E+00 0.  1.
          2    1    6    6  503    0  0.59795039609E+01  0.40748210007E+01 -0.89993299851E+01  0.11547578707E+02  0.00000000000E+00 0. -1.
         -2    1    6    6    0  503 -0.16986774072E+03  0.28269673367E+03  0.25755577339E+02  0.33081088605E+03  0.00000000000E+00 0.  1.
<mgrwt>
<rscale>  0 0.37513535E+04</rscale>
<asrwt>0</asrwt>
<pdfrwt beam="1">  1        1 0.29825801E+00 0.37513535E+04</pdfrwt>
<pdfrwt beam="2">  1       -2 0.27918826E+00 0.37513535E+04</pdfrwt>
<totfact> 0.98105834E-02</totfact>
</mgrwt>
</event>
<event>
12    4  0.4424320E-008  0.3006298E+04  0.7818608E-02  0.8241935E-01
         -2   -1    0    0    0  501 -0.00000000000E+00  0.00000000000E+00  0.92200730606E+03  0.92200730606E+03  0.00000000000E+00 0.  1.
          1   -1    0    0  501    0  0.00000000000E+00 -0.00000000000E+00 -0.24505850752E+04  0.24505850752E+04  0.00000000000E+00 0. -1.
        -24    2    1    2    0    0 -0.10189286820E+04  0.47006343529E+03 -0.15749042897E+04  0.19354304827E+04  0.79952107387E+02 0.  0.
        254    2    1    2    0    0  0.10189286820E+04 -0.47006343529E+03  0.46326520460E+02  0.14371618986E+04  0.89672341557E+03 0.  0.
         23    2    4    4    0    0  0.68616121513E+01 -0.40092065179E+03  0.74577645614E+02  0.41808791636E+03  0.91930570669E+02 0.  0.
         23    2    4    4    0    0  0.10120670699E+04 -0.69142783501E+02 -0.28251125154E+02  0.10190739823E+04  0.93022453029E+02 0.  0.
          1    1    3    3  502    0 -0.37888949536E+03  0.13822856573E+03 -0.53226437042E+03  0.66780966307E+03  0.00000000000E+00 0. -1.
         -2    1    3    3    0  502 -0.64003918669E+03  0.33183486956E+03 -0.10426399192E+04  0.12676208196E+04  0.00000000000E+00 0.  1.
         11    1    5    5    0    0  0.18432791269E+02 -0.99417550376E+02 -0.17523186548E+02  0.10261909756E+03  0.00000000000E+00 0.  1.
        -11    1    5    5    0    0 -0.11571179117E+02 -0.30150310141E+03  0.92100832162E+02  0.31546881880E+03  0.00000000000E+00 0. -1.
          4    1    6    6  503    0  0.82173011973E+03 -0.81833013653E+02  0.28258980743E+01  0.82579962308E+03  0.00000000000E+00 0. -1.
         -4    1    6    6    0  503  0.19033695017E+03  0.12690230152E+02 -0.31077023228E+02  0.19327435917E+03  0.00000000000E+00 0.  1.
<mgrwt>
<rscale>  0 0.30062983E+04</rscale>
<asrwt>0</asrwt>
<pdfrwt beam="1">  1        1 0.37701309E+00 0.30062983E+04</pdfrwt>
<pdfrwt beam="2">  1       -2 0.14184728E+00 0.30062983E+04</pdfrwt>
<totfact> 0.38062574E-01</totfact>
</mgrwt>
</event>
<event>
12    4  0.4424320E-008  0.2533828E+04  0.7818608E-02  0.8391032E-01
         -4   -1    0    0    0  501 -0.00000000000E+00  0.00000000000E+00  0.79731289088E+03  0.79731289088E+03  0.00000000000E+00 0.  1.
          3   -1    0    0  501    0  0.00000000000E+00 -0.00000000000E+00 -0.20131004732E+04  0.20131004732E+04  0.00000000000E+00 0. -1.
        -24    2    1    2    0    0 -0.54618864236E+02  0.92340091723E+03  0.13865079373E+03  0.93886999952E+03  0.81242594231E+02 0.  0.
        254    2    1    2    0    0  0.54618864236E+02 -0.92340091723E+03 -0.13544383761E+04  0.18715433645E+04  0.90139823418E+03 0.  0.
         23    2    4    4    0    0  0.41249672960E+03 -0.67314292322E+03 -0.60162290132E+03  0.99674381373E+03  0.90956955759E+02 0.  0.
         23    2    4    4    0    0 -0.35787786537E+03 -0.25025799401E+03 -0.75281547473E+03  0.87479955082E+03  0.88529571494E+02 0.  0.
          3    1    3    3  502    0 -0.70772389435E+02  0.52424433205E+03  0.72431651135E+02  0.53393557185E+03  0.00000000000E+00 0. -1.
         -4    1    3    3    0  502  0.16153525199E+02  0.39915658518E+03  0.66219142598E+02  0.40493442767E+03  0.00000000000E+00 0.  1.
         11    1    5    5    0    0 -0.45134766089E+01 -0.30875004716E+01 -0.37483770078E+01  0.66298160196E+01  0.00000000000E+00 0. -1.
        -11    1    5    5    0    0  0.41701020621E+03 -0.67005542275E+03 -0.59787452431E+03  0.99011399771E+03  0.00000000000E+00 0.  1.
          1    1    6    6  503    0 -0.37054736095E+02 -0.15860512368E+02 -0.30983020339E+02  0.50838537243E+02  0.00000000000E+00 0. -1.
         -1    1    6    6    0  503 -0.32082312927E+03 -0.23439748164E+03 -0.72183245439E+03  0.82396101358E+03  0.00000000000E+00 0.  1.
<mgrwt>
<rscale>  0 0.25338279E+04</rscale>
<asrwt>0</asrwt>
<pdfrwt beam="1">  1        3 0.30970777E+00 0.25338279E+04</pdfrwt>
<pdfrwt beam="2">  1       -4 0.12266352E+00 0.25338279E+04</pdfrwt>
<totfact> 0.34840853E-02</totfact>
</mgrwt>
</event>
<event>
12    4  0.4424320E-008  0.1688422E+04  0.7818608E-02  0.8767996E-01
         -2   -1    0    0    0  501 -0.00000000000E+00  0.00000000000E+00  0.10548567782E+04  0.10548567782E+04  0.00000000000E+00 0.  1.
          1   -1    0    0  501    0  0.00000000000E+00 -0.00000000000E+00 -0.67562912624E+03  0.67562912624E+03  0.00000000000E+00 0. -1.
        -24    2    1    2    0    0 -0.54745837252E+03  0.21120359586E+03 -0.85607438651E+01  0.59239390438E+03  0.80867935974E+02 0.  0.
        254    2    1    2    0    0  0.54745837252E+03 -0.21120359586E+03  0.38778839586E+03  0.11380920001E+04  0.89473791257E+03 0.  0.
         23    2    4    4    0    0  0.49757507999E+03 -0.38664407820E+02 -0.17797080117E+03  0.53776490471E+03  0.91878125841E+02 0.  0.
         23    2    4    4    0    0  0.49883292531E+02 -0.17253918804E+03  0.56575919703E+03  0.60032709539E+03  0.89727577478E+02 0.  0.
          1    1    3    3  502    0 -0.35374341443E+03  0.17256134763E+03  0.12177475471E+02  0.39377672971E+03  0.00000000000E+00 0. -1.
         -2    1    3    3    0  502 -0.19371495809E+03  0.38642248230E+02 -0.20738219336E+02  0.19861717468E+03  0.00000000000E+00 0.  1.
         11    1    5    5    0    0  0.31140733269E+03 -0.68344329052E+02 -0.11757664072E+03  0.33980838808E+03  0.00000000000E+00 0. -1.
        -11    1    5    5    0    0  0.18616774730E+03  0.29679921232E+02 -0.60394160443E+02  0.19795651663E+03  0.00000000000E+00 0.  1.
          3    1    6    6  503    0  0.11621274164E+02 -0.40770925617E+01  0.14447290487E+03  0.14499688596E+03  0.00000000000E+00 0.  1.
         -3    1    6    6    0  503  0.38262018366E+02 -0.16846209548E+03  0.42128629216E+03  0.45533020943E+03  0.00000000000E+00 0. -1.
<mgrwt>
<rscale>  0 0.16884217E+04</rscale>
<asrwt>0</asrwt>
<pdfrwt beam="1">  1        1 0.10394294E+00 0.16884217E+04</pdfrwt>
<pdfrwt beam="2">  1       -2 0.16228566E+00 0.16884217E+04</pdfrwt>
<totfact> 0.58053315E+00</totfact>
</mgrwt>
</event>
<event>
12    4  0.4424320E-008  0.2305762E+04  0.7818608E-02  0.8475653E-01
         -2   -1    0    0    0  501 -0.00000000000E+00  0.00000000000E+00  0.65783429426E+03  0.65783429426E+03  0.00000000000E+00 0.  1.
          1   -1    0    0  501    0  0.00000000000E+00 -0.00000000000E+00 -0.20204696706E+04  0.20204696706E+04  0.00000000000E+00 0. -1.
        -24    2    1    2    0    0  0.28214542786E+03  0.60886551983E+02  0.50116616574E+03  0.58373712406E+03  0.79172530832E+02 0.  0.
        254    2    1    2    0    0 -0.28214542786E+03 -0.60886551983E+02 -0.18638015421E+04  0.20945668408E+04  0.91112065480E+03 0.  0.
         23    2    4    4    0    0 -0.17468726561E+03  0.40298883279E+03 -0.11245270610E+04  0.12106874065E+04  0.91034307979E+02 0.  0.
         23    2    4    4    0    0 -0.10745816226E+03 -0.46387538478E+03 -0.73927448102E+03  0.88387943423E+03  0.89378222889E+02 0.  0.
          3    1    3    3  502    0  0.47111739319E+02  0.13401560295E+02  0.37317282130E+02  0.61576759785E+02  0.00000000000E+00 0. -1.
         -4    1    3    3    0  502  0.23503368855E+03  0.47484991688E+02  0.46384888361E+03  0.52216036427E+03  0.00000000000E+00 0.  1.
         11    1    5    5    0    0 -0.78818432865E+02  0.22754540482E+03 -0.72467916301E+03  0.76364202733E+03  0.00000000000E+00 0. -1.
        -11    1    5    5    0    0 -0.95868832743E+02  0.17544342798E+03 -0.39984789803E+03  0.44704537921E+03  0.00000000000E+00 0.  1.
          2    1    6    6  503    0 -0.14745340294E+02 -0.41294396552E+01 -0.19603644287E+02  0.24875292995E+02  0.00000000000E+00 0. -1.
         -2    1    6    6    0  503 -0.92712821963E+02 -0.45974594512E+03 -0.71967083674E+03  0.85900414124E+03  0.00000000000E+00 0.  1.
<mgrwt>
<rscale>  0 0.23057617E+04</rscale>
<asrwt>0</asrwt>
<pdfrwt beam="1">  1        1 0.31084148E+00 0.23057617E+04</pdfrwt>
<pdfrwt beam="2">  1       -2 0.10120528E+00 0.23057617E+04</pdfrwt>
<totfact> 0.18389265E+00</totfact>
</mgrwt>
</event>
<event>
12    4  0.4424320E-008  0.2556312E+04  0.7818608E-02  0.8383194E-01
          1   -1    0    0  501    0  0.00000000000E+00  0.00000000000E+00  0.13813184147E+04  0.13813184147E+04  0.00000000000E+00 0. -1.
         -2   -1    0    0    0  501 -0.00000000000E+00 -0.00000000000E+00 -0.11826983778E+04  0.11826983778E+04  0.00000000000E+00 0.  1.
        -24    2    1    2    0    0  0.80241217871E+03  0.40484207875E+03 -0.58601149443E+03  0.10759758181E+04  0.80944896590E+02 0.  0.
        254    2    1    2    0    0 -0.80241217871E+03 -0.40484207875E+03  0.78463153137E+03  0.14880409744E+04  0.88930134843E+03 0.  0.
         23    2    4    4    0    0 -0.66627361715E+03  0.12228944073E+02  0.11486702084E+03  0.68216096171E+03  0.89883620444E+02 0.  0.
         23    2    4    4    0    0 -0.13613856156E+03 -0.41707102282E+03  0.66976451053E+03  0.80588001273E+03  0.91521305316E+02 0.  0.
          3    1    3    3  502    0  0.43667860898E+03  0.20974485624E+03 -0.26884557267E+03  0.55403885622E+03  0.00000000000E+00 0. -1.
         -4    1    3    3    0  502  0.36573356973E+03  0.19509722252E+03 -0.31716592176E+03  0.52193696188E+03  0.00000000000E+00 0.  1.
         11    1    5    5    0    0 -0.39933584492E+03  0.30054809951E+02  0.10699803450E+03  0.41451295279E+03  0.00000000000E+00 0.  1.
        -11    1    5    5    0    0 -0.26693777222E+03 -0.17825865878E+02  0.78689863416E+01  0.26764800892E+03  0.00000000000E+00 0. -1.
          1    1    6    6  503    0 -0.55388622850E+02 -0.18063253356E+03  0.37161193460E+03  0.41688300716E+03  0.00000000000E+00 0. -1.
         -1    1    6    6    0  503 -0.80749938709E+02 -0.23643848927E+03  0.29815257593E+03  0.38899700557E+03  0.00000000000E+00 0.  1.
<mgrwt>
<rscale>  0 0.25563122E+04</rscale>
<asrwt>0</asrwt>
<pdfrwt beam="1">  1        1 0.21251053E+00 0.25563122E+04</pdfrwt>
<pdfrwt beam="2">  1       -2 0.18195360E+00 0.25563122E+04</pdfrwt>
<totfact> 0.10804577E+00</totfact>
</mgrwt>
</event>
<event>
12    4  0.4424320E-008  0.1374260E+04  0.7818608E-02  0.8972664E-01
          1   -1    0    0  501    0  0.00000000000E+00  0.00000000000E+00  0.24860693870E+04  0.24860693870E+04  0.00000000000E+00 0. -1.
         -2   -1    0    0    0  501 -0.00000000000E+00 -0.00000000000E+00 -0.18991725616E+03  0.18991725616E+03  0.00000000000E+00 0.  1.
        -24    2    1    2    0    0  0.13456192258E+03 -0.35265175640E+03  0.83357037743E+03  0.91844318417E+03  0.78918541108E+02 0.  0.
        254    2    1    2    0    0 -0.13456192258E+03  0.35265175640E+03  0.14625817534E+04  0.17575434590E+04  0.89852292820E+03 0.  0.
         23    2    4    4    0    0 -0.29434104623E+03  0.48273914303E+03  0.47360680474E+03  0.74320118578E+03  0.91492433251E+02 0.  0.
         23    2    4    4    0    0  0.15977912366E+03 -0.13008738663E+03  0.98897494869E+03  0.10143422732E+04  0.91469675785E+02 0.  0.
          1    1    3    3  502    0  0.79711154901E+02 -0.10781467768E+03  0.31566215042E+03  0.34295840294E+03  0.00000000000E+00 0. -1.
         -2    1    3    3    0  502  0.54850767675E+02 -0.24483707872E+03  0.51790822701E+03  0.57548478123E+03  0.00000000000E+00 0.  1.
         11    1    5    5    0    0  0.41496440679E+01  0.77749410223E+01 -0.34308055219E+00  0.88196914944E+01  0.00000000000E+00 0. -1.
        -11    1    5    5    0    0 -0.29849069030E+03  0.47496420200E+03  0.47394988529E+03  0.73438149428E+03  0.00000000000E+00 0.  1.
          3    1    6    6  503    0  0.12611176735E+03 -0.52640789054E+02  0.51063252599E+03  0.52860269308E+03  0.00000000000E+00 0. -1.
         -3    1    6    6    0  503  0.33667356307E+02 -0.77446597572E+02  0.47834242271E+03  0.48573958014E+03  0.00000000000E+00 0.  1.
<mgrwt>
<rscale>  0 0.13742598E+04</rscale>
<asrwt>0</asrwt>
<pdfrwt beam="1">  1        1 0.38247219E+00 0.13742598E+04</pdfrwt>
<pdfrwt beam="2">  1       -2 0.29218041E-01 0.13742598E+04</pdfrwt>
<totfact> 0.12847558E+01</totfact>
</mgrwt>
</event>
<event>
12    4  0.4424320E-008  0.2606605E+04  0.7818608E-02  0.8365961E-01
         -2   -1    0    0    0  501 -0.00000000000E+00  0.00000000000E+00  0.95062329747E+03  0.95062329747E+03  0.00000000000E+00 0.  1.
          1   -1    0    0  501    0  0.00000000000E+00 -0.00000000000E+00 -0.17868249481E+04  0.17868249481E+04  0.00000000000E+00 0. -1.
        -24    2    1    2    0    0 -0.10278857070E+04  0.95479098741E+02  0.14344640292E+03  0.10452056540E+04  0.78820706254E+02 0.  0.
        254    2    1    2    0    0  0.10278857070E+04 -0.95479098741E+02 -0.97964805358E+03  0.16922425916E+04  0.91559237392E+03 0.  0.
         23    2    4    4    0    0  0.41634264877E+03 -0.73734509923E+01  0.10635392639E+03  0.43948499747E+03  0.91871303344E+02 0.  0.
         23    2    4    4    0    0  0.61154305818E+03 -0.88105647749E+02 -0.10860019800E+04  0.12527575942E+04  0.90850272615E+02 0.  0.
          1    1    3    3  502    0 -0.77248318411E+03  0.47505283800E+02  0.82843889983E+02  0.77836375290E+03  0.00000000000E+00 0. -1.
         -2    1    3    3    0  502 -0.25540252284E+03  0.47973814941E+02  0.60602512934E+02  0.26684190107E+03  0.00000000000E+00 0.  1.
         11    1    5    5    0    0  0.33030732162E+03  0.25897560345E+02  0.61764461256E+02  0.33702886972E+03  0.00000000000E+00 0.  1.
        -11    1    5    5    0    0  0.86035327149E+02 -0.33271011338E+02  0.44589465138E+02  0.10245612775E+03  0.00000000000E+00 0. -1.
          2    1    6    6  503    0  0.27225945582E+03  0.61529168710E+01 -0.46673481861E+03  0.54037437076E+03  0.00000000000E+00 0. -1.
         -2    1    6    6    0  503  0.33928360236E+03 -0.94258564620E+02 -0.61926716136E+03  0.71238322339E+03  0.00000000000E+00 0.  1.
<mgrwt>
<rscale>  0 0.26066050E+04</rscale>
<asrwt>0</asrwt>
<pdfrwt beam="1">  1        1 0.27489615E+00 0.26066050E+04</pdfrwt>
<pdfrwt beam="2">  1       -2 0.14624974E+00 0.26066050E+04</pdfrwt>
<totfact> 0.10304600E+00</totfact>
</mgrwt>
</event>
<event>
12    4  0.4424320E-008  0.1042363E+04  0.7818608E-02  0.9263265E-01
         -4   -1    0    0    0  501 -0.00000000000E+00  0.00000000000E+00  0.10842951783E+03  0.10842951783E+03  0.00000000000E+00 0.  1.
          1   -1    0    0  501    0  0.00000000000E+00 -0.00000000000E+00 -0.25051295152E+04  0.25051295152E+04  0.00000000000E+00 0. -1.
        -24    2    1    2    0    0  0.14667386236E+02  0.77553228924E+02 -0.27248173725E+03  0.29877594683E+03  0.93761045934E+02 0.  0.
        254    2    1    2    0    0 -0.14667386236E+02 -0.77553228924E+02 -0.21242182602E+04  0.23147830862E+04  0.91634484992E+03 0.  0.
         23    2    4    4    0    0  0.91663126433E+02  0.28296078046E+03 -0.24213104457E+03  0.39351947133E+03  0.88097670497E+02 0.  0.
         23    2    4    4    0    0 -0.10633051267E+03 -0.36051400939E+03 -0.18820872156E+04  0.19212636149E+04  0.87892331618E+02 0.  0.
          1    1    3    3  502    0  0.10742049703E+02  0.30041586646E+00 -0.17019565962E+03  0.17053458428E+03  0.00000000000E+00 0. -1.
         -2    1    3    3    0  502  0.39253365334E+01  0.77252813058E+02 -0.10228607762E+03  0.12824136255E+03  0.00000000000E+00 0.  1.
         11    1    5    5    0    0  0.57997642538E+02  0.25821299693E+03 -0.18567980422E+03  0.32328728404E+03  0.00000000000E+00 0. -1.
        -11    1    5    5    0    0  0.33665483895E+02  0.24747783528E+02 -0.56451240344E+02  0.70232187292E+02  0.00000000000E+00 0.  1.
          2    1    6    6  503    0 -0.12132561963E+02 -0.15948786359E+03 -0.92845542028E+03  0.94213218029E+03  0.00000000000E+00 0. -1.
         -2    1    6    6    0  503 -0.94197950706E+02 -0.20102614580E+03 -0.95363179533E+03  0.97913143463E+03  0.00000000000E+00 0.  1.
<mgrwt>
<rscale>  0 0.10423627E+04</rscale>
<asrwt>0</asrwt>
<pdfrwt beam="1">  1        1 0.38540450E+00 0.10423627E+04</pdfrwt>
<pdfrwt beam="2">  1       -4 0.16681466E-01 0.10423627E+04</pdfrwt>
<totfact> 0.21862530E+01</totfact>
</mgrwt>
</event>
<event>
12    4  0.4424320E-008  0.1559819E+04  0.7818608E-02  0.8845620E-01
          1   -1    0    0  501    0  0.00000000000E+00  0.00000000000E+00  0.27253174640E+03  0.27253174640E+03  0.00000000000E+00 0. -1.
         -2   -1    0    0    0  501 -0.00000000000E+00 -0.00000000000E+00 -0.22318812991E+04  0.22318812991E+04  0.00000000000E+00 0.  1.
        -24    2    1    2    0    0 -0.31359329039E+03  0.29376598152E+03 -0.11093880399E+04  0.11922350735E+04  0.77739589316E+02 0.  0.
        254    2    1    2    0    0  0.31359329039E+03 -0.29376598152E+03 -0.84996151277E+03  0.13121779720E+04  0.90262797057E+03 0.  0.
         23    2    4    4    0    0  0.79348430041E+02 -0.53893598130E+03 -0.22735206573E+03  0.59750632421E+03  0.92610368675E+02 0.  0.
         23    2    4    4    0    0  0.23424486035E+03  0.24516999978E+03 -0.62260944703E+03  0.71467164776E+03  0.90189008099E+02 0.  0.
          3    1    3    3  502    0 -0.52117877973E+02  0.54728610814E+02 -0.12537794222E+03  0.14639372405E+03  0.00000000000E+00 0. -1.
         -4    1    3    3    0  502 -0.26147541242E+03  0.23903737070E+03 -0.98401009770E+03  0.10458413495E+04  0.00000000000E+00 0.  1.
         11    1    5    5    0    0 -0.94917539497E+01 -0.12520921643E+03 -0.23269874402E+02  0.12770641459E+03  0.00000000000E+00 0. -1.
        -11    1    5    5    0    0  0.88840183991E+02 -0.41372676487E+03 -0.20408219133E+03  0.46979990962E+03  0.00000000000E+00 0.  1.
          4    1    6    6  503    0  0.19868955019E+03  0.16222354802E+03 -0.50519080747E+03  0.56657900494E+03  0.00000000000E+00 0.  1.
         -4    1    6    6    0  503  0.35555310163E+02  0.82946451758E+02 -0.11741863956E+03  0.14809264282E+03  0.00000000000E+00 0. -1.
<mgrwt>
<rscale>  0 0.15598186E+04</rscale>
<asrwt>0</asrwt>
<pdfrwt beam="1">  1        1 0.41927961E-01 0.15598186E+04</pdfrwt>
<pdfrwt beam="2">  1       -2 0.34336635E+00 0.15598186E+04</pdfrwt>
<totfact> 0.14393458E+00</totfact>
</mgrwt>
</event>
<event>
12    4  0.4424320E-008  0.1933864E+04  0.7818608E-02  0.8638181E-01
          1   -1    0    0  501    0  0.00000000000E+00  0.00000000000E+00  0.70499298552E+03  0.70499298552E+03  0.00000000000E+00 0. -1.
         -2   -1    0    0    0  501 -0.00000000000E+00 -0.00000000000E+00 -0.13261945029E+04  0.13261945029E+04  0.00000000000E+00 0.  1.
        -24    2    1    2    0    0 -0.57804404648E+03  0.23255951511E+03  0.19769481733E+03  0.65872830657E+03  0.81368872052E+02 0.  0.
        254    2    1    2    0    0  0.57804404648E+03 -0.23255951511E+03 -0.81889633472E+03  0.13724591819E+04  0.90820380482E+03 0.  0.
         23    2    4    4    0    0  0.74454780842E+03 -0.34676485651E+03 -0.44608321049E+03  0.93913586693E+03  0.91589525207E+02 0.  0.
         23    2    4    4    0    0 -0.16650376194E+03  0.11420534140E+03 -0.37281312423E+03  0.43332331493E+03  0.89515958989E+02 0.  0.
          3    1    3    3  502    0 -0.38648365264E+03  0.15070343348E+03  0.91052706623E+02  0.42470193548E+03  0.00000000000E+00 0. -1.
         -4    1    3    3    0  502 -0.19156039384E+03  0.81856081634E+02  0.10664211071E+03  0.23402637109E+03  0.00000000000E+00 0.  1.
         11    1    5    5    0    0  0.34256406053E+03 -0.19422815964E+03 -0.17554638099E+03  0.43115107033E+03  0.00000000000E+00 0. -1.
        -11    1    5    5    0    0  0.40198374789E+03 -0.15253669687E+03 -0.27053682949E+03  0.50798479660E+03  0.00000000000E+00 0.  1.
          3    1    6    6  503    0 -0.69294652980E+02  0.94002095089E+02 -0.24559919579E+03  0.27195056129E+03  0.00000000000E+00 0. -1.
         -3    1    6    6    0  503 -0.97209108965E+02  0.20203246312E+02 -0.12721392844E+03  0.16137275364E+03  0.00000000000E+00 0.  1.
<mgrwt>
<rscale>  0 0.19338643E+04</rscale>
<asrwt>0</asrwt>
<pdfrwt beam="1">  1        1 0.10846046E+00 0.19338643E+04</pdfrwt>
<pdfrwt beam="2">  1       -2 0.20402993E+00 0.19338643E+04</pdfrwt>
<totfact> 0.27546986E+00</totfact>
</mgrwt>
</event>
<event>
12    4  0.4424320E-008  0.2258874E+04  0.7818608E-02  0.8494315E-01
          3   -1    0    0  501    0  0.00000000000E+00  0.00000000000E+00  0.11121822225E+04  0.11121822225E+04  0.00000000000E+00 0. -1.
         -4   -1    0    0    0  501 -0.00000000000E+00 -0.00000000000E+00 -0.11469591754E+04  0.11469591754E+04  0.00000000000E+00 0.  1.
        -24    2    1    2    0    0  0.47479954529E+03  0.74567196424E+03 -0.29901777910E+03  0.93655044281E+03  0.79081054876E+02 0.  0.
        254    2    1    2    0    0 -0.47479954529E+03 -0.74567196424E+03  0.26424082623E+03  0.13225909551E+04  0.94760874512E+03 0.  0.
         23    2    4    4    0    0 -0.10222098346E+03 -0.87654722443E+03  0.15132594708E+03  0.89992328465E+03  0.90433455544E+02 0.  0.
         23    2    4    4    0    0 -0.37257856184E+03  0.13087526019E+03  0.11291487915E+03  0.42266767046E+03  0.99775103355E+02 0.  0.
          3    1    3    3  502    0  0.34516924270E+03  0.57580868863E+03 -0.25657974196E+03  0.71870064421E+03  0.00000000000E+00 0. -1.
         -4    1    3    3    0  502  0.12963030259E+03  0.16986327561E+03 -0.42438037140E+02  0.21784979859E+03  0.00000000000E+00 0.  1.
         11    1    5    5    0    0 -0.10777340086E+03 -0.85434130397E+03  0.13458726284E+03  0.87156634912E+03  0.00000000000E+00 0.  1.
        -11    1    5    5    0    0  0.55524173981E+01 -0.22205920454E+02  0.16738684242E+02  0.28356935524E+02  0.00000000000E+00 0. -1.
          3    1    6    6  503    0  0.12210923650E+01 -0.42299919900E+01  0.11722409751E+02  0.12521932325E+02  0.00000000000E+00 0. -1.
         -3    1    6    6    0  503 -0.37379965420E+03  0.13510525218E+03  0.10119246940E+03  0.41014573813E+03  0.00000000000E+00 0.  1.
<mgrwt>
<rscale>  0 0.22588737E+04</rscale>
<asrwt>0</asrwt>
<pdfrwt beam="1">  1        3 0.17110496E+00 0.22588737E+04</pdfrwt>
<pdfrwt beam="2">  1       -4 0.17645526E+00 0.22588737E+04</pdfrwt>
<totfact> 0.90243794E-02</totfact>
</mgrwt>
</event>
<event>
12    4  0.4424320E-008  0.1269189E+04  0.7818608E-02  0.9054362E-01
          1   -1    0    0  501    0  0.00000000000E+00  0.00000000000E+00  0.32898808714E+04  0.32898808714E+04  0.00000000000E+00 0. -1.
         -4   -1    0    0    0  501 -0.00000000000E+00 -0.00000000000E+00 -0.12240867963E+03  0.12240867963E+03  0.00000000000E+00 0.  1.
        -24    2    1    2    0    0  0.12531125374E+03  0.18516633087E+03  0.13927707011E+04  0.14128679402E+04  0.79975684306E+02 0.  0.
        254    2    1    2    0    0 -0.12531125374E+03 -0.18516633087E+03  0.17747014907E+04  0.19994216109E+04  0.89338229030E+03 0.  0.
         23    2    4    4    0    0  0.90742982019E+02 -0.37862416661E+03  0.31736888363E+03  0.51071739363E+03  0.92296801334E+02 0.  0.
         23    2    4    4    0    0 -0.21605423576E+03  0.19345783574E+03  0.14573326070E+04  0.14887042172E+04  0.91195130833E+02 0.  0.
          3    1    3    3  502    0  0.10348756077E+03  0.18829463902E+03  0.12885903406E+04  0.13063803475E+04  0.00000000000E+00 0. -1.
         -4    1    3    3    0  502  0.21823692964E+02 -0.31283081508E+01  0.10418036054E+03  0.10648759274E+03  0.00000000000E+00 0.  1.
         11    1    5    5    0    0  0.48060027893E+02 -0.67529001872E+02  0.94249570852E+02  0.12551061302E+03  0.00000000000E+00 0. -1.
        -11    1    5    5    0    0  0.42682954126E+02 -0.31109516473E+03  0.22311931277E+03  0.38520678061E+03  0.00000000000E+00 0.  1.
          3    1    6    6  503    0 -0.77314661579E+02  0.32405767156E+02  0.57772353498E+03  0.58377407746E+03  0.00000000000E+00 0. -1.
         -3    1    6    6    0  503 -0.13873957418E+03  0.16105206858E+03  0.87960907205E+03  0.90493013978E+03  0.00000000000E+00 0.  1.
<mgrwt>
<rscale>  0 0.12691887E+04</rscale>
<asrwt>0</asrwt>
<pdfrwt beam="1">  1        1 0.50613545E+00 0.12691887E+04</pdfrwt>
<pdfrwt beam="2">  1       -4 0.18832107E-01 0.12691887E+04</pdfrwt>
<totfact> 0.47149473E+00</totfact>
</mgrwt>
</event>
<event>
12    4  0.4424320E-008  0.1174964E+04  0.7818608E-02  0.9135057E-01
         -2   -1    0    0    0  501 -0.00000000000E+00  0.00000000000E+00  0.84615789598E+03  0.84615789598E+03  0.00000000000E+00 0.  1.
          1   -1    0    0  501    0  0.00000000000E+00 -0.00000000000E+00 -0.40788511652E+03  0.40788511652E+03  0.00000000000E+00 0. -1.
        -24    2    1    2    0    0  0.21788279432E+03 -0.91732346592E+02  0.68482211068E+02  0.25884259040E+03  0.80136994567E+02 0.  0.
        254    2    1    2    0    0 -0.21788279432E+03  0.91732346592E+02  0.36979056839E+03  0.99520042210E+03  0.89319151373E+03 0.  0.
         23    2    4    4    0    0  0.30787573090E+03  0.19711624601E+03  0.19189043838E+03  0.42254359530E+03  0.89882531521E+02 0.  0.
         23    2    4    4    0    0 -0.52575852522E+03 -0.10538389941E+03  0.17790013001E+03  0.57265682679E+03  0.93592691570E+02 0.  0.
          1    1    3    3  502    0  0.15835142935E+03 -0.31333566038E+02  0.24371955968E+02  0.16325121677E+03  0.00000000000E+00 0. -1.
         -2    1    3    3    0  502  0.59531364972E+02 -0.60398780554E+02  0.44110255100E+02  0.95591373632E+02  0.00000000000E+00 0.  1.
         11    1    5    5    0    0  0.24854329654E+03  0.19671155452E+03  0.16601527671E+03  0.35781318874E+03  0.00000000000E+00 0. -1.
        -11    1    5    5    0    0  0.59332434359E+02  0.40469148976E+00  0.25875161667E+02  0.64730406560E+02  0.00000000000E+00 0.  1.
          3    1    6    6  503    0 -0.36817587083E+03 -0.60216260837E+02  0.16589466764E+03  0.40828973864E+03  0.00000000000E+00 0. -1.
         -3    1    6    6    0  503 -0.15758265439E+03 -0.45167638578E+02  0.12005462372E+02  0.16436708815E+03  0.00000000000E+00 0.  1.
<mgrwt>
<rscale>  0 0.11749642E+04</rscale>
<asrwt>0</asrwt>
<pdfrwt beam="1">  1        1 0.62751557E-01 0.11749642E+04</pdfrwt>
<pdfrwt beam="2">  1       -2 0.13017814E+00 0.11749642E+04</pdfrwt>
<totfact> 0.21900728E+01</totfact>
</mgrwt>
</event>
<event>
12    4  0.4424320E-008  0.2516097E+04  0.7818608E-02  0.8397273E-01
          1   -1    0    0  501    0  0.00000000000E+00  0.00000000000E+00  0.33039669787E+04  0.33039669787E+04  0.00000000000E+00 0. -1.
         -2   -1    0    0    0  501 -0.00000000000E+00 -0.00000000000E+00 -0.47902581213E+03  0.47902581213E+03  0.00000000000E+00 0.  1.
        -24    2    1    2    0    0 -0.18918533207E+03  0.60356835350E+03  0.25774724633E+04  0.26551778677E+04  0.80742569981E+02 0.  0.
        254    2    1    2    0    0  0.18918533207E+03 -0.60356835350E+03  0.24746870331E+03  0.11278149232E+04  0.90035542688E+03 0.  0.
         23    2    4    4    0    0  0.40447621853E+03 -0.39531251246E+03 -0.17744341888E+03  0.59962517771E+03  0.90505209622E+02 0.  0.
         23    2    4    4    0    0 -0.21529088646E+03 -0.20825584103E+03  0.42491212219E+03  0.52818974552E+03  0.93345779581E+02 0.  0.
          1    1    3    3  502    0 -0.17051021814E+03  0.43495501979E+03  0.18294389546E+04  0.18881489593E+04  0.00000000000E+00 0. -1.
         -2    1    3    3    0  502 -0.18675113931E+02  0.16861333371E+03  0.74803350867E+03  0.76702890837E+03  0.00000000000E+00 0.  1.
         11    1    5    5    0    0  0.13780710129E+02 -0.23061464787E+02 -0.29858454115E+02  0.40165487821E+02  0.00000000000E+00 0.  1.
        -11    1    5    5    0    0  0.39069550840E+03 -0.37225104768E+03 -0.14758496476E+03  0.55945968989E+03  0.00000000000E+00 0. -1.
          4    1    6    6  503    0 -0.14859060323E+03 -0.83522105873E+02  0.26041316966E+03  0.31123966404E+03  0.00000000000E+00 0. -1.
         -4    1    6    6    0  503 -0.66700283236E+02 -0.12473373516E+03  0.16449895253E+03  0.21695008148E+03  0.00000000000E+00 0.  1.
<mgrwt>
<rscale>  0 0.25160966E+04</rscale>
<asrwt>0</asrwt>
<pdfrwt beam="1">  1        1 0.50830260E+00 0.25160966E+04</pdfrwt>
<pdfrwt beam="2">  1       -2 0.73696281E-01 0.25160966E+04</pdfrwt>
<totfact> 0.45948235E-01</totfact>
</mgrwt>
</event>
<event>
12    4  0.4424320E-008  0.1506431E+04  0.7818608E-02  0.8880187E-01
         -2   -1    0    0    0  501 -0.00000000000E+00  0.00000000000E+00  0.24833029352E+03  0.24833029352E+03  0.00000000000E+00 0.  1.
          1   -1    0    0  501    0  0.00000000000E+00 -0.00000000000E+00 -0.22845941545E+04  0.22845941545E+04  0.00000000000E+00 0. -1.
        -24    2    1    2    0    0  0.23989090214E+03  0.26654361826E+02 -0.13296657066E+04  0.13537647283E+04  0.80062153468E+02 0.  0.
        254    2    1    2    0    0 -0.23989090214E+03 -0.26654361826E+02 -0.70659815434E+03  0.11791597197E+04  0.91262182355E+03 0.  0.
         23    2    4    4    0    0 -0.41160005636E+03  0.30962950137E+03 -0.25053013539E+03  0.58007984108E+03  0.91881656371E+02 0.  0.
         23    2    4    4    0    0  0.17170915422E+03 -0.33628386320E+03 -0.45606801895E+03  0.59907987858E+03  0.91256740659E+02 0.  0.
          3    1    3    3  502    0  0.20212902599E+03  0.29443175697E+02 -0.12355006908E+04  0.12522719356E+04  0.00000000000E+00 0. -1.
         -4    1    3    3    0  502  0.37761876153E+02 -0.27888138713E+01 -0.94165015809E+02  0.10149279273E+03  0.00000000000E+00 0.  1.
         11    1    5    5    0    0 -0.33579971001E+03  0.20309281179E+03 -0.18804632445E+03  0.43516612412E+03  0.00000000000E+00 0. -1.
        -11    1    5    5    0    0 -0.75800346347E+02  0.10653668959E+03 -0.62483810937E+02  0.14491371696E+03  0.00000000000E+00 0.  1.
          3    1    6    6  503    0  0.14667147487E+03 -0.32581863921E+03 -0.39723593968E+03  0.53429083744E+03  0.00000000000E+00 0. -1.
         -3    1    6    6    0  503  0.25037679345E+02 -0.10465223988E+02 -0.58832079271E+02  0.64789041137E+02  0.00000000000E+00 0.  1.
<mgrwt>
<rscale>  0 0.15064315E+04</rscale>
<asrwt>0</asrwt>
<pdfrwt beam="1">  1        1 0.35147604E+00 0.15064315E+04</pdfrwt>
<pdfrwt beam="2">  1       -2 0.38204659E-01 0.15064315E+04</pdfrwt>
<totfact> 0.10488670E+01</totfact>
</mgrwt>
</event>
<event>
12    4  0.4424320E-008  0.2223297E+04  0.7818608E-02  0.8508793E-01
          1   -1    0    0  501    0  0.00000000000E+00  0.00000000000E+00  0.19910967234E+04  0.19910967234E+04  0.00000000000E+00 0. -1.
         -2   -1    0    0    0  501 -0.00000000000E+00 -0.00000000000E+00 -0.62064420825E+03  0.62064420825E+03  0.00000000000E+00 0.  1.
        -24    2    1    2    0    0  0.31914376021E+03  0.49547259640E+03 -0.26858509268E+03  0.65245797856E+03  0.78851939176E+02 0.  0.
        254    2    1    2    0    0 -0.31914376021E+03 -0.49547259640E+03  0.16390376079E+04  0.19592829531E+04  0.89721768649E+03 0.  0.
         23    2    4    4    0    0  0.21415779884E+03  0.11382610194E+03  0.37489189114E+03  0.45546293784E+03  0.89903355987E+02 0.  0.
         23    2    4    4    0    0 -0.53330155905E+03 -0.60929869834E+03  0.12641457167E+04  0.15038200153E+04  0.88061277462E+02 0.  0.
          3    1    3    3  502    0  0.35482181879E+02  0.64017892030E+02 -0.63399875439E+02  0.96833981311E+02  0.00000000000E+00 0. -1.
         -4    1    3    3    0  502  0.28366157833E+03  0.43145470437E+03 -0.20518521724E+03  0.55562399725E+03  0.00000000000E+00 0.  1.
         11    1    5    5    0    0  0.16115964622E+03  0.47349687085E+02  0.20134208665E+03  0.26220804773E+03  0.00000000000E+00 0. -1.
        -11    1    5    5    0    0  0.52998152612E+02  0.66476414854E+02  0.17354980450E+03  0.19325489012E+03  0.00000000000E+00 0.  1.
          4    1    6    6  503    0 -0.16452691966E+03 -0.25158268305E+03  0.45372979618E+03  0.54427353568E+03  0.00000000000E+00 0.  1.
         -4    1    6    6    0  503 -0.36877463939E+03 -0.35771601529E+03  0.81041592055E+03  0.95954647961E+03  0.00000000000E+00 0. -1.
<mgrwt>
<rscale>  0 0.22232972E+04</rscale>
<asrwt>0</asrwt>
<pdfrwt beam="1">  1        1 0.30632257E+00 0.22232972E+04</pdfrwt>
<pdfrwt beam="2">  1       -2 0.95483725E-01 0.22232972E+04</pdfrwt>
<totfact> 0.22242776E+00</totfact>
</mgrwt>
</event>
<event>
12    4  0.4424320E-008  0.1571989E+04  0.7818608E-02  0.8837943E-01
         -2   -1    0    0    0  501 -0.00000000000E+00  0.00000000000E+00  0.65715014957E+03  0.65715014957E+03  0.00000000000E+00 0.  1.
          1   -1    0    0  501    0  0.00000000000E+00 -0.00000000000E+00 -0.94010133097E+03  0.94010133097E+03  0.00000000000E+00 0. -1.
        -24    2    1    2    0    0  0.19006759480E+03 -0.35294870721E+03 -0.43473820288E+03  0.59600404215E+03  0.74330563690E+02 0.  0.
        254    2    1    2    0    0 -0.19006759480E+03  0.35294870721E+03  0.15178702147E+03  0.10012474384E+04  0.90485283471E+03 0.  0.
         23    2    4    4    0    0  0.35431487605E+03  0.16976680684E+03  0.85551944321E+01  0.40396874425E+03  0.93582877065E+02 0.  0.
         23    2    4    4    0    0 -0.54438247086E+03  0.18318190037E+03  0.14323182704E+03  0.59727869415E+03  0.79489615706E+02 0.  0.
          3    1    3    3  502    0  0.74543263628E+02 -0.15416134074E+03 -0.23923170535E+03  0.29420099588E+03  0.00000000000E+00 0. -1.
         -4    1    3    3    0  502  0.11552433118E+03 -0.19878736646E+03 -0.19550649753E+03  0.30180304626E+03  0.00000000000E+00 0.  1.
         11    1    5    5    0    0  0.29895251884E+03  0.10384220199E+03  0.20094776186E+02  0.31711135499E+03  0.00000000000E+00 0.  1.
        -11    1    5    5    0    0  0.55362357210E+02  0.65924604851E+02 -0.11539581754E+02  0.86857389252E+02  0.00000000000E+00 0. -1.
          1    1    6    6  503    0 -0.23101976985E+03  0.77594086318E+02  0.20499719665E+02  0.24456331450E+03  0.00000000000E+00 0. -1.
         -1    1    6    6    0  503 -0.31336270101E+03  0.10558781405E+03  0.12273210737E+03  0.35271537965E+03  0.00000000000E+00 0.  1.
<mgrwt>
<rscale>  0 0.15719895E+04</rscale>
<asrwt>0</asrwt>
<pdfrwt beam="1">  1        1 0.14463097E+00 0.15719895E+04</pdfrwt>
<pdfrwt beam="2">  1       -2 0.10110002E+00 0.15719895E+04</pdfrwt>
<totfact> 0.11451794E+01</totfact>
</mgrwt>
</event>
<event>
12    4  0.4424320E-008  0.1339462E+04  0.7818608E-02  0.8998844E-01
          1   -1    0    0  501    0  0.00000000000E+00  0.00000000000E+00  0.17367699600E+04  0.17367699600E+04  0.00000000000E+00 0. -1.
         -2   -1    0    0    0  501 -0.00000000000E+00 -0.00000000000E+00 -0.25826065127E+03  0.25826065127E+03  0.00000000000E+00 0.  1.
        -24    2    1    2    0    0  0.11941794227E+03  0.23378491033E+03  0.16754358358E+03  0.32164428299E+03  0.80424891357E+02 0.  0.
        254    2    1    2    0    0 -0.11941794227E+03 -0.23378491033E+03  0.13109657252E+04  0.16733863283E+04  0.10063173664E+04 0.  0.
         23    2    4    4    0    0  0.36820252526E+03 -0.13616959678E+03  0.19024479371E+03  0.44381934669E+03  0.81653366532E+02 0.  0.
         23    2    4    4    0    0 -0.48762046752E+03 -0.97615313543E+02  0.11207209315E+04  0.12295669816E+04  0.92288061470E+02 0.  0.
          3    1    3    3  502    0  0.87676159584E+01  0.52917105401E+02  0.38469074196E+01  0.53776294315E+02  0.00000000000E+00 0. -1.
         -4    1    3    3    0  502  0.11065032631E+03  0.18086780493E+03  0.16369667616E+03  0.26786798868E+03  0.00000000000E+00 0.  1.
         11    1    5    5    0    0  0.22472573173E+03 -0.45989536125E+02  0.13184593014E+03  0.26457520902E+03  0.00000000000E+00 0.  1.
        -11    1    5    5    0    0  0.14347679353E+03 -0.90180060660E+02  0.58398863575E+02  0.17924413767E+03  0.00000000000E+00 0. -1.
          1    1    6    6  503    0 -0.37647006535E+03 -0.49509245630E+02  0.91786705456E+03  0.99330801132E+03  0.00000000000E+00 0. -1.
         -1    1    6    6    0  503 -0.11115040217E+03 -0.48106067912E+02  0.20285387690E+03  0.23625897029E+03  0.00000000000E+00 0.  1.
<mgrwt>
<rscale>  0 0.13394616E+04</rscale>
<asrwt>0</asrwt>
<pdfrwt beam="1">  1        1 0.26719537E+00 0.13394616E+04</pdfrwt>
<pdfrwt beam="2">  1       -2 0.39732409E-01 0.13394616E+04</pdfrwt>
<totfact> 0.23184765E+01</totfact>
</mgrwt>
</event>
<event>
12    4  0.4424320E-008  0.1789015E+04  0.7818608E-02  0.8712163E-01
         -2   -1    0    0    0  501 -0.00000000000E+00  0.00000000000E+00  0.21286363239E+04  0.21286363239E+04  0.00000000000E+00 0.  1.
          1   -1    0    0  501    0  0.00000000000E+00 -0.00000000000E+00 -0.37589505342E+03  0.37589505342E+03  0.00000000000E+00 0. -1.
        -24    2    1    2    0    0 -0.53703262320E+03 -0.36832220106E+03  0.83276389633E+03  0.10626158041E+04  0.10766316864E+03 0.  0.
        254    2    1    2    0    0  0.53703262320E+03  0.36832220106E+03  0.91997737415E+03  0.14419155732E+04  0.89927574704E+03 0.  0.
         23    2    4    4    0    0  0.32685270097E+03 -0.23154209700E+03  0.14508897720E+03  0.43517188469E+03  0.88765573892E+02 0.  0.
         23    2    4    4    0    0  0.21017992224E+03  0.59986429806E+03  0.77488839695E+03  0.10067436885E+04  0.95226314117E+02 0.  0.
          1    1    3    3  502    0 -0.63402609245E+02 -0.74889659250E+02  0.17464863254E+03  0.20032597627E+03  0.00000000000E+00 0. -1.
         -2    1    3    3    0  502 -0.47363001396E+03 -0.29343254181E+03  0.65811526380E+03  0.86228982782E+03  0.00000000000E+00 0.  1.
         11    1    5    5    0    0  0.27017124931E+03 -0.21634793129E+03  0.97422324667E+02  0.35956924322E+03  0.00000000000E+00 0. -1.
        -11    1    5    5    0    0  0.56681451659E+02 -0.15194165711E+02  0.47666652533E+02  0.75602641472E+02  0.00000000000E+00 0.  1.
          4    1    6    6  503    0  0.17024827533E+03  0.37814584931E+03  0.45690006711E+03  0.61703843473E+03  0.00000000000E+00 0. -1.
         -4    1    6    6    0  503  0.39931646907E+02  0.22171844875E+03  0.31798832984E+03  0.38970525382E+03  0.00000000000E+00 0.  1.
<mgrwt>
<rscale>  0 0.17890152E+04</rscale>
<asrwt>0</asrwt>
<pdfrwt beam="1">  1        1 0.57830010E-01 0.17890152E+04</pdfrwt>
<pdfrwt beam="2">  1       -2 0.32748250E+00 0.17890152E+04</pdfrwt>
<totfact> 0.11616759E+00</totfact>
</mgrwt>
</event>
<event>
12    4  0.4424320E-008  0.1546331E+04  0.7818608E-02  0.8854215E-01
          1   -1    0    0  501    0  0.00000000000E+00  0.00000000000E+00  0.10327292974E+04  0.10327292974E+04  0.00000000000E+00 0. -1.
         -2   -1    0    0    0  501 -0.00000000000E+00 -0.00000000000E+00 -0.57883953550E+03  0.57883953550E+03  0.00000000000E+00 0.  1.
        -24    2    1    2    0    0  0.37707982085E+03  0.15105218460E+03  0.49407244669E+03  0.64459431407E+03  0.79926800166E+02 0.  0.
        254    2    1    2    0    0 -0.37707982085E+03 -0.15105218460E+03 -0.40182684827E+02  0.96697451880E+03  0.87659518483E+03 0.  0.
         23    2    4    4    0    0 -0.43711494099E+03 -0.13344834849E+02  0.33197967939E+03  0.55556612228E+03  0.84827191683E+02 0.  0.
         23    2    4    4    0    0  0.60035120139E+02 -0.13770734976E+03 -0.37216236421E+03  0.41140839651E+03  0.90468301399E+02 0.  0.
          1    1    3    3  502    0  0.37095980376E+03  0.15231751974E+03  0.49620595355E+03  0.63799071402E+03  0.00000000000E+00 0. -1.
         -2    1    3    3    0  502  0.61200170833E+01 -0.12653351333E+01 -0.21335068637E+01  0.66036000512E+01  0.00000000000E+00 0.  1.
         11    1    5    5    0    0 -0.57203325589E+01  0.62713377599E+00 -0.52773911153E+01  0.78080956924E+01  0.00000000000E+00 0. -1.
        -11    1    5    5    0    0 -0.43139460843E+03 -0.13971968625E+02  0.33725707050E+03  0.54775802659E+03  0.00000000000E+00 0.  1.
          3    1    6    6  503    0 -0.26021881869E+01 -0.34811855099E+01  0.47482987496E+01  0.64371093613E+01  0.00000000000E+00 0. -1.
         -3    1    6    6    0  503  0.62637308326E+02 -0.13422616425E+03 -0.37691066296E+03  0.40497128715E+03  0.00000000000E+00 0.  1.
<mgrwt>
<rscale>  0 0.15463306E+04</rscale>
<asrwt>0</asrwt>
<pdfrwt beam="1">  1        1 0.15888143E+00 0.15463306E+04</pdfrwt>
<pdfrwt beam="2">  1       -2 0.89052237E-01 0.15463306E+04</pdfrwt>
<totfact> 0.13057400E+01</totfact>
</mgrwt>
</event>
<event>
12    4  0.4424320E-008  0.1945809E+04  0.7818608E-02  0.8632384E-01
          1   -1    0    0  501    0  0.00000000000E+00  0.00000000000E+00  0.18099058945E+04  0.18099058945E+04  0.00000000000E+00 0. -1.
         -2   -1    0    0    0  501 -0.00000000000E+00 -0.00000000000E+00 -0.52297929144E+03  0.52297929144E+03  0.00000000000E+00 0.  1.
        -24    2    1    2    0    0  0.31927903538E+03  0.11011040452E+03 -0.31269054681E+03  0.46712796423E+03  0.79810734161E+02 0.  0.
        254    2    1    2    0    0 -0.31927903538E+03 -0.11011040452E+03  0.15996171498E+04  0.18657572217E+04  0.89900588461E+03 0.  0.
         23    2    4    4    0    0 -0.59294253759E+02 -0.48109363062E+03  0.91560786378E+03  0.10401408147E+04  0.92672888805E+02 0.  0.
         23    2    4    4    0    0 -0.25998478162E+03  0.37098322610E+03  0.68400928604E+03  0.82561640692E+03  0.92483010671E+02 0.  0.
          1    1    3    3  502    0  0.10287974975E+03  0.76094650735E+02 -0.11321662502E+03  0.17085854664E+03  0.00000000000E+00 0. -1.
         -2    1    3    3    0  502  0.21639928563E+03  0.34015753788E+02 -0.19947392179E+03  0.29626941759E+03  0.00000000000E+00 0.  1.
         11    1    5    5    0    0 -0.42076892683E+02 -0.22595565244E+03  0.34131236955E+03  0.41148579000E+03  0.00000000000E+00 0.  1.
        -11    1    5    5    0    0 -0.17217361076E+02 -0.25513797818E+03  0.57429549423E+03  0.62865502474E+03  0.00000000000E+00 0. -1.
          3    1    6    6  503    0 -0.26540337918E+03  0.34302120768E+03  0.64697836758E+03  0.77889890917E+03  0.00000000000E+00 0. -1.
         -3    1    6    6    0  503  0.54185975537E+01  0.27962018421E+02  0.37030918464E+02  0.46717497749E+02  0.00000000000E+00 0.  1.
<mgrwt>
<rscale>  0 0.19458091E+04</rscale>
<asrwt>0</asrwt>
<pdfrwt beam="1">  1        1 0.27844706E+00 0.19458091E+04</pdfrwt>
<pdfrwt beam="2">  1       -2 0.80458353E-01 0.19458091E+04</pdfrwt>
<totfact> 0.44791002E+00</totfact>
</mgrwt>
</event>
<event>
12    4  0.4424320E-008  0.1369805E+04  0.7818608E-02  0.8975970E-01
          1   -1    0    0  501    0  0.00000000000E+00  0.00000000000E+00  0.79520987965E+03  0.79520987965E+03  0.00000000000E+00 0. -1.
         -2   -1    0    0    0  501 -0.00000000000E+00 -0.00000000000E+00 -0.58989612245E+03  0.58989612245E+03  0.00000000000E+00 0.  1.
        -24    2    1    2    0    0  0.11886735518E+03 -0.32773832516E+03 -0.47790283673E+02  0.36101074432E+03  0.80641108618E+02 0.  0.
        254    2    1    2    0    0 -0.11886735518E+03  0.32773832516E+03  0.25310404087E+03  0.10240952578E+04  0.92906812646E+03 0.  0.
         23    2    4    4    0    0 -0.16871829307E+03  0.60236629308E+03  0.33964739622E+03  0.71813854471E+03  0.95139908494E+02 0.  0.
         23    2    4    4    0    0  0.49850937892E+02 -0.27462796792E+03 -0.86543355348E+02  0.30595671307E+03  0.90631788824E+02 0.  0.
          1    1    3    3  502    0  0.15630466223E+02 -0.70160973456E+02  0.21438232705E+02  0.75009809306E+02  0.00000000000E+00 0. -1.
         -2    1    3    3    0  502  0.10323688896E+03 -0.25757735170E+03 -0.69228516378E+02  0.28600093502E+03  0.00000000000E+00 0.  1.
         11    1    5    5    0    0  0.75112798432E+01  0.21705470708E+02  0.48585352749E+00  0.22973524701E+02  0.00000000000E+00 0.  1.
        -11    1    5    5    0    0 -0.17622957292E+03  0.58066082237E+03  0.33916154269E+03  0.69516502001E+03  0.00000000000E+00 0. -1.
          1    1    6    6  503    0  0.58257434498E+02 -0.17048006801E+03 -0.90050582302E+02  0.20141124506E+03  0.00000000000E+00 0. -1.
         -1    1    6    6    0  503 -0.84064966061E+01 -0.10414789991E+03  0.35072269544E+01  0.10454546802E+03  0.00000000000E+00 0.  1.
<mgrwt>
<rscale>  0 0.13698047E+04</rscale>
<asrwt>0</asrwt>
<pdfrwt beam="1">  1        1 0.12233998E+00 0.13698047E+04</pdfrwt>
<pdfrwt beam="2">  1       -2 0.90753250E-01 0.13698047E+04</pdfrwt>
<totfact> 0.19816201E+01</totfact>
</mgrwt>
</event>
<event>
12    4  0.4424320E-008  0.1906981E+04  0.7818608E-02  0.8651390E-01
         -2   -1    0    0    0  501 -0.00000000000E+00  0.00000000000E+00  0.13674217736E+04  0.13674217736E+04  0.00000000000E+00 0.  1.
          1   -1    0    0  501    0  0.00000000000E+00 -0.00000000000E+00 -0.66485974158E+03  0.66485974158E+03  0.00000000000E+00 0. -1.
        -24    2    1    2    0    0 -0.98048493437E+02  0.26466735820E+03  0.10029138241E+04  0.10447825476E+04  0.77923781560E+02 0.  0.
        254    2    1    2    0    0  0.98048493437E+02 -0.26466735820E+03 -0.30035179206E+03  0.98749896755E+03  0.89737433346E+03 0.  0.
         23    2    4    4    0    0 -0.61598429554E+02 -0.10318070363E+03 -0.58979462830E+03  0.60846777964E+03  0.89076995750E+02 0.  0.
         23    2    4    4    0    0  0.15964692299E+03 -0.16148665458E+03  0.28944283624E+03  0.37903118790E+03  0.91227223608E+02 0.  0.
          1    1    3    3  502    0 -0.48580584847E+02  0.12864028143E+03  0.35056644365E+03  0.37657034754E+03  0.00000000000E+00 0. -1.
         -2    1    3    3    0  502 -0.49467908591E+02  0.13602707677E+03  0.65234738042E+03  0.66821220008E+03  0.00000000000E+00 0.  1.
         11    1    5    5    0    0 -0.34782288548E+02 -0.11478803784E+03 -0.45510403410E+03  0.47064400887E+03  0.00000000000E+00 0. -1.
        -11    1    5    5    0    0 -0.26816141006E+02  0.11607334214E+02 -0.13469059419E+03  0.13782377077E+03  0.00000000000E+00 0.  1.
          4    1    6    6  503    0  0.12960904854E+03 -0.14303484601E+03  0.28396381605E+03  0.34335538654E+03  0.00000000000E+00 0. -1.
         -4    1    6    6    0  503  0.30037874450E+02 -0.18451808571E+02  0.54790201843E+01  0.35675801367E+02  0.00000000000E+00 0.  1.
<mgrwt>
<rscale>  0 0.19069805E+04</rscale>
<asrwt>0</asrwt>
<pdfrwt beam="1">  1        1 0.10228611E+00 0.19069805E+04</pdfrwt>
<pdfrwt beam="2">  1       -2 0.21037258E+00 0.19069805E+04</pdfrwt>
<totfact> 0.27442752E+00</totfact>
</mgrwt>
</event>
<event>
12    4  0.4424320E-008  0.1536195E+04  0.7818608E-02  0.8860734E-01
          1   -1    0    0  501    0  0.00000000000E+00  0.00000000000E+00  0.84578764987E+03  0.84578764987E+03  0.00000000000E+00 0. -1.
         -2   -1    0    0    0  501 -0.00000000000E+00 -0.00000000000E+00 -0.69754317493E+03  0.69754317493E+03  0.00000000000E+00 0.  1.
        -24    2    1    2    0    0  0.46792325601E+02  0.33537980762E+03 -0.31870685816E+03  0.47162379674E+03  0.78649902194E+02 0.  0.
        254    2    1    2    0    0 -0.46792325601E+02 -0.33537980762E+03  0.46695133311E+03  0.10717070281E+04  0.90324042725E+03 0.  0.
         23    2    4    4    0    0  0.83601862613E+01 -0.32617810508E+03  0.72082757309E+03  0.79641161956E+03  0.90647827863E+02 0.  0.
         23    2    4    4    0    0 -0.55152511862E+02 -0.92017025490E+01 -0.25387623998E+03  0.27529540851E+03  0.90597714230E+02 0.  0.
          3    1    3    3  502    0 -0.13318406670E+02  0.10716423542E+03 -0.69587960490E+02  0.12846804099E+03  0.00000000000E+00 0. -1.
         -4    1    3    3    0  502  0.60110732271E+02  0.22821557220E+03 -0.24911889767E+03  0.34315575575E+03  0.00000000000E+00 0.  1.
         11    1    5    5    0    0 -0.33044872149E+02 -0.24418765137E+03  0.54145205581E+03  0.59488646093E+03  0.00000000000E+00 0.  1.
        -11    1    5    5    0    0  0.41405058411E+02 -0.81990453702E+02  0.17937551728E+03  0.20152515863E+03  0.00000000000E+00 0. -1.
          4    1    6    6  503    0 -0.31001513665E+02 -0.35038079741E+02 -0.50394700770E+02  0.68763265972E+02  0.00000000000E+00 0. -1.
         -4    1    6    6    0  503 -0.24150998197E+02  0.25836377192E+02 -0.20348153921E+03  0.20653214253E+03  0.00000000000E+00 0.  1.
<mgrwt>
<rscale>  0 0.15361945E+04</rscale>
<asrwt>0</asrwt>
<pdfrwt beam="1">  1        1 0.13012118E+00 0.15361945E+04</pdfrwt>
<pdfrwt beam="2">  1       -2 0.10731434E+00 0.15361945E+04</pdfrwt>
<totfact> 0.11902418E+01</totfact>
</mgrwt>
</event>
<event>
12    4  0.4424320E-008  0.2518475E+04  0.7818608E-02  0.8396433E-01
         -2   -1    0    0    0  501 -0.00000000000E+00  0.00000000000E+00  0.11804354657E+04  0.11804354657E+04  0.00000000000E+00 0.  1.
          1   -1    0    0  501    0  0.00000000000E+00 -0.00000000000E+00 -0.13433005317E+04  0.13433005317E+04  0.00000000000E+00 0. -1.
        -24    2    1    2    0    0 -0.63659578814E+03 -0.24693483394E+03  0.80582254616E+03  0.10593089697E+04  0.80959914710E+02 0.  0.
        254    2    1    2    0    0  0.63659578814E+03  0.24693483394E+03 -0.96868761209E+03  0.14644270276E+04  0.86020917209E+03 0.  0.
         23    2    4    4    0    0  0.13494459381E+02  0.56039428128E+02  0.13955781500E+03  0.17540257735E+03  0.89258962993E+02 0.  0.
         23    2    4    4    0    0  0.62310132876E+03  0.19089540582E+03 -0.11082454271E+04  0.12890244503E+04  0.93165363135E+02 0.  0.
          3    1    3    3  502    0 -0.11318993652E+03 -0.43961504537E+02  0.19482830828E+03  0.22957056719E+03  0.00000000000E+00 0. -1.
         -4    1    3    3    0  502 -0.52340585162E+03 -0.20297332941E+03  0.61099423788E+03  0.82973840256E+03  0.00000000000E+00 0.  1.
         11    1    5    5    0    0 -0.62464424225E+01  0.16662201312E+02  0.12884780093E+03  0.13007076074E+03  0.00000000000E+00 0.  1.
        -11    1    5    5    0    0  0.19740901803E+02  0.39377226815E+02  0.10710014071E+02  0.45331816609E+02  0.00000000000E+00 0. -1.
          4    1    6    6  503    0  0.58892041957E+03  0.18409473094E+03 -0.10813419381E+04  0.12449973967E+04  0.00000000000E+00 0.  1.
         -4    1    6    6    0  503  0.34180909191E+02  0.68006748708E+01 -0.26903488969E+02  0.44027053621E+02  0.00000000000E+00 0. -1.
<mgrwt>
<rscale>  0 0.25184754E+04</rscale>
<asrwt>0</asrwt>
<pdfrwt beam="1">  1        1 0.20666162E+00 0.25184754E+04</pdfrwt>
<pdfrwt beam="2">  1       -2 0.18160546E+00 0.25184754E+04</pdfrwt>
<totfact> 0.11595017E+00</totfact>
</mgrwt>
</event>
<event>
12    4  0.4424320E-008  0.2180884E+04  0.7818608E-02  0.8526427E-01
          1   -1    0    0  501    0  0.00000000000E+00  0.00000000000E+00  0.96372853043E+03  0.96372853043E+03  0.00000000000E+00 0. -1.
         -2   -1    0    0    0  501 -0.00000000000E+00 -0.00000000000E+00 -0.12338155222E+04  0.12338155222E+04  0.00000000000E+00 0.  1.
        -24    2    1    2    0    0 -0.28737326626E+03 -0.63286480237E+03 -0.69644987549E+03  0.98820739845E+03  0.91707039266E+02 0.  0.
        254    2    1    2    0    0  0.28737326626E+03  0.63286480237E+03  0.42636288372E+03  0.12093366542E+04  0.89308934730E+03 0.  0.
         23    2    4    4    0    0  0.36773260129E+03  0.60443794938E+03  0.64184643517E+03  0.95960638433E+03  0.91132133854E+02 0.  0.
         23    2    4    4    0    0 -0.80359335027E+02  0.28426852997E+02 -0.21548355144E+03  0.24973026984E+03  0.93093168571E+02 0.  0.
          1    1    3    3  502    0 -0.49471495584E+01 -0.60402920167E+01  0.20969796840E+01  0.80843515631E+01  0.00000000000E+00 0. -1.
         -2    1    3    3    0  502 -0.28242611670E+03 -0.62682451036E+03 -0.69854685517E+03  0.98012304689E+03  0.00000000000E+00 0.  1.
         11    1    5    5    0    0  0.15933021143E+03  0.33197541984E+03  0.29547044022E+03  0.47211923991E+03  0.00000000000E+00 0.  1.
        -11    1    5    5    0    0  0.20840238986E+03  0.27246252954E+03  0.34637599494E+03  0.48748714442E+03  0.00000000000E+00 0. -1.
          2    1    6    6  503    0  0.21197680062E+02  0.78074345729E+01 -0.37871418971E+02  0.44096961908E+02  0.00000000000E+00 0. -1.
         -2    1    6    6    0  503 -0.10155701509E+03  0.20619418424E+02 -0.17761213247E+03  0.20563330793E+03  0.00000000000E+00 0.  1.
<mgrwt>
<rscale>  0 0.21808835E+04</rscale>
<asrwt>0</asrwt>
<pdfrwt beam="1">  1        1 0.14826593E+00 0.21808835E+04</pdfrwt>
<pdfrwt beam="2">  1       -2 0.18981777E+00 0.21808835E+04</pdfrwt>
<totfact> 0.20109275E+00</totfact>
</mgrwt>
</event>
<event>
12    4  0.4424320E-008  0.1407471E+04  0.7818608E-02  0.8948428E-01
          1   -1    0    0  501    0  0.00000000000E+00  0.00000000000E+00  0.22976489280E+04  0.22976489280E+04  0.00000000000E+00 0. -1.
         -2   -1    0    0    0  501 -0.00000000000E+00 -0.00000000000E+00 -0.21554380708E+03  0.21554380708E+03  0.00000000000E+00 0.  1.
        -24    2    1    2    0    0  0.32265986831E+03 -0.11913992573E+03  0.10059685823E+04  0.10661156261E+04  0.79536325105E+02 0.  0.
        254    2    1    2    0    0 -0.32265986831E+03  0.11913992573E+03  0.10761365385E+04  0.14470771090E+04  0.90424476617E+03 0.  0.
         23    2    4    4    0    0 -0.52849276717E+03  0.20780461897E+03  0.10582133709E+04  0.12045429027E+04  0.92847733816E+02 0.  0.
         23    2    4    4    0    0  0.20583289886E+03 -0.88664693242E+02  0.17923167690E+02  0.24253420621E+03  0.90955984757E+02 0.  0.
          1    1    3    3  502    0  0.86691604782E+02 -0.67011286900E+01  0.33305720123E+03  0.34422004410E+03  0.00000000000E+00 0. -1.
         -2    1    3    3    0  502  0.23596826353E+03 -0.11243879704E+03  0.67291138110E+03  0.72189558198E+03  0.00000000000E+00 0.  1.
         11    1    5    5    0    0 -0.15407004550E+02  0.13825468538E+02  0.13899155872E+02  0.24934031031E+02  0.00000000000E+00 0.  1.
        -11    1    5    5    0    0 -0.51308576262E+03  0.19397915044E+03  0.10443142150E+04  0.11796088717E+04  0.00000000000E+00 0. -1.
          2    1    6    6  503    0  0.19786982520E+03 -0.81746844604E+02  0.40249205080E+02  0.21784171510E+03  0.00000000000E+00 0. -1.
         -2    1    6    6    0  503  0.79630736569E+01 -0.69178486382E+01 -0.22326037390E+02  0.24692491113E+02  0.00000000000E+00 0.  1.
<mgrwt>
<rscale>  0 0.14074715E+04</rscale>
<asrwt>0</asrwt>
<pdfrwt beam="1">  1        1 0.35348443E+00 0.14074715E+04</pdfrwt>
<pdfrwt beam="2">  1       -2 0.33160587E-01 0.14074715E+04</pdfrwt>
<totfact> 0.13602227E+01</totfact>
</mgrwt>
</event>
<event>
12    4  0.4424320E-008  0.1683214E+04  0.7818608E-02  0.8770996E-01
          1   -1    0    0  501    0  0.00000000000E+00  0.00000000000E+00  0.17415172808E+04  0.17415172808E+04  0.00000000000E+00 0. -1.
         -2   -1    0    0    0  501 -0.00000000000E+00 -0.00000000000E+00 -0.40671572009E+03  0.40671572009E+03  0.00000000000E+00 0.  1.
        -24    2    1    2    0    0  0.53809229646E+02 -0.26562054754E+03  0.11639817901E+04  0.11978744047E+04  0.81238988874E+02 0.  0.
        254    2    1    2    0    0 -0.53809229646E+02  0.26562054754E+03  0.17081977063E+03  0.95035859620E+03  0.89473591571E+03 0.  0.
         23    2    4    4    0    0  0.27602780351E+03  0.22037434069E+03  0.39552563842E+03  0.53818915704E+03  0.91928449132E+02 0.  0.
         23    2    4    4    0    0 -0.32983703316E+03  0.45246206847E+02 -0.22470586780E+03  0.41216943916E+03  0.92472871041E+02 0.  0.
          3    1    3    3  502    0  0.38120304152E+01 -0.19474144405E+03  0.74786921300E+03  0.77281765078E+03  0.00000000000E+00 0. -1.
         -4    1    3    3    0  502  0.49997199231E+02 -0.70879103487E+02  0.41611257706E+03  0.42505675389E+03  0.00000000000E+00 0.  1.
         11    1    5    5    0    0  0.14487971321E+03  0.16356437514E+03  0.27494096318E+03  0.35119221140E+03  0.00000000000E+00 0. -1.
        -11    1    5    5    0    0  0.13114809030E+03  0.56809965554E+02  0.12058467524E+03  0.18699694564E+03  0.00000000000E+00 0.  1.
          3    1    6    6  503    0 -0.12413791258E+03 -0.17965475298E+02 -0.11699759146E+03  0.17152672110E+03  0.00000000000E+00 0. -1.
         -3    1    6    6    0  503 -0.20569912057E+03  0.63211682145E+02 -0.10770827634E+03  0.24064271806E+03  0.00000000000E+00 0.  1.
<mgrwt>
<rscale>  0 0.16832141E+04</rscale>
<asrwt>0</asrwt>
<pdfrwt beam="1">  1        1 0.26792573E+00 0.16832141E+04</pdfrwt>
<pdfrwt beam="2">  1       -2 0.62571650E-01 0.16832141E+04</pdfrwt>
<totfact> 0.88478479E+00</totfact>
</mgrwt>
</event>
<event>
12    4  0.4424320E-008  0.1719242E+04  0.7818608E-02  0.8750465E-01
         -2   -1    0    0    0  501 -0.00000000000E+00  0.00000000000E+00  0.12157835551E+04  0.12157835551E+04  0.00000000000E+00 0.  1.
          1   -1    0    0  501    0  0.00000000000E+00 -0.00000000000E+00 -0.60779601066E+03  0.60779601066E+03  0.00000000000E+00 0. -1.
        -24    2    1    2    0    0  0.28613654850E+03  0.39553509138E+03  0.63805097032E+03  0.80762491125E+03  0.82624594666E+02 0.  0.
        254    2    1    2    0    0 -0.28613654850E+03 -0.39553509138E+03 -0.30063425887E+02  0.10159546545E+04  0.89047061576E+03 0.  0.
         23    2    4    4    0    0 -0.40775579917E+03  0.10703481180E+03  0.15703106464E+03  0.45888819662E+03  0.90544900684E+02 0.  0.
         23    2    4    4    0    0  0.12161925067E+03 -0.50256990319E+03 -0.18709449052E+03  0.55706645789E+03  0.89168045835E+02 0.  0.
          3    1    3    3  502    0  0.64806723559E+02  0.11092982916E+03  0.22723444511E+03  0.26103798854E+03  0.00000000000E+00 0. -1.
         -4    1    3    3    0  502  0.22132982494E+03  0.28460526222E+03  0.41081652520E+03  0.54658692271E+03  0.00000000000E+00 0.  1.
         11    1    5    5    0    0 -0.40741077240E+03  0.10540244119E+03  0.16405290486E+03  0.45167086210E+03  0.00000000000E+00 0. -1.
        -11    1    5    5    0    0 -0.34502676290E+00  0.16323706100E+01 -0.70218402262E+01  0.72173345106E+01  0.00000000000E+00 0.  1.
          1    1    6    6  503    0  0.11866415785E+03 -0.34651084284E+03 -0.15500297616E+03  0.39771455742E+03  0.00000000000E+00 0. -1.
         -1    1    6    6    0  503  0.29550928197E+01 -0.15605906035E+03 -0.32091514368E+02  0.15935190047E+03  0.00000000000E+00 0.  1.
<mgrwt>
<rscale>  0 0.17192422E+04</rscale>
<asrwt>0</asrwt>
<pdfrwt beam="1">  1        1 0.93507079E-01 0.17192422E+04</pdfrwt>
<pdfrwt beam="2">  1       -2 0.18704362E+00 0.17192422E+04</pdfrwt>
<totfact> 0.45325568E+00</totfact>
</mgrwt>
</event>
<event>
12    4  0.4424320E-008  0.1233814E+04  0.7818608E-02  0.9083763E-01
         -4   -1    0    0    0  501 -0.00000000000E+00  0.00000000000E+00  0.72355830069E+03  0.72355830069E+03  0.00000000000E+00 0.  1.
          3   -1    0    0  501    0  0.00000000000E+00 -0.00000000000E+00 -0.52597628131E+03  0.52597628131E+03  0.00000000000E+00 0. -1.
        -24    2    1    2    0    0 -0.53583272918E+02 -0.26845125171E+03  0.36150823583E+02  0.28743066504E+03  0.79826458533E+02 0.  0.
        254    2    1    2    0    0  0.53583272918E+02  0.26845125171E+03  0.16143119580E+03  0.96210391696E+03  0.90810058604E+03 0.  0.
         23    2    4    4    0    0  0.38159784543E+02  0.50606667003E+03 -0.17080325115E+03  0.54308442032E+03  0.90594113019E+02 0.  0.
         23    2    4    4    0    0  0.15423488375E+02 -0.23761541833E+03  0.33223444695E+03  0.41901949664E+03  0.92188067563E+02 0.  0.
          3    1    3    3  502    0 -0.19890424002E+02 -0.17278739079E+03  0.58632127387E+02  0.18354519265E+03  0.00000000000E+00 0. -1.
         -4    1    3    3    0  502 -0.33692848916E+02 -0.95663860916E+02 -0.22481303804E+02  0.10388547239E+03  0.00000000000E+00 0.  1.
         11    1    5    5    0    0 -0.10275807977E+02  0.13558941469E+03 -0.10078348517E+02  0.13635121824E+03  0.00000000000E+00 0.  1.
        -11    1    5    5    0    0  0.48435592519E+02  0.37047725534E+03 -0.16072490264E+03  0.40673320208E+03  0.00000000000E+00 0. -1.
          1    1    6    6  503    0  0.29350058003E+02 -0.22398769439E+03  0.32926642501E+03  0.39930976920E+03  0.00000000000E+00 0. -1.
         -1    1    6    6    0  503 -0.13926569628E+02 -0.13627723938E+02  0.29680219433E+01  0.19709727436E+02  0.00000000000E+00 0.  1.
<mgrwt>
<rscale>  0 0.12338144E+04</rscale>
<asrwt>0</asrwt>
<pdfrwt beam="1">  1        3 0.80919428E-01 0.12338144E+04</pdfrwt>
<pdfrwt beam="2">  1       -4 0.11131666E+00 0.12338144E+04</pdfrwt>
<totfact> 0.20346474E+00</totfact>
</mgrwt>
</event>
<event>
12    4  0.4424320E-008  0.1541944E+04  0.7818608E-02  0.8857030E-01
         -2   -1    0    0    0  501 -0.00000000000E+00  0.00000000000E+00  0.85046873060E+03  0.85046873060E+03  0.00000000000E+00 0.  1.
          1   -1    0    0  501    0  0.00000000000E+00 -0.00000000000E+00 -0.69890611409E+03  0.69890611409E+03  0.00000000000E+00 0. -1.
        -24    2    1    2    0    0  0.24408086408E+03  0.29150091864E+03  0.37708713527E+03  0.54139220715E+03  0.79765660556E+02 0.  0.
        254    2    1    2    0    0 -0.24408086408E+03 -0.29150091864E+03 -0.22552451875E+03  0.10079826375E+04  0.90588047514E+03 0.  0.
         23    2    4    4    0    0  0.42953417267E+02  0.78872339031E+02 -0.45940118575E+03  0.47681802565E+03  0.90775206956E+02 0.  0.
         23    2    4    4    0    0 -0.28703428135E+03 -0.37037325767E+03  0.23387666699E+03  0.53116461189E+03  0.88727227496E+02 0.  0.
          1    1    3    3  502    0 -0.37372183704E+01  0.21619278921E+02  0.18164582618E+02  0.28483540578E+02  0.00000000000E+00 0. -1.
         -2    1    3    3    0  502  0.24781808245E+03  0.26988163972E+03  0.35892255265E+03  0.51290866657E+03  0.00000000000E+00 0.  1.
         11    1    5    5    0    0 -0.72557676859E+01 -0.11341166416E+02 -0.13298980811E+02  0.18924352327E+02  0.00000000000E+00 0. -1.
        -11    1    5    5    0    0  0.50209184953E+02  0.90213505447E+02 -0.44610220493E+03  0.45789367332E+03  0.00000000000E+00 0.  1.
          4    1    6    6  503    0 -0.87446505048E+02 -0.10950682140E+03  0.11690339949E+03  0.18249668488E+03  0.00000000000E+00 0. -1.
         -4    1    6    6    0  503 -0.19958777630E+03 -0.26086643627E+03  0.11697326750E+03  0.34866792701E+03  0.00000000000E+00 0.  1.
<mgrwt>
<rscale>  0 0.15419440E+04</rscale>
<asrwt>0</asrwt>
<pdfrwt beam="1">  1        1 0.10752402E+00 0.15419440E+04</pdfrwt>
<pdfrwt beam="2">  1       -2 0.13084134E+00 0.15419440E+04</pdfrwt>
<totfact> 0.98459281E+00</totfact>
</mgrwt>
</event>
<event>
12    4  0.4424320E-008  0.1459280E+04  0.7818608E-02  0.8911992E-01
          1   -1    0    0  501    0  0.00000000000E+00  0.00000000000E+00  0.11155796944E+04  0.11155796944E+04  0.00000000000E+00 0. -1.
         -2   -1    0    0    0  501 -0.00000000000E+00 -0.00000000000E+00 -0.47721799558E+03  0.47721799558E+03  0.00000000000E+00 0.  1.
        -24    2    1    2    0    0 -0.40905829372E+03  0.17717044551E+03  0.19112601407E+03  0.49109635315E+03  0.76996236257E+02 0.  0.
        254    2    1    2    0    0  0.40905829372E+03 -0.17717044551E+03  0.44723568480E+03  0.11017013369E+04  0.90277794806E+03 0.  0.
         23    2    4    4    0    0  0.52275742922E+03 -0.53208730584E+02  0.63788784458E+03  0.83147898516E+03  0.91377796460E+02 0.  0.
         23    2    4    4    0    0 -0.11369913550E+03 -0.12396171492E+03 -0.19065215978E+03  0.27022235172E+03  0.91530722507E+02 0.  0.
          3    1    3    3  502    0 -0.24868250796E+03  0.87342066199E+02  0.76443436282E+02  0.27443619521E+03  0.00000000000E+00 0. -1.
         -4    1    3    3    0  502 -0.16037578576E+03  0.89828379307E+02  0.11468257779E+03  0.21666015794E+03  0.00000000000E+00 0.  1.
         11    1    5    5    0    0  0.34267879224E+03 -0.52468374099E+01  0.46189240255E+03  0.57515291487E+03  0.00000000000E+00 0. -1.
        -11    1    5    5    0    0  0.18007863698E+03 -0.47961893174E+02  0.17599544203E+03  0.25632607029E+03  0.00000000000E+00 0.  1.
          1    1    6    6  503    0 -0.21771457271E+02 -0.89184502426E+02 -0.10847617077E+03  0.14210894219E+03  0.00000000000E+00 0. -1.
         -1    1    6    6    0  503 -0.91927678228E+02 -0.34777212497E+02 -0.82175989012E+02  0.12811340954E+03  0.00000000000E+00 0.  1.
<mgrwt>
<rscale>  0 0.14592802E+04</rscale>
<asrwt>0</asrwt>
<pdfrwt beam="1">  1        1 0.17162764E+00 0.14592802E+04</pdfrwt>
<pdfrwt beam="2">  1       -2 0.73418153E-01 0.14592802E+04</pdfrwt>
<totfact> 0.17582399E+01</totfact>
</mgrwt>
</event>
<event>
12    4  0.4424320E-008  0.2823227E+04  0.7818608E-02  0.8296093E-01
         -2   -1    0    0    0  501 -0.00000000000E+00  0.00000000000E+00  0.30266742741E+04  0.30266742741E+04  0.00000000000E+00 0.  1.
          1   -1    0    0  501    0  0.00000000000E+00 -0.00000000000E+00 -0.65836371140E+03  0.65836371140E+03  0.00000000000E+00 0. -1.
        -24    2    1    2    0    0 -0.60351727004E+03  0.10233223679E+03  0.25076738866E+04  0.25824951366E+04  0.78408079395E+02 0.  0.
        254    2    1    2    0    0  0.60351727004E+03 -0.10233223679E+03 -0.13936332388E+03  0.11025428490E+04  0.90635181681E+03 0.  0.
         23    2    4    4    0    0  0.43185363154E+03  0.26081771949E+03  0.21829324700E+03  0.55676422567E+03  0.88379971870E+02 0.  0.
         23    2    4    4    0    0  0.17166363850E+03 -0.36314995629E+03 -0.35765657088E+03  0.54577862329E+03  0.92788940165E+02 0.  0.
          1    1    3    3  502    0 -0.24602135883E+03  0.65187854266E+02  0.91236179527E+03  0.94719586719E+03  0.00000000000E+00 0. -1.
         -2    1    3    3    0  502 -0.35749591121E+03  0.37144382528E+02  0.15953120913E+04  0.16352992694E+04  0.00000000000E+00 0.  1.
         11    1    5    5    0    0  0.75800669587E+02  0.97926937779E+01  0.28510565041E+02  0.81575061631E+02  0.00000000000E+00 0. -1.
        -11    1    5    5    0    0  0.35605296195E+03  0.25102502571E+03  0.18978268196E+03  0.47518916404E+03  0.00000000000E+00 0.  1.
          4    1    6    6  503    0 -0.56560126076E+01 -0.31002899752E+02 -0.93711845371E+01  0.32878402809E+02  0.00000000000E+00 0. -1.
         -4    1    6    6    0  503  0.17731965111E+03 -0.33214705653E+03 -0.34828538634E+03  0.51290022048E+03  0.00000000000E+00 0.  1.
<mgrwt>
<rscale>  0 0.28232269E+04</rscale>
<asrwt>0</asrwt>
<pdfrwt beam="1">  1        1 0.10128673E+00 0.28232269E+04</pdfrwt>
<pdfrwt beam="2">  1       -2 0.46564219E+00 0.28232269E+04</pdfrwt>
<totfact> 0.61865625E-02</totfact>
</mgrwt>
</event>
<event>
12    4  0.4424320E-008  0.1940220E+04  0.7818608E-02  0.8635092E-01
         -2   -1    0    0    0  501 -0.00000000000E+00  0.00000000000E+00  0.11741944681E+04  0.11741944681E+04  0.00000000000E+00 0.  1.
          1   -1    0    0  501    0  0.00000000000E+00 -0.00000000000E+00 -0.80149672400E+03  0.80149672400E+03  0.00000000000E+00 0. -1.
        -24    2    1    2    0    0  0.57571444354E+03  0.42725535050E+02  0.63915813955E+03  0.86497011649E+03  0.79859772319E+02 0.  0.
        254    2    1    2    0    0 -0.57571444354E+03 -0.42725535050E+02 -0.26646039540E+03  0.11107210756E+04  0.91072914400E+03 0.  0.
         23    2    4    4    0    0 -0.68371726972E+03  0.23472215443E+03 -0.48814787945E+02  0.73017826556E+03  0.90629031085E+02 0.  0.
         23    2    4    4    0    0  0.10800282618E+03 -0.27744768948E+03 -0.21764560746E+03  0.38054281009E+03  0.93815718319E+02 0.  0.
          3    1    3    3  502    0  0.30572915095E+02  0.19930187057E+02  0.50903429887E+02  0.62634452722E+02  0.00000000000E+00 0. -1.
         -4    1    3    3    0  502  0.54514152844E+03  0.22795347993E+02  0.58825470966E+03  0.80233566377E+03  0.00000000000E+00 0.  1.
         11    1    5    5    0    0 -0.48978133067E+03  0.12784463145E+03 -0.17080418753E+02  0.50647975514E+03  0.00000000000E+00 0. -1.
        -11    1    5    5    0    0 -0.19393593905E+03  0.10687752298E+03 -0.31734369192E+02  0.22369851041E+03  0.00000000000E+00 0.  1.
          4    1    6    6  503    0  0.42914247600E+02 -0.61026282160E+02 -0.10285728016E+03  0.12706478601E+03  0.00000000000E+00 0. -1.
         -4    1    6    6    0  503  0.65088578584E+02 -0.21642140732E+03 -0.11478832730E+03  0.25347802408E+03  0.00000000000E+00 0.  1.
<mgrwt>
<rscale>  0 0.19402196E+04</rscale>
<asrwt>0</asrwt>
<pdfrwt beam="1">  1        1 0.12330719E+00 0.19402196E+04</pdfrwt>
<pdfrwt beam="2">  1       -2 0.18064530E+00 0.19402196E+04</pdfrwt>
<totfact> 0.32303491E+00</totfact>
</mgrwt>
</event>
<event>
12    4  0.4424320E-008  0.1657187E+04  0.7818608E-02  0.8786166E-01
          1   -1    0    0  501    0  0.00000000000E+00  0.00000000000E+00  0.77321300267E+03  0.77321300267E+03  0.00000000000E+00 0. -1.
         -2   -1    0    0    0  501 -0.00000000000E+00 -0.00000000000E+00 -0.88794101940E+03  0.88794101940E+03  0.00000000000E+00 0.  1.
        -24    2    1    2    0    0 -0.34059407266E+02  0.12690170198E+03 -0.61205559475E+03  0.63106146729E+03  0.79764899803E+02 0.  0.
        254    2    1    2    0    0  0.34059407266E+02 -0.12690170198E+03  0.49732757802E+03  0.10300925548E+04  0.89246393001E+03 0.  0.
         23    2    4    4    0    0  0.23252946983E+02  0.27242094442E+03  0.54503257708E+03  0.61699774964E+03  0.94190458499E+02 0.  0.
         23    2    4    4    0    0  0.10806460283E+02 -0.39932264639E+03 -0.47704999070E+02  0.41309480514E+03  0.93788035453E+02 0.  0.
          3    1    3    3  502    0 -0.97196095554E+01  0.56835221169E+00 -0.17984982386E+03  0.18011316714E+03  0.00000000000E+00 0. -1.
         -4    1    3    3    0  502 -0.24339797710E+02  0.12633334976E+03 -0.43220577089E+03  0.45094830015E+03  0.00000000000E+00 0.  1.
         11    1    5    5    0    0  0.35504578662E+02  0.15239998205E+03  0.39234566055E+03  0.42239962949E+03  0.00000000000E+00 0. -1.
        -11    1    5    5    0    0 -0.12251631679E+02  0.12002096237E+03  0.15268691653E+03  0.19459812015E+03  0.00000000000E+00 0.  1.
          3    1    6    6  503    0 -0.22024573571E+02 -0.25824111653E+03 -0.65026695893E+02  0.26721157775E+03  0.00000000000E+00 0. -1.
         -3    1    6    6    0  503  0.32831033854E+02 -0.14108152987E+03  0.17321696823E+02  0.14588322739E+03  0.00000000000E+00 0.  1.
<mgrwt>
<rscale>  0 0.16571874E+04</rscale>
<asrwt>0</asrwt>
<pdfrwt beam="1">  1        1 0.11895585E+00 0.16571874E+04</pdfrwt>
<pdfrwt beam="2">  1       -2 0.13660631E+00 0.16571874E+04</pdfrwt>
<totfact> 0.74717761E+00</totfact>
</mgrwt>
</event>
<event>
12    4  0.4424320E-008  0.1282603E+04  0.7818608E-02  0.9043476E-01
          1   -1    0    0  501    0  0.00000000000E+00  0.00000000000E+00  0.21856548109E+04  0.21856548109E+04  0.00000000000E+00 0. -1.
         -2   -1    0    0    0  501 -0.00000000000E+00 -0.00000000000E+00 -0.18816681320E+03  0.18816681320E+03  0.00000000000E+00 0.  1.
        -24    2    1    2    0    0 -0.18007602868E+03  0.19400264790E+03  0.79985545781E+03  0.84694630449E+03  0.86515234498E+02 0.  0.
        254    2    1    2    0    0  0.18007602868E+03 -0.19400264790E+03  0.11976325398E+04  0.15268753196E+04  0.90937348627E+03 0.  0.
         23    2    4    4    0    0  0.21054374006E+03  0.19849041187E+03  0.10557288098E+04  0.10983768066E+04  0.90228483583E+02 0.  0.
         23    2    4    4    0    0 -0.30467711380E+02 -0.39249305977E+03  0.14190373001E+03  0.42849851299E+03  0.92169537478E+02 0.  0.
          3    1    3    3  502    0 -0.11012563169E+03  0.75931024642E+02  0.49252303086E+03  0.51036468450E+03  0.00000000000E+00 0. -1.
         -4    1    3    3    0  502 -0.69950396994E+02  0.11807162326E+03  0.30733242695E+03  0.33658161999E+03  0.00000000000E+00 0.  1.
         11    1    5    5    0    0  0.12408898672E+03  0.10606438106E+03  0.74865327709E+03  0.76624373332E+03  0.00000000000E+00 0. -1.
        -11    1    5    5    0    0  0.86454753346E+02  0.92426030810E+02  0.30707553274E+03  0.33213307326E+03  0.00000000000E+00 0.  1.
          1    1    6    6  503    0 -0.17439011850E+02 -0.34208685886E+03  0.88206536690E+02  0.35370599550E+03  0.00000000000E+00 0. -1.
         -1    1    6    6    0  503 -0.13028699530E+02 -0.50406200909E+02  0.53697193320E+02  0.74792517486E+02  0.00000000000E+00 0.  1.
<mgrwt>
<rscale>  0 0.12826031E+04</rscale>
<asrwt>0</asrwt>
<pdfrwt beam="1">  1        1 0.33625457E+00 0.12826031E+04</pdfrwt>
<pdfrwt beam="2">  1       -2 0.28948742E-01 0.12826031E+04</pdfrwt>
<totfact> 0.21141874E+01</totfact>
</mgrwt>
</event>
<event>
12    4  0.4424320E-008  0.1592740E+04  0.7818608E-02  0.8825021E-01
         -4   -1    0    0    0  501 -0.00000000000E+00  0.00000000000E+00  0.25168153464E+03  0.25168153464E+03  0.00000000000E+00 0.  1.
          1   -1    0    0  501    0  0.00000000000E+00 -0.00000000000E+00 -0.25198715043E+04  0.25198715043E+04  0.00000000000E+00 0. -1.
        -24    2    1    2    0    0 -0.45330649140E+03 -0.70495638677E+02 -0.28549153246E+03  0.54636768770E+03  0.80968048244E+02 0.  0.
        254    2    1    2    0    0  0.45330649140E+03  0.70495638677E+02 -0.19826984372E+04  0.22251853513E+04  0.89994463401E+03 0.  0.
         23    2    4    4    0    0  0.39579368617E+03  0.30036951173E+03 -0.18876046393E+04  0.19540519097E+04  0.91613895164E+02 0.  0.
         23    2    4    4    0    0  0.57512805232E+02 -0.22987387306E+03 -0.95093797905E+02  0.27113344158E+03  0.91218377870E+02 0.  0.
          1    1    3    3  502    0 -0.10258062206E+03  0.17928959389E+02 -0.62394842785E+02  0.12139747943E+03  0.00000000000E+00 0. -1.
         -4    1    3    3    0  502 -0.35072586934E+03 -0.88424598066E+02 -0.22309668968E+03  0.42497020827E+03  0.00000000000E+00 0.  1.
         11    1    5    5    0    0  0.32276748317E+03  0.23552810823E+03 -0.16378220678E+04  0.16858568930E+04  0.00000000000E+00 0. -1.
        -11    1    5    5    0    0  0.73026203000E+02  0.64841403500E+02 -0.24978257151E+03  0.26819501666E+03  0.00000000000E+00 0.  1.
          1    1    6    6  503    0  0.79840668867E+02 -0.20217000719E+03 -0.89700732916E+02  0.23514562658E+03  0.00000000000E+00 0. -1.
         -1    1    6    6    0  503 -0.22327863635E+02 -0.27703865864E+02 -0.53930649888E+01  0.35987814998E+02  0.00000000000E+00 0.  1.
<mgrwt>
<rscale>  0 0.15927399E+04</rscale>
<asrwt>0</asrwt>
<pdfrwt beam="1">  1        1 0.38767254E+00 0.15927399E+04</pdfrwt>
<pdfrwt beam="2">  1       -4 0.38720236E-01 0.15927399E+04</pdfrwt>
<totfact> 0.40874922E+00</totfact>
</mgrwt>
</event>
<event>
12    4  0.4424320E-008  0.1584679E+04  0.7818608E-02  0.8830016E-01
          1   -1    0    0  501    0  0.00000000000E+00  0.00000000000E+00  0.12018766840E+04  0.12018766840E+04  0.00000000000E+00 0. -1.
         -2   -1    0    0    0  501 -0.00000000000E+00 -0.00000000000E+00 -0.52235161932E+03  0.52235161932E+03  0.00000000000E+00 0.  1.
        -24    2    1    2    0    0 -0.39481778375E+03  0.32905157914E+03  0.35179688665E+03  0.62786895499E+03  0.79387348406E+02 0.  0.
        254    2    1    2    0    0  0.39481778375E+03 -0.32905157914E+03  0.32772817802E+03  0.10963593483E+04  0.91128592543E+03 0.  0.
         23    2    4    4    0    0 -0.24020379095E+03 -0.35728872373E+02  0.29166474473E+03  0.39015473172E+03  0.90432172690E+02 0.  0.
         23    2    4    4    0    0  0.63502157470E+03 -0.29332270677E+03  0.36063433290E+02  0.70620461660E+03  0.90187463953E+02 0.  0.
          1    1    3    3  502    0 -0.27197708202E+03  0.26171347307E+03  0.22830671004E+03  0.44112291822E+03  0.00000000000E+00 0. -1.
         -2    1    3    3    0  502 -0.12284070173E+03  0.67338106068E+02  0.12349017661E+03  0.18674603677E+03  0.00000000000E+00 0.  1.
         11    1    5    5    0    0 -0.12131429104E+03 -0.62129102122E+02  0.13641533310E+03  0.19283756285E+03  0.00000000000E+00 0.  1.
        -11    1    5    5    0    0 -0.11888949991E+03  0.26400229749E+02  0.15524941163E+03  0.19731716887E+03  0.00000000000E+00 0. -1.
          2    1    6    6  503    0  0.42076968408E+03 -0.23070399832E+03 -0.13963432076E+01  0.47986811902E+03  0.00000000000E+00 0. -1.
         -2    1    6    6    0  503  0.21425189062E+03 -0.62618708445E+02  0.37459776497E+02  0.22633649758E+03  0.00000000000E+00 0.  1.
<mgrwt>
<rscale>  0 0.15846794E+04</rscale>
<asrwt>0</asrwt>
<pdfrwt beam="1">  1        1 0.18490411E+00 0.15846794E+04</pdfrwt>
<pdfrwt beam="2">  1       -2 0.80361788E-01 0.15846794E+04</pdfrwt>
<totfact> 0.12281763E+01</totfact>
</mgrwt>
</event>
<event>
12    4  0.4424320E-008  0.1625473E+04  0.7818608E-02  0.8805050E-01
          1   -1    0    0  501    0  0.00000000000E+00  0.00000000000E+00  0.43629805144E+03  0.43629805144E+03  0.00000000000E+00 0. -1.
         -2   -1    0    0    0  501 -0.00000000000E+00 -0.00000000000E+00 -0.15139657625E+04  0.15139657625E+04  0.00000000000E+00 0.  1.
        -24    2    1    2    0    0 -0.16251565360E+03 -0.47989650192E+02  0.26711204933E+03  0.32663751712E+03  0.81417912696E+02 0.  0.
        254    2    1    2    0    0  0.16251565360E+03  0.47989650192E+02 -0.13447797604E+04  0.16236262968E+04  0.89387661541E+03 0.  0.
         23    2    4    4    0    0  0.45713036923E+03 -0.51113439393E+02 -0.11588726558E+04  0.12498553776E+04  0.87016517962E+02 0.  0.
         23    2    4    4    0    0 -0.29461471564E+03  0.99103089586E+02 -0.18590710462E+03  0.37377091924E+03  0.92325486681E+02 0.  0.
          3    1    3    3  502    0 -0.40798592252E+02 -0.21536217103E+02  0.14517499160E+03  0.15232895970E+03  0.00000000000E+00 0. -1.
         -4    1    3    3    0  502 -0.12171706134E+03 -0.26453433089E+02  0.12193705773E+03  0.17430855742E+03  0.00000000000E+00 0.  1.
         11    1    5    5    0    0  0.22191610615E+03 -0.33967195365E+02 -0.67919469005E+03  0.71533625346E+03  0.00000000000E+00 0. -1.
        -11    1    5    5    0    0  0.23521426308E+03 -0.17146244029E+02 -0.47967796573E+03  0.53451912411E+03  0.00000000000E+00 0.  1.
          4    1    6    6  503    0 -0.27933828180E+02 -0.79763240727E+01 -0.45365981428E+02  0.53870147331E+02  0.00000000000E+00 0. -1.
         -4    1    6    6    0  503 -0.26668088746E+03  0.10707941366E+03 -0.14054112319E+03  0.31990077191E+03  0.00000000000E+00 0.  1.
<mgrwt>
<rscale>  0 0.16254726E+04</rscale>
<asrwt>0</asrwt>
<pdfrwt beam="1">  1        1 0.67122778E-01 0.16254726E+04</pdfrwt>
<pdfrwt beam="2">  1       -2 0.23291781E+00 0.16254726E+04</pdfrwt>
<totfact> 0.36639547E+00</totfact>
</mgrwt>
</event>
<event>
12    4  0.4424320E-008  0.1701092E+04  0.7818608E-02  0.8760742E-01
         -2   -1    0    0    0  501 -0.00000000000E+00  0.00000000000E+00  0.38172210576E+03  0.38172210576E+03  0.00000000000E+00 0.  1.
          1   -1    0    0  501    0  0.00000000000E+00 -0.00000000000E+00 -0.18951710968E+04  0.18951710968E+04  0.00000000000E+00 0. -1.
        -24    2    1    2    0    0  0.17807239748E+01 -0.47058863306E+02 -0.13543121874E+04  0.13575181521E+04  0.80475615498E+02 0.  0.
        254    2    1    2    0    0 -0.17807239748E+01  0.47058863306E+02 -0.15913680364E+03  0.91937505049E+03  0.90427222317E+03 0.  0.
         23    2    4    4    0    0 -0.65114795637E+02 -0.22665965133E+03 -0.44277437495E+03  0.50991542890E+03  0.91378681144E+02 0.  0.
         23    2    4    4    0    0  0.63334071663E+02  0.27371851463E+03  0.28363757131E+03  0.40945962158E+03  0.90960870508E+02 0.  0.
          1    1    3    3  502    0 -0.36963734213E+02 -0.31223974886E+02 -0.55269391258E+03  0.55480790843E+03  0.00000000000E+00 0. -1.
         -2    1    3    3    0  502  0.38744458188E+02 -0.15834888420E+02 -0.80161827486E+03  0.80271024369E+03  0.00000000000E+00 0.  1.
         11    1    5    5    0    0 -0.37915810706E+02 -0.21332447135E+03 -0.41786300493E+03  0.47069568690E+03  0.00000000000E+00 0. -1.
        -11    1    5    5    0    0 -0.27198984931E+02 -0.13335179980E+02 -0.24911370025E+02  0.39219742005E+02  0.00000000000E+00 0.  1.
          1    1    6    6  503    0  0.85768269179E+02  0.19855294611E+03  0.19653973648E+03  0.29224533601E+03  0.00000000000E+00 0. -1.
         -1    1    6    6    0  503 -0.22434197516E+02  0.75165568524E+02  0.87097834831E+02  0.11721428557E+03  0.00000000000E+00 0.  1.
<mgrwt>
<rscale>  0 0.17010922E+04</rscale>
<asrwt>0</asrwt>
<pdfrwt beam="1">  1        1 0.29156478E+00 0.17010922E+04</pdfrwt>
<pdfrwt beam="2">  1       -2 0.58726478E-01 0.17010922E+04</pdfrwt>
<totfact> 0.79483606E+00</totfact>
</mgrwt>
</event>
<event>
12    4  0.4424320E-008  0.2101837E+04  0.7818608E-02  0.8560435E-01
         -2   -1    0    0    0  501 -0.00000000000E+00  0.00000000000E+00  0.92182383188E+03  0.92182383188E+03  0.00000000000E+00 0.  1.
          1   -1    0    0  501    0  0.00000000000E+00 -0.00000000000E+00 -0.11980914809E+04  0.11980914809E+04  0.00000000000E+00 0. -1.
        -24    2    1    2    0    0 -0.21868445824E+03  0.16315297608E+03 -0.93289824465E+03  0.97513441822E+03  0.78397785974E+02 0.  0.
        254    2    1    2    0    0  0.21868445824E+03 -0.16315297608E+03  0.65663059560E+03  0.11447808946E+04  0.89717209703E+03 0.  0.
         23    2    4    4    0    0  0.76603054620E+02 -0.14395051164E+03  0.86057655326E+03  0.87958805320E+03  0.80581396947E+02 0.  0.
         23    2    4    4    0    0  0.14208140362E+03 -0.19202464445E+02 -0.20394595766E+03  0.26519284140E+03  0.90429141257E+02 0.  0.
          1    1    3    3  502    0 -0.13997961375E+03  0.11172926570E+03 -0.47409201715E+03  0.50679479260E+03  0.00000000000E+00 0. -1.
         -2    1    3    3    0  502 -0.78704844498E+02  0.51423710388E+02 -0.45880622750E+03  0.46833962562E+03  0.00000000000E+00 0.  1.
         11    1    5    5    0    0 -0.34344352322E+01  0.28557319419E+01  0.20219846526E+01  0.49029554580E+01  0.00000000000E+00 0. -1.
        -11    1    5    5    0    0  0.80037489852E+02 -0.14680624358E+03  0.85855456860E+03  0.87468509774E+03  0.00000000000E+00 0.  1.
          2    1    6    6  503    0  0.16213578349E+02 -0.15873035245E+02 -0.98137452980E+02  0.10072632748E+03  0.00000000000E+00 0. -1.
         -2    1    6    6    0  503  0.12586782527E+03 -0.33294292005E+01 -0.10580850468E+03  0.16446651392E+03  0.00000000000E+00 0.  1.
<mgrwt>
<rscale>  0 0.21018366E+04</rscale>
<asrwt>0</asrwt>
<pdfrwt beam="1">  1        1 0.18432177E+00 0.21018366E+04</pdfrwt>
<pdfrwt beam="2">  1       -2 0.14181905E+00 0.21018366E+04</pdfrwt>
<totfact> 0.30030328E+00</totfact>
</mgrwt>
</event>
<event>
12    4  0.4424320E-008  0.1131428E+04  0.7818608E-02  0.9175090E-01
          1   -1    0    0  501    0  0.00000000000E+00  0.00000000000E+00  0.10149455048E+04  0.10149455048E+04  0.00000000000E+00 0. -1.
         -2   -1    0    0    0  501 -0.00000000000E+00 -0.00000000000E+00 -0.31531980496E+03  0.31531980496E+03  0.00000000000E+00 0.  1.
        -24    2    1    2    0    0 -0.12945154532E+03  0.11573845676E+03  0.23810663520E+03  0.30474135475E+03  0.77584989562E+02 0.  0.
        254    2    1    2    0    0  0.12945154532E+03 -0.11573845676E+03  0.46151906464E+03  0.10255239550E+04  0.89919210536E+03 0.  0.
         23    2    4    4    0    0  0.42645923164E+03  0.87253448715E+02  0.48021395087E+03  0.65461785148E+03  0.91861048842E+02 0.  0.
         23    2    4    4    0    0 -0.29700768632E+03 -0.20299190548E+03 -0.18694886230E+02  0.37090610354E+03  0.88332097533E+02 0.  0.
          3    1    3    3  502    0 -0.10691647119E+03  0.12592549061E+03  0.20139962397E+03  0.26048065097E+03  0.00000000000E+00 0. -1.
         -4    1    3    3    0  502 -0.22535074138E+02 -0.10187033847E+02  0.36707011232E+02  0.44260703775E+02  0.00000000000E+00 0.  1.
         11    1    5    5    0    0  0.69732447074E+02  0.26851355874E+02  0.13630135746E+03  0.15544024425E+03  0.00000000000E+00 0. -1.
        -11    1    5    5    0    0  0.35672678457E+03  0.60402092841E+02  0.34391259341E+03  0.49917760722E+03  0.00000000000E+00 0.  1.
          3    1    6    6  503    0 -0.25468282454E+03 -0.18651340413E+03  0.12307155531E+02  0.31591463581E+03  0.00000000000E+00 0. -1.
         -3    1    6    6    0  503 -0.42324861774E+02 -0.16478501344E+02 -0.31002041761E+02  0.54991467739E+02  0.00000000000E+00 0.  1.
<mgrwt>
<rscale>  0 0.11314282E+04</rscale>
<asrwt>0</asrwt>
<pdfrwt beam="1">  1        1 0.15614546E+00 0.11314282E+04</pdfrwt>
<pdfrwt beam="2">  1       -2 0.48510740E-01 0.11314282E+04</pdfrwt>
<totfact> 0.51676182E+01</totfact>
</mgrwt>
</event>
<event>
12    4  0.4424320E-008  0.1781340E+04  0.7818608E-02  0.8716286E-01
         -2   -1    0    0    0  501 -0.00000000000E+00  0.00000000000E+00  0.22187380583E+03  0.22187380583E+03  0.00000000000E+00 0.  1.
          1   -1    0    0  501    0  0.00000000000E+00 -0.00000000000E+00 -0.35754232427E+04  0.35754232427E+04  0.00000000000E+00 0. -1.
        -24    2    1    2    0    0  0.28883445842E+03 -0.57742953110E+03 -0.95487148160E+03  0.11556328565E+04  0.82810295026E+02 0.  0.
        254    2    1    2    0    0 -0.28883445842E+03  0.57742953110E+03 -0.23986779553E+04  0.26416641920E+04  0.89882343232E+03 0.  0.
         23    2    4    4    0    0 -0.44441661033E+03  0.81394278790E+02 -0.17245115981E+04  0.17855539273E+04  0.10065496964E+03 0.  0.
         23    2    4    4    0    0  0.15558215191E+03  0.49603525231E+03 -0.67416635713E+03  0.85611026474E+03  0.90375498784E+02 0.  0.
          3    1    3    3  502    0  0.28257896283E+03 -0.56143351025E+03 -0.89719309408E+03  0.10954514616E+04  0.00000000000E+00 0. -1.
         -4    1    3    3    0  502  0.62554955858E+01 -0.15996020846E+02 -0.57678387523E+02  0.60181394925E+02  0.00000000000E+00 0.  1.
         11    1    5    5    0    0 -0.16948804684E+02 -0.63285922568E+01 -0.24664860669E+02  0.30588697455E+02  0.00000000000E+00 0. -1.
        -11    1    5    5    0    0 -0.42746780564E+03  0.87722871047E+02 -0.16998467375E+04  0.17549652298E+04  0.00000000000E+00 0.  1.
          2    1    6    6  503    0  0.15572669603E+02  0.45710590886E+02 -0.26929531327E+02  0.55291643267E+02  0.00000000000E+00 0. -1.
         -2    1    6    6    0  503  0.14000948231E+03  0.45032466142E+03 -0.64723682580E+03  0.80081862147E+03  0.00000000000E+00 0.  1.
<mgrwt>
<rscale>  0 0.17813397E+04</rscale>
<asrwt>0</asrwt>
<pdfrwt beam="1">  1        1 0.55006507E+00 0.17813397E+04</pdfrwt>
<pdfrwt beam="2">  1       -2 0.34134434E-01 0.17813397E+04</pdfrwt>
<totfact> 0.14632162E+00</totfact>
</mgrwt>
</event>
<event>
12    4  0.4424320E-008  0.1964139E+04  0.7818608E-02  0.8623573E-01
         -4   -1    0    0    0  501 -0.00000000000E+00  0.00000000000E+00  0.45889801315E+03  0.45889801315E+03  0.00000000000E+00 0.  1.
          3   -1    0    0  501    0  0.00000000000E+00 -0.00000000000E+00 -0.21016875416E+04  0.21016875416E+04  0.00000000000E+00 0. -1.
        -24    2    1    2    0    0  0.18975774130E+03  0.13403116526E+03  0.30390905651E+03  0.39078887913E+03  0.79892926968E+02 0.  0.
        254    2    1    2    0    0 -0.18975774130E+03 -0.13403116526E+03 -0.19466985850E+04  0.21697966757E+04  0.92973645688E+03 0.  0.
         23    2    4    4    0    0  0.34109233858E+03 -0.14717587435E+03 -0.11171854378E+04  0.11808806467E+04  0.91493594658E+02 0.  0.
         23    2    4    4    0    0 -0.53085007988E+03  0.13144709091E+02 -0.82951314716E+03  0.98891602894E+03  0.88815878623E+02 0.  0.
          3    1    3    3  502    0  0.12818102120E+02  0.35567336955E+01 -0.26356523208E+01  0.13561001427E+02  0.00000000000E+00 0. -1.
         -2    1    3    3    0  502  0.17693963918E+03  0.13047443156E+03  0.30654470883E+03  0.37722787770E+03  0.00000000000E+00 0.  1.
         11    1    5    5    0    0  0.29185327209E+03 -0.10784824843E+03 -0.81904510438E+03  0.87615321726E+03  0.00000000000E+00 0.  1.
        -11    1    5    5    0    0  0.49239066491E+02 -0.39327625915E+02 -0.29814033347E+03  0.30472742946E+03  0.00000000000E+00 0. -1.
          1    1    6    6  503    0 -0.13481300881E+02  0.13210266531E+02 -0.15604644755E+02  0.24490029669E+02  0.00000000000E+00 0. -1.
         -1    1    6    6    0  503 -0.51736877900E+03 -0.65557439723E-01 -0.81390850240E+03  0.96442599927E+03  0.00000000000E+00 0.  1.
<mgrwt>
<rscale>  0 0.19641387E+04</rscale>
<asrwt>0</asrwt>
<pdfrwt beam="1">  1        3 0.32333655E+00 0.19641387E+04</pdfrwt>
<pdfrwt beam="2">  1       -4 0.70599693E-01 0.19641387E+04</pdfrwt>
<totfact> 0.11324371E-01</totfact>
</mgrwt>
</event>
<event>
12    4  0.4424320E-008  0.1439790E+04  0.7818608E-02  0.8925510E-01
         -2   -1    0    0    0  501 -0.00000000000E+00  0.00000000000E+00  0.35709472625E+03  0.35709472625E+03  0.00000000000E+00 0.  1.
          1   -1    0    0  501    0  0.00000000000E+00 -0.00000000000E+00 -0.14512913648E+04  0.14512913648E+04  0.00000000000E+00 0. -1.
        -24    2    1    2    0    0 -0.96650699759E+02  0.12711933103E+03  0.17238012234E+03  0.24802265730E+03  0.79370333713E+02 0.  0.
        254    2    1    2    0    0  0.96650699759E+02 -0.12711933103E+03 -0.12665767609E+04  0.15603634337E+04  0.89722721317E+03 0.  0.
         23    2    4    4    0    0 -0.13445877605E+03  0.27472308063E+03 -0.92140031084E+03  0.97511984802E+03  0.91259255426E+02 0.  0.
         23    2    4    4    0    0  0.23110947581E+03 -0.40184241166E+03 -0.34517645003E+03  0.58524358571E+03  0.92056283541E+02 0.  0.
          1    1    3    3  502    0 -0.40043452324E+02  0.81066936655E+02  0.44473133983E+02  0.10076301871E+03  0.00000000000E+00 0. -1.
         -2    1    3    3    0  502 -0.56607247434E+02  0.46052394372E+02  0.12790698835E+03  0.14725963859E+03  0.00000000000E+00 0.  1.
         11    1    5    5    0    0 -0.93301928546E+01  0.97353464171E+02 -0.21671480160E+03  0.23776049865E+03  0.00000000000E+00 0. -1.
        -11    1    5    5    0    0 -0.12512858319E+03  0.17736961646E+03 -0.70468550924E+03  0.73735934937E+03  0.00000000000E+00 0.  1.
          4    1    6    6  503    0  0.17236022035E+03 -0.30765420752E+03 -0.30788987663E+03  0.46814029211E+03  0.00000000000E+00 0. -1.
         -4    1    6    6    0  503  0.58749255461E+02 -0.94188204139E+02 -0.37286573403E+02  0.11710329360E+03  0.00000000000E+00 0.  1.
<mgrwt>
<rscale>  0 0.14397896E+04</rscale>
<asrwt>0</asrwt>
<pdfrwt beam="1">  1        1 0.22327559E+00 0.14397896E+04</pdfrwt>
<pdfrwt beam="2">  1       -2 0.54937650E-01 0.14397896E+04</pdfrwt>
<totfact> 0.18797038E+01</totfact>
</mgrwt>
</event>
<event>
12    4  0.4424320E-008  0.2653970E+04  0.7818608E-02  0.8350097E-01
         -4   -1    0    0    0  501 -0.00000000000E+00  0.00000000000E+00  0.52302052724E+03  0.52302052724E+03  0.00000000000E+00 0.  1.
          1   -1    0    0  501    0  0.00000000000E+00 -0.00000000000E+00 -0.33667676080E+04  0.33667676080E+04  0.00000000000E+00 0. -1.
        -24    2    1    2    0    0 -0.19615001999E+03  0.31350749445E+03 -0.28861579132E+04  0.29115620565E+04  0.10258815389E+03 0.  0.
        254    2    1    2    0    0  0.19615001999E+03 -0.31350749445E+03  0.42410832435E+02  0.97822607878E+03  0.90463572949E+03 0.  0.
         23    2    4    4    0    0  0.45572760382E+03 -0.13625176530E+03  0.29317520457E+03  0.56621951801E+03  0.91655057521E+02 0.  0.
         23    2    4    4    0    0 -0.25957758384E+03 -0.17725572915E+03 -0.25076437213E+03  0.41200656077E+03  0.89813808731E+02 0.  0.
          1    1    3    3  502    0 -0.12791537380E+03  0.27130549963E+03 -0.24246021251E+04  0.24430850337E+04  0.00000000000E+00 0. -1.
         -2    1    3    3    0  502 -0.68234646189E+02  0.42201994821E+02 -0.46155578812E+03  0.46847702276E+03  0.00000000000E+00 0.  1.
         11    1    5    5    0    0  0.96100248889E+01  0.90832825566E+00  0.27566347703E+02  0.29207553206E+02  0.00000000000E+00 0. -1.
        -11    1    5    5    0    0  0.44611757893E+03 -0.13716009356E+03  0.26560885686E+03  0.53701196480E+03  0.00000000000E+00 0.  1.
          2    1    6    6  503    0 -0.19186136487E+03 -0.12168047142E+03 -0.22716842084E+03  0.32128244876E+03  0.00000000000E+00 0.  1.
         -2    1    6    6    0  503 -0.67716218963E+02 -0.55575257724E+02 -0.23595951295E+02  0.90724112006E+02  0.00000000000E+00 0. -1.
<mgrwt>
<rscale>  0 0.26539695E+04</rscale>
<asrwt>0</asrwt>
<pdfrwt beam="1">  1        1 0.51796426E+00 0.26539695E+04</pdfrwt>
<pdfrwt beam="2">  1       -4 0.80464694E-01 0.26539695E+04</pdfrwt>
<totfact> 0.18931424E-01</totfact>
</mgrwt>
</event>
<event>
12    4  0.4424320E-008  0.1944163E+04  0.7818608E-02  0.8633181E-01
          1   -1    0    0  501    0  0.00000000000E+00  0.00000000000E+00  0.51105688088E+03  0.51105688088E+03  0.00000000000E+00 0. -1.
         -2   -1    0    0    0  501 -0.00000000000E+00 -0.00000000000E+00 -0.18489959052E+04  0.18489959052E+04  0.00000000000E+00 0.  1.
        -24    2    1    2    0    0  0.31868662840E+02 -0.27566134436E+03  0.33212836523E+03  0.44034062183E+03  0.81153088670E+02 0.  0.
        254    2    1    2    0    0 -0.31868662840E+02  0.27566134436E+03 -0.16700673895E+04  0.19197121642E+04  0.90507730028E+03 0.  0.
         23    2    4    4    0    0 -0.15203129093E+03 -0.29308428188E+03 -0.45129355974E+03  0.56635026459E+03  0.89860088066E+02 0.  0.
         23    2    4    4    0    0  0.12016262809E+03  0.56874562624E+03 -0.12187738298E+04  0.13533618996E+04  0.90929305927E+02 0.  0.
          3    1    3    3  502    0  0.23653644181E+02 -0.17178984109E+03  0.26396228689E+03  0.31582801219E+03  0.00000000000E+00 0. -1.
         -4    1    3    3    0  502  0.82150186592E+01 -0.10387150327E+03  0.68166078332E+02  0.12451260963E+03  0.00000000000E+00 0.  1.
         11    1    5    5    0    0 -0.10522624810E+02 -0.32514194150E+02 -0.11740747707E+02  0.36135074524E+02  0.00000000000E+00 0.  1.
        -11    1    5    5    0    0 -0.14150866612E+03 -0.26057008773E+03 -0.43955281203E+03  0.53021519006E+03  0.00000000000E+00 0. -1.
          4    1    6    6  503    0  0.71513513773E+02  0.24396677112E+03 -0.43981652266E+03  0.50800840709E+03  0.00000000000E+00 0. -1.
         -4    1    6    6    0  503  0.48649114315E+02  0.32477885511E+03 -0.77895730710E+03  0.84535349253E+03  0.00000000000E+00 0.  1.
<mgrwt>
<rscale>  0 0.19441626E+04</rscale>
<asrwt>0</asrwt>
<pdfrwt beam="1">  1        1 0.78624135E-01 0.19441626E+04</pdfrwt>
<pdfrwt beam="2">  1       -2 0.28446091E+00 0.19441626E+04</pdfrwt>
<totfact> 0.13886112E+00</totfact>
</mgrwt>
</event>
<event>
12    4  0.4424320E-008  0.1842765E+04  0.7818608E-02  0.8683882E-01
          1   -1    0    0  501    0  0.00000000000E+00  0.00000000000E+00  0.62572091157E+03  0.62572091157E+03  0.00000000000E+00 0. -1.
         -2   -1    0    0    0  501 -0.00000000000E+00 -0.00000000000E+00 -0.13567483948E+04  0.13567483948E+04  0.00000000000E+00 0.  1.
        -24    2    1    2    0    0 -0.16954383754E+03 -0.21905191454E+03  0.39838567663E+03  0.49211218625E+03  0.82063404780E+02 0.  0.
        254    2    1    2    0    0  0.16954383754E+03  0.21905191454E+03 -0.11294131599E+04  0.14903571202E+04  0.93212735491E+03 0.  0.
         23    2    4    4    0    0  0.99208372896E+02  0.57524407123E+01 -0.12227745813E+04  0.12302638501E+04  0.92174141491E+02 0.  0.
         23    2    4    4    0    0  0.70335464641E+02  0.21329947383E+03  0.93361421419E+02  0.26009327005E+03  0.92132572914E+02 0.  0.
          3    1    3    3  502    0 -0.17017564544E+03 -0.17296936913E+03  0.34073547836E+03  0.41830469657E+03  0.00000000000E+00 0. -1.
         -4    1    3    3    0  502  0.63180790355E+00 -0.46082545415E+02  0.57650198266E+02  0.73807489683E+02  0.00000000000E+00 0.  1.
         11    1    5    5    0    0  0.69753627660E+02 -0.50198762138E+00 -0.11408535752E+04  0.11429841209E+04  0.00000000000E+00 0.  1.
        -11    1    5    5    0    0  0.29454745236E+02  0.62544283337E+01 -0.81921006161E+02  0.87279729269E+02  0.00000000000E+00 0. -1.
          2    1    6    6  503    0 -0.30475477250E+01 -0.77714215402E+01  0.92008954836E+01  0.12423325545E+02  0.00000000000E+00 0. -1.
         -2    1    6    6    0  503  0.73383012366E+02  0.22107089537E+03  0.84160525935E+02  0.24766994450E+03  0.00000000000E+00 0.  1.
<mgrwt>
<rscale>  0 0.18427651E+04</rscale>
<asrwt>0</asrwt>
<pdfrwt beam="1">  1        1 0.96264757E-01 0.18427651E+04</pdfrwt>
<pdfrwt beam="2">  1       -2 0.20873052E+00 0.18427651E+04</pdfrwt>
<totfact> 0.30922632E+00</totfact>
</mgrwt>
</event>
<event>
12    4  0.4424320E-008  0.1955869E+04  0.7818608E-02  0.8627536E-01
         -2   -1    0    0    0  501 -0.00000000000E+00  0.00000000000E+00  0.45831383406E+03  0.45831383406E+03  0.00000000000E+00 0.  1.
          1   -1    0    0  501    0  0.00000000000E+00 -0.00000000000E+00 -0.20866843168E+04  0.20866843168E+04  0.00000000000E+00 0. -1.
        -24    2    1    2    0    0  0.33237264788E+03 -0.59059636050E+03 -0.15397062671E+03  0.69953494538E+03  0.79790650038E+02 0.  0.
        254    2    1    2    0    0 -0.33237264788E+03  0.59059636050E+03 -0.14743998560E+04  0.18454632054E+04  0.87897887869E+03 0.  0.
         23    2    4    4    0    0 -0.45857810686E+03  0.61730702180E+03 -0.66450342494E+03  0.10205296275E+04  0.92488267781E+02 0.  0.
         23    2    4    4    0    0  0.12620545899E+03 -0.26710661299E+02 -0.80989643106E+03  0.82493357791E+03  0.89117347401E+02 0.  0.
          1    1    3    3  502    0  0.18903788013E+03 -0.29863871668E+03 -0.11646418798E+03  0.37213480125E+03  0.00000000000E+00 0. -1.
         -2    1    3    3    0  502  0.14333476775E+03 -0.29195764382E+03 -0.37506438733E+02  0.32740014413E+03  0.00000000000E+00 0.  1.
         11    1    5    5    0    0 -0.18463217964E+03  0.29325604176E+03 -0.34844131098E+03  0.49142598119E+03  0.00000000000E+00 0. -1.
        -11    1    5    5    0    0 -0.27394592722E+03  0.32405098003E+03 -0.31606211396E+03  0.52910364635E+03  0.00000000000E+00 0.  1.
          3    1    6    6  503    0  0.93189276907E+02 -0.25369305967E+02 -0.32847360434E+03  0.34237808307E+03  0.00000000000E+00 0. -1.
         -3    1    6    6    0  503  0.33016182078E+02 -0.13413553325E+01 -0.48142282672E+03  0.48255549484E+03  0.00000000000E+00 0.  1.
<mgrwt>
<rscale>  0 0.19558694E+04</rscale>
<asrwt>0</asrwt>
<pdfrwt beam="1">  1        1 0.32102836E+00 0.19558694E+04</pdfrwt>
<pdfrwt beam="2">  1       -2 0.70509820E-01 0.19558694E+04</pdfrwt>
<totfact> 0.38936741E+00</totfact>
</mgrwt>
</event>
<event>
12    4  0.4424320E-008  0.2008794E+04  0.7818608E-02  0.8602520E-01
         -2   -1    0    0    0  501 -0.00000000000E+00  0.00000000000E+00  0.96575254180E+03  0.96575254180E+03  0.00000000000E+00 0.  1.
          1   -1    0    0  501    0  0.00000000000E+00 -0.00000000000E+00 -0.10445876906E+04  0.10445876906E+04  0.00000000000E+00 0. -1.
        -24    2    1    2    0    0  0.29713831306E+03 -0.51419376709E+03  0.50527462180E+03  0.78376762232E+03  0.79390397124E+02 0.  0.
        254    2    1    2    0    0 -0.29713831306E+03  0.51419376709E+03 -0.58410977058E+03  0.12265726101E+04  0.90033867876E+03 0.  0.
         23    2    4    4    0    0 -0.14662322229E+03 -0.18614011257E+03 -0.41177809713E+03  0.48399580143E+03  0.92434970083E+02 0.  0.
         23    2    4    4    0    0 -0.15051509077E+03  0.70033387966E+03 -0.17233167345E+03  0.74257680864E+03  0.92734974527E+02 0.  0.
          1    1    3    3  502    0  0.84082192856E+02 -0.92348959619E+02  0.13024481088E+03  0.18044904062E+03  0.00000000000E+00 0. -1.
         -2    1    3    3    0  502  0.21305612020E+03 -0.42184480747E+03  0.37502981092E+03  0.60331858170E+03  0.00000000000E+00 0.  1.
         11    1    5    5    0    0  0.27326576260E+01 -0.49186371250E+02 -0.10959772712E+03  0.12016001133E+03  0.00000000000E+00 0.  1.
        -11    1    5    5    0    0 -0.14935587992E+03 -0.13695374132E+03 -0.30218037002E+03  0.36383579009E+03  0.00000000000E+00 0. -1.
          4    1    6    6  503    0 -0.56876080219E+02  0.40573649665E+03 -0.13414779202E+03  0.43110627844E+03  0.00000000000E+00 0. -1.
         -4    1    6    6    0  503 -0.93639010549E+02  0.29459738302E+03 -0.38183881427E+02  0.31147053019E+03  0.00000000000E+00 0.  1.
<mgrwt>
<rscale>  0 0.20087939E+04</rscale>
<asrwt>0</asrwt>
<pdfrwt beam="1">  1        1 0.16070580E+00 0.20087939E+04</pdfrwt>
<pdfrwt beam="2">  1       -2 0.14857731E+00 0.20087939E+04</pdfrwt>
<totfact> 0.34892096E+00</totfact>
</mgrwt>
</event>
<event>
12    4  0.4424320E-008  0.1541300E+04  0.7818608E-02  0.8857444E-01
          1   -1    0    0  501    0  0.00000000000E+00  0.00000000000E+00  0.71210391940E+03  0.71210391940E+03  0.00000000000E+00 0. -1.
         -2   -1    0    0    0  501 -0.00000000000E+00 -0.00000000000E+00 -0.83400900145E+03  0.83400900145E+03  0.00000000000E+00 0.  1.
        -24    2    1    2    0    0  0.22307753105E+03 -0.41976373883E+02  0.41248018232E+03  0.47747035457E+03  0.79450851890E+02 0.  0.
        254    2    1    2    0    0 -0.22307753105E+03  0.41976373883E+02 -0.53438526437E+03  0.10686425663E+04  0.89716426750E+03 0.  0.
         23    2    4    4    0    0 -0.29911728138E+03 -0.96608365280E+02 -0.73086955239E+03  0.80079859394E+03  0.91124975651E+02 0.  0.
         23    2    4    4    0    0  0.76039750328E+02  0.13858473916E+03  0.19648428802E+03  0.26784397234E+03  0.90258210256E+02 0.  0.
          1    1    3    3  502    0  0.18105179222E+03 -0.38869988646E+02  0.25952502212E+03  0.31881634931E+03  0.00000000000E+00 0. -1.
         -4    1    3    3    0  502  0.42025738833E+02 -0.31063852366E+01  0.15295516020E+03  0.15865400526E+03  0.00000000000E+00 0.  1.
         11    1    5    5    0    0 -0.62642284612E+02 -0.60702676655E+02 -0.17052119704E+03  0.19153680956E+03  0.00000000000E+00 0. -1.
        -11    1    5    5    0    0 -0.23647499677E+03 -0.35905688625E+02 -0.56034835535E+03  0.60926178438E+03  0.00000000000E+00 0.  1.
          2    1    6    6  503    0  0.20640861120E+01  0.69715968867E+02  0.36794671086E+02  0.78856988193E+02  0.00000000000E+00 0. -1.
         -2    1    6    6    0  503  0.73975664216E+02  0.68868770295E+02  0.15968961694E+03  0.18898698414E+03  0.00000000000E+00 0.  1.
<mgrwt>
<rscale>  0 0.15412996E+04</rscale>
<asrwt>0</asrwt>
<pdfrwt beam="1">  1        1 0.10955445E+00 0.15412996E+04</pdfrwt>
<pdfrwt beam="2">  1       -2 0.12830908E+00 0.15412996E+04</pdfrwt>
<totfact> 0.10055649E+01</totfact>
</mgrwt>
</event>
<event>
12    4  0.4424320E-008  0.1152817E+04  0.7818608E-02  0.9155189E-01
         -2   -1    0    0    0  501 -0.00000000000E+00  0.00000000000E+00  0.28266526963E+03  0.28266526963E+03  0.00000000000E+00 0.  1.
          1   -1    0    0  501    0  0.00000000000E+00 -0.00000000000E+00 -0.11754070341E+04  0.11754070341E+04  0.00000000000E+00 0. -1.
        -24    2    1    2    0    0 -0.10325245854E+03  0.77682293141E+02 -0.17068386408E+01  0.15210089424E+03  0.80225680843E+02 0.  0.
        254    2    1    2    0    0  0.10325245854E+03 -0.77682293141E+02 -0.89103492580E+03  0.13059714095E+04  0.94600342203E+03 0.  0.
         23    2    4    4    0    0  0.42779474391E+03  0.23194418985E+03 -0.42029838700E+03  0.64931324627E+03  0.90280161415E+02 0.  0.
         23    2    4    4    0    0 -0.32454228537E+03 -0.30962648299E+03 -0.47073653881E+03  0.65665816320E+03  0.91710415860E+02 0.  0.
          3    1    3    3  502    0 -0.22559997948E+02 -0.15611820446E+02  0.74008416762E+01  0.28415750959E+02  0.00000000000E+00 0. -1.
         -4    1    3    3    0  502 -0.80692460597E+02  0.93294113587E+02 -0.91076803170E+01  0.12368514328E+03  0.00000000000E+00 0.  1.
         11    1    5    5    0    0  0.36167872611E+03  0.20338709853E+03 -0.39524914841E+03  0.57306169135E+03  0.00000000000E+00 0. -1.
        -11    1    5    5    0    0  0.66116017799E+02  0.28557091317E+02 -0.25049238587E+02  0.76251554921E+02  0.00000000000E+00 0.  1.
          3    1    6    6  503    0 -0.32510738600E+03 -0.31066357956E+03 -0.45095531933E+03  0.63684171670E+03  0.00000000000E+00 0. -1.
         -3    1    6    6    0  503  0.56510063555E+00  0.10370965738E+01 -0.19781219477E+02  0.19816446503E+02  0.00000000000E+00 0.  1.
<mgrwt>
<rscale>  0 0.11528170E+04</rscale>
<asrwt>0</asrwt>
<pdfrwt beam="1">  1        1 0.18083185E+00 0.11528170E+04</pdfrwt>
<pdfrwt beam="2">  1       -2 0.43486965E-01 0.11528170E+04</pdfrwt>
<totfact> 0.48627601E+01</totfact>
</mgrwt>
</event>
<event>
12    4  0.4424320E-008  0.1623003E+04  0.7818608E-02  0.8806540E-01
          1   -1    0    0  501    0  0.00000000000E+00  0.00000000000E+00  0.76577225923E+03  0.76577225923E+03  0.00000000000E+00 0. -1.
         -2   -1    0    0    0  501 -0.00000000000E+00 -0.00000000000E+00 -0.85996114747E+03  0.85996114747E+03  0.00000000000E+00 0.  1.
        -24    2    1    2    0    0 -0.18757513336E+03  0.40888908436E+03  0.25723773484E+03  0.52442871486E+03  0.80495408441E+02 0.  0.
        254    2    1    2    0    0  0.18757513336E+03 -0.40888908436E+03 -0.35142662308E+03  0.11013046918E+04  0.94180498984E+03 0.  0.
         23    2    4    4    0    0 -0.86044143177E+02  0.80314906878E+02 -0.49391530616E+03  0.51551742830E+03  0.89172924006E+02 0.  0.
         23    2    4    4    0    0  0.27361927654E+03 -0.48920399124E+03  0.14248868309E+03  0.58578726354E+03  0.93035690882E+02 0.  0.
          3    1    3    3  502    0 -0.16556062582E+03  0.39756863342E+03  0.25249373451E+03  0.49922362231E+03  0.00000000000E+00 0. -1.
         -4    1    3    3    0  502 -0.22014507536E+02  0.11320450946E+02  0.47440003300E+01  0.25205092557E+02  0.00000000000E+00 0.  1.
         11    1    5    5    0    0  0.12842373938E+02  0.32572195377E+02 -0.80849689806E+02  0.88105316648E+02  0.00000000000E+00 0. -1.
        -11    1    5    5    0    0 -0.98886517115E+02  0.47742711501E+02 -0.41306561636E+03  0.42741211165E+03  0.00000000000E+00 0.  1.
          1    1    6    6  503    0  0.46215598375E+02 -0.94033505605E+02 -0.94617341822E+01  0.10520316594E+03  0.00000000000E+00 0. -1.
         -1    1    6    6    0  503  0.22740367816E+03 -0.39517048564E+03  0.15195041727E+03  0.48058409760E+03  0.00000000000E+00 0.  1.
<mgrwt>
<rscale>  0 0.16230026E+04</rscale>
<asrwt>0</asrwt>
<pdfrwt beam="1">  1        1 0.11781112E+00 0.16230026E+04</pdfrwt>
<pdfrwt beam="2">  1       -2 0.13230171E+00 0.16230026E+04</pdfrwt>
<totfact> 0.82569916E+00</totfact>
</mgrwt>
</event>
<event>
12    4  0.4424320E-008  0.1644410E+04  0.7818608E-02  0.8793720E-01
         -2   -1    0    0    0  501 -0.00000000000E+00  0.00000000000E+00  0.58357295331E+03  0.58357295331E+03  0.00000000000E+00 0.  1.
          1   -1    0    0  501    0  0.00000000000E+00 -0.00000000000E+00 -0.11584180130E+04  0.11584180130E+04  0.00000000000E+00 0. -1.
        -24    2    1    2    0    0 -0.29694824641E+03 -0.22752892846E+03 -0.66426310072E+03  0.76684819892E+03  0.82843339374E+02 0.  0.
        254    2    1    2    0    0  0.29694824641E+03  0.22752892846E+03  0.89418041029E+02  0.97514276740E+03  0.89608044082E+03 0.  0.
         23    2    4    4    0    0  0.37242600143E+03 -0.22039387172E+03  0.22009000855E+03  0.49383049199E+03  0.90301482409E+02 0.  0.
         23    2    4    4    0    0 -0.75477755021E+02  0.44792280019E+03 -0.13067196752E+03  0.48131227541E+03  0.90854922446E+02 0.  0.
          3    1    3    3  502    0 -0.10396310882E+03 -0.56340139087E+02 -0.28085522459E+03  0.30473299206E+03  0.00000000000E+00 0. -1.
         -4    1    3    3    0  502 -0.19298513758E+03 -0.17118878938E+03 -0.38340787613E+03  0.46211520686E+03  0.00000000000E+00 0.  1.
         11    1    5    5    0    0  0.32066751873E+03 -0.20622164338E+03  0.21998110060E+03  0.44016668250E+03  0.00000000000E+00 0. -1.
        -11    1    5    5    0    0  0.51758482701E+02 -0.14172228339E+02  0.10890794753E+00  0.53663809486E+02  0.00000000000E+00 0.  1.
          1    1    6    6  503    0 -0.65655056162E+02  0.39429140452E+03 -0.14454346839E+03  0.42505189369E+03  0.00000000000E+00 0. -1.
         -1    1    6    6    0  503 -0.98226988584E+01  0.53631395668E+02  0.13871500874E+02  0.56260381714E+02  0.00000000000E+00 0.  1.
<mgrwt>
<rscale>  0 0.16444104E+04</rscale>
<asrwt>0</asrwt>
<pdfrwt beam="1">  1        1 0.17821816E+00 0.16444104E+04</pdfrwt>
<pdfrwt beam="2">  1       -2 0.89780454E-01 0.16444104E+04</pdfrwt>
<totfact> 0.10217671E+01</totfact>
</mgrwt>
</event>
<event>
12    4  0.4424320E-008  0.1082526E+04  0.7818608E-02  0.9222393E-01
         -2   -1    0    0    0  501 -0.00000000000E+00  0.00000000000E+00  0.51674104246E+03  0.51674104246E+03  0.00000000000E+00 0.  1.
          1   -1    0    0  501    0  0.00000000000E+00 -0.00000000000E+00 -0.56694839488E+03  0.56694839488E+03  0.00000000000E+00 0. -1.
        -24    2    1    2    0    0  0.80219558344E+02  0.82568972646E+02 -0.10430858972E+03  0.17457421025E+03  0.79643331236E+02 0.  0.
        254    2    1    2    0    0 -0.80219558344E+02 -0.82568972646E+02  0.54101237302E+02  0.90911522709E+03  0.90017261648E+03 0.  0.
         23    2    4    4    0    0  0.79742185089E+02 -0.45973549302E+03 -0.46475321131E+02  0.47751738878E+03  0.90262735887E+02 0.  0.
         23    2    4    4    0    0 -0.15996174343E+03  0.37716652037E+03  0.10057655843E+03  0.43159783830E+03  0.91206943092E+02 0.  0.
          1    1    3    3  502    0  0.46437152026E+02  0.86935954038E+02 -0.99711032577E+02  0.14020185167E+03  0.00000000000E+00 0. -1.
         -2    1    3    3    0  502  0.33782406317E+02 -0.43669813915E+01 -0.45975571446E+01  0.34372358586E+02  0.00000000000E+00 0.  1.
         11    1    5    5    0    0  0.98496482536E+02 -0.35219644136E+03 -0.43787295164E+02  0.36832216550E+03  0.00000000000E+00 0. -1.
        -11    1    5    5    0    0 -0.18754297447E+02 -0.10753905166E+03 -0.26880259665E+01  0.10919522328E+03  0.00000000000E+00 0.  1.
          1    1    6    6  503    0 -0.13503695420E+03  0.23098567103E+03  0.36440413545E+02  0.27003196656E+03  0.00000000000E+00 0. -1.
         -1    1    6    6    0  503 -0.24924789231E+02  0.14618084934E+03  0.64136144887E+02  0.16156587175E+03  0.00000000000E+00 0.  1.
<mgrwt>
<rscale>  0 0.10825258E+04</rscale>
<asrwt>0</asrwt>
<pdfrwt beam="1">  1        1 0.87222829E-01 0.10825258E+04</pdfrwt>
<pdfrwt beam="2">  1       -2 0.79498622E-01 0.10825258E+04</pdfrwt>
<totfact> 0.45491439E+01</totfact>
</mgrwt>
</event>
<event>
12    4  0.4424320E-008  0.1414477E+04  0.7818608E-02  0.8943406E-01
          1   -1    0    0  501    0  0.00000000000E+00  0.00000000000E+00  0.11031212095E+04  0.11031212095E+04  0.00000000000E+00 0. -1.
         -2   -1    0    0    0  501 -0.00000000000E+00 -0.00000000000E+00 -0.45342816959E+03  0.45342816959E+03  0.00000000000E+00 0.  1.
        -24    2    1    2    0    0 -0.25511924380E+03  0.75985781770E+02  0.50130351498E+03  0.57290497100E+03  0.77815320267E+02 0.  0.
        254    2    1    2    0    0  0.25511924380E+03 -0.75985781770E+02  0.14838952491E+03  0.98364440808E+03  0.93524178845E+03 0.  0.
         23    2    4    4    0    0  0.43581113644E+03 -0.37732937016E+03 -0.20706716829E+02  0.58386938978E+03  0.90365347186E+02 0.  0.
         23    2    4    4    0    0 -0.18069189264E+03  0.30134358839E+03  0.16909624174E+03  0.39977501830E+03  0.88141976125E+02 0.  0.
          1    1    3    3  502    0 -0.49043319472E+02  0.28387312922E+02  0.17593773001E+03  0.18483823079E+03  0.00000000000E+00 0. -1.
         -2    1    3    3    0  502 -0.20607592433E+03  0.47598468849E+02  0.32536578498E+03  0.38806674021E+03  0.00000000000E+00 0.  1.
         11    1    5    5    0    0  0.21817553902E+03 -0.15231919242E+03 -0.45092792513E+02  0.26987971791E+03  0.00000000000E+00 0.  1.
        -11    1    5    5    0    0  0.21763559743E+03 -0.22501017774E+03  0.24386075683E+02  0.31398967187E+03  0.00000000000E+00 0. -1.
          1    1    6    6  503    0 -0.13430945820E+03  0.21844443407E+03  0.77677486106E+02  0.26793803982E+03  0.00000000000E+00 0. -1.
         -1    1    6    6    0  503 -0.46382434448E+02  0.82899154321E+02  0.91418755631E+02  0.13183697848E+03  0.00000000000E+00 0.  1.
<mgrwt>
<rscale>  0 0.14144769E+04</rscale>
<asrwt>0</asrwt>
<pdfrwt beam="1">  1        1 0.16971095E+00 0.14144769E+04</pdfrwt>
<pdfrwt beam="2">  1       -2 0.69758180E-01 0.14144769E+04</pdfrwt>
<totfact> 0.20172690E+01</totfact>
</mgrwt>
</event>
<event>
12    4  0.4424320E-008  0.2021098E+04  0.7818608E-02  0.8596820E-01
          1   -1    0    0  501    0  0.00000000000E+00  0.00000000000E+00  0.18563690303E+04  0.18563690303E+04  0.00000000000E+00 0. -1.
         -4   -1    0    0    0  501 -0.00000000000E+00 -0.00000000000E+00 -0.55011103419E+03  0.55011103419E+03  0.00000000000E+00 0.  1.
        -24    2    1    2    0    0  0.24471120367E+03  0.58005410632E+03  0.11303547479E+04  0.12962123050E+04  0.78218565952E+02 0.  0.
        254    2    1    2    0    0 -0.24471120367E+03 -0.58005410632E+03  0.17590324827E+03  0.11102677595E+04  0.89744426326E+03 0.  0.
         23    2    4    4    0    0  0.10287352821E+03  0.40619436873E+02  0.34466354340E+03  0.37342498675E+03  0.91762525667E+02 0.  0.
         23    2    4    4    0    0 -0.34758473188E+03 -0.62067354319E+03 -0.16876029514E+03  0.73684277279E+03  0.91686648690E+02 0.  0.
          3    1    3    3  502    0  0.20572728239E+03  0.52017541932E+03  0.95353878692E+03  0.11055054951E+04  0.00000000000E+00 0. -1.
         -2    1    3    3    0  502  0.38983921285E+02  0.59878687001E+02  0.17681596095E+03  0.19070680985E+03  0.00000000000E+00 0.  1.
         11    1    5    5    0    0  0.49428558163E+02  0.28479651921E+02  0.29164140820E+03  0.29716827541E+03  0.00000000000E+00 0.  1.
        -11    1    5    5    0    0  0.53444970046E+02  0.12139784952E+02  0.53022135209E+02  0.76256711338E+02  0.00000000000E+00 0. -1.
          4    1    6    6  503    0 -0.57442001459E+02 -0.90306966478E+02  0.70364811691E+01  0.10725877024E+03  0.00000000000E+00 0. -1.
         -4    1    6    6    0  503 -0.29014273042E+03 -0.53036657671E+03 -0.17579677631E+03  0.62958400255E+03  0.00000000000E+00 0.  1.
<mgrwt>
<rscale>  0 0.20210978E+04</rscale>
<asrwt>0</asrwt>
<pdfrwt beam="1">  1        1 0.28559523E+00 0.20210978E+04</pdfrwt>
<pdfrwt beam="2">  1       -4 0.84632468E-01 0.20210978E+04</pdfrwt>
<totfact> 0.20721620E+00</totfact>
</mgrwt>
</event>
<event>
12    4  0.4424320E-008  0.1652155E+04  0.7818608E-02  0.8789133E-01
         -2   -1    0    0    0  501 -0.00000000000E+00  0.00000000000E+00  0.42878754917E+03  0.42878754917E+03  0.00000000000E+00 0.  1.
          1   -1    0    0  501    0  0.00000000000E+00 -0.00000000000E+00 -0.15914731931E+04  0.15914731931E+04  0.00000000000E+00 0. -1.
        -24    2    1    2    0    0 -0.27747516872E+03  0.24584894266E+03 -0.92230741779E+03  0.99724689900E+03  0.80101390744E+02 0.  0.
        254    2    1    2    0    0  0.27747516872E+03 -0.24584894266E+03 -0.24037822613E+03  0.10230138433E+04  0.92268166776E+03 0.  0.
         23    2    4    4    0    0  0.21929981219E+03 -0.58475052210E+03 -0.92385578664E+02  0.63718795392E+03  0.86300711220E+02 0.  0.
         23    2    4    4    0    0  0.58175356529E+02  0.33890157943E+03 -0.14799264747E+03  0.38582588933E+03  0.93387046872E+02 0.  0.
          3    1    3    3  502    0 -0.27142354633E+03  0.25085804804E+03 -0.91355353310E+03  0.98548493627E+03  0.00000000000E+00 0. -1.
         -4    1    3    3    0  502 -0.60516223918E+01 -0.50091053796E+01 -0.87538846891E+01  0.11761962737E+02  0.00000000000E+00 0.  1.
         11    1    5    5    0    0  0.22466801083E+03 -0.56996739272E+03 -0.81466455481E+02  0.61804152548E+03  0.00000000000E+00 0.  1.
        -11    1    5    5    0    0 -0.53681986386E+01 -0.14783129380E+02 -0.10919123184E+02  0.19146428439E+02  0.00000000000E+00 0. -1.
          3    1    6    6  503    0 -0.19735775275E+02  0.47555443838E+02 -0.41026242224E+02  0.65834440951E+02  0.00000000000E+00 0. -1.
         -3    1    6    6    0  503  0.77911131804E+02  0.29134613560E+03 -0.10696640524E+03  0.31999144838E+03  0.00000000000E+00 0.  1.
<mgrwt>
<rscale>  0 0.16521548E+04</rscale>
<asrwt>0</asrwt>
<pdfrwt beam="1">  1        1 0.24484204E+00 0.16521548E+04</pdfrwt>
<pdfrwt beam="2">  1       -2 0.65967314E-01 0.16521548E+04</pdfrwt>
<totfact> 0.10028773E+01</totfact>
</mgrwt>
</event>
<event>
12    4  0.4424320E-008  0.2213217E+04  0.7818608E-02  0.8512947E-01
         -2   -1    0    0    0  501 -0.00000000000E+00  0.00000000000E+00  0.83122777478E+03  0.83122777478E+03  0.00000000000E+00 0.  1.
          1   -1    0    0  501    0  0.00000000000E+00 -0.00000000000E+00 -0.14732209427E+04  0.14732209427E+04  0.00000000000E+00 0. -1.
        -24    2    1    2    0    0 -0.57232212766E+03  0.56078531273E+03 -0.66654729038E+03  0.10451798137E+04  0.77992100751E+02 0.  0.
        254    2    1    2    0    0  0.57232212766E+03 -0.56078531273E+03  0.24554122475E+02  0.12592689038E+04  0.97114493378E+03 0.  0.
         23    2    4    4    0    0  0.72347605121E+03 -0.43045810234E+03  0.30924835578E+03  0.90146558926E+03  0.91070788544E+02 0.  0.
         23    2    4    4    0    0 -0.15115392355E+03 -0.13032721039E+03 -0.28469423330E+03  0.35780331455E+03  0.84496834612E+02 0.  0.
          1    1    3    3  502    0 -0.47597928216E+03  0.48704518231E+03 -0.59507043595E+03  0.90436613736E+03  0.00000000000E+00 0. -1.
         -2    1    3    3    0  502 -0.96342845499E+02  0.73740130415E+02 -0.71476854421E+02  0.14081367629E+03  0.00000000000E+00 0.  1.
         11    1    5    5    0    0  0.65411457504E+03 -0.41444200991E+03  0.26937442547E+03  0.81987233028E+03  0.00000000000E+00 0. -1.
        -11    1    5    5    0    0  0.69361476162E+02 -0.16016092425E+02  0.39873930306E+02  0.81593258974E+02  0.00000000000E+00 0.  1.
          1    1    6    6  503    0 -0.10633695849E+03 -0.13099539325E+03 -0.24760560716E+03  0.29962623131E+03  0.00000000000E+00 0. -1.
         -1    1    6    6    0  503 -0.44816965060E+02  0.66818286272E+00 -0.37088626144E+02  0.58177083245E+02  0.00000000000E+00 0.  1.
<mgrwt>
<rscale>  0 0.22132168E+04</rscale>
<asrwt>0</asrwt>
<pdfrwt beam="1">  1        1 0.22664937E+00 0.22132168E+04</pdfrwt>
<pdfrwt beam="2">  1       -2 0.12788120E+00 0.22132168E+04</pdfrwt>
<totfact> 0.24714220E+00</totfact>
</mgrwt>
</event>
<event>
12    4  0.4424320E-008  0.2063588E+04  0.7818608E-02  0.8577455E-01
          1   -1    0    0  501    0  0.00000000000E+00  0.00000000000E+00  0.82786795860E+03  0.82786795860E+03  0.00000000000E+00 0. -1.
         -2   -1    0    0    0  501 -0.00000000000E+00 -0.00000000000E+00 -0.12859520334E+04  0.12859520334E+04  0.00000000000E+00 0.  1.
        -24    2    1    2    0    0 -0.52670423256E+03  0.18638554017E+03 -0.81964555847E+03  0.99528330014E+03  0.81320894285E+02 0.  0.
        254    2    1    2    0    0  0.52670423256E+03 -0.18638554017E+03  0.36156148372E+03  0.11185366918E+04  0.89902208329E+03 0.  0.
         23    2    4    4    0    0  0.49247262677E+03 -0.30678087388E+03 -0.13149733516E+03  0.60164203189E+03  0.89653737729E+02 0.  0.
         23    2    4    4    0    0  0.34231605792E+02  0.12039533372E+03  0.49305881887E+03  0.51689465992E+03  0.91685611553E+02 0.  0.
          1    1    3    3  502    0 -0.38174022219E+03  0.14698183377E+03 -0.53539616267E+03  0.67377912382E+03  0.00000000000E+00 0. -1.
         -2    1    3    3    0  502 -0.14496401037E+03  0.39403706401E+02 -0.28424939580E+03  0.32150417632E+03  0.00000000000E+00 0.  1.
         11    1    5    5    0    0  0.11838188120E+03 -0.68623271640E+02  0.71112981554E+01  0.13701822422E+03  0.00000000000E+00 0. -1.
        -11    1    5    5    0    0  0.37409074557E+03 -0.23815760224E+03 -0.13860863331E+03  0.46462380767E+03  0.00000000000E+00 0.  1.
          3    1    6    6  503    0  0.10201927987E+02  0.93873498194E+02  0.19461871454E+03  0.21631633560E+03  0.00000000000E+00 0. -1.
         -3    1    6    6    0  503  0.24029677805E+02  0.26521835523E+02  0.29844010434E+03  0.30057832432E+03  0.00000000000E+00 0.  1.
<mgrwt>
<rscale>  0 0.20635876E+04</rscale>
<asrwt>0</asrwt>
<pdfrwt beam="1">  1        1 0.12736430E+00 0.20635876E+04</pdfrwt>
<pdfrwt beam="2">  1       -2 0.19783877E+00 0.20635876E+04</pdfrwt>
<totfact> 0.23229472E+00</totfact>
</mgrwt>
</event>
<event>
12    4  0.4424320E-008  0.1694845E+04  0.7818608E-02  0.8764310E-01
         -2   -1    0    0    0  501 -0.00000000000E+00  0.00000000000E+00  0.19879066602E+04  0.19879066602E+04  0.00000000000E+00 0.  1.
          1   -1    0    0  501    0  0.00000000000E+00 -0.00000000000E+00 -0.36124689952E+03  0.36124689952E+03  0.00000000000E+00 0. -1.
        -24    2    1    2    0    0  0.26886347466E+02 -0.66804852674E+02 -0.24626941975E+03  0.26865840117E+03  0.79642610413E+02 0.  0.
        254    2    1    2    0    0 -0.26886347466E+02  0.66804852674E+02  0.18729291804E+04  0.20804951585E+04  0.90300090021E+03 0.  0.
         23    2    4    4    0    0 -0.48701446073E+02 -0.25133194798E+03  0.16695651997E+04  0.16915113559E+04  0.90681486905E+02 0.  0.
         23    2    4    4    0    0  0.21815098607E+02  0.31813680066E+03  0.20336398068E+03  0.38898380262E+03  0.90909667291E+02 0.  0.
          1    1    3    3  502    0 -0.11042405061E+02 -0.47470294956E+02 -0.19970394552E+03  0.20556514653E+03  0.00000000000E+00 0. -1.
         -4    1    3    3    0  502  0.37928752526E+02 -0.19334557718E+02 -0.46565474235E+02  0.63093254640E+02  0.00000000000E+00 0.  1.
         11    1    5    5    0    0 -0.16703661836E+02 -0.16641226887E+02  0.57634787284E+02  0.62271273122E+02  0.00000000000E+00 0. -1.
        -11    1    5    5    0    0 -0.31997784237E+02 -0.23469072109E+03  0.16119304124E+04  0.16292400828E+04  0.00000000000E+00 0.  1.
          2    1    6    6  503    0  0.30968395943E+02  0.20714533929E+03  0.17775507518E+03  0.27470911868E+03  0.00000000000E+00 0.  1.
         -2    1    6    6    0  503 -0.91532973357E+01  0.11099146137E+03  0.25608905502E+02  0.11427468394E+03  0.00000000000E+00 0. -1.
<mgrwt>
<rscale>  0 0.16948453E+04</rscale>
<asrwt>0</asrwt>
<pdfrwt beam="1">  1        1 0.55576447E-01 0.16948453E+04</pdfrwt>
<pdfrwt beam="2">  1       -2 0.30583179E+00 0.16948453E+04</pdfrwt>
<totfact> 0.16776407E+00</totfact>
</mgrwt>
</event>
<event>
12    4  0.4424320E-008  0.1629778E+04  0.7818608E-02  0.8802460E-01
         -2   -1    0    0    0  501 -0.00000000000E+00  0.00000000000E+00  0.42044646777E+03  0.42044646777E+03  0.00000000000E+00 0.  1.
          1   -1    0    0  501    0  0.00000000000E+00 -0.00000000000E+00 -0.15793790927E+04  0.15793790927E+04  0.00000000000E+00 0. -1.
        -24    2    1    2    0    0  0.19403895644E+03 -0.37459834718E+03 -0.88929182081E+03  0.98766241110E+03  0.81621427392E+02 0.  0.
        254    2    1    2    0    0 -0.19403895644E+03  0.37459834718E+03 -0.26964080411E+03  0.10121631494E+04  0.87965506840E+03 0.  0.
         23    2    4    4    0    0 -0.12152498396E+03  0.62833849887E+03 -0.33953751678E+02  0.64675983508E+03  0.86993310839E+02 0.  0.
         23    2    4    4    0    0 -0.72513972483E+02 -0.25374015170E+03 -0.23568705243E+03  0.36540331428E+03  0.91262558659E+02 0.  0.
          1    1    3    3  502    0  0.17280303728E+03 -0.34707564100E+03 -0.85514876326E+03  0.93893652479E+03  0.00000000000E+00 0. -1.
         -2    1    3    3    0  502  0.21235919165E+02 -0.27522706177E+02 -0.34143057547E+02  0.48725886310E+02  0.00000000000E+00 0.  1.
         11    1    5    5    0    0 -0.83933832826E+02  0.48202058215E+03 -0.61747934590E+02  0.49315467891E+03  0.00000000000E+00 0.  1.
        -11    1    5    5    0    0 -0.37591151134E+02  0.14631791673E+03  0.27794182912E+02  0.15360515617E+03  0.00000000000E+00 0. -1.
          4    1    6    6  503    0 -0.19565719289E+02 -0.36728457509E+02 -0.88773900746E+02  0.98043880054E+02  0.00000000000E+00 0. -1.
         -4    1    6    6    0  503 -0.52948253194E+02 -0.21701169419E+03 -0.14691315169E+03  0.26735943422E+03  0.00000000000E+00 0.  1.
<mgrwt>
<rscale>  0 0.16297783E+04</rscale>
<asrwt>0</asrwt>
<pdfrwt beam="1">  1        1 0.24298140E+00 0.16297783E+04</pdfrwt>
<pdfrwt beam="2">  1       -2 0.64684071E-01 0.16297783E+04</pdfrwt>
<totfact> 0.10684320E+01</totfact>
</mgrwt>
</event>
<event>
12    4  0.4424320E-008  0.1955397E+04  0.7818608E-02  0.8627763E-01
          1   -1    0    0  501    0  0.00000000000E+00  0.00000000000E+00  0.14190345010E+04  0.14190345010E+04  0.00000000000E+00 0. -1.
         -2   -1    0    0    0  501 -0.00000000000E+00 -0.00000000000E+00 -0.67362327087E+03  0.67362327087E+03  0.00000000000E+00 0.  1.
        -24    2    1    2    0    0 -0.66073180921E+02 -0.73632314379E+03  0.63722514569E+02  0.74626323021E+03  0.79440623045E+02 0.  0.
        254    2    1    2    0    0  0.66073180921E+02  0.73632314379E+03  0.68168871554E+03  0.13463945416E+04  0.89528840020E+03 0.  0.
         23    2    4    4    0    0 -0.42781817987E+02  0.31786935366E+03  0.81852161151E+03  0.88390301710E+03  0.91846095179E+02 0.  0.
         23    2    4    4    0    0  0.10885499891E+03  0.41845379013E+03 -0.13683289596E+03  0.46249152453E+03  0.90676256991E+02 0.  0.
          3    1    3    3  502    0 -0.34058610318E+02 -0.17286350083E+03  0.43769873763E+02  0.18154222843E+03  0.00000000000E+00 0. -1.
         -2    1    3    3    0  502 -0.32014570602E+02 -0.56345964296E+03  0.19952640806E+02  0.56472100178E+03  0.00000000000E+00 0.  1.
         11    1    5    5    0    0 -0.68868513941E+02  0.19577005052E+03  0.54720863699E+03  0.58524018769E+03  0.00000000000E+00 0.  1.
        -11    1    5    5    0    0  0.26086695954E+02  0.12209930313E+03  0.27131297452E+03  0.29866282941E+03  0.00000000000E+00 0. -1.
          3    1    6    6  503    0 -0.71482161052E+01  0.10139838943E+03 -0.11208646507E+02  0.10226614361E+03  0.00000000000E+00 0. -1.
         -3    1    6    6    0  503  0.11600321501E+03  0.31705540070E+03 -0.12562424946E+03  0.36022538092E+03  0.00000000000E+00 0.  1.
<mgrwt>
<rscale>  0 0.19553973E+04</rscale>
<asrwt>0</asrwt>
<pdfrwt beam="1">  1        1 0.21831300E+00 0.19553973E+04</pdfrwt>
<pdfrwt beam="2">  1       -2 0.10363435E+00 0.19553973E+04</pdfrwt>
<totfact> 0.46182280E+00</totfact>
</mgrwt>
</event>
<event>
12    4  0.4424320E-008  0.2128660E+04  0.7818608E-02  0.8548722E-01
         -2   -1    0    0    0  501 -0.00000000000E+00  0.00000000000E+00  0.52306893652E+03  0.52306893652E+03  0.00000000000E+00 0.  1.
          1   -1    0    0  501    0  0.00000000000E+00 -0.00000000000E+00 -0.21656768957E+04  0.21656768957E+04  0.00000000000E+00 0. -1.
        -24    2    1    2    0    0  0.40420947960E+03  0.77223951122E+03 -0.69028246167E+03  0.11151605560E+04  0.85755597961E+02 0.  0.
        254    2    1    2    0    0 -0.40420947960E+03 -0.77223951122E+03 -0.95232549749E+03  0.15735852763E+04  0.89972640419E+03 0.  0.
         23    2    4    4    0    0 -0.34817603052E+02 -0.15863888226E+03 -0.81827998974E+03  0.83921726033E+03  0.91240933702E+02 0.  0.
         23    2    4    4    0    0 -0.36939187655E+03 -0.61360062896E+03 -0.13404550775E+03  0.73436801593E+03  0.91499149424E+02 0.  0.
          3    1    3    3  502    0  0.27300382867E+03  0.55536921379E+03 -0.53396123002E+03  0.81736200625E+03  0.00000000000E+00 0. -1.
         -4    1    3    3    0  502  0.13120565093E+03  0.21687029743E+03 -0.15632123165E+03  0.29779854970E+03  0.00000000000E+00 0.  1.
         11    1    5    5    0    0  0.20623629820E+02 -0.14092673954E+02 -0.55160977286E+02  0.60553042708E+02  0.00000000000E+00 0. -1.
        -11    1    5    5    0    0 -0.55441232872E+02 -0.14454620830E+03 -0.76311901245E+03  0.77866421762E+03  0.00000000000E+00 0.  1.
          1    1    6    6  503    0 -0.24228572300E+03 -0.32007655132E+03 -0.58175217555E+02  0.40563003613E+03  0.00000000000E+00 0. -1.
         -1    1    6    6    0  503 -0.12710615355E+03 -0.29352407765E+03 -0.75870290198E+02  0.32873797980E+03  0.00000000000E+00 0.  1.
<mgrwt>
<rscale>  0 0.21286600E+04</rscale>
<asrwt>0</asrwt>
<pdfrwt beam="1">  1        1 0.33318107E+00 0.21286600E+04</pdfrwt>
<pdfrwt beam="2">  1       -2 0.80472142E-01 0.21286600E+04</pdfrwt>
<totfact> 0.25274573E+00</totfact>
</mgrwt>
</event>
<event>
12    4  0.4424320E-008  0.1293293E+04  0.7818608E-02  0.9034901E-01
          1   -1    0    0  501    0  0.00000000000E+00  0.00000000000E+00  0.20745568602E+03  0.20745568602E+03  0.00000000000E+00 0. -1.
         -2   -1    0    0    0  501 -0.00000000000E+00 -0.00000000000E+00 -0.20156183374E+04  0.20156183374E+04  0.00000000000E+00 0.  1.
        -24    2    1    2    0    0  0.28533157812E+03 -0.96034221527E+02 -0.28442191512E+03  0.42166916906E+03  0.79198365873E+02 0.  0.
        254    2    1    2    0    0 -0.28533157812E+03  0.96034221527E+02 -0.15237407363E+04  0.18014048544E+04  0.91248941738E+03 0.  0.
         23    2    4    4    0    0 -0.48154924559E+03  0.28562158640E+03 -0.13525433510E+04  0.14664033241E+04  0.86578438656E+02 0.  0.
         23    2    4    4    0    0  0.19621766747E+03 -0.18958736488E+03 -0.17119738532E+03  0.33500153032E+03  0.92047480315E+02 0.  0.
          3    1    3    3  502    0  0.24104677928E+03 -0.94457740147E+02 -0.27229596068E+03  0.37572716787E+03  0.00000000000E+00 0. -1.
         -4    1    3    3    0  502  0.44284798844E+02 -0.15764813806E+01 -0.12125954442E+02  0.45942001190E+02  0.00000000000E+00 0.  1.
         11    1    5    5    0    0 -0.52491708812E+02  0.28177984415E+01 -0.13348961329E+03  0.14346705663E+03  0.00000000000E+00 0. -1.
        -11    1    5    5    0    0 -0.42905753678E+03  0.28280378796E+03 -0.12190537377E+04  0.13229362675E+04  0.00000000000E+00 0.  1.
          2    1    6    6  503    0  0.58305918811E+02 -0.92514676153E+02 -0.11129521432E+03  0.15602938891E+03  0.00000000000E+00 0. -1.
         -2    1    6    6    0  503  0.13791174865E+03 -0.97072688725E+02 -0.59902171000E+02  0.17897214142E+03  0.00000000000E+00 0.  1.
<mgrwt>
<rscale>  0 0.12932927E+04</rscale>
<asrwt>0</asrwt>
<pdfrwt beam="1">  1        1 0.31916257E-01 0.12932927E+04</pdfrwt>
<pdfrwt beam="2">  1       -2 0.31009516E+00 0.12932927E+04</pdfrwt>
<totfact> 0.33751969E+00</totfact>
</mgrwt>
</event>
<event>
12    4  0.4424320E-008  0.2043750E+04  0.7818608E-02  0.8586435E-01
         -2   -1    0    0    0  501 -0.00000000000E+00  0.00000000000E+00  0.14051871247E+04  0.14051871247E+04  0.00000000000E+00 0.  1.
          1   -1    0    0  501    0  0.00000000000E+00 -0.00000000000E+00 -0.74312417596E+03  0.74312417596E+03  0.00000000000E+00 0. -1.
        -24    2    1    2    0    0 -0.58946858491E+03 -0.10172434005E+03  0.86163967485E+03  0.10520630330E+04  0.81195086848E+02 0.  0.
        254    2    1    2    0    0  0.58946858491E+03  0.10172434005E+03 -0.19957672614E+03  0.10962482676E+04  0.89672088230E+03 0.  0.
         23    2    4    4    0    0 -0.17615348334E+03  0.73753874309E+02 -0.24592661807E+03  0.32340990365E+03  0.87432148751E+02 0.  0.
         23    2    4    4    0    0  0.76562206825E+03  0.27970465739E+02  0.46349891923E+02  0.77283836400E+03  0.90395387339E+02 0.  0.
          3    1    3    3  502    0 -0.90211608128E+02 -0.41759644183E+02  0.11681086677E+03  0.15338442137E+03  0.00000000000E+00 0. -1.
         -4    1    3    3    0  502 -0.49925697678E+03 -0.59964695866E+02  0.74482880808E+03  0.89867861161E+03  0.00000000000E+00 0.  1.
         11    1    5    5    0    0 -0.43793198562E+02 -0.19376010353E+02 -0.63660151420E+02  0.79661087717E+02  0.00000000000E+00 0. -1.
        -11    1    5    5    0    0 -0.13236028478E+03  0.93129884662E+02 -0.18226646665E+03  0.24374881593E+03  0.00000000000E+00 0.  1.
          4    1    6    6  503    0  0.32477532304E+03  0.46411061510E+02 -0.86682168646E+01  0.32818917574E+03  0.00000000000E+00 0. -1.
         -4    1    6    6    0  503  0.44084674520E+03 -0.18440595771E+02  0.55018108787E+02  0.44464918826E+03  0.00000000000E+00 0.  1.
<mgrwt>
<rscale>  0 0.20437500E+04</rscale>
<asrwt>0</asrwt>
<pdfrwt beam="1">  1        1 0.11432680E+00 0.20437500E+04</pdfrwt>
<pdfrwt beam="2">  1       -2 0.21618263E+00 0.20437500E+04</pdfrwt>
<totfact> 0.21016517E+00</totfact>
</mgrwt>
</event>
<event>
12    4  0.4424320E-008  0.1941665E+04  0.7818608E-02  0.8634390E-01
         -2   -1    0    0    0  501 -0.00000000000E+00  0.00000000000E+00  0.20907784811E+04  0.20907784811E+04  0.00000000000E+00 0.  1.
          1   -1    0    0  501    0  0.00000000000E+00 -0.00000000000E+00 -0.45079672115E+03  0.45079672115E+03  0.00000000000E+00 0. -1.
        -24    2    1    2    0    0 -0.19600603361E+03  0.60747962045E+03  0.11212778283E+04  0.12926322787E+04  0.78640861630E+02 0.  0.
        254    2    1    2    0    0  0.19600603361E+03 -0.60747962045E+03  0.51870393162E+03  0.12489429235E+04  0.93986956708E+03 0.  0.
         23    2    4    4    0    0  0.17516339133E+03 -0.68847916268E+01 -0.21654082618E+03  0.29494456077E+03  0.96812966618E+02 0.  0.
         23    2    4    4    0    0  0.20842642279E+02 -0.60059482882E+03  0.73524475780E+03  0.95399836278E+03  0.91539380440E+02 0.  0.
          1    1    3    3  502    0 -0.66257026788E+02  0.18564267438E+03  0.27720692125E+03  0.34014243096E+03  0.00000000000E+00 0. -1.
         -4    1    3    3    0  502 -0.12974900682E+03  0.42183694607E+03  0.84407090705E+03  0.95248984770E+03  0.00000000000E+00 0.  1.
         11    1    5    5    0    0  0.16212637558E+03 -0.14459371451E+02 -0.13340949745E+03  0.21045695306E+03  0.00000000000E+00 0. -1.
        -11    1    5    5    0    0  0.13037015748E+02  0.75745798237E+01 -0.83131328735E+02  0.84487607709E+02  0.00000000000E+00 0.  1.
          1    1    6    6  503    0 -0.11199334200E+02 -0.48790400338E+03  0.55534652685E+03  0.73931421364E+03  0.00000000000E+00 0. -1.
         -1    1    6    6    0  503  0.32041976479E+02 -0.11269082545E+03  0.17989823094E+03  0.21468414914E+03  0.00000000000E+00 0.  1.
<mgrwt>
<rscale>  0 0.19416654E+04</rscale>
<asrwt>0</asrwt>
<pdfrwt beam="1">  1        1 0.69353343E-01 0.19416654E+04</pdfrwt>
<pdfrwt beam="2">  1       -2 0.32165822E+00 0.19416654E+04</pdfrwt>
<totfact> 0.97640343E-01</totfact>
</mgrwt>
</event>
<event>
12    4  0.4424320E-008  0.1265404E+04  0.7818608E-02  0.9057459E-01
          1   -1    0    0  501    0  0.00000000000E+00  0.00000000000E+00  0.13998091405E+04  0.13998091405E+04  0.00000000000E+00 0. -1.
         -4   -1    0    0    0  501 -0.00000000000E+00 -0.00000000000E+00 -0.28597604063E+03  0.28597604063E+03  0.00000000000E+00 0.  1.
        -24    2    1    2    0    0  0.15941679488E+03  0.82382283345E+02  0.61025896361E+03  0.64092208858E+03  0.78514749304E+02 0.  0.
        254    2    1    2    0    0 -0.15941679488E+03 -0.82382283345E+02  0.50357413626E+03  0.10448630925E+04  0.89774796928E+03 0.  0.
         23    2    4    4    0    0 -0.41429934936E+03  0.12514997429E+03  0.54275581903E+03  0.70154847542E+03  0.10138992711E+03 0.  0.
         23    2    4    4    0    0  0.25488255448E+03 -0.20753225763E+03 -0.39181682772E+02  0.34331461713E+03  0.91076712345E+02 0.  0.
          1    1    3    3  502    0  0.13982562360E+03  0.74669418218E+02  0.59262496095E+03  0.61345828821E+03  0.00000000000E+00 0. -1.
         -2    1    3    3    0  502  0.19591171286E+02  0.77128651272E+01  0.17634002662E+02  0.27463800369E+02  0.00000000000E+00 0.  1.
         11    1    5    5    0    0 -0.87639835811E+01 -0.69690038201E+01 -0.79618304588E-01  0.11197355113E+02  0.00000000000E+00 0. -1.
        -11    1    5    5    0    0 -0.40553536578E+03  0.13211897811E+03  0.54283543734E+03  0.69035112030E+03  0.00000000000E+00 0.  1.
          2    1    6    6  503    0  0.18738164825E+03 -0.96078006399E+02 -0.29806590833E+02  0.21267651086E+03  0.00000000000E+00 0. -1.
         -2    1    6    6    0  503  0.67500906231E+02 -0.11145425124E+03 -0.93750919385E+01  0.13063810627E+03  0.00000000000E+00 0.  1.
<mgrwt>
<rscale>  0 0.12654041E+04</rscale>
<asrwt>0</asrwt>
<pdfrwt beam="1">  1        1 0.21535525E+00 0.12654041E+04</pdfrwt>
<pdfrwt beam="2">  1       -4 0.43996315E-01 0.12654041E+04</pdfrwt>
<totfact> 0.18696554E+01</totfact>
</mgrwt>
</event>
<event>
12    4  0.4433859E-008  0.1679751E+04  0.7818608E-02  0.8772998E-01
         -2   -1    0    0    0  501 -0.00000000000E+00  0.00000000000E+00  0.41103025377E+03  0.41103025377E+03  0.00000000000E+00 0.  1.
          1   -1    0    0  501    0  0.00000000000E+00 -0.00000000000E+00 -0.17161523831E+04  0.17161523831E+04  0.00000000000E+00 0. -1.
        -24    2    1    2    0    0  0.48099231549E+03 -0.18657123926E+02 -0.36392466540E+02  0.48935232160E+03  0.80247038631E+02 0.  0.
        254    2    1    2    0    0 -0.48099231549E+03  0.18657123926E+02 -0.12687296627E+04  0.16378303152E+04  0.91712130521E+03 0.  0.
         23    2    4    4    0    0  0.19794023835E+03 -0.19282948553E+02 -0.30740801460E+02  0.22233025744E+03  0.94517598543E+02 0.  0.
         23    2    4    4    0    0 -0.67893255384E+03  0.37940072479E+02 -0.12379888613E+04  0.14155000578E+04  0.92925406295E+02 0.  0.
          1    1    3    3  502    0  0.27775197632E+02  0.62564805922E+01 -0.20662027461E+02  0.35178466875E+02  0.00000000000E+00 0. -1.
         -2    1    3    3    0  502  0.45321711785E+03 -0.24913604518E+02 -0.15730439079E+02  0.45417385473E+03  0.00000000000E+00 0.  1.
         11    1    5    5    0    0  0.18391617504E+03  0.65837340913E+01 -0.64029933614E+01  0.18414533206E+03  0.00000000000E+00 0.  1.
        -11    1    5    5    0    0  0.14024063308E+02 -0.25866682644E+02 -0.24337808098E+02  0.38184925373E+02  0.00000000000E+00 0. -1.
          2    1    6    6  503    0 -0.11462231876E+03  0.41509982666E+02 -0.21159847249E+03  0.24420333368E+03  0.00000000000E+00 0. -1.
         -2    1    6    6    0  503 -0.56431023508E+03 -0.35699101869E+01 -0.10263903888E+04  0.11712967241E+04  0.00000000000E+00 0.  1.
<mgrwt>
<rscale>  0 0.16797506E+04</rscale>
<asrwt>0</asrwt>
<pdfrwt beam="1">  1        1 0.26402344E+00 0.16797506E+04</pdfrwt>
<pdfrwt beam="2">  1       -2 0.63235424E-01 0.16797506E+04</pdfrwt>
<totfact> 0.90041577E+00</totfact>
</mgrwt>
</event>
<event>
12    4  0.4424320E-008  0.1338836E+04  0.7818608E-02  0.8999323E-01
         -2   -1    0    0    0  501 -0.00000000000E+00  0.00000000000E+00  0.56676637577E+03  0.56676637577E+03  0.00000000000E+00 0.  1.
          1   -1    0    0  501    0  0.00000000000E+00 -0.00000000000E+00 -0.79066120572E+03  0.79066120572E+03  0.00000000000E+00 0. -1.
        -24    2    1    2    0    0  0.10282431773E+03  0.34465098717E+03 -0.23117914404E+02  0.36917217337E+03  0.79978199191E+02 0.  0.
        254    2    1    2    0    0 -0.10282431773E+03 -0.34465098717E+03 -0.20077691555E+03  0.98825540812E+03  0.89832078824E+03 0.  0.
         23    2    4    4    0    0  0.34811468583E+03 -0.19254037259E+02  0.64224792328E+02  0.36558018795E+03  0.89272041713E+02 0.  0.
         23    2    4    4    0    0 -0.45093900356E+03 -0.32539694991E+03 -0.26500170788E+03  0.62267522017E+03  0.90936047238E+02 0.  0.
          3    1    3    3  502    0  0.60806516033E+02  0.30381978738E+03 -0.18282099128E+02  0.31038384420E+03  0.00000000000E+00 0. -1.
         -4    1    3    3    0  502  0.42017801700E+02  0.40831199796E+02 -0.48358152754E+01  0.58788329164E+02  0.00000000000E+00 0.  1.
         11    1    5    5    0    0  0.11433026299E+03  0.14512173688E+02  0.58629440719E+02  0.12930360992E+03  0.00000000000E+00 0. -1.
        -11    1    5    5    0    0  0.23378442284E+03 -0.33766210947E+02  0.55953516089E+01  0.23627657803E+03  0.00000000000E+00 0.  1.
          1    1    6    6  503    0 -0.54034556594E+01 -0.65045998499E+01  0.69960911054E+01  0.10975082825E+02  0.00000000000E+00 0. -1.
         -1    1    6    6    0  503 -0.44553554790E+03 -0.31889235006E+03 -0.27199779898E+03  0.61170013734E+03  0.00000000000E+00 0.  1.
<mgrwt>
<rscale>  0 0.13388356E+04</rscale>
<asrwt>0</asrwt>
<pdfrwt beam="1">  1        1 0.12164019E+00 0.13388356E+04</pdfrwt>
<pdfrwt beam="2">  1       -2 0.87194827E-01 0.13388356E+04</pdfrwt>
<totfact> 0.21981929E+01</totfact>
</mgrwt>
</event>
<event>
12    4  0.4424320E-008  0.1706713E+04  0.7818608E-02  0.8757545E-01
          1   -1    0    0  501    0  0.00000000000E+00  0.00000000000E+00  0.94858215563E+03  0.94858215563E+03  0.00000000000E+00 0. -1.
         -2   -1    0    0    0  501 -0.00000000000E+00 -0.00000000000E+00 -0.76769063040E+03  0.76769063040E+03  0.00000000000E+00 0.  1.
        -24    2    1    2    0    0  0.38328483751E+03 -0.43347881627E+03 -0.15089541061E+03  0.60330500997E+03  0.79977242343E+02 0.  0.
        254    2    1    2    0    0 -0.38328483751E+03  0.43347881627E+03  0.33178693584E+03  0.11129677761E+04  0.89095653593E+03 0.  0.
         23    2    4    4    0    0  0.19557419303E+03 -0.22960736763E+02  0.30047089605E+03  0.36991954136E+03  0.88211378501E+02 0.  0.
         23    2    4    4    0    0 -0.57885903054E+03  0.45643955303E+03  0.31316039789E+02  0.74304823469E+03  0.87892786455E+02 0.  0.
          3    1    3    3  502    0  0.10368456569E+03 -0.15775410571E+03 -0.76221707727E+02  0.20358437013E+03  0.00000000000E+00 0. -1.
         -4    1    3    3    0  502  0.27960027183E+03 -0.27572471056E+03 -0.74673702879E+02  0.39972063985E+03  0.00000000000E+00 0.  1.
         11    1    5    5    0    0  0.17398961910E+03 -0.10850146111E+02  0.19490882838E+03  0.26149486536E+03  0.00000000000E+00 0. -1.
        -11    1    5    5    0    0  0.21584573932E+02 -0.12110590652E+02  0.10556206766E+03  0.10842467601E+03  0.00000000000E+00 0.  1.
          4    1    6    6  503    0 -0.18357923975E+03  0.11321762900E+03  0.40593173572E+02  0.21947066894E+03  0.00000000000E+00 0.  1.
         -4    1    6    6    0  503 -0.39527979080E+03  0.34322192403E+03 -0.92771337825E+01  0.52357756575E+03  0.00000000000E+00 0. -1.
<mgrwt>
<rscale>  0 0.17067134E+04</rscale>
<asrwt>0</asrwt>
<pdfrwt beam="1">  1        1 0.14593572E+00 0.17067134E+04</pdfrwt>
<pdfrwt beam="2">  1       -2 0.11810625E+00 0.17067134E+04</pdfrwt>
<totfact> 0.76515066E+00</totfact>
</mgrwt>
</event>
<event>
12    4  0.4424320E-008  0.2130420E+04  0.7818608E-02  0.8547960E-01
         -2   -1    0    0    0  501 -0.00000000000E+00  0.00000000000E+00  0.24282305327E+04  0.24282305327E+04  0.00000000000E+00 0.  1.
          1   -1    0    0  501    0  0.00000000000E+00 -0.00000000000E+00 -0.46728358110E+03  0.46728358110E+03  0.00000000000E+00 0. -1.
        -24    2    1    2    0    0  0.43685303202E+03 -0.73718004784E+03  0.10172184627E+04  0.13326705502E+04  0.83680343775E+02 0.  0.
        254    2    1    2    0    0 -0.43685303202E+03  0.73718004784E+03  0.94372848891E+03  0.15628435636E+04  0.90420216161E+03 0.  0.
         23    2    4    4    0    0 -0.36159140688E+03  0.51038800484E+03  0.10933062624E+04  0.12626742911E+04  0.88224265438E+02 0.  0.
         23    2    4    4    0    0 -0.75261625144E+02  0.22679204300E+03 -0.14957777345E+03  0.30016927255E+03  0.10309771525E+03 0.  0.
          1    1    3    3  502    0  0.17796520479E+02 -0.21463384115E+02  0.59786203152E+02  0.65968045948E+02  0.00000000000E+00 0. -1.
         -2    1    3    3    0  502  0.41905651154E+03 -0.71571666372E+03  0.95743225955E+03  0.12667025042E+04  0.00000000000E+00 0.  1.
         11    1    5    5    0    0 -0.32816503265E+03  0.47836580002E+03  0.96116121209E+03  0.11226562265E+04  0.00000000000E+00 0.  1.
        -11    1    5    5    0    0 -0.33426374230E+02  0.32022204827E+02  0.13214505026E+03  0.14001806457E+03  0.00000000000E+00 0. -1.
          4    1    6    6  503    0 -0.99084463519E+02  0.20409631892E+03 -0.12444590161E+03  0.25876595745E+03  0.00000000000E+00 0.  1.
         -4    1    6    6    0  503  0.23822838375E+02  0.22695724077E+02 -0.25131871835E+02  0.41403315103E+02  0.00000000000E+00 0. -1.
<mgrwt>
<rscale>  0 0.21304199E+04</rscale>
<asrwt>0</asrwt>
<pdfrwt beam="1">  1        1 0.71889783E-01 0.21304199E+04</pdfrwt>
<pdfrwt beam="2">  1       -2 0.37357392E+00 0.21304199E+04</pdfrwt>
<totfact> 0.43105175E-01</totfact>
</mgrwt>
</event>
<event>
12    4  0.4424320E-008  0.1966395E+04  0.7818608E-02  0.8622495E-01
         -2   -1    0    0    0  501 -0.00000000000E+00  0.00000000000E+00  0.73392145916E+03  0.73392145916E+03  0.00000000000E+00 0.  1.
          1   -1    0    0  501    0  0.00000000000E+00 -0.00000000000E+00 -0.13171404579E+04  0.13171404579E+04  0.00000000000E+00 0. -1.
        -24    2    1    2    0    0  0.77123716563E+03 -0.10495370667E+02 -0.29243487959E+03  0.82851713854E+03  0.77495623057E+02 0.  0.
        254    2    1    2    0    0 -0.77123716563E+03  0.10495370667E+02 -0.29078411920E+03  0.12225447786E+04  0.90285292998E+03 0.  0.
         23    2    4    4    0    0 -0.20459141690E+03  0.40420956216E+03  0.11309053044E+02  0.46228675505E+03  0.91313368125E+02 0.  0.
         23    2    4    4    0    0 -0.56664574873E+03 -0.39371419149E+03 -0.30209317224E+03  0.76025802353E+03  0.10311987434E+03 0.  0.
          1    1    3    3  502    0  0.59033436944E+03 -0.18743829639E+02 -0.25635893800E+03  0.64386792434E+03  0.00000000000E+00 0. -1.
         -4    1    3    3    0  502  0.18090279619E+03  0.82484589719E+01 -0.36075941593E+02  0.18464921420E+03  0.00000000000E+00 0.  1.
         11    1    5    5    0    0 -0.11938625898E+03  0.19416722956E+03  0.47273458352E+02  0.23278481852E+03  0.00000000000E+00 0. -1.
        -11    1    5    5    0    0 -0.85205157920E+02  0.21004233260E+03 -0.35964405308E+02  0.22950193652E+03  0.00000000000E+00 0.  1.
          2    1    6    6  503    0 -0.53771583307E+03 -0.39121981869E+03 -0.27203975807E+03  0.71846843608E+03  0.00000000000E+00 0.  1.
         -2    1    6    6    0  503 -0.28929915656E+02 -0.24943728074E+01 -0.30053414173E+02  0.41789587447E+02  0.00000000000E+00 0. -1.
<mgrwt>
<rscale>  0 0.19663953E+04</rscale>
<asrwt>0</asrwt>
<pdfrwt beam="1">  1        1 0.20263699E+00 0.19663953E+04</pdfrwt>
<pdfrwt beam="2">  1       -2 0.11291100E+00 0.19663953E+04</pdfrwt>
<totfact> 0.44265292E+00</totfact>
</mgrwt>
</event>
<event>
12    4  0.4424320E-008  0.1967935E+04  0.7818608E-02  0.8621761E-01
         -2   -1    0    0    0  501 -0.00000000000E+00  0.00000000000E+00  0.59932268401E+03  0.59932268401E+03  0.00000000000E+00 0.  1.
          1   -1    0    0  501    0  0.00000000000E+00 -0.00000000000E+00 -0.16154767128E+04  0.16154767128E+04  0.00000000000E+00 0. -1.
        -24    2    1    2    0    0  0.11853647925E+03  0.22090284054E+03 -0.12345171924E+04  0.12622124889E+04  0.79364393223E+02 0.  0.
        254    2    1    2    0    0 -0.11853647925E+03 -0.22090284054E+03  0.21836316364E+03  0.95258690788E+03  0.89268717027E+03 0.  0.
         23    2    4    4    0    0  0.26019438707E+02  0.30306817872E+03 -0.77172159247E+02  0.32710900522E+03  0.92289907299E+02 0.  0.
         23    2    4    4    0    0 -0.14455591796E+03 -0.52397101926E+03  0.29553532289E+03  0.62547790266E+03  0.91866409572E+02 0.  0.
          3    1    3    3  502    0  0.11926616483E+03  0.19615825232E+03 -0.11828384663E+04  0.12049105010E+04  0.00000000000E+00 0. -1.
         -4    1    3    3    0  502 -0.72968557267E+00  0.24744588216E+02 -0.51678726136E+02  0.57301987941E+02  0.00000000000E+00 0.  1.
         11    1    5    5    0    0  0.37069865019E+02  0.67572478882E+02 -0.44785338957E+02  0.89140009986E+02  0.00000000000E+00 0. -1.
        -11    1    5    5    0    0 -0.11050426312E+02  0.23549569984E+03 -0.32386820290E+02  0.23796899523E+03  0.00000000000E+00 0.  1.
          3    1    6    6  503    0 -0.10425442414E+03 -0.20765419683E+03  0.12750214150E+03  0.26503970740E+03  0.00000000000E+00 0. -1.
         -3    1    6    6    0  503 -0.40301493819E+02 -0.31631682243E+03  0.16803318140E+03  0.36043819526E+03  0.00000000000E+00 0.  1.
<mgrwt>
<rscale>  0 0.19679348E+04</rscale>
<asrwt>0</asrwt>
<pdfrwt beam="1">  1        1 0.24853488E+00 0.19679348E+04</pdfrwt>
<pdfrwt beam="2">  1       -2 0.92203489E-01 0.19679348E+04</pdfrwt>
<totfact> 0.44429024E+00</totfact>
</mgrwt>
</event>
<event>
12    4  0.4424320E-008  0.2295458E+04  0.7818608E-02  0.8479714E-01
          1   -1    0    0  501    0  0.00000000000E+00  0.00000000000E+00  0.96056034675E+03  0.96056034675E+03  0.00000000000E+00 0. -1.
         -2   -1    0    0    0  501 -0.00000000000E+00 -0.00000000000E+00 -0.13713681423E+04  0.13713681423E+04  0.00000000000E+00 0.  1.
        -24    2    1    2    0    0 -0.48532843780E+03  0.25404770140E+03  0.63596822945E+03  0.84335672250E+03  0.81920970404E+02 0.  0.
        254    2    1    2    0    0  0.48532843780E+03 -0.25404770140E+03 -0.10467760250E+04  0.14885717665E+04  0.90555062284E+03 0.  0.
         23    2    4    4    0    0 -0.12484745719E+03 -0.20778687355E+03  0.15241005554E+02  0.25961822799E+03  0.91690041266E+02 0.  0.
         23    2    4    4    0    0  0.61017589499E+03 -0.46260827852E+02 -0.10620170305E+04  0.12289535385E+04  0.89397649561E+02 0.  0.
          3    1    3    3  502    0 -0.29037438005E+03  0.13962073232E+03  0.43172246152E+03  0.53869797963E+03  0.00000000000E+00 0. -1.
         -2    1    3    3    0  502 -0.19495405775E+03  0.11442696908E+03  0.20424576793E+03  0.30465874287E+03  0.00000000000E+00 0.  1.
         11    1    5    5    0    0 -0.35557501434E+02 -0.35707796984E+02 -0.32496358527E+02  0.59961620986E+02  0.00000000000E+00 0.  1.
        -11    1    5    5    0    0 -0.89289955755E+02 -0.17207907656E+03  0.47737364082E+02  0.19965660700E+03  0.00000000000E+00 0. -1.
          3    1    6    6  503    0  0.60902772248E+03 -0.41572312291E+02 -0.10358320249E+04  0.12023273297E+04  0.00000000000E+00 0. -1.
         -3    1    6    6    0  503  0.11481725118E+01 -0.46885155607E+01 -0.26185005663E+02  0.26626208890E+02  0.00000000000E+00 0.  1.
<mgrwt>
<rscale>  0 0.22954580E+04</rscale>
<asrwt>0</asrwt>
<pdfrwt beam="1">  1        1 0.14777852E+00 0.22954580E+04</pdfrwt>
<pdfrwt beam="2">  1       -2 0.21097971E+00 0.22954580E+04</pdfrwt>
<totfact> 0.14542656E+00</totfact>
</mgrwt>
</event>
<event>
12    4  0.4424320E-008  0.2695694E+04  0.7818608E-02  0.8336404E-01
         -2   -1    0    0    0  501 -0.00000000000E+00  0.00000000000E+00  0.68512818848E+03  0.68512818848E+03  0.00000000000E+00 0.  1.
          1   -1    0    0  501    0  0.00000000000E+00 -0.00000000000E+00 -0.26516078368E+04  0.26516078368E+04  0.00000000000E+00 0. -1.
        -24    2    1    2    0    0 -0.56083070805E+02  0.50573747814E+03  0.46776967459E+03  0.69581410364E+03  0.80206550411E+02 0.  0.
        254    2    1    2    0    0  0.56083070805E+02 -0.50573747814E+03 -0.24342493229E+04  0.26409219216E+04  0.88880994733E+03 0.  0.
         23    2    4    4    0    0  0.38975196539E+03 -0.95887146048E+01 -0.73090140586E+03  0.83331071354E+03  0.90506034227E+02 0.  0.
         23    2    4    4    0    0 -0.33366889458E+03 -0.49614876354E+03 -0.17033479170E+04  0.18076112081E+04  0.92550669205E+02 0.  0.
          3    1    3    3  502    0  0.23663590739E+01  0.20410843130E+01  0.17189822363E+02  0.17471567569E+02  0.00000000000E+00 0. -1.
         -2    1    3    3    0  502 -0.58449429879E+02  0.50369639383E+03  0.45057985222E+03  0.67834253607E+03  0.00000000000E+00 0.  1.
         11    1    5    5    0    0  0.18013455120E+03  0.38413912185E+02 -0.36682177972E+03  0.41046595871E+03  0.00000000000E+00 0.  1.
        -11    1    5    5    0    0  0.20961741419E+03 -0.48002626790E+02 -0.36407962615E+03  0.42284475483E+03  0.00000000000E+00 0. -1.
          3    1    6    6  503    0 -0.31668042939E+03 -0.41532496577E+03 -0.14846245040E+04  0.15738142328E+04  0.00000000000E+00 0. -1.
         -3    1    6    6    0  503 -0.16988465193E+02 -0.80823797769E+02 -0.21872341302E+03  0.23379697526E+03  0.00000000000E+00 0.  1.
<mgrwt>
<rscale>  0 0.26956938E+04</rscale>
<asrwt>0</asrwt>
<pdfrwt beam="1">  1        1 0.40793966E+00 0.26956938E+04</pdfrwt>
<pdfrwt beam="2">  1       -2 0.10540434E+00 0.26956938E+04</pdfrwt>
<totfact> 0.59372325E-01</totfact>
</mgrwt>
</event>
<event>
12    4  0.4424320E-008  0.2830038E+04  0.7818608E-02  0.8294003E-01
          1   -1    0    0  501    0  0.00000000000E+00  0.00000000000E+00  0.87988359815E+03  0.87988359815E+03  0.00000000000E+00 0. -1.
         -2   -1    0    0    0  501 -0.00000000000E+00 -0.00000000000E+00 -0.22756177787E+04  0.22756177787E+04  0.00000000000E+00 0.  1.
        -24    2    1    2    0    0  0.17720566548E+03  0.60216349967E+03  0.59907561019E+03  0.87189031908E+03  0.85430753130E+02 0.  0.
        254    2    1    2    0    0 -0.17720566548E+03 -0.60216349967E+03 -0.19948097908E+04  0.22836110578E+04  0.91739339094E+03 0.  0.
         23    2    4    4    0    0  0.44923695956E+02 -0.48052157605E+03 -0.19493886050E+04  0.20102249639E+04  0.89271208747E+02 0.  0.
         23    2    4    4    0    0 -0.22212936144E+03 -0.12164192361E+03 -0.45421185773E+02  0.27338609389E+03  0.92404877711E+02 0.  0.
          3    1    3    3  502    0  0.15090764049E+03  0.50820968298E+03  0.54512563085E+03  0.76040262443E+03  0.00000000000E+00 0. -1.
         -4    1    3    3    0  502  0.26298024988E+02  0.93953816683E+02  0.53949979338E+02  0.11148769465E+03  0.00000000000E+00 0.  1.
         11    1    5    5    0    0 -0.18769972054E+02 -0.11452095984E+03 -0.37209456734E+03  0.38977138060E+03  0.00000000000E+00 0.  1.
        -11    1    5    5    0    0  0.63693668011E+02 -0.36600061622E+03 -0.15772940376E+04  0.16204535833E+04  0.00000000000E+00 0. -1.
          1    1    6    6  503    0 -0.20960196159E+03 -0.12468833856E+03 -0.19780253075E+02  0.24468637577E+03  0.00000000000E+00 0. -1.
         -1    1    6    6    0  503 -0.12527399847E+02  0.30464149436E+01 -0.25640932698E+02  0.28699718127E+02  0.00000000000E+00 0.  1.
<mgrwt>
<rscale>  0 0.28300380E+04</rscale>
<asrwt>0</asrwt>
<pdfrwt beam="1">  1        1 0.13536671E+00 0.28300380E+04</pdfrwt>
<pdfrwt beam="2">  1       -2 0.35009504E+00 0.28300380E+04</pdfrwt>
<totfact> 0.22247559E-01</totfact>
</mgrwt>
</event>
<event>
12    4  0.4424320E-008  0.1804738E+04  0.7818608E-02  0.8703784E-01
          1   -1    0    0  501    0  0.00000000000E+00  0.00000000000E+00  0.17469375332E+04  0.17469375332E+04  0.00000000000E+00 0. -1.
         -2   -1    0    0    0  501 -0.00000000000E+00 -0.00000000000E+00 -0.46611296292E+03  0.46611296292E+03  0.00000000000E+00 0.  1.
        -24    2    1    2    0    0 -0.77881124811E+02  0.38106877575E+03 -0.19938333007E+03  0.44453263333E+03  0.81096660381E+02 0.  0.
        254    2    1    2    0    0  0.77881124811E+02 -0.38106877575E+03  0.14802079003E+04  0.17685178628E+04  0.88620602645E+03 0.  0.
         23    2    4    4    0    0 -0.15787299622E+03  0.15701504149E+03  0.88347545120E+02  0.25499622782E+03  0.87408130531E+02 0.  0.
         23    2    4    4    0    0  0.23575412104E+03 -0.53808381724E+03  0.13918603552E+04  0.15135216350E+04  0.91423690178E+02 0.  0.
          3    1    3    3  502    0  0.14682376203E+02  0.23740712478E+02 -0.18363885770E+02  0.33412960068E+02  0.00000000000E+00 0. -1.
         -4    1    3    3    0  502 -0.92563501015E+02  0.35732806328E+03 -0.18101944430E+03  0.41111967326E+03  0.00000000000E+00 0.  1.
         11    1    5    5    0    0 -0.95163604380E+02  0.96670467047E+02  0.98124005576E+02  0.16742046251E+03  0.00000000000E+00 0.  1.
        -11    1    5    5    0    0 -0.62709391844E+02  0.60344574439E+02 -0.97764604560E+01  0.87575765305E+02  0.00000000000E+00 0. -1.
          2    1    6    6  503    0  0.83239868366E+02 -0.10948788438E+03  0.27229375130E+03  0.30505796090E+03  0.00000000000E+00 0.  1.
         -2    1    6    6    0  503  0.15251425267E+03 -0.42859593286E+03  0.11195666039E+04  0.12084636741E+04  0.00000000000E+00 0. -1.
<mgrwt>
<rscale>  0 0.18047385E+04</rscale>
<asrwt>0</asrwt>
<pdfrwt beam="1">  1        1 0.26875962E+00 0.18047385E+04</pdfrwt>
<pdfrwt beam="2">  1       -2 0.71709688E-01 0.18047385E+04</pdfrwt>
<totfact> 0.64633433E+00</totfact>
</mgrwt>
</event>
<event>
12    4  0.4424320E-008  0.2769271E+04  0.7818608E-02  0.8312873E-01
          1   -1    0    0  501    0  0.00000000000E+00  0.00000000000E+00  0.29085209341E+04  0.29085209341E+04  0.00000000000E+00 0. -1.
         -2   -1    0    0    0  501 -0.00000000000E+00 -0.00000000000E+00 -0.65917185390E+03  0.65917185390E+03  0.00000000000E+00 0.  1.
        -24    2    1    2    0    0  0.10048546746E+04  0.44517830186E+03  0.17408361104E+04  0.20602554263E+04  0.78901337633E+02 0.  0.
        254    2    1    2    0    0 -0.10048546746E+04 -0.44517830186E+03  0.50851296985E+03  0.15074373617E+04  0.89770001751E+03 0.  0.
         23    2    4    4    0    0 -0.76557915330E+03 -0.71027266624E+03  0.33917737950E+03  0.11018492320E+04  0.91824478745E+02 0.  0.
         23    2    4    4    0    0 -0.23927552128E+03  0.26509436438E+03  0.16933559036E+03  0.40558812970E+03  0.91100997136E+02 0.  0.
          3    1    3    3  502    0  0.51977997596E+03  0.19746569462E+03  0.92728128023E+03  0.10812097376E+04  0.00000000000E+00 0. -1.
         -4    1    3    3    0  502  0.48507469863E+03  0.24771260723E+03  0.81355483015E+03  0.97904568876E+03  0.00000000000E+00 0.  1.
         11    1    5    5    0    0 -0.76658490080E+03 -0.70026876141E+03  0.33543899181E+03  0.10911223880E+04  0.00000000000E+00 0. -1.
        -11    1    5    5    0    0  0.10057474913E+01 -0.10003904829E+02  0.37383876885E+01  0.10726844007E+02  0.00000000000E+00 0.  1.
          3    1    6    6  503    0 -0.17581681251E+03  0.21772823990E+03  0.91188902080E+02  0.29433408547E+03  0.00000000000E+00 0. -1.
         -3    1    6    6    0  503 -0.63458708775E+02  0.47366124488E+02  0.78146688276E+02  0.11125404423E+03  0.00000000000E+00 0.  1.
<mgrwt>
<rscale>  0 0.27692708E+04</rscale>
<asrwt>0</asrwt>
<pdfrwt beam="1">  1        1 0.44746475E+00 0.27692708E+04</pdfrwt>
<pdfrwt beam="2">  1       -2 0.10141106E+00 0.27692708E+04</pdfrwt>
<totfact> 0.42471853E-01</totfact>
</mgrwt>
</event>
<event>
12    4  0.4424320E-008  0.2873700E+04  0.7818608E-02  0.8280746E-01
          1   -1    0    0  501    0  0.00000000000E+00  0.00000000000E+00  0.14389470559E+04  0.14389470559E+04  0.00000000000E+00 0. -1.
         -2   -1    0    0    0  501 -0.00000000000E+00 -0.00000000000E+00 -0.14347564508E+04  0.14347564508E+04  0.00000000000E+00 0.  1.
        -24    2    1    2    0    0  0.26920315603E+03  0.12291431943E+04  0.26901680942E+03  0.12891226269E+04  0.78764029097E+02 0.  0.
        254    2    1    2    0    0 -0.26920315603E+03 -0.12291431943E+04 -0.26482620434E+03  0.15845808798E+04  0.92601312891E+03 0.  0.
         23    2    4    4    0    0  0.96317481171E+02 -0.27794947003E+03  0.28781876345E+03  0.42177149381E+03  0.92296193433E+02 0.  0.
         23    2    4    4    0    0 -0.36552063720E+03 -0.95119372424E+03 -0.55264496779E+03  0.11628093860E+04  0.91292773558E+02 0.  0.
          3    1    3    3  502    0  0.11728712390E+02  0.52953298169E+02  0.28591962242E+02  0.61311620319E+02  0.00000000000E+00 0. -1.
         -4    1    3    3    0  502  0.25747444364E+03  0.11761898961E+04  0.24042484717E+03  0.12278110066E+04  0.00000000000E+00 0.  1.
         11    1    5    5    0    0  0.76430185772E+02 -0.25504301738E+03  0.28692097133E+03  0.39142324638E+03  0.00000000000E+00 0.  1.
        -11    1    5    5    0    0  0.19887295399E+02 -0.22906452652E+02  0.89779211636E+00  0.30348247430E+02  0.00000000000E+00 0. -1.
          4    1    6    6  503    0 -0.12610370721E+03 -0.36579561477E+03 -0.16227617650E+03  0.41957375302E+03  0.00000000000E+00 0. -1.
         -4    1    6    6    0  503 -0.23941692999E+03 -0.58539810946E+03 -0.39036879129E+03  0.74323563298E+03  0.00000000000E+00 0.  1.
<mgrwt>
<rscale>  0 0.28737005E+04</rscale>
<asrwt>0</asrwt>
<pdfrwt beam="1">  1        1 0.22137647E+00 0.28737005E+04</pdfrwt>
<pdfrwt beam="2">  1       -2 0.22073176E+00 0.28737005E+04</pdfrwt>
<totfact> 0.53296357E-01</totfact>
</mgrwt>
</event>
<event>
12    4  0.4424320E-008  0.3441391E+04  0.7818608E-02  0.8127822E-01
          1   -1    0    0  501    0  0.00000000000E+00  0.00000000000E+00  0.20790690862E+04  0.20790690862E+04  0.00000000000E+00 0. -1.
         -2   -1    0    0    0  501 -0.00000000000E+00 -0.00000000000E+00 -0.14240956554E+04  0.14240956554E+04  0.00000000000E+00 0.  1.
        -24    2    1    2    0    0  0.35429094349E+03 -0.25423757525E+03 -0.12609068406E+04  0.13367341919E+04  0.82543454804E+02 0.  0.
        254    2    1    2    0    0 -0.35429094349E+03  0.25423757525E+03  0.19158802714E+04  0.21664305496E+04  0.91250495594E+03 0.  0.
         23    2    4    4    0    0  0.10901179713E+03  0.14905635709E+03  0.15404339607E+04  0.15541040025E+04  0.90559890937E+02 0.  0.
         23    2    4    4    0    0 -0.46330274062E+03  0.10518121816E+03  0.37544631075E+03  0.61232654715E+03  0.90946962332E+02 0.  0.
          3    1    3    3  502    0  0.93968616310E+02 -0.35962679125E+02 -0.36380418146E+03  0.37746112063E+03  0.00000000000E+00 0. -1.
         -4    1    3    3    0  502  0.26032232718E+03 -0.21827489613E+03 -0.89710265913E+03  0.95927307131E+03  0.00000000000E+00 0.  1.
         11    1    5    5    0    0  0.62290368385E+02  0.23176899278E+02  0.68225494968E+03  0.68548455491E+03  0.00000000000E+00 0.  1.
        -11    1    5    5    0    0  0.46721428745E+02  0.12587945781E+03  0.85817901098E+03  0.86861944757E+03  0.00000000000E+00 0. -1.
          2    1    6    6  503    0 -0.14077019726E+03  0.72996890694E+02  0.10499459198E+03  0.19018059531E+03  0.00000000000E+00 0.  1.
         -2    1    6    6    0  503 -0.32253254337E+03  0.32184327466E+02  0.27045171877E+03  0.42214595184E+03  0.00000000000E+00 0. -1.
<mgrwt>
<rscale>  0 0.34413911E+04</rscale>
<asrwt>0</asrwt>
<pdfrwt beam="1">  1        1 0.31985678E+00 0.34413911E+04</pdfrwt>
<pdfrwt beam="2">  1       -2 0.21909164E+00 0.34413911E+04</pdfrwt>
<totfact> 0.19014835E-01</totfact>
</mgrwt>
</event>
<event>
12    4  0.4424320E-008  0.2637001E+04  0.7818608E-02  0.8355740E-01
          1   -1    0    0  501    0  0.00000000000E+00  0.00000000000E+00  0.21494961234E+04  0.21494961234E+04  0.00000000000E+00 0. -1.
         -2   -1    0    0    0  501 -0.00000000000E+00 -0.00000000000E+00 -0.80876789135E+03  0.80876789135E+03  0.00000000000E+00 0.  1.
        -24    2    1    2    0    0  0.99464719557E+03  0.14726183753E+03  0.11819506635E+04  0.15538746741E+04  0.80684814512E+02 0.  0.
        254    2    1    2    0    0 -0.99464719557E+03 -0.14726183753E+03  0.15877756855E+03  0.14043893407E+04  0.96751744765E+03 0.  0.
         23    2    4    4    0    0 -0.96094978547E+03 -0.42123293819E+03 -0.36634707013E+02  0.10538810341E+04  0.91986161694E+02 0.  0.
         23    2    4    4    0    0 -0.33697410103E+02  0.27397110067E+03  0.19541227556E+03  0.35050830655E+03  0.92056700314E+02 0.  0.
          3    1    3    3  502    0  0.78843933500E+03  0.11834357197E+03  0.98536247456E+03  0.12675097602E+04  0.00000000000E+00 0. -1.
         -4    1    3    3    0  502  0.20620786057E+03  0.28918265552E+02  0.19658818893E+03  0.28636491383E+03  0.00000000000E+00 0.  1.
         11    1    5    5    0    0 -0.28492323016E+03 -0.10140893549E+03 -0.46300138498E+02  0.30595542504E+03  0.00000000000E+00 0.  1.
        -11    1    5    5    0    0 -0.67602655530E+03 -0.31982400270E+03  0.96654314857E+01  0.74792560910E+03  0.00000000000E+00 0. -1.
          1    1    6    6  503    0 -0.22247553906E+02  0.27166629239E+03  0.19987497312E+03  0.33800522622E+03  0.00000000000E+00 0. -1.
         -1    1    6    6    0  503 -0.11449856197E+02  0.23048082753E+01 -0.44626975579E+01  0.12503080325E+02  0.00000000000E+00 0.  1.
<mgrwt>
<rscale>  0 0.26370009E+04</rscale>
<asrwt>0</asrwt>
<pdfrwt beam="1">  1        1 0.33069171E+00 0.26370009E+04</pdfrwt>
<pdfrwt beam="2">  1       -2 0.12442583E+00 0.26370009E+04</pdfrwt>
<totfact> 0.88268362E-01</totfact>
</mgrwt>
</event>
<event>
12    4  0.4424320E-008  0.1647609E+04  0.7818608E-02  0.8791822E-01
          1   -1    0    0  501    0  0.00000000000E+00  0.00000000000E+00  0.60871303605E+03  0.60871303605E+03  0.00000000000E+00 0. -1.
         -2   -1    0    0    0  501 -0.00000000000E+00 -0.00000000000E+00 -0.11148991520E+04  0.11148991520E+04  0.00000000000E+00 0.  1.
        -24    2    1    2    0    0 -0.13662659407E+03 -0.34977626577E+03 -0.62643602638E+03  0.73465083168E+03  0.79243214448E+02 0.  0.
        254    2    1    2    0    0  0.13662659407E+03  0.34977626577E+03  0.12024991044E+03  0.98896135636E+03  0.90695879791E+03 0.  0.
         23    2    4    4    0    0 -0.27539679355E+03  0.45593291335E+03  0.12295466138E+02  0.54013965332E+03  0.88777537839E+02 0.  0.
         23    2    4    4    0    0  0.41202338763E+03 -0.10615664758E+03  0.10795444430E+03  0.44882170304E+03  0.93564166733E+02 0.  0.
          1    1    3    3  502    0 -0.65324546621E+02 -0.12266903833E+03 -0.16744613785E+03  0.21760790067E+03  0.00000000000E+00 0. -1.
         -2    1    3    3    0  502 -0.71302047453E+02 -0.22710722744E+03 -0.45898988853E+03  0.51704293100E+03  0.00000000000E+00 0.  1.
         11    1    5    5    0    0 -0.26700537169E+03  0.43351720378E+03  0.30515333089E+02  0.51005903584E+03  0.00000000000E+00 0.  1.
        -11    1    5    5    0    0 -0.83914218598E+01  0.22415709574E+02 -0.18219866951E+02  0.30080617485E+02  0.00000000000E+00 0. -1.
          3    1    6    6  503    0  0.13361252815E+03 -0.75844120226E+02  0.58685883149E+02  0.16446480211E+03  0.00000000000E+00 0. -1.
         -3    1    6    6    0  503  0.27841085947E+03 -0.30312527359E+02  0.49268561156E+02  0.28435690093E+03  0.00000000000E+00 0.  1.
<mgrwt>
<rscale>  0 0.16476087E+04</rscale>
<asrwt>0</asrwt>
<pdfrwt beam="1">  1        1 0.93648160E-01 0.16476087E+04</pdfrwt>
<pdfrwt beam="2">  1       -2 0.17152295E+00 0.16476087E+04</pdfrwt>
<totfact> 0.58280343E+00</totfact>
</mgrwt>
</event>
<event>
12    4  0.4424320E-008  0.2568190E+04  0.7818608E-02  0.8379087E-01
         -2   -1    0    0    0  501 -0.00000000000E+00  0.00000000000E+00  0.76912327212E+03  0.76912327212E+03  0.00000000000E+00 0.  1.
          1   -1    0    0  501    0  0.00000000000E+00 -0.00000000000E+00 -0.21438701521E+04  0.21438701521E+04  0.00000000000E+00 0. -1.
        -24    2    1    2    0    0 -0.19251563526E+03  0.10496289212E+04 -0.19728271676E+03  0.10881260994E+04  0.79465689580E+02 0.  0.
        254    2    1    2    0    0  0.19251563526E+03 -0.10496289212E+04 -0.11774641633E+04  0.18248673249E+04  0.89718211965E+03 0.  0.
         23    2    4    4    0    0 -0.21862481869E+03 -0.53831714468E+03 -0.96331543062E+03  0.11287372977E+04  0.92136360030E+02 0.  0.
         23    2    4    4    0    0  0.41114045395E+03 -0.51131177647E+03 -0.21414873264E+03  0.69613002717E+03  0.90890755335E+02 0.  0.
          1    1    3    3  502    0 -0.24187558296E+02  0.43861440216E+02 -0.43260495557E+01  0.50275029775E+02  0.00000000000E+00 0. -1.
         -2    1    3    3    0  502 -0.16832807697E+03  0.10057674809E+04 -0.19295666720E+03  0.10378510696E+04  0.00000000000E+00 0.  1.
         11    1    5    5    0    0 -0.11396248678E+01 -0.14067023233E+02 -0.50296781833E+01  0.14982574882E+02  0.00000000000E+00 0. -1.
        -11    1    5    5    0    0 -0.21748519382E+03 -0.52425012145E+03 -0.95828575244E+03  0.11137547229E+04  0.00000000000E+00 0.  1.
          4    1    6    6  503    0  0.33352356832E+03 -0.35065289799E+03 -0.15479833035E+03  0.50809246066E+03  0.00000000000E+00 0.  1.
         -4    1    6    6    0  503  0.77616885627E+02 -0.16065887848E+03 -0.59350402291E+02  0.18803756651E+03  0.00000000000E+00 0. -1.
<mgrwt>
<rscale>  0 0.25681904E+04</rscale>
<asrwt>0</asrwt>
<pdfrwt beam="1">  1        1 0.32982617E+00 0.25681904E+04</pdfrwt>
<pdfrwt beam="2">  1       -2 0.11832666E+00 0.25681904E+04</pdfrwt>
<totfact> 0.10154012E+00</totfact>
</mgrwt>
</event>
<event>
12    4  0.4424320E-008  0.1727094E+04  0.7818608E-02  0.8746061E-01
         -2   -1    0    0    0  501 -0.00000000000E+00  0.00000000000E+00  0.26814898250E+03  0.26814898250E+03  0.00000000000E+00 0.  1.
          1   -1    0    0  501    0  0.00000000000E+00 -0.00000000000E+00 -0.27809683496E+04  0.27809683496E+04  0.00000000000E+00 0. -1.
        -24    2    1    2    0    0 -0.12042073265E+03  0.57925574401E+03 -0.56680434518E+03  0.82331673311E+03  0.80900602501E+02 0.  0.
        254    2    1    2    0    0  0.12042073265E+03 -0.57925574401E+03 -0.19460150219E+04  0.22258005990E+04  0.90397758327E+03 0.  0.
         23    2    4    4    0    0  0.43450279323E+03 -0.48603475541E+03 -0.83759949762E+03  0.10663891360E+04  0.10290971893E+03 0.  0.
         23    2    4    4    0    0 -0.31408206058E+03 -0.93220988596E+02 -0.11084155243E+04  0.11594114629E+04  0.91171664475E+02 0.  0.
          1    1    3    3  502    0 -0.12041828394E+03  0.55554942850E+03 -0.51802101867E+03  0.76907834867E+03  0.00000000000E+00 0. -1.
         -2    1    3    3    0  502 -0.24487132745E-02  0.23706315511E+02 -0.48783326514E+02  0.54238384442E+02  0.00000000000E+00 0.  1.
         11    1    5    5    0    0  0.42583388112E+03 -0.45118590147E+03 -0.76144462106E+03  0.98219199902E+03  0.00000000000E+00 0.  1.
        -11    1    5    5    0    0  0.86689121132E+01 -0.34848853942E+02 -0.76154876563E+02  0.84197137022E+02  0.00000000000E+00 0. -1.
          1    1    6    6  503    0 -0.16702593590E+02 -0.18323395312E+02 -0.17901500606E+03  0.18072381095E+03  0.00000000000E+00 0. -1.
         -1    1    6    6    0  503 -0.29737946699E+03 -0.74897593284E+02 -0.92940051822E+03  0.97868765198E+03  0.00000000000E+00 0.  1.
<mgrwt>
<rscale>  0 0.17270945E+04</rscale>
<asrwt>0</asrwt>
<pdfrwt beam="1">  1        1 0.42784132E+00 0.17270945E+04</pdfrwt>
<pdfrwt beam="2">  1       -2 0.41253686E-01 0.17270945E+04</pdfrwt>
<totfact> 0.40011343E+00</totfact>
</mgrwt>
</event>
<event>
12    4  0.4424320E-008  0.1915657E+04  0.7818608E-02  0.8647102E-01
         -2   -1    0    0    0  501 -0.00000000000E+00  0.00000000000E+00  0.11871379033E+04  0.11871379033E+04  0.00000000000E+00 0.  1.
          1   -1    0    0  501    0  0.00000000000E+00 -0.00000000000E+00 -0.77281269946E+03  0.77281269946E+03  0.00000000000E+00 0. -1.
        -24    2    1    2    0    0 -0.55928421206E+03  0.46508954057E+03  0.31507675818E+03  0.79659313050E+03  0.78613875348E+02 0.  0.
        254    2    1    2    0    0  0.55928421206E+03 -0.46508954057E+03  0.99248445683E+02  0.11633574723E+04  0.90246509281E+03 0.  0.
         23    2    4    4    0    0  0.46771268839E+03  0.21491629806E+02  0.35879935796E+03  0.59701922650E+03  0.92075667270E+02 0.  0.
         23    2    4    4    0    0  0.91571523671E+02 -0.48658117038E+03 -0.25955091228E+03  0.56633824579E+03  0.90695938515E+02 0.  0.
          3    1    3    3  502    0 -0.34925618382E+03  0.25768569727E+03  0.15549999358E+03  0.46104451902E+03  0.00000000000E+00 0. -1.
         -4    1    3    3    0  502 -0.21002802824E+03  0.20740384330E+03  0.15957676460E+03  0.33554861148E+03  0.00000000000E+00 0.  1.
         11    1    5    5    0    0  0.11637078719E+03  0.42492013030E+02  0.74403787418E+02  0.14451178106E+03  0.00000000000E+00 0.  1.
        -11    1    5    5    0    0  0.35134190120E+03 -0.21000383224E+02  0.28439557054E+03  0.45250744544E+03  0.00000000000E+00 0. -1.
          4    1    6    6  503    0  0.91029897792E+02 -0.43715395371E+03 -0.26037812398E+03  0.51690114044E+03  0.00000000000E+00 0. -1.
         -4    1    6    6    0  503  0.54162587860E+00 -0.49427216670E+02  0.82721170537E+00  0.49437105352E+02  0.00000000000E+00 0.  1.
<mgrwt>
<rscale>  0 0.19156568E+04</rscale>
<asrwt>0</asrwt>
<pdfrwt beam="1">  1        1 0.11889426E+00 0.19156568E+04</pdfrwt>
<pdfrwt beam="2">  1       -2 0.18263660E+00 0.19156568E+04</pdfrwt>
<totfact> 0.33240915E+00</totfact>
</mgrwt>
</event>
<event>
12    4  0.4424320E-008  0.1913133E+04  0.7818608E-02  0.8648347E-01
          1   -1    0    0  501    0  0.00000000000E+00  0.00000000000E+00  0.83872456893E+03  0.83872456893E+03  0.00000000000E+00 0. -1.
         -2   -1    0    0    0  501 -0.00000000000E+00 -0.00000000000E+00 -0.10909654799E+04  0.10909654799E+04  0.00000000000E+00 0.  1.
        -24    2    1    2    0    0 -0.55268487751E+03 -0.39671913067E+03  0.19888933071E+03  0.71337528872E+03  0.80626882812E+02 0.  0.
        254    2    1    2    0    0  0.55268487751E+03  0.39671913067E+03 -0.45113024172E+03  0.12163147602E+04  0.90169643357E+03 0.  0.
         23    2    4    4    0    0 -0.22643743742E+03 -0.60348281163E+01 -0.60972452085E+02  0.25195324408E+03  0.91937288798E+02 0.  0.
         23    2    4    4    0    0  0.77912231493E+03  0.40275395878E+03 -0.39015778964E+03  0.96436151608E+03  0.92345546376E+02 0.  0.
          3    1    3    3  502    0 -0.28711726317E+03 -0.22041780512E+03  0.65572757481E+02  0.36785882910E+03  0.00000000000E+00 0. -1.
         -4    1    3    3    0  502 -0.26556761434E+03 -0.17630132555E+03  0.13331657322E+03  0.34551645963E+03  0.00000000000E+00 0.  1.
         11    1    5    5    0    0 -0.21225807251E+03 -0.11062443239E+02 -0.80519829031E+02  0.22728684490E+03  0.00000000000E+00 0.  1.
        -11    1    5    5    0    0 -0.14179364914E+02  0.50276151224E+01  0.19547376946E+02  0.24666399183E+02  0.00000000000E+00 0. -1.
          2    1    6    6  503    0  0.22469013001E+03  0.12816873142E+03 -0.71266579931E+02  0.26831288388E+03  0.00000000000E+00 0. -1.
         -2    1    6    6    0  503  0.55443218492E+03  0.27458522736E+03 -0.31889120971E+03  0.69604863220E+03  0.00000000000E+00 0.  1.
<mgrwt>
<rscale>  0 0.19131331E+04</rscale>
<asrwt>0</asrwt>
<pdfrwt beam="1">  1        1 0.12903455E+00 0.19131331E+04</pdfrwt>
<pdfrwt beam="2">  1       -2 0.16784084E+00 0.19131331E+04</pdfrwt>
<totfact> 0.37011411E+00</totfact>
</mgrwt>
</event>
<event>
12    4  0.4424320E-008  0.2327924E+04  0.7818608E-02  0.8466992E-01
         -2   -1    0    0    0  501 -0.00000000000E+00  0.00000000000E+00  0.13629193170E+04  0.13629193170E+04  0.00000000000E+00 0.  1.
          1   -1    0    0  501    0  0.00000000000E+00 -0.00000000000E+00 -0.99404810125E+03  0.99404810125E+03  0.00000000000E+00 0. -1.
        -24    2    1    2    0    0  0.64285380918E+03 -0.38314137432E+03 -0.46048665224E+03  0.88232578220E+03  0.79953088530E+02 0.  0.
        254    2    1    2    0    0 -0.64285380918E+03  0.38314137432E+03  0.82935786802E+03  0.14746416361E+04  0.96263967760E+03 0.  0.
         23    2    4    4    0    0 -0.26418454392E+03 -0.30871015627E+03  0.37142749652E+03  0.55798160335E+03  0.91047518765E+02 0.  0.
         23    2    4    4    0    0 -0.37866926526E+03  0.69185153059E+03  0.45793037149E+03  0.91666003272E+03  0.92284547000E+02 0.  0.
          3    1    3    3  502    0  0.48508150767E+03 -0.25405890082E+03 -0.31312685913E+03  0.63079190236E+03  0.00000000000E+00 0. -1.
         -4    1    3    3    0  502  0.15777230151E+03 -0.12908247350E+03 -0.14735979310E+03  0.25153387985E+03  0.00000000000E+00 0.  1.
         11    1    5    5    0    0 -0.19224552607E+03 -0.15667623831E+03  0.22970975256E+03  0.33804194469E+03  0.00000000000E+00 0. -1.
        -11    1    5    5    0    0 -0.71939017842E+02 -0.15203391796E+03  0.14171774396E+03  0.21993965866E+03  0.00000000000E+00 0.  1.
          4    1    6    6  503    0 -0.15685357530E+01  0.24310250672E+01 -0.41469923017E+01  0.50564545322E+01  0.00000000000E+00 0. -1.
         -4    1    6    6    0  503 -0.37710072951E+03  0.68942050552E+03  0.46207736380E+03  0.91160357819E+03  0.00000000000E+00 0.  1.
<mgrwt>
<rscale>  0 0.23279238E+04</rscale>
<asrwt>0</asrwt>
<pdfrwt beam="1">  1        1 0.15293048E+00 0.23279238E+04</pdfrwt>
<pdfrwt beam="2">  1       -2 0.20967989E+00 0.23279238E+04</pdfrwt>
<totfact> 0.13911688E+00</totfact>
</mgrwt>
</event>
<event>
12    4  0.4424320E-008  0.2015519E+04  0.7818608E-02  0.8599399E-01
          1   -1    0    0  501    0  0.00000000000E+00  0.00000000000E+00  0.74613690206E+03  0.74613690206E+03  0.00000000000E+00 0. -1.
         -2   -1    0    0    0  501 -0.00000000000E+00 -0.00000000000E+00 -0.13611167383E+04  0.13611167383E+04  0.00000000000E+00 0.  1.
        -24    2    1    2    0    0  0.48987231535E+03  0.48249155405E+03  0.17923843640E+03  0.71602928493E+03  0.88309312721E+02 0.  0.
        254    2    1    2    0    0 -0.48987231535E+03 -0.48249155405E+03 -0.79421827260E+03  0.13912243554E+04  0.91211268898E+03 0.  0.
         23    2    4    4    0    0 -0.37342361511E+02  0.23495125225E+03 -0.51388507395E+02  0.26005934626E+03  0.91616275770E+02 0.  0.
         23    2    4    4    0    0 -0.45252995384E+03 -0.71744280631E+03 -0.74282976520E+03  0.11311650091E+04  0.90723086051E+02 0.  0.
          1    1    3    3  502    0  0.46105381892E+03  0.44075634220E+03  0.18708290319E+03  0.66470804854E+03  0.00000000000E+00 0. -1.
         -2    1    3    3    0  502  0.28818496435E+02  0.41735211850E+02 -0.78444667961E+01  0.51321236387E+02  0.00000000000E+00 0.  1.
         11    1    5    5    0    0  0.14755403516E+02  0.64843479913E+01 -0.16639073183E+02  0.23165220875E+02  0.00000000000E+00 0.  1.
        -11    1    5    5    0    0 -0.52097765027E+02  0.22846690426E+03 -0.34749434212E+02  0.23689412539E+03  0.00000000000E+00 0. -1.
          3    1    6    6  503    0 -0.31519362735E+03 -0.52561448345E+03 -0.58545309737E+03  0.84756883918E+03  0.00000000000E+00 0. -1.
         -3    1    6    6    0  503 -0.13733632650E+03 -0.19182832286E+03 -0.15737666783E+03  0.28359616994E+03  0.00000000000E+00 0.  1.
<mgrwt>
<rscale>  0 0.20155192E+04</rscale>
<asrwt>0</asrwt>
<pdfrwt beam="1">  1        1 0.11479029E+00 0.20155192E+04</pdfrwt>
<pdfrwt beam="2">  1       -2 0.20940257E+00 0.20155192E+04</pdfrwt>
<totfact> 0.23139137E+00</totfact>
</mgrwt>
</event>
<event>
12    4  0.4424320E-008  0.1471817E+04  0.7818608E-02  0.8903413E-01
          1   -1    0    0  501    0  0.00000000000E+00  0.00000000000E+00  0.15506349767E+04  0.15506349767E+04  0.00000000000E+00 0. -1.
         -2   -1    0    0    0  501 -0.00000000000E+00 -0.00000000000E+00 -0.34925148292E+03  0.34925148292E+03  0.00000000000E+00 0.  1.
        -24    2    1    2    0    0 -0.31700569471E+03 -0.74061594534E+02  0.86662146518E+03  0.92919187362E+03  0.79918982893E+02 0.  0.
        254    2    1    2    0    0  0.31700569471E+03  0.74061594534E+02  0.33476202858E+03  0.97069458598E+03  0.85100213467E+03 0.  0.
         23    2    4    4    0    0  0.57817518336E+03 -0.59133281185E+02  0.30573087868E+03  0.66336126782E+03  0.93773737633E+02 0.  0.
         23    2    4    4    0    0 -0.26116948865E+03  0.13319487572E+03  0.29031149897E+02  0.30733331816E+03  0.87524762624E+02 0.  0.
          3    1    3    3  502    0 -0.86874114349E+02 -0.30072653875E+02  0.35090673907E+03  0.36274924642E+03  0.00000000000E+00 0. -1.
         -4    1    3    3    0  502 -0.23013158036E+03 -0.43988940659E+02  0.51571472611E+03  0.56644262720E+03  0.00000000000E+00 0.  1.
         11    1    5    5    0    0  0.92835419596E+02  0.92596671015E+01  0.83473765285E+02  0.12518796291E+03  0.00000000000E+00 0. -1.
        -11    1    5    5    0    0  0.48533976376E+03 -0.68392948286E+02  0.22225711340E+03  0.53817330491E+03  0.00000000000E+00 0.  1.
          3    1    6    6  503    0 -0.22568724211E+02  0.40004532172E+02  0.22378571951E+02  0.51093154036E+02  0.00000000000E+00 0. -1.
         -3    1    6    6    0  503 -0.23860076443E+03  0.93190343547E+02  0.66525779459E+01  0.25624016413E+03  0.00000000000E+00 0.  1.
<mgrwt>
<rscale>  0 0.14718173E+04</rscale>
<asrwt>0</asrwt>
<pdfrwt beam="1">  1        1 0.23855922E+00 0.14718173E+04</pdfrwt>
<pdfrwt beam="2">  1       -2 0.53730998E-01 0.14718173E+04</pdfrwt>
<totfact> 0.16754863E+01</totfact>
</mgrwt>
</event>
<event>
12    4  0.4424320E-008  0.2659243E+04  0.7818608E-02  0.8348351E-01
          1   -1    0    0  501    0  0.00000000000E+00  0.00000000000E+00  0.10590827621E+04  0.10590827621E+04  0.00000000000E+00 0. -1.
         -2   -1    0    0    0  501 -0.00000000000E+00 -0.00000000000E+00 -0.16692689757E+04  0.16692689757E+04  0.00000000000E+00 0.  1.
        -24    2    1    2    0    0  0.94429192368E+03  0.39688680018E+03  0.31695921323E+03  0.10751351904E+04  0.79032685894E+02 0.  0.
        254    2    1    2    0    0 -0.94429192368E+03 -0.39688680018E+03 -0.92714542686E+03  0.16532165474E+04  0.90792066875E+03 0.  0.
         23    2    4    4    0    0  0.87446478504E+02  0.13744486079E+03 -0.22375685024E+03  0.29197515925E+03  0.92975207592E+02 0.  0.
         23    2    4    4    0    0 -0.10317384022E+04 -0.53433166097E+03 -0.70338857662E+03  0.13612413881E+04  0.90709275277E+02 0.  0.
          3    1    3    3  502    0  0.54601467901E+03  0.22512423092E+03  0.22325876124E+03  0.63139323999E+03  0.00000000000E+00 0. -1.
         -2    1    3    3    0  502  0.39827724468E+03  0.17176256926E+03  0.93700451994E+02  0.44374195038E+03  0.00000000000E+00 0.  1.
         11    1    5    5    0    0  0.86763776372E+02  0.96417125511E+02 -0.21328081418E+03  0.24962556095E+03  0.00000000000E+00 0. -1.
        -11    1    5    5    0    0  0.68270213188E+00  0.41027735283E+02 -0.10476036065E+02  0.42349598302E+02  0.00000000000E+00 0.  1.
          1    1    6    6  503    0 -0.93821636949E+03 -0.48486728815E+03 -0.60695301061E+03  0.12180879279E+04  0.00000000000E+00 0. -1.
         -1    1    6    6    0  503 -0.93522032693E+02 -0.49464372827E+02 -0.96435566011E+02  0.14315346021E+03  0.00000000000E+00 0.  1.
<mgrwt>
<rscale>  0 0.26592435E+04</rscale>
<asrwt>0</asrwt>
<pdfrwt beam="1">  1        1 0.16293581E+00 0.26592435E+04</pdfrwt>
<pdfrwt beam="2">  1       -2 0.25681061E+00 0.26592435E+04</pdfrwt>
<totfact> 0.61097304E-01</totfact>
</mgrwt>
</event>
<event>
12    4  0.4424320E-008  0.1460589E+04  0.7818608E-02  0.8911092E-01
          3   -1    0    0  501    0  0.00000000000E+00  0.00000000000E+00  0.91893504791E+03  0.91893504791E+03  0.00000000000E+00 0. -1.
         -4   -1    0    0    0  501 -0.00000000000E+00 -0.00000000000E+00 -0.58037826776E+03  0.58037826776E+03  0.00000000000E+00 0.  1.
        -24    2    1    2    0    0 -0.15691743561E+03  0.42562545048E+03  0.82308260938E+02  0.46762496937E+03  0.78219923695E+02 0.  0.
        254    2    1    2    0    0  0.15691743561E+03 -0.42562545048E+03  0.25624851920E+03  0.10316883463E+04  0.89047034460E+03 0.  0.
         23    2    4    4    0    0  0.28566956908E+03 -0.65595385034E+03  0.20569366304E+03  0.75008841935E+03  0.91870546774E+02 0.  0.
         23    2    4    4    0    0 -0.12875213347E+03  0.23032839986E+03  0.50554856168E+02  0.28159992695E+03  0.84347150064E+02 0.  0.
          1    1    3    3  502    0 -0.89342260019E+02  0.25825609944E+03  0.87840579179E+02  0.28704393335E+03  0.00000000000E+00 0. -1.
         -2    1    3    3    0  502 -0.67575175589E+02  0.16736935104E+03 -0.55323182406E+01  0.18058103602E+03  0.00000000000E+00 0.  1.
         11    1    5    5    0    0  0.64639416313E+02 -0.25875919721E+03  0.70990060351E+02  0.27599667561E+03  0.00000000000E+00 0.  1.
        -11    1    5    5    0    0  0.22103015276E+03 -0.39719465313E+03  0.13470360269E+03  0.47409174374E+03  0.00000000000E+00 0. -1.
          2    1    6    6  503    0 -0.83422285279E+02  0.80290978330E+02 -0.34105851654E+01  0.11583415288E+03  0.00000000000E+00 0. -1.
         -2    1    6    6    0  503 -0.45329848191E+02  0.15003742153E+03  0.53965441333E+02  0.16576577407E+03  0.00000000000E+00 0.  1.
<mgrwt>
<rscale>  0 0.14605888E+04</rscale>
<asrwt>0</asrwt>
<pdfrwt beam="1">  1        3 0.14137462E+00 0.14605888E+04</pdfrwt>
<pdfrwt beam="2">  1       -4 0.89288964E-01 0.14605888E+04</pdfrwt>
<totfact> 0.90130802E-01</totfact>
</mgrwt>
</event>
<event>
12    4  0.4424320E-008  0.1715330E+04  0.7818608E-02  0.8752669E-01
          1   -1    0    0  501    0  0.00000000000E+00  0.00000000000E+00  0.22798529188E+04  0.22798529188E+04  0.00000000000E+00 0. -1.
         -2   -1    0    0    0  501 -0.00000000000E+00 -0.00000000000E+00 -0.32264780791E+03  0.32264780791E+03  0.00000000000E+00 0.  1.
        -24    2    1    2    0    0  0.48457669515E+03 -0.25877175177E+02  0.12886579741E+04  0.13794737062E+04  0.82608294671E+02 0.  0.
        254    2    1    2    0    0 -0.48457669515E+03  0.25877175177E+02  0.66854713676E+03  0.12230270204E+04  0.90186230488E+03 0.  0.
         23    2    4    4    0    0  0.19569319699E+03  0.14850352857E+03  0.76233470750E+01  0.26235884927E+03  0.91787390336E+02 0.  0.
         23    2    4    4    0    0 -0.68026989214E+03 -0.12262635339E+03  0.66092378968E+03  0.96066817117E+03  0.90877558451E+02 0.  0.
          3    1    3    3  502    0  0.37550016411E+03 -0.38832685858E+02  0.90970222489E+03  0.98491953412E+03  0.00000000000E+00 0. -1.
         -4    1    3    3    0  502  0.10907653105E+03  0.12955510681E+02  0.37895574920E+03  0.39455417211E+03  0.00000000000E+00 0.  1.
         11    1    5    5    0    0  0.98760407825E+02  0.12566750162E+03 -0.14029998227E+02  0.16044556699E+03  0.00000000000E+00 0. -1.
        -11    1    5    5    0    0  0.96932789161E+02  0.22836026947E+02  0.21653345302E+02  0.10191328227E+03  0.00000000000E+00 0.  1.
          3    1    6    6  503    0 -0.36432085499E+03 -0.11132594246E+03  0.35388939289E+03  0.51996235753E+03  0.00000000000E+00 0. -1.
         -3    1    6    6    0  503 -0.31594903715E+03 -0.11300410929E+02  0.30703439679E+03  0.44070581364E+03  0.00000000000E+00 0.  1.
<mgrwt>
<rscale>  0 0.17153303E+04</rscale>
<asrwt>0</asrwt>
<pdfrwt beam="1">  1        1 0.35074659E+00 0.17153303E+04</pdfrwt>
<pdfrwt beam="2">  1       -2 0.49638126E-01 0.17153303E+04</pdfrwt>
<totfact> 0.61633265E+00</totfact>
</mgrwt>
</event>
<event>
12    4  0.4424320E-008  0.2271169E+04  0.7818608E-02  0.8489376E-01
          1   -1    0    0  501    0  0.00000000000E+00  0.00000000000E+00  0.20810295066E+04  0.20810295066E+04  0.00000000000E+00 0. -1.
         -2   -1    0    0    0  501 -0.00000000000E+00 -0.00000000000E+00 -0.61967022858E+03  0.61967022858E+03  0.00000000000E+00 0.  1.
        -24    2    1    2    0    0  0.21688164290E+03  0.69948733660E+03 -0.99597402382E+02  0.74334943150E+03  0.79552207146E+02 0.  0.
        254    2    1    2    0    0 -0.21688164290E+03 -0.69948733660E+03  0.15609566804E+04  0.19573503037E+04  0.92645252019E+03 0.  0.
         23    2    4    4    0    0  0.24934729621E+03 -0.97343698127E+02  0.90652678735E+03  0.94954588395E+03  0.90535627593E+02 0.  0.
         23    2    4    4    0    0 -0.46622893911E+03 -0.60214363847E+03  0.65442989308E+03  0.10078044198E+04  0.86283709372E+02 0.  0.
          3    1    3    3  502    0  0.70797082542E+02  0.15141141999E+03 -0.47430520972E+02  0.17374492602E+03  0.00000000000E+00 0. -1.
         -4    1    3    3    0  502  0.14608456036E+03  0.54807591661E+03 -0.52166881410E+02  0.56960450548E+03  0.00000000000E+00 0.  1.
         11    1    5    5    0    0  0.32778430416E+02  0.14920224443E+02  0.79154978219E+02  0.86962918390E+02  0.00000000000E+00 0. -1.
        -11    1    5    5    0    0  0.21656886579E+03 -0.11226392257E+03  0.82737180913E+03  0.86258296556E+03  0.00000000000E+00 0.  1.
          4    1    6    6  503    0 -0.35332899179E+02 -0.43674839840E+02  0.21691661821E+02  0.60219877051E+02  0.00000000000E+00 0. -1.
         -4    1    6    6    0  503 -0.43089603993E+03 -0.55846879863E+03  0.63273823125E+03  0.94758454270E+03  0.00000000000E+00 0.  1.
<mgrwt>
<rscale>  0 0.22711689E+04</rscale>
<asrwt>0</asrwt>
<pdfrwt beam="1">  1        1 0.32015838E+00 0.22711689E+04</pdfrwt>
<pdfrwt beam="2">  1       -2 0.95333882E-01 0.22711689E+04</pdfrwt>
<totfact> 0.19318208E+00</totfact>
</mgrwt>
</event>
<event>
12    4  0.4424320E-008  0.1746357E+04  0.7818608E-02  0.8735358E-01
         -2   -1    0    0    0  501 -0.00000000000E+00  0.00000000000E+00  0.91301210976E+03  0.91301210976E+03  0.00000000000E+00 0.  1.
          1   -1    0    0  501    0  0.00000000000E+00 -0.00000000000E+00 -0.83508250656E+03  0.83508250656E+03  0.00000000000E+00 0. -1.
        -24    2    1    2    0    0 -0.55504186731E+03  0.21397827957E+03 -0.19968855606E+03  0.63272786105E+03  0.81307122327E+02 0.  0.
        254    2    1    2    0    0  0.55504186731E+03 -0.21397827957E+03  0.27761815926E+03  0.11153667553E+04  0.90172777366E+03 0.  0.
         23    2    4    4    0    0  0.54281425377E+03 -0.44963666111E+03 -0.36740429152E+02  0.71174504339E+03  0.91709904277E+02 0.  0.
         23    2    4    4    0    0  0.12227613536E+02  0.23565838154E+03  0.31435858841E+03  0.40362171187E+03  0.91677570114E+02 0.  0.
          3    1    3    3  502    0 -0.93791412265E+02  0.45945581648E+02 -0.67439267723E+02  0.12432168081E+03  0.00000000000E+00 0. -1.
         -4    1    3    3    0  502 -0.46125045504E+03  0.16803269792E+03 -0.13224928833E+03  0.50840618025E+03  0.00000000000E+00 0.  1.
         11    1    5    5    0    0  0.47461707951E+03 -0.34948686994E+03 -0.37175466195E+02  0.59057976575E+03  0.00000000000E+00 0. -1.
        -11    1    5    5    0    0  0.68197174263E+02 -0.10014979117E+03  0.43503704246E+00  0.12116527765E+03  0.00000000000E+00 0.  1.
          3    1    6    6  503    0 -0.26183928040E+02  0.18464358633E+03  0.20624759773E+03  0.27805920886E+03  0.00000000000E+00 0. -1.
         -3    1    6    6    0  503  0.38411541576E+02  0.51014795206E+02  0.10811099068E+03  0.12556250301E+03  0.00000000000E+00 0.  1.
<mgrwt>
<rscale>  0 0.17463567E+04</rscale>
<asrwt>0</asrwt>
<pdfrwt beam="1">  1        1 0.12847423E+00 0.17463567E+04</pdfrwt>
<pdfrwt beam="2">  1       -2 0.14046340E+00 0.17463567E+04</pdfrwt>
<totfact> 0.60963379E+00</totfact>
</mgrwt>
</event>
<event>
12    4  0.4424320E-008  0.2497396E+04  0.7818608E-02  0.8403914E-01
          1   -1    0    0  501    0  0.00000000000E+00  0.00000000000E+00  0.31374842433E+04  0.31374842433E+04  0.00000000000E+00 0. -1.
         -2   -1    0    0    0  501 -0.00000000000E+00 -0.00000000000E+00 -0.49697337646E+03  0.49697337646E+03  0.00000000000E+00 0.  1.
        -24    2    1    2    0    0  0.10069816237E+04 -0.50228965727E+02  0.17314632435E+04  0.20051327862E+04  0.77830502457E+02 0.  0.
        254    2    1    2    0    0 -0.10069816237E+04  0.50228965727E+02  0.90904762326E+03  0.16293248335E+04  0.90099772041E+03 0.  0.
         23    2    4    4    0    0 -0.19814257449E+02 -0.27036930804E+03  0.33021534152E+03  0.43715574625E+03  0.92578654023E+02 0.  0.
         23    2    4    4    0    0 -0.98716736628E+03  0.32059827376E+03  0.57883228174E+03  0.11921690872E+04  0.94539198330E+02 0.  0.
          1    1    3    3  502    0  0.87205089507E+03 -0.20423650027E+02  0.14670164943E+04  0.17067592928E+04  0.00000000000E+00 0. -1.
         -2    1    3    3    0  502  0.13493072866E+03 -0.29805315700E+02  0.26444674923E+03  0.29837349339E+03  0.00000000000E+00 0.  1.
         11    1    5    5    0    0 -0.73210131443E+01 -0.26160652377E+03  0.33089526615E+03  0.42188060832E+03  0.00000000000E+00 0. -1.
        -11    1    5    5    0    0 -0.12493244305E+02 -0.87627842622E+01 -0.67992463540E+00  0.15275137931E+02  0.00000000000E+00 0.  1.
          3    1    6    6  503    0 -0.64902655278E+03  0.24904684113E+03  0.41567212740E+03  0.80996488368E+03  0.00000000000E+00 0. -1.
         -3    1    6    6    0  503 -0.33814081349E+03  0.71551432636E+02  0.16316015435E+03  0.38220420357E+03  0.00000000000E+00 0.  1.
<mgrwt>
<rscale>  0 0.24973956E+04</rscale>
<asrwt>0</asrwt>
<pdfrwt beam="1">  1        1 0.48268987E+00 0.24973956E+04</pdfrwt>
<pdfrwt beam="2">  1       -2 0.76457444E-01 0.24973956E+04</pdfrwt>
<totfact> 0.56595919E-01</totfact>
</mgrwt>
</event>
<event>
12    4  0.4424320E-008  0.1203330E+04  0.7818608E-02  0.9109947E-01
         -2   -1    0    0    0  501 -0.00000000000E+00  0.00000000000E+00  0.31898380573E+03  0.31898380573E+03  0.00000000000E+00 0.  1.
          1   -1    0    0  501    0  0.00000000000E+00 -0.00000000000E+00 -0.11348561619E+04  0.11348561619E+04  0.00000000000E+00 0. -1.
        -24    2    1    2    0    0  0.15360870829E+03  0.20919471205E+03 -0.81972397935E+02  0.28301840260E+03  0.77600769174E+02 0.  0.
        254    2    1    2    0    0 -0.15360870829E+03 -0.20919471205E+03 -0.73389995829E+03  0.11708215651E+04  0.87456041852E+03 0.  0.
         23    2    4    4    0    0 -0.42633388801E+03 -0.36469384941E+03 -0.35512911662E+03  0.67015513574E+03  0.90713993573E+02 0.  0.
         23    2    4    4    0    0  0.27272517972E+03  0.15549913736E+03 -0.37877084167E+03  0.50066642933E+03  0.92954384432E+02 0.  0.
          1    1    3    3  502    0  0.15281737041E+03  0.21381028997E+03 -0.86327594800E+02  0.27662328611E+03  0.00000000000E+00 0. -1.
         -2    1    3    3    0  502  0.79133788632E+00 -0.46155779220E+01  0.43551968652E+01  0.63951164914E+01  0.00000000000E+00 0.  1.
         11    1    5    5    0    0 -0.42422937609E+03 -0.34422946468E+03 -0.33238585372E+03  0.63948795426E+03  0.00000000000E+00 0.  1.
        -11    1    5    5    0    0 -0.21045119180E+01 -0.20464384730E+02 -0.22743262894E+02  0.30667181479E+02  0.00000000000E+00 0. -1.
          1    1    6    6  503    0  0.22352984653E+01  0.25012558314E+02 -0.16261770678E+02  0.29917717463E+02  0.00000000000E+00 0. -1.
         -1    1    6    6    0  503  0.27048988125E+03  0.13048657904E+03 -0.36250907099E+03  0.47074871187E+03  0.00000000000E+00 0.  1.
<mgrwt>
<rscale>  0 0.12033299E+04</rscale>
<asrwt>0</asrwt>
<pdfrwt beam="1">  1        1 0.17459325E+00 0.12033299E+04</pdfrwt>
<pdfrwt beam="2">  1       -2 0.49074432E-01 0.12033299E+04</pdfrwt>
<totfact> 0.40717181E+01</totfact>
</mgrwt>
</event>
<event>
12    4  0.4424320E-008  0.2839355E+04  0.7818608E-02  0.8291153E-01
          1   -1    0    0  501    0  0.00000000000E+00  0.00000000000E+00  0.15789220563E+04  0.15789220563E+04  0.00000000000E+00 0. -1.
         -2   -1    0    0    0  501 -0.00000000000E+00 -0.00000000000E+00 -0.12764933755E+04  0.12764933755E+04  0.00000000000E+00 0.  1.
        -24    2    1    2    0    0  0.37818915169E+03 -0.61947115927E+03  0.11926090695E+04  0.13983031709E+04  0.78509958861E+02 0.  0.
        254    2    1    2    0    0 -0.37818915169E+03  0.61947115927E+03 -0.89018038861E+03  0.14571122608E+04  0.89665125038E+03 0.  0.
         23    2    4    4    0    0  0.14662881336E+03  0.51635788268E+02 -0.59886550594E+03  0.62552099345E+03  0.92034534301E+02 0.  0.
         23    2    4    4    0    0 -0.52481796505E+03  0.56783537100E+03 -0.29131488267E+03  0.83159126739E+03  0.93855048546E+02 0.  0.
          1    1    3    3  502    0  0.32762253869E+03 -0.56727916475E+03  0.10373904557E+04  0.12269152930E+04  0.00000000000E+00 0. -1.
         -2    1    3    3    0  502  0.50566613005E+02 -0.52191994524E+02  0.15521861379E+03  0.17138787796E+03  0.00000000000E+00 0.  1.
         11    1    5    5    0    0  0.80963810729E+02 -0.21200011784E+01 -0.41750363969E+03  0.42528687049E+03  0.00000000000E+00 0. -1.
        -11    1    5    5    0    0  0.65665002631E+02  0.53755789446E+02 -0.18136186625E+03  0.20023412296E+03  0.00000000000E+00 0.  1.
          2    1    6    6  503    0 -0.43829916071E+03  0.44660012853E+03 -0.20020449370E+03  0.65699289827E+03  0.00000000000E+00 0. -1.
         -2    1    6    6    0  503 -0.86518804344E+02  0.12123524247E+03 -0.91110388966E+02  0.17459836912E+03  0.00000000000E+00 0.  1.
<mgrwt>
<rscale>  0 0.28393545E+04</rscale>
<asrwt>0</asrwt>
<pdfrwt beam="1">  1        1 0.24291108E+00 0.28393545E+04</pdfrwt>
<pdfrwt beam="2">  1       -2 0.19638360E+00 0.28393545E+04</pdfrwt>
<totfact> 0.61444612E-01</totfact>
</mgrwt>
</event>
<event>
12    4  0.4424320E-008  0.1427941E+04  0.7818608E-02  0.8933838E-01
          1   -1    0    0  501    0  0.00000000000E+00  0.00000000000E+00  0.92174429062E+03  0.92174429062E+03  0.00000000000E+00 0. -1.
         -2   -1    0    0    0  501 -0.00000000000E+00 -0.00000000000E+00 -0.55303185489E+03  0.55303185489E+03  0.00000000000E+00 0.  1.
        -24    2    1    2    0    0  0.56592851273E+02 -0.42558629764E+03  0.12379035070E+03  0.45381490503E+03  0.79356597395E+02 0.  0.
        254    2    1    2    0    0 -0.56592851273E+02  0.42558629764E+03  0.24492208502E+03  0.10209612405E+04  0.89333564761E+03 0.  0.
         23    2    4    4    0    0  0.18769790910E+03 -0.21165818110E+03  0.31005617053E+02  0.30034184887E+03  0.95990557793E+02 0.  0.
         23    2    4    4    0    0 -0.24429076038E+03  0.63724447874E+03  0.21391646797E+03  0.72061939161E+03  0.88167743611E+02 0.  0.
          1    1    3    3  502    0  0.59969970091E+02 -0.26657203139E+03  0.10865653129E+03  0.29404640284E+03  0.00000000000E+00 0. -1.
         -4    1    3    3    0  502 -0.33771188173E+01 -0.15901426625E+03  0.15133819407E+02  0.15976850219E+03  0.00000000000E+00 0.  1.
         11    1    5    5    0    0  0.15787496414E+03 -0.18858405381E+03  0.59548089722E+02  0.25305024134E+03  0.00000000000E+00 0. -1.
        -11    1    5    5    0    0  0.29822944966E+02 -0.23074127287E+02 -0.28542472669E+02  0.47291607528E+02  0.00000000000E+00 0.  1.
          1    1    6    6  503    0 -0.21216214487E+03  0.59661821691E+03  0.21525908883E+03  0.66880680901E+03  0.00000000000E+00 0. -1.
         -1    1    6    6    0  503 -0.32128615504E+02  0.40626261831E+02 -0.13426208623E+01  0.51812582597E+02  0.00000000000E+00 0.  1.
<mgrwt>
<rscale>  0 0.14279411E+04</rscale>
<asrwt>0</asrwt>
<pdfrwt beam="1">  1        1 0.14180681E+00 0.14279411E+04</pdfrwt>
<pdfrwt beam="2">  1       -2 0.85081824E-01 0.14279411E+04</pdfrwt>
<totfact> 0.17909292E+01</totfact>
</mgrwt>
</event>
<event>
12    4  0.4424320E-008  0.2199651E+04  0.7818608E-02  0.8518573E-01
         -2   -1    0    0    0  501 -0.00000000000E+00  0.00000000000E+00  0.81615265128E+03  0.81615265128E+03  0.00000000000E+00 0.  1.
          1   -1    0    0  501    0  0.00000000000E+00 -0.00000000000E+00 -0.14820953813E+04  0.14820953813E+04  0.00000000000E+00 0. -1.
        -24    2    1    2    0    0 -0.49285899910E+03  0.73295900809E+03 -0.54033767652E+03  0.10385138330E+04  0.80045463061E+02 0.  0.
        254    2    1    2    0    0  0.49285899910E+03 -0.73295900809E+03 -0.12560505352E+03  0.12597341996E+04  0.88939008517E+03 0.  0.
         23    2    4    4    0    0 -0.42233915155E+02 -0.36568777061E+03  0.29493472578E+03  0.48139645525E+03  0.96149911555E+02 0.  0.
         23    2    4    4    0    0  0.53509291425E+03 -0.36727123747E+03 -0.42053977930E+03  0.77833774433E+03  0.87996303959E+02 0.  0.
          3    1    3    3  502    0 -0.25423473392E+03  0.41843488766E+03 -0.26055105720E+03  0.55462591767E+03  0.00000000000E+00 0. -1.
         -4    1    3    3    0  502 -0.23862426518E+03  0.31452412043E+03 -0.27978661932E+03  0.48388791534E+03  0.00000000000E+00 0.  1.
         11    1    5    5    0    0 -0.64872172898E+02 -0.31040376135E+03  0.22188383408E+03  0.38702884867E+03  0.00000000000E+00 0.  1.
        -11    1    5    5    0    0  0.22638257743E+02 -0.55284009268E+02  0.73050891701E+02  0.94367606586E+02  0.00000000000E+00 0. -1.
          3    1    6    6  503    0  0.15002304795E+03 -0.74851072521E+02 -0.14598205303E+03  0.22230689999E+03  0.00000000000E+00 0. -1.
         -3    1    6    6    0  503  0.38506986630E+03 -0.29242016495E+03 -0.27455772627E+03  0.55603084434E+03  0.00000000000E+00 0.  1.
<mgrwt>
<rscale>  0 0.21996509E+04</rscale>
<asrwt>0</asrwt>
<pdfrwt beam="1">  1        1 0.22801467E+00 0.21996509E+04</pdfrwt>
<pdfrwt beam="2">  1       -2 0.12556195E+00 0.21996509E+04</pdfrwt>
<totfact> 0.25545618E+00</totfact>
</mgrwt>
</event>
<event>
12    4  0.4424320E-008  0.1506229E+04  0.7818608E-02  0.8880321E-01
         -4   -1    0    0    0  501 -0.00000000000E+00  0.00000000000E+00  0.74527772006E+03  0.74527772006E+03  0.00000000000E+00 0.  1.
          3   -1    0    0  501    0  0.00000000000E+00 -0.00000000000E+00 -0.76103391943E+03  0.76103391943E+03  0.00000000000E+00 0. -1.
        -24    2    1    2    0    0  0.10203506389E+03 -0.94740002062E+01  0.46361075920E+03  0.48137675230E+03  0.79295212167E+02 0.  0.
        254    2    1    2    0    0 -0.10203506389E+03  0.94740002062E+01 -0.47936695857E+03  0.10249348872E+04  0.90010995499E+03 0.  0.
         23    2    4    4    0    0  0.81636779187E+02  0.35927769031E+03  0.19630848503E+02  0.38100843680E+03  0.95063327449E+02 0.  0.
         23    2    4    4    0    0 -0.18367184308E+03 -0.34980369010E+03 -0.49899780708E+03  0.64392645039E+03  0.97695928787E+02 0.  0.
          1    1    3    3  502    0  0.68982704475E+02  0.32044612307E+02  0.25329098151E+03  0.26446510547E+03  0.00000000000E+00 0. -1.
         -2    1    3    3    0  502  0.33052359416E+02 -0.41518612513E+02  0.21031977769E+03  0.21691164684E+03  0.00000000000E+00 0.  1.
         11    1    5    5    0    0  0.29596360865E+02  0.11861652562E+03 -0.38204666140E+02  0.12808364939E+03  0.00000000000E+00 0.  1.
        -11    1    5    5    0    0  0.52040418322E+02  0.24066116469E+03  0.57835514643E+02  0.25292478740E+03  0.00000000000E+00 0. -1.
          2    1    6    6  503    0 -0.16733520752E+03 -0.34106035152E+03 -0.49659241565E+03  0.62524176311E+03  0.00000000000E+00 0. -1.
         -2    1    6    6    0  503 -0.16336635557E+02 -0.87433385801E+01 -0.24053914215E+01  0.18684687280E+02  0.00000000000E+00 0.  1.
<mgrwt>
<rscale>  0 0.15062292E+04</rscale>
<asrwt>0</asrwt>
<pdfrwt beam="1">  1        3 0.11708214E+00 0.15062292E+04</pdfrwt>
<pdfrwt beam="2">  1       -4 0.11465811E+00 0.15062292E+04</pdfrwt>
<totfact> 0.78792437E-01</totfact>
</mgrwt>
</event>
<event>
12    4  0.4424320E-008  0.2398747E+04  0.7818608E-02  0.8439973E-01
          1   -1    0    0  501    0  0.00000000000E+00  0.00000000000E+00  0.14996152735E+04  0.14996152735E+04  0.00000000000E+00 0. -1.
         -2   -1    0    0    0  501 -0.00000000000E+00 -0.00000000000E+00 -0.95924382285E+03  0.95924382285E+03  0.00000000000E+00 0.  1.
        -24    2    1    2    0    0  0.13886140268E+02 -0.10296025359E+04  0.11297257165E+03  0.10390060618E+04  0.80601412238E+02 0.  0.
        254    2    1    2    0    0 -0.13886140268E+02  0.10296025359E+04  0.42739887895E+03  0.14198530345E+04  0.87922615466E+03 0.  0.
         23    2    4    4    0    0  0.24648920219E+03  0.80535712516E+03 -0.19971722390E+02  0.84740430113E+03  0.91313493217E+02 0.  0.
         23    2    4    4    0    0 -0.26037534246E+03  0.22424541075E+03  0.44737060134E+03  0.57244873337E+03  0.97343588334E+02 0.  0.
          1    1    3    3  502    0 -0.18860109506E+02 -0.33450933028E+03  0.66620324597E+02  0.34159985864E+03  0.00000000000E+00 0. -1.
         -2    1    3    3    0  502  0.32746249775E+02 -0.69509320563E+03  0.46352247055E+02  0.69740620315E+03  0.00000000000E+00 0.  1.
         11    1    5    5    0    0  0.92860880285E+02  0.40479543996E+03  0.24876350864E+02  0.41605447255E+03  0.00000000000E+00 0. -1.
        -11    1    5    5    0    0  0.15362832191E+03  0.40056168520E+03 -0.44848073254E+02  0.43134982858E+03  0.00000000000E+00 0.  1.
          1    1    6    6  503    0 -0.15558491999E+03  0.70070217478E+02  0.20705474368E+03  0.26830611171E+03  0.00000000000E+00 0. -1.
         -1    1    6    6    0  503 -0.10479042247E+03  0.15417519327E+03  0.24031585767E+03  0.30414262166E+03  0.00000000000E+00 0.  1.
<mgrwt>
<rscale>  0 0.23987469E+04</rscale>
<asrwt>0</asrwt>
<pdfrwt beam="1">  1        1 0.23071004E+00 0.23987469E+04</pdfrwt>
<pdfrwt beam="2">  1       -2 0.14757597E+00 0.23987469E+04</pdfrwt>
<totfact> 0.16113449E+00</totfact>
</mgrwt>
</event>
<event>
12    4  0.4424320E-008  0.1421898E+04  0.7818608E-02  0.8938119E-01
         -2   -1    0    0    0  501 -0.00000000000E+00  0.00000000000E+00  0.44981729986E+03  0.44981729986E+03  0.00000000000E+00 0.  1.
          1   -1    0    0  501    0  0.00000000000E+00 -0.00000000000E+00 -0.11236748330E+04  0.11236748330E+04  0.00000000000E+00 0. -1.
        -24    2    1    2    0    0 -0.25238970964E+03  0.22372434449E+03  0.89856542440E+02  0.35796998784E+03  0.79468019508E+02 0.  0.
        254    2    1    2    0    0  0.25238970964E+03 -0.22372434449E+03 -0.76371407559E+03  0.12155221450E+04  0.88344878060E+03 0.  0.
         23    2    4    4    0    0  0.52740333768E+03  0.27428464960E+01 -0.62078172127E+03  0.82085213142E+03  0.10132360227E+03 0.  0.
         23    2    4    4    0    0 -0.27501362805E+03 -0.22646719098E+03 -0.14293235432E+03  0.39467001361E+03  0.91732641574E+02 0.  0.
          3    1    3    3  502    0 -0.13569717113E+03  0.11886983417E+03  0.69574070895E+01  0.18053300320E+03  0.00000000000E+00 0. -1.
         -4    1    3    3    0  502 -0.11669253850E+03  0.10485451032E+03  0.82899135351E+02  0.17743698464E+03  0.00000000000E+00 0.  1.
         11    1    5    5    0    0  0.20122628064E+03  0.24837755907E+02 -0.17365480309E+03  0.26695490401E+03  0.00000000000E+00 0. -1.
        -11    1    5    5    0    0  0.32617705704E+03 -0.22094909411E+02 -0.44712691819E+03  0.55389722740E+03  0.00000000000E+00 0.  1.
          4    1    6    6  503    0 -0.18150128844E+03 -0.19623289310E+03 -0.12365974854E+03  0.29451960792E+03  0.00000000000E+00 0. -1.
         -4    1    6    6    0  503 -0.93512339604E+02 -0.30234297886E+02 -0.19272605776E+02  0.10015040569E+03  0.00000000000E+00 0.  1.
<mgrwt>
<rscale>  0 0.14218979E+04</rscale>
<asrwt>0</asrwt>
<pdfrwt beam="1">  1        1 0.17287305E+00 0.14218979E+04</pdfrwt>
<pdfrwt beam="2">  1       -2 0.69202663E-01 0.14218979E+04</pdfrwt>
<totfact> 0.19800426E+01</totfact>
</mgrwt>
</event>
<event>
12    4  0.4424320E-008  0.1741243E+04  0.7818608E-02  0.8738185E-01
         -2   -1    0    0    0  501 -0.00000000000E+00  0.00000000000E+00  0.92659912680E+03  0.92659912680E+03  0.00000000000E+00 0.  1.
          1   -1    0    0  501    0  0.00000000000E+00 -0.00000000000E+00 -0.81802535474E+03  0.81802535474E+03  0.00000000000E+00 0. -1.
        -24    2    1    2    0    0 -0.55035259584E+03 -0.19732848737E+03 -0.18792828846E+03  0.61905516465E+03  0.78011176116E+02 0.  0.
        254    2    1    2    0    0  0.55035259584E+03  0.19732848737E+03  0.29650206052E+03  0.11255693169E+04  0.91496792488E+03 0.  0.
         23    2    4    4    0    0  0.49083949014E+03 -0.13827135566E+03 -0.16538442074E+03  0.54379800031E+03  0.91224369757E+02 0.  0.
         23    2    4    4    0    0  0.59513105704E+02  0.33559984303E+03  0.46188648126E+03  0.58177131658E+03  0.94602742194E+02 0.  0.
          3    1    3    3  502    0 -0.35771239945E+03 -0.16592531654E+03 -0.11583008194E+03  0.41098172620E+03  0.00000000000E+00 0. -1.
         -4    1    3    3    0  502 -0.19264019640E+03 -0.31403170825E+02 -0.72098206517E+02  0.20807343845E+03  0.00000000000E+00 0.  1.
         11    1    5    5    0    0  0.44548399938E+03 -0.96826358764E+02 -0.15482107416E+03  0.48145706190E+03  0.00000000000E+00 0. -1.
        -11    1    5    5    0    0  0.45355490764E+02 -0.41444996900E+02 -0.10563346587E+02  0.62340938408E+02  0.00000000000E+00 0.  1.
          3    1    6    6  503    0  0.84281532190E+02  0.22281813672E+03  0.30774208211E+03  0.38917410991E+03  0.00000000000E+00 0. -1.
         -3    1    6    6    0  503 -0.24768426486E+02  0.11278170631E+03  0.15414439915E+03  0.19259720667E+03  0.00000000000E+00 0.  1.
<mgrwt>
<rscale>  0 0.17412428E+04</rscale>
<asrwt>0</asrwt>
<pdfrwt beam="1">  1        1 0.12585005E+00 0.17412428E+04</pdfrwt>
<pdfrwt beam="2">  1       -2 0.14255371E+00 0.17412428E+04</pdfrwt>
<totfact> 0.60688607E+00</totfact>
</mgrwt>
</event>
<event>
12    4  0.4424320E-008  0.1469530E+04  0.7818608E-02  0.8904972E-01
         -2   -1    0    0    0  501 -0.00000000000E+00  0.00000000000E+00  0.44181952437E+03  0.44181952437E+03  0.00000000000E+00 0.  1.
          1   -1    0    0  501    0  0.00000000000E+00 -0.00000000000E+00 -0.12219466021E+04  0.12219466021E+04  0.00000000000E+00 0. -1.
        -24    2    1    2    0    0 -0.26335622967E+03 -0.85027834218E+02 -0.65082067451E+03  0.71159787110E+03  0.78852669513E+02 0.  0.
        254    2    1    2    0    0  0.26335622967E+03  0.85027834218E+02 -0.12930640324E+03  0.95216825539E+03  0.90184145190E+03 0.  0.
         23    2    4    4    0    0  0.52043891871E+01 -0.20415282051E+03 -0.40857955168E+03  0.46576296258E+03  0.91062766654E+02 0.  0.
         23    2    4    4    0    0  0.25815184049E+03  0.28918065473E+03  0.27927314844E+03  0.48640529282E+03  0.91262224531E+02 0.  0.
          1    1    3    3  502    0 -0.22177220908E+03 -0.72680588824E+02 -0.60523432704E+03  0.64867092685E+03  0.00000000000E+00 0. -1.
         -2    1    3    3    0  502 -0.41584020588E+02 -0.12347245394E+02 -0.45586347464E+02  0.62926944247E+02  0.00000000000E+00 0.  1.
         11    1    5    5    0    0  0.11204505486E+02 -0.12060020689E+03 -0.32751433238E+03  0.34919276734E+03  0.00000000000E+00 0. -1.
        -11    1    5    5    0    0 -0.60001162985E+01 -0.83552613625E+02 -0.81065219293E+02  0.11657019524E+03  0.00000000000E+00 0.  1.
          3    1    6    6  503    0  0.21772788714E+03  0.18268127310E+03  0.19406758392E+03  0.34415128579E+03  0.00000000000E+00 0. -1.
         -3    1    6    6    0  503  0.40423953345E+02  0.10649938163E+03  0.85205564516E+02  0.14225400703E+03  0.00000000000E+00 0.  1.
<mgrwt>
<rscale>  0 0.14695304E+04</rscale>
<asrwt>0</asrwt>
<pdfrwt beam="1">  1        1 0.18799179E+00 0.14695304E+04</pdfrwt>
<pdfrwt beam="2">  1       -2 0.67972234E-01 0.14695304E+04</pdfrwt>
<totfact> 0.17360177E+01</totfact>
</mgrwt>
</event>
<event>
12    4  0.4424320E-008  0.1637721E+04  0.7818608E-02  0.8797704E-01
         -2   -1    0    0    0  501 -0.00000000000E+00  0.00000000000E+00  0.55619920520E+03  0.55619920520E+03  0.00000000000E+00 0.  1.
          1   -1    0    0  501    0  0.00000000000E+00 -0.00000000000E+00 -0.12055612156E+04  0.12055612156E+04  0.00000000000E+00 0. -1.
        -24    2    1    2    0    0 -0.39533755841E+03 -0.18277231379E+03  0.16067187821E+03  0.47138556626E+03  0.81800952631E+02 0.  0.
        254    2    1    2    0    0  0.39533755841E+03  0.18277231379E+03 -0.81003388860E+03  0.12903748545E+04  0.90510488938E+03 0.  0.
         23    2    4    4    0    0  0.30996919836E+02 -0.30448140865E+03 -0.67831085752E+02  0.32639395188E+03  0.90896745664E+02 0.  0.
         23    2    4    4    0    0  0.36434063858E+03  0.48725372245E+03 -0.74220280285E+03  0.96398090266E+03  0.90740780205E+02 0.  0.
          1    1    3    3  502    0 -0.17999830097E+03 -0.12826888419E+03  0.80940528812E+02  0.23537982965E+03  0.00000000000E+00 0. -1.
         -4    1    3    3    0  502 -0.21533925745E+03 -0.54503429600E+02  0.79731349394E+02  0.23600573661E+03  0.00000000000E+00 0.  1.
         11    1    5    5    0    0  0.60885144328E+02 -0.14939585082E+03 -0.34903708093E+02  0.16505874676E+03  0.00000000000E+00 0.  1.
        -11    1    5    5    0    0 -0.29888224492E+02 -0.15508555783E+03 -0.32927377658E+02  0.16133520512E+03  0.00000000000E+00 0. -1.
          3    1    6    6  503    0  0.33182122703E+03  0.41332443017E+03 -0.67923579651E+03  0.86157047219E+03  0.00000000000E+00 0. -1.
         -3    1    6    6    0  503  0.32519411548E+02  0.73929292272E+02 -0.62967006333E+02  0.10241043047E+03  0.00000000000E+00 0.  1.
<mgrwt>
<rscale>  0 0.16377206E+04</rscale>
<asrwt>0</asrwt>
<pdfrwt beam="1">  1        1 0.18547096E+00 0.16377206E+04</pdfrwt>
<pdfrwt beam="2">  1       -2 0.85569108E-01 0.16377206E+04</pdfrwt>
<totfact> 0.10539903E+01</totfact>
</mgrwt>
</event>
<event>
12    4  0.4424320E-008  0.2324084E+04  0.7818608E-02  0.8468485E-01
         -2   -1    0    0    0  501 -0.00000000000E+00  0.00000000000E+00  0.16381533973E+04  0.16381533973E+04  0.00000000000E+00 0.  1.
          1   -1    0    0  501    0  0.00000000000E+00 -0.00000000000E+00 -0.82430746807E+03  0.82430746807E+03  0.00000000000E+00 0. -1.
        -24    2    1    2    0    0  0.34677360723E+03  0.45651458614E+03  0.11891496241E+04  0.13228195555E+04  0.84363771044E+02 0.  0.
        254    2    1    2    0    0 -0.34677360723E+03 -0.45651458614E+03 -0.37530369488E+03  0.11396413099E+04  0.91064370077E+03 0.  0.
         23    2    4    4    0    0  0.26791142471E+03  0.26989866722E+02 -0.12084213190E+03  0.31243144890E+03  0.10249685372E+03 0.  0.
         23    2    4    4    0    0 -0.61468503194E+03 -0.48350445286E+03 -0.25446156297E+03  0.82720986098E+03  0.88945054040E+02 0.  0.
          3    1    3    3  502    0  0.77996620864E+02  0.93836046272E+02  0.18183396470E+03  0.21898006112E+03  0.00000000000E+00 0. -1.
         -4    1    3    3    0  502  0.26877698637E+03  0.36267853987E+03  0.10073156594E+04  0.11038394944E+04  0.00000000000E+00 0.  1.
         11    1    5    5    0    0  0.21507893684E+03  0.37640341331E+02 -0.13499509773E+03  0.25670882489E+03  0.00000000000E+00 0.  1.
        -11    1    5    5    0    0  0.52832487871E+02 -0.10650474609E+02  0.14152965828E+02  0.55722624003E+02  0.00000000000E+00 0. -1.
          2    1    6    6  503    0 -0.52888460418E+03 -0.42280323100E+03 -0.18751463902E+03  0.70259749254E+03  0.00000000000E+00 0.  1.
         -2    1    6    6    0  503 -0.85800427756E+02 -0.60701221866E+02 -0.66946923958E+02  0.12461236843E+03  0.00000000000E+00 0. -1.
<mgrwt>
<rscale>  0 0.23240844E+04</rscale>
<asrwt>0</asrwt>
<pdfrwt beam="1">  1        1 0.12681653E+00 0.23240844E+04</pdfrwt>
<pdfrwt beam="2">  1       -2 0.25202360E+00 0.23240844E+04</pdfrwt>
<totfact> 0.10398839E+00</totfact>
</mgrwt>
</event>
<event>
12    4  0.4424320E-008  0.1128689E+04  0.7818608E-02  0.9177672E-01
         -2   -1    0    0    0  501 -0.00000000000E+00  0.00000000000E+00  0.17396444900E+03  0.17396444900E+03  0.00000000000E+00 0.  1.
          1   -1    0    0  501    0  0.00000000000E+00 -0.00000000000E+00 -0.18307459139E+04  0.18307459139E+04  0.00000000000E+00 0. -1.
        -24    2    1    2    0    0 -0.18786175506E+03  0.44992964922E+02 -0.59839827661E+03  0.63383048494E+03  0.79650362742E+02 0.  0.
        254    2    1    2    0    0  0.18786175506E+03 -0.44992964922E+02 -0.10583831883E+04  0.13708798780E+04  0.84960005924E+03 0.  0.
         23    2    4    4    0    0 -0.18691208457E+03 -0.17023965990E+03 -0.36296933427E+02  0.27110523668E+03  0.90900565539E+02 0.  0.
         23    2    4    4    0    0  0.37477383964E+03  0.12524669498E+03 -0.10220862549E+04  0.10997746413E+04  0.93283352051E+02 0.  0.
          3    1    3    3  502    0 -0.18029308173E+03  0.18562687895E+02 -0.52880976058E+03  0.55900798884E+03  0.00000000000E+00 0. -1.
         -4    1    3    3    0  502 -0.75686733307E+01  0.26430277028E+02 -0.69588516028E+02  0.74822496100E+02  0.00000000000E+00 0.  1.
         11    1    5    5    0    0 -0.18600541926E+02 -0.39708732562E+02  0.23668736587E+02  0.49829436012E+02  0.00000000000E+00 0. -1.
        -11    1    5    5    0    0 -0.16831154265E+03 -0.13053092734E+03 -0.59965670014E+02  0.22127580066E+03  0.00000000000E+00 0.  1.
          3    1    6    6  503    0  0.62262195876E+02 -0.95269006462E+01 -0.21039862602E+03  0.21962450843E+03  0.00000000000E+00 0. -1.
         -3    1    6    6    0  503  0.31251164376E+03  0.13477359562E+03 -0.81168762885E+03  0.88015013287E+03  0.00000000000E+00 0.  1.
<mgrwt>
<rscale>  0 0.11286890E+04</rscale>
<asrwt>0</asrwt>
<pdfrwt beam="1">  1        1 0.28165322E+00 0.11286890E+04</pdfrwt>
<pdfrwt beam="2">  1       -2 0.26763761E-01 0.11286890E+04</pdfrwt>
<totfact> 0.42996065E+01</totfact>
</mgrwt>
</event>
<event>
12    4  0.4424320E-008  0.1901304E+04  0.7818608E-02  0.8654207E-01
          1   -1    0    0  501    0  0.00000000000E+00  0.00000000000E+00  0.21419093870E+04  0.21419093870E+04  0.00000000000E+00 0. -1.
         -2   -1    0    0    0  501 -0.00000000000E+00 -0.00000000000E+00 -0.42193171344E+03  0.42193171344E+03  0.00000000000E+00 0.  1.
        -24    2    1    2    0    0 -0.65183064057E+03 -0.19989524372E+03  0.32829636782E+03  0.76113824607E+03  0.81924551032E+02 0.  0.
        254    2    1    2    0    0  0.65183064057E+03  0.19989524372E+03  0.13916813057E+04  0.18027028543E+04  0.92093399977E+03 0.  0.
         23    2    4    4    0    0  0.17224219510E+03 -0.35551633807E+03  0.49526276750E+03  0.64075286899E+03  0.96019736780E+02 0.  0.
         23    2    4    4    0    0  0.47958844547E+03  0.55541158179E+03  0.89641853820E+03  0.11619499853E+04  0.89858057929E+02 0.  0.
          1    1    3    3  502    0 -0.17425997369E+02 -0.21470394717E+02  0.14558651901E+02  0.31250561256E+02  0.00000000000E+00 0. -1.
         -4    1    3    3    0  502 -0.63440464320E+03 -0.17842484900E+03  0.31373771592E+03  0.72988768481E+03  0.00000000000E+00 0.  1.
         11    1    5    5    0    0  0.10893665532E+03 -0.12981329115E+03  0.17216878409E+03  0.24157975008E+03  0.00000000000E+00 0. -1.
        -11    1    5    5    0    0  0.63305539777E+02 -0.22570304692E+03  0.32309398340E+03  0.39917311892E+03  0.00000000000E+00 0.  1.
          2    1    6    6  503    0  0.24589553976E+03  0.26983413996E+03  0.51476435680E+03  0.63107639996E+03  0.00000000000E+00 0. -1.
         -2    1    6    6    0  503  0.23369290571E+03  0.28557744183E+03  0.38165418139E+03  0.53087358537E+03  0.00000000000E+00 0.  1.
<mgrwt>
<rscale>  0 0.19013043E+04</rscale>
<asrwt>0</asrwt>
<pdfrwt beam="1">  1        1 0.32952451E+00 0.19013043E+04</pdfrwt>
<pdfrwt beam="2">  1       -2 0.64912573E-01 0.19013043E+04</pdfrwt>
<totfact> 0.42936109E+00</totfact>
</mgrwt>
</event>
<event>
12    4  0.4424320E-008  0.2769129E+04  0.7818608E-02  0.8312917E-01
         -4   -1    0    0    0  501 -0.00000000000E+00  0.00000000000E+00  0.20180780016E+04  0.20180780016E+04  0.00000000000E+00 0.  1.
          1   -1    0    0  501    0  0.00000000000E+00 -0.00000000000E+00 -0.94992329884E+03  0.94992329884E+03  0.00000000000E+00 0. -1.
        -24    2    1    2    0    0  0.10591549587E+03 -0.96968573345E+03  0.12921293992E+04  0.16209131605E+04  0.79073229682E+02 0.  0.
        254    2    1    2    0    0 -0.10591549587E+03  0.96968573345E+03 -0.22397469645E+03  0.13470881399E+04  0.90165030815E+03 0.  0.
         23    2    4    4    0    0  0.15774115275E+03  0.97123660819E+03 -0.33947631830E+03  0.10448678869E+04  0.91224503399E+02 0.  0.
         23    2    4    4    0    0 -0.26365664862E+03 -0.15508747475E+01  0.11550162185E+03  0.30222025304E+03  0.92082697209E+02 0.  0.
          1    1    3    3  502    0  0.27244563144E+02 -0.59136288998E+03  0.79952835121E+03  0.99483562373E+03  0.00000000000E+00 0. -1.
         -2    1    3    3    0  502  0.78670932728E+02 -0.37832284347E+03  0.49260104800E+03  0.62607753676E+03  0.00000000000E+00 0.  1.
         11    1    5    5    0    0  0.14372251136E+03  0.87888690636E+03 -0.33456318824E+03  0.95133111027E+03  0.00000000000E+00 0.  1.
        -11    1    5    5    0    0  0.14018641386E+02  0.92349701835E+02 -0.49131300605E+01  0.93536776630E+02  0.00000000000E+00 0. -1.
          3    1    6    6  503    0 -0.24032860071E+02  0.87186299623E+01  0.45802504975E+02  0.52454383359E+02  0.00000000000E+00 0. -1.
         -3    1    6    6    0  503 -0.23962378855E+03 -0.10269504710E+02  0.69699116871E+02  0.24976586968E+03  0.00000000000E+00 0.  1.
<mgrwt>
<rscale>  0 0.27691293E+04</rscale>
<asrwt>0</asrwt>
<pdfrwt beam="1">  1        1 0.14614205E+00 0.27691293E+04</pdfrwt>
<pdfrwt beam="2">  1       -4 0.31047354E+00 0.27691293E+04</pdfrwt>
<totfact> 0.18310818E-01</totfact>
</mgrwt>
</event>
<event>
12    4  0.4424320E-008  0.2075236E+04  0.7818608E-02  0.8572231E-01
          1   -1    0    0  501    0  0.00000000000E+00  0.00000000000E+00  0.77987112528E+03  0.77987112528E+03  0.00000000000E+00 0. -1.
         -2   -1    0    0    0  501 -0.00000000000E+00 -0.00000000000E+00 -0.13805495081E+04  0.13805495081E+04  0.00000000000E+00 0.  1.
        -24    2    1    2    0    0  0.60809117767E+02  0.37977841015E+03  0.53195387816E+03  0.66161933912E+03  0.82679089137E+02 0.  0.
        254    2    1    2    0    0 -0.60809117767E+02 -0.37977841015E+03 -0.11326322610E+04  0.14988012943E+04  0.90311687586E+03 0.  0.
         23    2    4    4    0    0 -0.32237911429E+03 -0.54771577286E+03 -0.86964018347E+03  0.10810345501E+04  0.91873764301E+02 0.  0.
         23    2    4    4    0    0  0.26156999652E+03  0.16793736271E+03 -0.26299207750E+03  0.41776674419E+03  0.93500795977E+02 0.  0.
          3    1    3    3  502    0  0.93287418523E+01  0.28450598450E+03  0.37091548309E+03  0.46755638830E+03  0.00000000000E+00 0. -1.
         -4    1    3    3    0  502  0.51480375915E+02  0.95272425655E+02  0.16103839507E+03  0.19406295082E+03  0.00000000000E+00 0.  1.
         11    1    5    5    0    0 -0.39507656210E+02 -0.91096659324E+02 -0.19364710664E+03  0.21762044516E+03  0.00000000000E+00 0. -1.
        -11    1    5    5    0    0 -0.28287145808E+03 -0.45661911354E+03 -0.67599307683E+03  0.86341410491E+03  0.00000000000E+00 0.  1.
          2    1    6    6  503    0  0.17999658304E+03  0.12601132861E+03 -0.12714595384E+03  0.25385767355E+03  0.00000000000E+00 0. -1.
         -2    1    6    6    0  503  0.81573413480E+02  0.41926034100E+02 -0.13584612367E+03  0.16390907064E+03  0.00000000000E+00 0.  1.
<mgrwt>
<rscale>  0 0.20752356E+04</rscale>
<asrwt>0</asrwt>
<pdfrwt beam="1">  1        1 0.11998017E+00 0.20752356E+04</pdfrwt>
<pdfrwt beam="2">  1       -2 0.21239223E+00 0.20752356E+04</pdfrwt>
<totfact> 0.20545705E+00</totfact>
</mgrwt>
</event>
<event>
12    4  0.4424320E-008  0.1942174E+04  0.7818608E-02  0.8634144E-01
          1   -1    0    0  501    0  0.00000000000E+00  0.00000000000E+00  0.13611839606E+04  0.13611839606E+04  0.00000000000E+00 0. -1.
         -2   -1    0    0    0  501 -0.00000000000E+00 -0.00000000000E+00 -0.69278688514E+03  0.69278688514E+03  0.00000000000E+00 0.  1.
        -24    2    1    2    0    0 -0.38803703947E+03 -0.14404606732E+03 -0.41077293338E+03  0.58880866808E+03  0.81481478236E+02 0.  0.
        254    2    1    2    0    0  0.38803703947E+03  0.14404606732E+03  0.10791700089E+04  0.14651621777E+04  0.90042783466E+03 0.  0.
         23    2    4    4    0    0  0.35487036663E+03  0.47864371433E+03  0.47421378559E+03  0.76687146020E+03  0.90445230098E+02 0.  0.
         23    2    4    4    0    0  0.33166672835E+02 -0.33459764701E+03  0.60495622330E+03  0.69829071752E+03  0.92640598513E+02 0.  0.
          3    1    3    3  502    0 -0.36468348018E+02 -0.35809010854E+02 -0.29503778625E+02  0.59014393318E+02  0.00000000000E+00 0. -1.
         -4    1    3    3    0  502 -0.35156869145E+03 -0.10823705647E+03 -0.38126915475E+03  0.52979427476E+03  0.00000000000E+00 0.  1.
         11    1    5    5    0    0  0.13538815488E+03  0.20746460759E+03  0.14421051525E+03  0.28664994086E+03  0.00000000000E+00 0.  1.
        -11    1    5    5    0    0  0.21948221175E+03  0.27117910674E+03  0.33000327033E+03  0.48022151934E+03  0.00000000000E+00 0. -1.
          3    1    6    6  503    0 -0.13194617748E+02 -0.13972590613E+03  0.17794993254E+03  0.22663540163E+03  0.00000000000E+00 0. -1.
         -3    1    6    6    0  503  0.46361290584E+02 -0.19487174088E+03  0.42700629076E+03  0.47165531589E+03  0.00000000000E+00 0.  1.
<mgrwt>
<rscale>  0 0.19421744E+04</rscale>
<asrwt>0</asrwt>
<pdfrwt beam="1">  1        1 0.20941292E+00 0.19421744E+04</pdfrwt>
<pdfrwt beam="2">  1       -2 0.10658260E+00 0.19421744E+04</pdfrwt>
<totfact> 0.47466878E+00</totfact>
</mgrwt>
</event>
<event>
12    4  0.4424320E-008  0.1581143E+04  0.7818608E-02  0.8832217E-01
         -2   -1    0    0    0  501 -0.00000000000E+00  0.00000000000E+00  0.68905800739E+03  0.68905800739E+03  0.00000000000E+00 0.  1.
          1   -1    0    0  501    0  0.00000000000E+00 -0.00000000000E+00 -0.90704065518E+03  0.90704065518E+03  0.00000000000E+00 0. -1.
        -24    2    1    2    0    0  0.40029539462E+03 -0.31250747483E+03  0.75489386161E+02  0.51988027230E+03  0.81728363016E+02 0.  0.
        254    2    1    2    0    0 -0.40029539462E+03  0.31250747483E+03 -0.29347203395E+03  0.10762183903E+04  0.90234298582E+03 0.  0.
         23    2    4    4    0    0  0.74922180906E+02  0.39246659690E+03  0.12830030334E+03  0.42925547077E+03  0.90310179237E+02 0.  0.
         23    2    4    4    0    0 -0.47521757552E+03 -0.79959122062E+02 -0.42177233729E+03  0.64696291950E+03  0.91890747197E+02 0.  0.
          3    1    3    3  502    0  0.95052367448E+02 -0.10454238368E+03  0.49107270235E+02  0.14958471357E+03  0.00000000000E+00 0. -1.
         -4    1    3    3    0  502  0.30524302717E+03 -0.20796509116E+03  0.26382115926E+02  0.37029555873E+03  0.00000000000E+00 0.  1.
         11    1    5    5    0    0  0.51764338776E+02  0.28563971689E+03  0.13415138269E+03  0.31979085057E+03  0.00000000000E+00 0. -1.
        -11    1    5    5    0    0  0.23157842130E+02  0.10682688001E+03 -0.58510793479E+01  0.10946462019E+03  0.00000000000E+00 0.  1.
          2    1    6    6  503    0 -0.35263964344E+03 -0.73456047773E+02 -0.36107698046E+03  0.51002656293E+03  0.00000000000E+00 0. -1.
         -2    1    6    6    0  503 -0.12257793209E+03 -0.65030742890E+01 -0.60695356828E+02  0.13693635657E+03  0.00000000000E+00 0.  1.
<mgrwt>
<rscale>  0 0.15811434E+04</rscale>
<asrwt>0</asrwt>
<pdfrwt beam="1">  1        1 0.13954472E+00 0.15811434E+04</pdfrwt>
<pdfrwt beam="2">  1       -2 0.10600892E+00 0.15811434E+04</pdfrwt>
<totfact> 0.10863835E+01</totfact>
</mgrwt>
</event>
<event>
12    4  0.4424320E-008  0.1384467E+04  0.7818608E-02  0.8965140E-01
          1   -1    0    0  501    0  0.00000000000E+00  0.00000000000E+00  0.11056673399E+04  0.11056673399E+04  0.00000000000E+00 0. -1.
         -2   -1    0    0    0  501 -0.00000000000E+00 -0.00000000000E+00 -0.43339172247E+03  0.43339172247E+03  0.00000000000E+00 0.  1.
        -24    2    1    2    0    0 -0.41042931886E+02  0.38834129343E+03  0.14634087023E+03  0.42472978354E+03  0.80537297499E+02 0.  0.
        254    2    1    2    0    0  0.41042931886E+02 -0.38834129343E+03  0.52593474719E+03  0.11143292788E+04  0.90145931737E+03 0.  0.
         23    2    4    4    0    0  0.41858311582E+03 -0.98599183957E+02  0.44131690768E+03  0.62280171997E+03  0.90486161764E+02 0.  0.
         23    2    4    4    0    0 -0.37754018393E+03 -0.28974210947E+03  0.84617839510E+02  0.49152755884E+03  0.89174446175E+02 0.  0.
          1    1    3    3  502    0 -0.13019940806E+02  0.77655781725E+02  0.65645576780E+02  0.10251478452E+03  0.00000000000E+00 0. -1.
         -2    1    3    3    0  502 -0.28022991080E+02  0.31068551170E+03  0.80695293453E+02  0.32221499903E+03  0.00000000000E+00 0.  1.
         11    1    5    5    0    0  0.41988886166E+03 -0.10417888363E+03  0.43970896090E+03  0.61684995439E+03  0.00000000000E+00 0. -1.
        -11    1    5    5    0    0 -0.13057458445E+01  0.55796996722E+01  0.16079467837E+01  0.59517655785E+01  0.00000000000E+00 0.  1.
          2    1    6    6  503    0 -0.33002155723E+03 -0.25494449712E+03  0.42637622343E+02  0.41920030020E+03  0.00000000000E+00 0. -1.
         -2    1    6    6    0  503 -0.47518626705E+02 -0.34797612351E+02  0.41980217167E+02  0.72327258641E+02  0.00000000000E+00 0.  1.
<mgrwt>
<rscale>  0 0.13844668E+04</rscale>
<asrwt>0</asrwt>
<pdfrwt beam="1">  1        1 0.17010267E+00 0.13844668E+04</pdfrwt>
<pdfrwt beam="2">  1       -2 0.66675650E-01 0.13844668E+04</pdfrwt>
<totfact> 0.22209680E+01</totfact>
</mgrwt>
</event>
<event>
12    4  0.4424320E-008  0.1932570E+04  0.7818608E-02  0.8638812E-01
          1   -1    0    0  501    0  0.00000000000E+00  0.00000000000E+00  0.68067284114E+03  0.68067284114E+03  0.00000000000E+00 0. -1.
         -2   -1    0    0    0  501 -0.00000000000E+00 -0.00000000000E+00 -0.13717403582E+04  0.13717403582E+04  0.00000000000E+00 0.  1.
        -24    2    1    2    0    0  0.61010922524E+03  0.21399145931E+02  0.20087687670E+03  0.64773668808E+03  0.80747181483E+02 0.  0.
        254    2    1    2    0    0 -0.61010922524E+03 -0.21399145931E+02 -0.89194439373E+03  0.14046765112E+04  0.89713996095E+03 0.  0.
         23    2    4    4    0    0 -0.68572134127E+02  0.25152908342E+03  0.45133031563E+02  0.28408320133E+03  0.10342754640E+03 0.  0.
         23    2    4    4    0    0 -0.54153709112E+03 -0.27292822935E+03 -0.93707742529E+03  0.11205933099E+04  0.99312767431E+02 0.  0.
          1    1    3    3  502    0  0.37798787581E+03 -0.22604913962E+02  0.14049601826E+03  0.40388729560E+03  0.00000000000E+00 0. -1.
         -2    1    3    3    0  502  0.23212134943E+03  0.44004059893E+02  0.60380858439E+02  0.24384939248E+03  0.00000000000E+00 0.  1.
         11    1    5    5    0    0  0.19574751977E+02  0.10612004631E+03  0.36155425449E+02  0.11380619461E+03  0.00000000000E+00 0. -1.
        -11    1    5    5    0    0 -0.88146886104E+02  0.14540903712E+03  0.89776061134E+01  0.17027700672E+03  0.00000000000E+00 0.  1.
          4    1    6    6  503    0 -0.47307978521E+03 -0.20883370991E+03 -0.83334152240E+03  0.98075180068E+03  0.00000000000E+00 0. -1.
         -4    1    6    6    0  503 -0.68457305910E+02 -0.64094519441E+02 -0.10373590288E+03  0.13984150922E+03  0.00000000000E+00 0.  1.
<mgrwt>
<rscale>  0 0.19325697E+04</rscale>
<asrwt>0</asrwt>
<pdfrwt beam="1">  1        1 0.10471890E+00 0.19325697E+04</pdfrwt>
<pdfrwt beam="2">  1       -2 0.21103698E+00 0.19325697E+04</pdfrwt>
<totfact> 0.26176439E+00</totfact>
</mgrwt>
</event>
<event>
12    4  0.4424320E-008  0.2330071E+04  0.7818608E-02  0.8466158E-01
         -2   -1    0    0    0  501 -0.00000000000E+00  0.00000000000E+00  0.10780004763E+04  0.10780004763E+04  0.00000000000E+00 0.  1.
          1   -1    0    0  501    0  0.00000000000E+00 -0.00000000000E+00 -0.12590974502E+04  0.12590974502E+04  0.00000000000E+00 0. -1.
        -24    2    1    2    0    0  0.64752194355E+02  0.90458984590E+03 -0.47634085690E+03  0.10273580459E+04  0.78027601218E+02 0.  0.
        254    2    1    2    0    0 -0.64752194355E+02 -0.90458984590E+03  0.29524388303E+03  0.13097398806E+04  0.89764913430E+03 0.  0.
         23    2    4    4    0    0  0.37015707379E+03 -0.18512842573E+03  0.16275774247E+03  0.45367561646E+03  0.89681040065E+02 0.  0.
         23    2    4    4    0    0 -0.43490926814E+03 -0.71946142017E+03  0.13248614056E+03  0.85606426411E+03  0.92318146784E+02 0.  0.
          3    1    3    3  502    0  0.59588422551E+02  0.89431190120E+03 -0.47791335014E+03  0.10157488503E+04  0.00000000000E+00 0. -1.
         -4    1    3    3    0  502  0.51637718044E+01  0.10277944700E+02  0.15724932462E+01  0.11609195559E+02  0.00000000000E+00 0.  1.
         11    1    5    5    0    0  0.12046411418E+03 -0.37880771434E+02  0.89215651985E+02  0.15461561437E+03  0.00000000000E+00 0.  1.
        -11    1    5    5    0    0  0.24969295961E+03 -0.14724765430E+03  0.73542090489E+02  0.29906000209E+03  0.00000000000E+00 0. -1.
          4    1    6    6  503    0 -0.29846293670E+03 -0.56621528504E+03  0.87660682310E+02  0.64603735869E+03  0.00000000000E+00 0.  1.
         -4    1    6    6    0  503 -0.13644633144E+03 -0.15324613513E+03  0.44825458249E+02  0.21002690543E+03  0.00000000000E+00 0. -1.
<mgrwt>
<rscale>  0 0.23300709E+04</rscale>
<asrwt>0</asrwt>
<pdfrwt beam="1">  1        1 0.19370730E+00 0.23300709E+04</pdfrwt>
<pdfrwt beam="2">  1       -2 0.16584623E+00 0.23300709E+04</pdfrwt>
<totfact> 0.17479397E+00</totfact>
</mgrwt>
</event>
<event>
12    4  0.4424320E-008  0.1437200E+04  0.7818608E-02  0.8927323E-01
          1   -1    0    0  501    0  0.00000000000E+00  0.00000000000E+00  0.29656252452E+04  0.29656252452E+04  0.00000000000E+00 0. -1.
         -2   -1    0    0    0  501 -0.00000000000E+00 -0.00000000000E+00 -0.17412391091E+03  0.17412391091E+03  0.00000000000E+00 0.  1.
        -24    2    1    2    0    0  0.37839473498E+03 -0.11536628666E+03  0.45704883930E+03  0.60965871367E+03  0.79360885103E+02 0.  0.
        254    2    1    2    0    0 -0.37839473498E+03  0.11536628666E+03  0.23344524949E+04  0.25300904424E+04  0.89173832488E+03 0.  0.
         23    2    4    4    0    0  0.18204136396E+03 -0.71503259872E+02  0.14384525280E+03  0.25938299092E+03  0.91303367193E+02 0.  0.
         23    2    4    4    0    0 -0.56043609894E+03  0.18686954653E+03  0.21906072421E+04  0.22707074515E+04  0.91342172522E+02 0.  0.
          1    1    3    3  502    0  0.14601429151E+03 -0.84025408283E+02  0.20648992695E+03  0.26649302523E+03  0.00000000000E+00 0. -1.
         -2    1    3    3    0  502  0.23238044346E+03 -0.31340878379E+02  0.25055891235E+03  0.34316568844E+03  0.00000000000E+00 0.  1.
         11    1    5    5    0    0  0.17078585935E+03 -0.68895248672E+02  0.91235550504E+02  0.20551956287E+03  0.00000000000E+00 0. -1.
        -11    1    5    5    0    0  0.11255504608E+02 -0.26080112004E+01  0.52609702292E+02  0.53863428054E+02  0.00000000000E+00 0.  1.
          1    1    6    6  503    0 -0.34671226293E+03  0.13235561695E+03  0.15249791685E+04  0.15694868164E+04  0.00000000000E+00 0. -1.
         -1    1    6    6    0  503 -0.21372383601E+03  0.54513929579E+02  0.66562807364E+03  0.70122063505E+03  0.00000000000E+00 0.  1.
<mgrwt>
<rscale>  0 0.14372004E+04</rscale>
<asrwt>0</asrwt>
<pdfrwt beam="1">  1        1 0.45625000E+00 0.14372004E+04</pdfrwt>
<pdfrwt beam="2">  1       -2 0.26788296E-01 0.14372004E+04</pdfrwt>
<totfact> 0.68841622E+00</totfact>
</mgrwt>
</event>
<event>
12    4  0.4424320E-008  0.1578720E+04  0.7818608E-02  0.8833729E-01
          1   -1    0    0  501    0  0.00000000000E+00  0.00000000000E+00  0.21203291071E+04  0.21203291071E+04  0.00000000000E+00 0. -1.
         -2   -1    0    0    0  501 -0.00000000000E+00 -0.00000000000E+00 -0.29386424384E+03  0.29386424384E+03  0.00000000000E+00 0.  1.
        -24    2    1    2    0    0 -0.30594530968E+03 -0.29795638620E+02 -0.41021166338E+02  0.32030585124E+03  0.80142308782E+02 0.  0.
        254    2    1    2    0    0  0.30594530968E+03  0.29795638620E+02  0.18674860296E+04  0.20938874997E+04  0.89575134836E+03 0.  0.
         23    2    4    4    0    0 -0.21469543433E+03  0.63388457755E+02  0.12353914404E+03  0.27123744864E+03  0.90529593686E+02 0.  0.
         23    2    4    4    0    0  0.52064074401E+03 -0.33592819135E+02  0.17439468856E+04  0.18226500511E+04  0.92234522793E+02 0.  0.
          1    1    3    3  502    0 -0.55048686561E+01 -0.95617554584E+01 -0.14214525721E+02  0.17993984768E+02  0.00000000000E+00 0. -1.
         -4    1    3    3    0  502 -0.30044044102E+03 -0.20233883162E+02 -0.26806640616E+02  0.30231186647E+03  0.00000000000E+00 0.  1.
         11    1    5    5    0    0 -0.57621328735E+02 -0.99091685656E+01  0.14424110216E+00  0.58467340904E+02  0.00000000000E+00 0.  1.
        -11    1    5    5    0    0 -0.15707410560E+03  0.73297626321E+02  0.12339490294E+03  0.21277010774E+03  0.00000000000E+00 0. -1.
          2    1    6    6  503    0  0.40746957690E+03 -0.19061845015E+02  0.12187866822E+04  0.12852376382E+04  0.00000000000E+00 0. -1.
         -2    1    6    6    0  503  0.11317116711E+03 -0.14530974120E+02  0.52516020338E+03  0.53741241285E+03  0.00000000000E+00 0.  1.
<mgrwt>
<rscale>  0 0.15787196E+04</rscale>
<asrwt>0</asrwt>
<pdfrwt beam="1">  1        1 0.32620447E+00 0.15787196E+04</pdfrwt>
<pdfrwt beam="2">  1       -2 0.45209885E-01 0.15787196E+04</pdfrwt>
<totfact> 0.96731749E+00</totfact>
</mgrwt>
</event>
<event>
12    4  0.4424320E-008  0.1214289E+04  0.7818608E-02  0.9100440E-01
         -2   -1    0    0    0  501 -0.00000000000E+00  0.00000000000E+00  0.23956278063E+04  0.23956278063E+04  0.00000000000E+00 0.  1.
          1   -1    0    0  501    0  0.00000000000E+00 -0.00000000000E+00 -0.15387395687E+03  0.15387395687E+03  0.00000000000E+00 0. -1.
        -24    2    1    2    0    0  0.98691518519E+02 -0.22544268070E+03  0.48452023039E+03  0.54921898277E+03  0.79480936507E+02 0.  0.
        254    2    1    2    0    0 -0.98691518519E+02  0.22544268070E+03  0.17572336191E+04  0.20002827804E+04  0.92341582809E+03 0.  0.
         23    2    4    4    0    0  0.36908500524E+03 -0.74635220272E+02  0.81800568351E+03  0.90503378910E+03  0.90325544345E+02 0.  0.
         23    2    4    4    0    0 -0.46777652376E+03  0.30007790097E+03  0.93922793557E+03  0.10952489913E+04  0.92518188674E+02 0.  0.
          3    1    3    3  502    0  0.32528783405E+02 -0.39672713167E+02  0.48152873913E+02  0.70361532004E+02  0.00000000000E+00 0. -1.
         -4    1    3    3    0  502  0.66162735115E+02 -0.18576996753E+03  0.43636735648E+03  0.47885745077E+03  0.00000000000E+00 0.  1.
         11    1    5    5    0    0  0.30398973642E+03 -0.27747174640E+02  0.68067231803E+03  0.74598556962E+03  0.00000000000E+00 0. -1.
        -11    1    5    5    0    0  0.65095268821E+02 -0.46888045632E+02  0.13733336549E+03  0.15904821949E+03  0.00000000000E+00 0.  1.
          4    1    6    6  503    0 -0.40680401831E+03  0.25251140890E+03  0.73842471597E+03  0.88006964616E+03  0.00000000000E+00 0. -1.
         -4    1    6    6    0  503 -0.60972505453E+02  0.47566492070E+02  0.20080321960E+03  0.21517934517E+03  0.00000000000E+00 0.  1.
<mgrwt>
<rscale>  0 0.12142895E+04</rscale>
<asrwt>0</asrwt>
<pdfrwt beam="1">  1        1 0.23672918E-01 0.12142895E+04</pdfrwt>
<pdfrwt beam="2">  1       -2 0.36855810E+00 0.12142895E+04</pdfrwt>
<totfact> 0.21777434E+00</totfact>
</mgrwt>
</event>
<event>
12    4  0.4424320E-008  0.2764392E+04  0.7818608E-02  0.8314409E-01
         -2   -1    0    0    0  501 -0.00000000000E+00  0.00000000000E+00  0.73228239699E+03  0.73228239699E+03  0.00000000000E+00 0.  1.
          1   -1    0    0  501    0  0.00000000000E+00 -0.00000000000E+00 -0.26089189839E+04  0.26089189839E+04  0.00000000000E+00 0. -1.
        -24    2    1    2    0    0 -0.45233282797E+03  0.49066289287E+03 -0.20929806254E+04  0.21983521981E+04  0.82640348494E+02 0.  0.
        254    2    1    2    0    0  0.45233282797E+03 -0.49066289287E+03  0.21634403845E+03  0.11428491828E+04  0.90218869971E+03 0.  0.
         23    2    4    4    0    0  0.29941144270E+03  0.18316837144E+03  0.25691823327E+03  0.44445615964E+03  0.91304079575E+02 0.  0.
         23    2    4    4    0    0  0.15292138528E+03 -0.67383126430E+03 -0.40574194823E+02  0.69839302313E+03  0.93129085895E+02 0.  0.
          3    1    3    3  502    0 -0.27307715331E+03  0.23567118197E+03 -0.11349937517E+04  0.11909336060E+04  0.00000000000E+00 0. -1.
         -4    1    3    3    0  502 -0.17925567466E+03  0.25499171090E+03 -0.95798687371E+03  0.10074185921E+04  0.00000000000E+00 0.  1.
         11    1    5    5    0    0  0.41741681565E+02  0.57780424035E+02  0.24113203502E+02  0.75248866866E+02  0.00000000000E+00 0.  1.
        -11    1    5    5    0    0  0.25766976113E+03  0.12538794740E+03  0.23280502977E+03  0.36920729278E+03  0.00000000000E+00 0. -1.
          1    1    6    6  503    0  0.16410801455E+03 -0.60680715932E+03 -0.45584334942E+02  0.63025732891E+03  0.00000000000E+00 0. -1.
         -1    1    6    6    0  503 -0.11186629280E+02 -0.67024104980E+02  0.50101401187E+01  0.68135694221E+02  0.00000000000E+00 0.  1.
<mgrwt>
<rscale>  0 0.27643918E+04</rscale>
<asrwt>0</asrwt>
<pdfrwt beam="1">  1        1 0.40137215E+00 0.27643918E+04</pdfrwt>
<pdfrwt beam="2">  1       -2 0.11265883E+00 0.27643918E+04</pdfrwt>
<totfact> 0.53837355E-01</totfact>
</mgrwt>
</event>
<event>
12    4  0.4424320E-008  0.1810066E+04  0.7818608E-02  0.8700965E-01
          1   -1    0    0  501    0  0.00000000000E+00  0.00000000000E+00  0.28857405549E+04  0.28857405549E+04  0.00000000000E+00 0. -1.
         -2   -1    0    0    0  501 -0.00000000000E+00 -0.00000000000E+00 -0.28383869169E+03  0.28383869169E+03  0.00000000000E+00 0.  1.
        -24    2    1    2    0    0 -0.58494101459E+03  0.17991239948E+03  0.46557857828E+03  0.77327394118E+03  0.81637696616E+02 0.  0.
        254    2    1    2    0    0  0.58494101459E+03 -0.17991239948E+03  0.21363232849E+04  0.23963053054E+04  0.89659214637E+03 0.  0.
         23    2    4    4    0    0  0.42954206917E+02 -0.44862479266E+03  0.73401196047E+03  0.86621216894E+03  0.91873255273E+02 0.  0.
         23    2    4    4    0    0  0.54198680768E+03  0.26871239318E+03  0.14023113244E+04  0.15300931364E+04  0.93551619914E+02 0.  0.
          1    1    3    3  502    0 -0.39011656128E+02  0.34744992037E+02  0.45873999632E+02  0.69523719893E+02  0.00000000000E+00 0. -1.
         -2    1    3    3    0  502 -0.54592935847E+03  0.14516740744E+03  0.41970457865E+03  0.70375022128E+03  0.00000000000E+00 0.  1.
         11    1    5    5    0    0 -0.88899643272E+01 -0.20979918594E+02  0.12775303700E+02  0.26122726400E+02  0.00000000000E+00 0.  1.
        -11    1    5    5    0    0  0.51844171244E+02 -0.42764487407E+03  0.72123665677E+03  0.84008944254E+03  0.00000000000E+00 0. -1.
          3    1    6    6  503    0  0.18275995519E+02  0.24241470204E+02  0.11593193499E+03  0.11984103821E+03  0.00000000000E+00 0.  1.
         -3    1    6    6    0  503  0.52371081216E+03  0.24447092298E+03  0.12863793895E+04  0.14102520982E+04  0.00000000000E+00 0. -1.
<mgrwt>
<rscale>  0 0.18100661E+04</rscale>
<asrwt>0</asrwt>
<pdfrwt beam="1">  1        1 0.44396007E+00 0.18100661E+04</pdfrwt>
<pdfrwt beam="2">  1       -2 0.43667493E-01 0.18100661E+04</pdfrwt>
<totfact> 0.29865791E+00</totfact>
</mgrwt>
</event>
<event>
12    4  0.4424320E-008  0.1269044E+04  0.7818608E-02  0.9054480E-01
         -2   -1    0    0    0  501 -0.00000000000E+00  0.00000000000E+00  0.36662149993E+03  0.36662149993E+03  0.00000000000E+00 0.  1.
          1   -1    0    0  501    0  0.00000000000E+00 -0.00000000000E+00 -0.10981846730E+04  0.10981846730E+04  0.00000000000E+00 0. -1.
        -24    2    1    2    0    0 -0.95099432452E+02  0.23600012895E+03 -0.38521653894E+03  0.46851764152E+03  0.79856343654E+02 0.  0.
        254    2    1    2    0    0  0.95099432452E+02 -0.23600012895E+03 -0.34634663408E+03  0.99628853137E+03  0.89882973020E+03 0.  0.
         23    2    4    4    0    0  0.26889532999E+03 -0.47871593675E+03 -0.39051068034E+03  0.68026193456E+03  0.93723324516E+02 0.  0.
         23    2    4    4    0    0 -0.17379589754E+03  0.24271580780E+03  0.44164046257E+02  0.31602659682E+03  0.93842258898E+02 0.  0.
          1    1    3    3  502    0 -0.88522039597E+02  0.13924756406E+03 -0.28320781764E+03  0.32776928405E+03  0.00000000000E+00 0. -1.
         -4    1    3    3    0  502 -0.65773928547E+01  0.96752564888E+02 -0.10200872130E+03  0.14074835747E+03  0.00000000000E+00 0.  1.
         11    1    5    5    0    0  0.93037598058E+01 -0.84388240491E+02 -0.60489040057E+02  0.10424422788E+03  0.00000000000E+00 0. -1.
        -11    1    5    5    0    0  0.25959157019E+03 -0.39432769626E+03 -0.33002164028E+03  0.57601770667E+03  0.00000000000E+00 0.  1.
          1    1    6    6  503    0  0.86534059474E+01  0.36348073889E+02  0.26096974506E+01  0.37454965368E+02  0.00000000000E+00 0. -1.
         -1    1    6    6    0  503 -0.18244930349E+03  0.20636773391E+03  0.41554348806E+02  0.27857163145E+03  0.00000000000E+00 0.  1.
<mgrwt>
<rscale>  0 0.12690439E+04</rscale>
<asrwt>0</asrwt>
<pdfrwt beam="1">  1        1 0.16895149E+00 0.12690439E+04</pdfrwt>
<pdfrwt beam="2">  1       -2 0.56403307E-01 0.12690439E+04</pdfrwt>
<totfact> 0.32395870E+01</totfact>
</mgrwt>
</event>
<event>
12    4  0.4424320E-008  0.1292351E+04  0.7818608E-02  0.9035653E-01
          1   -1    0    0  501    0  0.00000000000E+00  0.00000000000E+00  0.86814915821E+03  0.86814915821E+03  0.00000000000E+00 0. -1.
         -2   -1    0    0    0  501 -0.00000000000E+00 -0.00000000000E+00 -0.48095757361E+03  0.48095757361E+03  0.00000000000E+00 0.  1.
        -24    2    1    2    0    0  0.24250086472E+03  0.15029821573E+03 -0.58029360190E+02  0.30278527233E+03  0.83158231432E+02 0.  0.
        254    2    1    2    0    0 -0.24250086472E+03 -0.15029821573E+03  0.44522094480E+03  0.10463214595E+04  0.90286803236E+03 0.  0.
         23    2    4    4    0    0 -0.45213354981E+03 -0.30906636482E+02  0.59080880464E+03  0.75007008678E+03  0.90388740433E+02 0.  0.
         23    2    4    4    0    0  0.20963268509E+03 -0.11939157925E+03 -0.14558785984E+03  0.29625137271E+03  0.91481358989E+02 0.  0.
          3    1    3    3  502    0  0.20686660463E+02  0.61577227221E+00 -0.26075716621E+02  0.33290540607E+02  0.00000000000E+00 0. -1.
         -4    1    3    3    0  502  0.22181420426E+03  0.14968244346E+03 -0.31953643569E+02  0.26949473173E+03  0.00000000000E+00 0.  1.
         11    1    5    5    0    0 -0.45488742871E+03 -0.35677506209E+02  0.58644047821E+03  0.74303962999E+03  0.00000000000E+00 0. -1.
        -11    1    5    5    0    0  0.27538788963E+01  0.47708697275E+01  0.43683264310E+01  0.70304567946E+01  0.00000000000E+00 0.  1.
          4    1    6    6  503    0  0.60244710778E+02 -0.71638054600E+02 -0.20940483030E+02  0.95916317032E+02  0.00000000000E+00 0.  1.
         -4    1    6    6    0  503  0.14938797432E+03 -0.47753524654E+02 -0.12464737681E+03  0.20033505568E+03  0.00000000000E+00 0. -1.
<mgrwt>
<rscale>  0 0.12923512E+04</rscale>
<asrwt>0</asrwt>
<pdfrwt beam="1">  1        1 0.13356141E+00 0.12923512E+04</pdfrwt>
<pdfrwt beam="2">  1       -2 0.73993473E-01 0.12923512E+04</pdfrwt>
<totfact> 0.27413427E+01</totfact>
</mgrwt>
</event>
<event>
12    4  0.4424320E-008  0.1113125E+04  0.7818608E-02  0.9192493E-01
          3   -1    0    0  501    0  0.00000000000E+00  0.00000000000E+00  0.49796158574E+03  0.49796158574E+03  0.00000000000E+00 0. -1.
         -4   -1    0    0    0  501 -0.00000000000E+00 -0.00000000000E+00 -0.62205950277E+03  0.62205950277E+03  0.00000000000E+00 0.  1.
        -24    2    1    2    0    0 -0.12095792454E+03  0.20247536578E+02 -0.11604188503E+03  0.18748412134E+03  0.81509474454E+02 0.  0.
        254    2    1    2    0    0  0.12095792454E+03 -0.20247536578E+02 -0.80560319923E+01  0.93253696717E+03  0.92440224645E+03 0.  0.
         23    2    4    4    0    0 -0.53374404340E+02  0.42677805951E+03  0.41417722981E+02  0.44151441233E+03  0.90726012818E+02 0.  0.
         23    2    4    4    0    0  0.17433232888E+03 -0.44702559608E+03 -0.49473754973E+02  0.49102255484E+03  0.91825119005E+02 0.  0.
          3    1    3    3  502    0 -0.15789535925E+02  0.27163478126E+02 -0.96166189441E+00  0.31433879529E+02  0.00000000000E+00 0. -1.
         -4    1    3    3    0  502 -0.10516838862E+03 -0.69159415483E+01 -0.11508022314E+03  0.15605024181E+03  0.00000000000E+00 0.  1.
         11    1    5    5    0    0 -0.51130385022E+02  0.42843316762E+03  0.48223207470E+02  0.43415984744E+03  0.00000000000E+00 0.  1.
        -11    1    5    5    0    0 -0.22440193181E+01 -0.16551081142E+01 -0.68054844892E+01  0.73545648887E+01  0.00000000000E+00 0. -1.
          3    1    6    6  503    0 -0.15743486261E+01 -0.58615911914E+02 -0.25561376822E+02  0.63966301191E+02  0.00000000000E+00 0. -1.
         -3    1    6    6    0  503  0.17590667751E+03 -0.38840968417E+03 -0.23912378151E+02  0.42705625365E+03  0.00000000000E+00 0.  1.
<mgrwt>
<rscale>  0 0.11131249E+04</rscale>
<asrwt>0</asrwt>
<pdfrwt beam="1">  1        3 0.76609475E-01 0.11131249E+04</pdfrwt>
<pdfrwt beam="2">  1       -4 0.95701461E-01 0.11131249E+04</pdfrwt>
<totfact> 0.33280862E+00</totfact>
</mgrwt>
</event>
<event>
12    4  0.4424320E-008  0.1320698E+04  0.7818608E-02  0.9013310E-01
          1   -1    0    0  501    0  0.00000000000E+00  0.00000000000E+00  0.44313560474E+03  0.44313560474E+03  0.00000000000E+00 0. -1.
         -2   -1    0    0    0  501 -0.00000000000E+00 -0.00000000000E+00 -0.98403496066E+03  0.98403496066E+03  0.00000000000E+00 0.  1.
        -24    2    1    2    0    0 -0.27907653623E+03  0.72887306436E+02 -0.35088423523E+03  0.46135432658E+03  0.80819524888E+02 0.  0.
        254    2    1    2    0    0  0.27907653623E+03 -0.72887306436E+02 -0.19001512069E+03  0.96581623883E+03  0.90194178780E+03 0.  0.
         23    2    4    4    0    0 -0.52935366097E+02  0.29360641445E+02 -0.48751569374E+03  0.49962882403E+03  0.91067062716E+02 0.  0.
         23    2    4    4    0    0  0.33201190233E+03 -0.10224794788E+03  0.29750057305E+03  0.46618741480E+03  0.90208473074E+02 0.  0.
          1    1    3    3  502    0 -0.32654143444E+02 -0.17524902877E+02 -0.43945685938E+02  0.57485986270E+02  0.00000000000E+00 0. -1.
         -2    1    3    3    0  502 -0.24642239279E+03  0.90412209312E+02 -0.30693854929E+03  0.40386834031E+03  0.00000000000E+00 0.  1.
         11    1    5    5    0    0 -0.73526801562E+02  0.34266079961E+02 -0.44263506199E+03  0.45000683648E+03  0.00000000000E+00 0. -1.
        -11    1    5    5    0    0  0.20591435466E+02 -0.49054385164E+01 -0.44880631756E+02  0.49621987549E+02  0.00000000000E+00 0.  1.
          1    1    6    6  503    0  0.23492310647E+03 -0.82396188871E+02  0.15724572705E+03  0.29445579731E+03  0.00000000000E+00 0. -1.
         -1    1    6    6    0  503  0.97088795854E+02 -0.19851759009E+02  0.14025484600E+03  0.17173161748E+03  0.00000000000E+00 0.  1.
<mgrwt>
<rscale>  0 0.13206982E+04</rscale>
<asrwt>0</asrwt>
<pdfrwt beam="1">  1        1 0.68174709E-01 0.13206982E+04</pdfrwt>
<pdfrwt beam="2">  1       -2 0.15138999E+00 0.13206982E+04</pdfrwt>
<totfact> 0.13094560E+01</totfact>
</mgrwt>
</event>
<event>
12    4  0.4424320E-008  0.1225715E+04  0.7818608E-02  0.9090641E-01
         -2   -1    0    0    0  501 -0.00000000000E+00  0.00000000000E+00  0.26880931443E+03  0.26880931443E+03  0.00000000000E+00 0.  1.
          1   -1    0    0  501    0  0.00000000000E+00 -0.00000000000E+00 -0.13972527424E+04  0.13972527424E+04  0.00000000000E+00 0. -1.
        -24    2    1    2    0    0 -0.37961369609E+02 -0.17536890249E+03 -0.53902931398E+03  0.57342392307E+03  0.77891441590E+02 0.  0.
        254    2    1    2    0    0  0.37961369609E+02  0.17536890249E+03 -0.58941411404E+03  0.10926381338E+04  0.90236011441E+03 0.  0.
         23    2    4    4    0    0  0.39840801229E+03 -0.14103203724E+03 -0.28894478553E+03  0.52015259860E+03  0.91927454861E+02 0.  0.
         23    2    4    4    0    0 -0.36044664268E+03  0.31640093973E+03 -0.30046932851E+03  0.57248553521E+03  0.86177339052E+02 0.  0.
          3    1    3    3  502    0 -0.10569263000E+02 -0.99571670439E+02 -0.40352736821E+03  0.41576503433E+03  0.00000000000E+00 0. -1.
         -4    1    3    3    0  502 -0.27392106609E+02 -0.75797232053E+02 -0.13550194576E+03  0.15765888874E+03  0.00000000000E+00 0.  1.
         11    1    5    5    0    0  0.18394079092E+03 -0.19717772793E+02 -0.10549843900E+03  0.21296226370E+03  0.00000000000E+00 0.  1.
        -11    1    5    5    0    0  0.21446722137E+03 -0.12131426444E+03 -0.18344634653E+03  0.30719033490E+03  0.00000000000E+00 0. -1.
          1    1    6    6  503    0 -0.24394034700E+03  0.25028915826E+03 -0.18400939923E+03  0.39498229662E+03  0.00000000000E+00 0. -1.
         -1    1    6    6    0  503 -0.11650629568E+03  0.66111781471E+02 -0.11645992928E+03  0.17750323859E+03  0.00000000000E+00 0.  1.
<mgrwt>
<rscale>  0 0.12257154E+04</rscale>
<asrwt>0</asrwt>
<pdfrwt beam="1">  1        1 0.21496196E+00 0.12257154E+04</pdfrwt>
<pdfrwt beam="2">  1       -2 0.41355280E-01 0.12257154E+04</pdfrwt>
<totfact> 0.37042068E+01</totfact>
</mgrwt>
</event>
<event>
12    4  0.4424320E-008  0.1191383E+04  0.7818608E-02  0.9120433E-01
          1   -1    0    0  501    0  0.00000000000E+00  0.00000000000E+00  0.77457000495E+03  0.77457000495E+03  0.00000000000E+00 0. -1.
         -2   -1    0    0    0  501 -0.00000000000E+00 -0.00000000000E+00 -0.45812290021E+03  0.45812290021E+03  0.00000000000E+00 0.  1.
        -24    2    1    2    0    0  0.19227489546E+03 -0.12212904836E+03  0.16450072476E+03  0.29263472976E+03  0.81789099120E+02 0.  0.
        254    2    1    2    0    0 -0.19227489546E+03  0.12212904836E+03  0.15194637998E+03  0.94005817540E+03  0.89929779877E+03 0.  0.
         23    2    4    4    0    0  0.24275859038E+03 -0.15509203165E+03  0.26853615377E+03  0.40330029544E+03  0.86914848770E+02 0.  0.
         23    2    4    4    0    0 -0.43503348584E+03  0.27722108002E+03 -0.11658977379E+03  0.53675787996E+03  0.91707062652E+02 0.  0.
          3    1    3    3  502    0  0.49450054290E+02 -0.64898581458E+02  0.90661619251E+02  0.12196992642E+03  0.00000000000E+00 0. -1.
         -4    1    3    3    0  502  0.14282484117E+03 -0.57230466907E+02  0.73839105513E+02  0.17066480334E+03  0.00000000000E+00 0.  1.
         11    1    5    5    0    0  0.98046900522E+02 -0.11200140189E+03  0.15017114984E+03  0.21144475158E+03  0.00000000000E+00 0. -1.
        -11    1    5    5    0    0  0.14471168986E+03 -0.43090629765E+02  0.11836500393E+03  0.19185554386E+03  0.00000000000E+00 0.  1.
          3    1    6    6  503    0 -0.38403647467E+03  0.22094723348E+03 -0.72524843945E+02  0.44895606338E+03  0.00000000000E+00 0. -1.
         -3    1    6    6    0  503 -0.50997011170E+02  0.56273846535E+02 -0.44064929842E+02  0.87801816576E+02  0.00000000000E+00 0.  1.
<mgrwt>
<rscale>  0 0.11913828E+04</rscale>
<asrwt>0</asrwt>
<pdfrwt beam="1">  1        1 0.11916462E+00 0.11913828E+04</pdfrwt>
<pdfrwt beam="2">  1       -2 0.70480446E-01 0.11913828E+04</pdfrwt>
<totfact> 0.36996464E+01</totfact>
</mgrwt>
</event>
<event>
12    4  0.4424320E-008  0.2105292E+04  0.7818608E-02  0.8558916E-01
          1   -1    0    0  501    0  0.00000000000E+00  0.00000000000E+00  0.84697103668E+03  0.84697103668E+03  0.00000000000E+00 0. -1.
         -2   -1    0    0    0  501 -0.00000000000E+00 -0.00000000000E+00 -0.13082658278E+04  0.13082658278E+04  0.00000000000E+00 0.  1.
        -24    2    1    2    0    0  0.37444304498E+03  0.75909172977E+03 -0.34562901124E+02  0.85089544709E+03  0.80003872385E+02 0.  0.
        254    2    1    2    0    0 -0.37444304498E+03 -0.75909172977E+03 -0.42673188998E+03  0.13043414174E+04  0.89597911750E+03 0.  0.
         23    2    4    4    0    0 -0.89800872240E+01 -0.26073256221E+02  0.23141421618E+03  0.24976002478E+03  0.89816890787E+02 0.  0.
         23    2    4    4    0    0 -0.36546295776E+03 -0.73301847355E+03 -0.65814610616E+03  0.10545813926E+04  0.90035329033E+02 0.  0.
          1    1    3    3  502    0  0.33441294226E+03  0.67901319359E+03 -0.59877336121E+01  0.75691927309E+03  0.00000000000E+00 0. -1.
         -2    1    3    3    0  502  0.40030102720E+02  0.80078536179E+02 -0.28575167512E+02  0.93976173994E+02  0.00000000000E+00 0.  1.
         11    1    5    5    0    0  0.39554273497E+01 -0.37660250200E+02  0.31961701783E+02  0.49552903362E+02  0.00000000000E+00 0.  1.
        -11    1    5    5    0    0 -0.12935514574E+02  0.11586993979E+02  0.19945251440E+03  0.20020712142E+03  0.00000000000E+00 0. -1.
          2    1    6    6  503    0 -0.10431574084E+03 -0.28823609865E+03 -0.21299710332E+03  0.37326878838E+03  0.00000000000E+00 0. -1.
         -2    1    6    6    0  503 -0.26114721692E+03 -0.44478237490E+03 -0.44514900284E+03  0.68131260421E+03  0.00000000000E+00 0.  1.
<mgrwt>
<rscale>  0 0.21052917E+04</rscale>
<asrwt>0</asrwt>
<pdfrwt beam="1">  1        1 0.13030324E+00 0.21052917E+04</pdfrwt>
<pdfrwt beam="2">  1       -2 0.20127167E+00 0.21052917E+04</pdfrwt>
<totfact> 0.21167647E+00</totfact>
</mgrwt>
</event>
<event>
12    4  0.4424320E-008  0.2059514E+04  0.7818608E-02  0.8579291E-01
          1   -1    0    0  501    0  0.00000000000E+00  0.00000000000E+00  0.13931401235E+04  0.13931401235E+04  0.00000000000E+00 0. -1.
         -2   -1    0    0    0  501 -0.00000000000E+00 -0.00000000000E+00 -0.76115755789E+03  0.76115755789E+03  0.00000000000E+00 0.  1.
        -24    2    1    2    0    0 -0.78240272604E+03  0.88764027098E+02  0.53600061581E+03  0.95594498968E+03  0.80629305590E+02 0.  0.
        254    2    1    2    0    0  0.78240272604E+03 -0.88764027098E+02  0.95981949781E+02  0.11983526917E+04  0.89822244504E+03 0.  0.
         23    2    4    4    0    0 -0.16620404824E+03 -0.11182324020E+03  0.99700891006E+02  0.24492974769E+03  0.99609692976E+02 0.  0.
         23    2    4    4    0    0  0.94860677428E+03  0.23059213106E+02 -0.37189412252E+01  0.95342294400E+03  0.92816701633E+02 0.  0.
          3    1    3    3  502    0 -0.66372413837E+03  0.60700818593E+02  0.42101221087E+03  0.78833089685E+03  0.00000000000E+00 0. -1.
         -2    1    3    3    0  502 -0.11867858768E+03  0.28063208505E+02  0.11498840494E+03  0.16761409283E+03  0.00000000000E+00 0.  1.
         11    1    5    5    0    0 -0.17081748880E+03 -0.11797750924E+03  0.77767628419E+02  0.22168696668E+03  0.00000000000E+00 0. -1.
        -11    1    5    5    0    0  0.46134405664E+01  0.61542690311E+01  0.21933262588E+02  0.23242781007E+02  0.00000000000E+00 0.  1.
          1    1    6    6  503    0  0.92862128159E+03  0.18477114679E+02  0.98115646752E+01  0.92885690781E+03  0.00000000000E+00 0. -1.
         -1    1    6    6    0  503  0.19985492691E+02  0.45820984273E+01 -0.13530505900E+02  0.24566036189E+02  0.00000000000E+00 0.  1.
<mgrwt>
<rscale>  0 0.20595137E+04</rscale>
<asrwt>0</asrwt>
<pdfrwt beam="1">  1        1 0.21432925E+00 0.20595137E+04</pdfrwt>
<pdfrwt beam="2">  1       -2 0.11710116E+00 0.20595137E+04</pdfrwt>
<totfact> 0.35494477E+00</totfact>
</mgrwt>
</event>
<event>
12    4  0.4424320E-008  0.1279713E+04  0.7818608E-02  0.9045810E-01
          1   -1    0    0  501    0  0.00000000000E+00  0.00000000000E+00  0.22452379196E+04  0.22452379196E+04  0.00000000000E+00 0. -1.
         -2   -1    0    0    0  501 -0.00000000000E+00 -0.00000000000E+00 -0.18234866801E+03  0.18234866801E+03  0.00000000000E+00 0.  1.
        -24    2    1    2    0    0  0.10011514323E+03 -0.65110349146E+02  0.97150432084E+03  0.98183645357E+03  0.76940085029E+02 0.  0.
        254    2    1    2    0    0 -0.10011514323E+03  0.65110349146E+02  0.10913849307E+04  0.14457501340E+04  0.94064338808E+03 0.  0.
         23    2    4    4    0    0  0.37451462028E+03 -0.14017748307E+03  0.36011281658E+03  0.54541559351E+03  0.88803161068E+02 0.  0.
         23    2    4    4    0    0 -0.47462976351E+03  0.20528783222E+03  0.73127211416E+03  0.90033454052E+03  0.91798003499E+02 0.  0.
          1    1    3    3  502    0  0.92638164269E+02 -0.69410228876E+02  0.96224333771E+03  0.96918102041E+03  0.00000000000E+00 0. -1.
         -2    1    3    3    0  502  0.74769789588E+01  0.42998797300E+01  0.92609831280E+01  0.12655433163E+02  0.00000000000E+00 0.  1.
         11    1    5    5    0    0  0.10651062361E+03 -0.54306095422E+02  0.59200799637E+02  0.13341064282E+03  0.00000000000E+00 0.  1.
        -11    1    5    5    0    0  0.26800399667E+03 -0.85871387648E+02  0.30091201694E+03  0.41200495068E+03  0.00000000000E+00 0. -1.
          2    1    6    6  503    0 -0.43760530821E+03  0.21201341082E+03  0.69374973745E+03  0.84719347870E+03  0.00000000000E+00 0. -1.
         -2    1    6    6    0  503 -0.37024455295E+02 -0.67255786038E+01  0.37522376712E+02  0.53141061822E+02  0.00000000000E+00 0.  1.
<mgrwt>
<rscale>  0 0.12797127E+04</rscale>
<asrwt>0</asrwt>
<pdfrwt beam="1">  1        1 0.34542120E+00 0.12797127E+04</pdfrwt>
<pdfrwt beam="2">  1       -2 0.28053643E-01 0.12797127E+04</pdfrwt>
<totfact> 0.20418644E+01</totfact>
</mgrwt>
</event>
<event>
12    4  0.4424320E-008  0.1328669E+04  0.7818608E-02  0.9007134E-01
          1   -1    0    0  501    0  0.00000000000E+00  0.00000000000E+00  0.23094925682E+04  0.23094925682E+04  0.00000000000E+00 0. -1.
         -2   -1    0    0    0  501 -0.00000000000E+00 -0.00000000000E+00 -0.19109835391E+03  0.19109835391E+03  0.00000000000E+00 0.  1.
        -24    2    1    2    0    0 -0.97300604206E+02  0.20873626683E+03  0.54358375836E+02  0.24972192011E+03  0.79799546942E+02 0.  0.
        254    2    1    2    0    0  0.97300604206E+02 -0.20873626683E+03  0.20640358384E+04  0.22508690020E+04  0.86783010150E+03 0.  0.
         23    2    4    4    0    0 -0.62598718895E+02  0.31917677794E+03  0.69516071004E+03  0.77241202419E+03  0.87060364901E+02 0.  0.
         23    2    4    4    0    0  0.15989932310E+03 -0.52791304477E+03  0.13688751284E+04  0.14784569778E+04  0.88067824433E+02 0.  0.
          1    1    3    3  502    0  0.12557877016E+02  0.15635285412E+02 -0.29893068735E+01  0.20275561167E+02  0.00000000000E+00 0. -1.
         -2    1    3    3    0  502 -0.10985848122E+03  0.19310098142E+03  0.57347682710E+02  0.22944635895E+03  0.00000000000E+00 0.  1.
         11    1    5    5    0    0  0.21511107232E+01  0.55649423604E+02  0.60824508769E+02  0.82468821331E+02  0.00000000000E+00 0.  1.
        -11    1    5    5    0    0 -0.64749829618E+02  0.26352735433E+03  0.63433620127E+03  0.68994320285E+03  0.00000000000E+00 0. -1.
          4    1    6    6  503    0 -0.96780081492E+01 -0.56371600895E+02  0.12655495746E+03  0.13887972669E+03  0.00000000000E+00 0.  1.
         -4    1    6    6    0  503  0.16957733125E+03 -0.47154144387E+03  0.12423201709E+04  0.13395772511E+04  0.00000000000E+00 0. -1.
<mgrwt>
<rscale>  0 0.13286688E+04</rscale>
<asrwt>0</asrwt>
<pdfrwt beam="1">  1        1 0.35530653E+00 0.13286688E+04</pdfrwt>
<pdfrwt beam="2">  1       -2 0.29399748E-01 0.13286688E+04</pdfrwt>
<totfact> 0.16853823E+01</totfact>
</mgrwt>
</event>
<event>
12    4  0.4424320E-008  0.1135173E+04  0.7818608E-02  0.9171572E-01
          1   -1    0    0  501    0  0.00000000000E+00  0.00000000000E+00  0.48030918267E+03  0.48030918267E+03  0.00000000000E+00 0. -1.
         -2   -1    0    0    0  501 -0.00000000000E+00 -0.00000000000E+00 -0.67072256618E+03  0.67072256618E+03  0.00000000000E+00 0.  1.
        -24    2    1    2    0    0  0.10816878112E+03 -0.33048517005E+01  0.13137011788E+03  0.19134852897E+03  0.87434229070E+02 0.  0.
        254    2    1    2    0    0 -0.10816878112E+03  0.33048517005E+01 -0.32178350138E+03  0.95968321988E+03  0.89762790370E+03 0.  0.
         23    2    4    4    0    0  0.25324532814E+03 -0.31399177326E+03 -0.12979696628E+03  0.43353201669E+03  0.91535387359E+02 0.  0.
         23    2    4    4    0    0 -0.36141410926E+03  0.31729662496E+03 -0.19198653510E+03  0.52615120319E+03  0.93160895096E+02 0.  0.
          1    1    3    3  502    0  0.69599672682E+02 -0.25740234030E+02  0.12623975758E+03  0.14643479941E+03  0.00000000000E+00 0. -1.
         -2    1    3    3    0  502  0.38569108441E+02  0.22435382329E+02  0.51303603030E+01  0.44913729560E+02  0.00000000000E+00 0.  1.
         11    1    5    5    0    0  0.10760367604E+03 -0.14967282250E+03 -0.10608112811E+03  0.21268218221E+03  0.00000000000E+00 0.  1.
        -11    1    5    5    0    0  0.14564165210E+03 -0.16431895076E+03 -0.23715838173E+02  0.22084983447E+03  0.00000000000E+00 0. -1.
          1    1    6    6  503    0 -0.26635842932E+03  0.20908589693E+03 -0.17486429565E+03  0.38110529655E+03  0.00000000000E+00 0. -1.
         -1    1    6    6    0  503 -0.95055679943E+02  0.10821072802E+03 -0.17122239450E+02  0.14504590664E+03  0.00000000000E+00 0.  1.
<mgrwt>
<rscale>  0 0.11351726E+04</rscale>
<asrwt>0</asrwt>
<pdfrwt beam="1">  1        1 0.73893721E-01 0.11351726E+04</pdfrwt>
<pdfrwt beam="2">  1       -2 0.10318809E+00 0.11351726E+04</pdfrwt>
<totfact> 0.31211550E+01</totfact>
</mgrwt>
</event>
<event>
12    4  0.4424320E-008  0.1641042E+04  0.7818608E-02  0.8795724E-01
          1   -1    0    0  501    0  0.00000000000E+00  0.00000000000E+00  0.14090109292E+04  0.14090109292E+04  0.00000000000E+00 0. -1.
         -2   -1    0    0    0  501 -0.00000000000E+00 -0.00000000000E+00 -0.47782088458E+03  0.47782088458E+03  0.00000000000E+00 0.  1.
        -24    2    1    2    0    0 -0.19817284229E+03  0.98344413534E+02 -0.28054289818E+03  0.36612843355E+03  0.80010080846E+02 0.  0.
        254    2    1    2    0    0  0.19817284229E+03 -0.98344413534E+02  0.12117329428E+04  0.15207033803E+04  0.89179478968E+03 0.  0.
         23    2    4    4    0    0 -0.42177909123E+02 -0.43401311825E+03  0.37222956298E+03  0.58079098233E+03  0.92827553886E+02 0.  0.
         23    2    4    4    0    0  0.24035075142E+03  0.33566870472E+03  0.83950337984E+03  0.93991239793E+03  0.90705170665E+02 0.  0.
          1    1    3    3  502    0 -0.11100916276E+03  0.70139815065E+02 -0.10504680581E+03  0.16815902975E+03  0.00000000000E+00 0. -1.
         -2    1    3    3    0  502 -0.87163679530E+02  0.28204598468E+02 -0.17549609237E+03  0.19796940380E+03  0.00000000000E+00 0.  1.
         11    1    5    5    0    0 -0.53988193290E+01 -0.17255181679E+03  0.91432619301E+02  0.19535403912E+03  0.00000000000E+00 0.  1.
        -11    1    5    5    0    0 -0.36779089794E+02 -0.26146130146E+03  0.28079694368E+03  0.38543694321E+03  0.00000000000E+00 0. -1.
          3    1    6    6  503    0  0.18629413431E+03  0.24638356459E+03  0.53190223872E+03  0.61508565008E+03  0.00000000000E+00 0. -1.
         -3    1    6    6    0  503  0.54056617106E+02  0.89285140132E+02  0.30760114112E+03  0.32482674785E+03  0.00000000000E+00 0.  1.
<mgrwt>
<rscale>  0 0.16410422E+04</rscale>
<asrwt>0</asrwt>
<pdfrwt beam="1">  1        1 0.21677091E+00 0.16410422E+04</pdfrwt>
<pdfrwt beam="2">  1       -2 0.73510906E-01 0.16410422E+04</pdfrwt>
<totfact> 0.10604979E+01</totfact>
</mgrwt>
</event>
<event>
12    4  0.4424320E-008  0.1750430E+04  0.7818608E-02  0.8733114E-01
          1   -1    0    0  501    0  0.00000000000E+00  0.00000000000E+00  0.12230031120E+04  0.12230031120E+04  0.00000000000E+00 0. -1.
         -2   -1    0    0    0  501 -0.00000000000E+00 -0.00000000000E+00 -0.62632826187E+03  0.62632826187E+03  0.00000000000E+00 0.  1.
        -24    2    1    2    0    0  0.25791980468E+03 -0.42907808593E+02  0.84035467998E+03  0.88340902894E+03  0.76497180107E+02 0.  0.
        254    2    1    2    0    0 -0.25791980468E+03  0.42907808593E+02 -0.24367982982E+03  0.96592234495E+03  0.89736414644E+03 0.  0.
         23    2    4    4    0    0 -0.17537893869E+03  0.41275660062E+03  0.72540223846E+02  0.46320250332E+03  0.90380813869E+02 0.  0.
         23    2    4    4    0    0 -0.82540865993E+02 -0.36984879203E+03 -0.31622005367E+03  0.50271984162E+03  0.95556231073E+02 0.  0.
          1    1    3    3  502    0  0.22587627718E+03 -0.99325484964E+01  0.68080978807E+03  0.71737069612E+03  0.00000000000E+00 0. -1.
         -2    1    3    3    0  502  0.32043527506E+02 -0.32975260096E+02  0.15954489190E+03  0.16603833282E+03  0.00000000000E+00 0.  1.
         11    1    5    5    0    0 -0.57447558437E+02  0.11571025477E+03  0.62335895232E+02  0.14343935605E+03  0.00000000000E+00 0.  1.
        -11    1    5    5    0    0 -0.11793138025E+03  0.29704634585E+03  0.10204328614E+02  0.31976314727E+03  0.00000000000E+00 0. -1.
          1    1    6    6  503    0 -0.89120122602E+02 -0.37299985469E+03 -0.31091894899E+03  0.49370221864E+03  0.00000000000E+00 0. -1.
         -1    1    6    6    0  503  0.65792566092E+01  0.31510626619E+01 -0.53011046793E+01  0.90176229822E+01  0.00000000000E+00 0.  1.
<mgrwt>
<rscale>  0 0.17504301E+04</rscale>
<asrwt>0</asrwt>
<pdfrwt beam="1">  1        1 0.18815432E+00 0.17504301E+04</pdfrwt>
<pdfrwt beam="2">  1       -2 0.96358194E-01 0.17504301E+04</pdfrwt>
<totfact> 0.77034152E+00</totfact>
</mgrwt>
</event>
<event>
12    4  0.4424320E-008  0.1702725E+04  0.7818608E-02  0.8759812E-01
          1   -1    0    0  501    0  0.00000000000E+00  0.00000000000E+00  0.61611678467E+03  0.61611678467E+03  0.00000000000E+00 0. -1.
         -2   -1    0    0    0  501 -0.00000000000E+00 -0.00000000000E+00 -0.11764302555E+04  0.11764302555E+04  0.00000000000E+00 0.  1.
        -24    2    1    2    0    0 -0.33773114755E+03 -0.21151521645E+03 -0.62011614611E+03  0.73994419123E+03  0.64593781823E+02 0.  0.
        254    2    1    2    0    0  0.33773114755E+03  0.21151521645E+03  0.59802675243E+02  0.10526028490E+04  0.97241728845E+03 0.  0.
         23    2    4    4    0    0 -0.11521940319E+03  0.13507858470E+03  0.41811266027E+03  0.46313804663E+03  0.90315661083E+02 0.  0.
         23    2    4    4    0    0  0.45295055074E+03  0.76436631752E+02 -0.35830998503E+03  0.58946480235E+03  0.89866277010E+02 0.  0.
          1    1    3    3  502    0 -0.15960984851E+01  0.39615708353E+01 -0.89377308298E+01  0.99057865030E+01  0.00000000000E+00 0. -1.
         -2    1    3    3    0  502 -0.33613504907E+03 -0.21547678729E+03 -0.61117841528E+03  0.73003840473E+03  0.00000000000E+00 0.  1.
         11    1    5    5    0    0 -0.56377559228E+02  0.12730441203E+03  0.30925045245E+03  0.33914699593E+03  0.00000000000E+00 0.  1.
        -11    1    5    5    0    0 -0.58841843958E+02  0.77741726720E+01  0.10886220782E+03  0.12399105070E+03  0.00000000000E+00 0. -1.
          1    1    6    6  503    0  0.42162036252E+03  0.92567758387E+02 -0.31948216332E+03  0.53703014130E+03  0.00000000000E+00 0. -1.
         -1    1    6    6    0  503  0.31330188219E+02 -0.16131126635E+02 -0.38827821704E+02  0.52434661043E+02  0.00000000000E+00 0.  1.
<mgrwt>
<rscale>  0 0.17027254E+04</rscale>
<asrwt>0</asrwt>
<pdfrwt beam="1">  1        1 0.94787198E-01 0.17027254E+04</pdfrwt>
<pdfrwt beam="2">  1       -2 0.18098927E+00 0.17027254E+04</pdfrwt>
<totfact> 0.48945820E+00</totfact>
</mgrwt>
</event>
<event>
12    4  0.4424320E-008  0.1285881E+04  0.7818608E-02  0.9040837E-01
          1   -1    0    0  501    0  0.00000000000E+00  0.00000000000E+00  0.53366436315E+03  0.53366436315E+03  0.00000000000E+00 0. -1.
         -2   -1    0    0    0  501 -0.00000000000E+00 -0.00000000000E+00 -0.77459272820E+03  0.77459272820E+03  0.00000000000E+00 0.  1.
        -24    2    1    2    0    0 -0.37276572493E+02 -0.32087243916E+03 -0.80875264573E+02  0.34309233829E+03  0.82600720947E+02 0.  0.
        254    2    1    2    0    0  0.37276572493E+02  0.32087243916E+03 -0.16005310048E+03  0.96516475306E+03  0.89530851694E+03 0.  0.
         23    2    4    4    0    0  0.43212281650E+03  0.19020968409E+02 -0.38677557491E+02  0.44385534224E+03  0.91758844843E+02 0.  0.
         23    2    4    4    0    0 -0.39484624401E+03  0.30185147075E+03 -0.12137554299E+03  0.52130941082E+03  0.10006803969E+03 0.  0.
          1    1    3    3  502    0 -0.28051615011E+02 -0.26551984451E+03 -0.32434091458E+02  0.26896031532E+03  0.00000000000E+00 0. -1.
         -2    1    3    3    0  502 -0.92249574819E+01 -0.55352594658E+02 -0.48441173115E+02  0.74132022963E+02  0.00000000000E+00 0.  1.
         11    1    5    5    0    0  0.39508619201E+03 -0.86339042789E+01 -0.26565426980E+02  0.39607242435E+03  0.00000000000E+00 0. -1.
        -11    1    5    5    0    0  0.37036624488E+02  0.27654872688E+02 -0.12112130510E+02  0.47782917893E+02  0.00000000000E+00 0.  1.
          3    1    6    6  503    0 -0.24187014088E+03  0.17808366879E+03 -0.12289914208E+03  0.32452913161E+03  0.00000000000E+00 0. -1.
         -3    1    6    6    0  503 -0.15297610313E+03  0.12376780196E+03  0.15235990914E+01  0.19678027920E+03  0.00000000000E+00 0.  1.
<mgrwt>
<rscale>  0 0.12858811E+04</rscale>
<asrwt>0</asrwt>
<pdfrwt beam="1">  1        1 0.82102210E-01 0.12858811E+04</pdfrwt>
<pdfrwt beam="2">  1       -2 0.11916811E+00 0.12858811E+04</pdfrwt>
<totfact> 0.18807490E+01</totfact>
</mgrwt>
</event>
<event>
12    4  0.4424320E-008  0.2397806E+04  0.7818608E-02  0.8440325E-01
         -2   -1    0    0    0  501 -0.00000000000E+00  0.00000000000E+00  0.75534374813E+03  0.75534374813E+03  0.00000000000E+00 0.  1.
          1   -1    0    0  501    0  0.00000000000E+00 -0.00000000000E+00 -0.19029328028E+04  0.19029328028E+04  0.00000000000E+00 0. -1.
        -24    2    1    2    0    0  0.26169587768E+03 -0.14532577906E+03  0.59859470036E+03  0.67424183290E+03  0.81744232086E+02 0.  0.
        254    2    1    2    0    0 -0.26169587768E+03  0.14532577906E+03 -0.17461837550E+04  0.19840347180E+04  0.89310231303E+03 0.  0.
         23    2    4    4    0    0 -0.40727572819E+03  0.39220745076E+03 -0.14580922389E+04  0.15663791269E+04  0.88376405105E+02 0.  0.
         23    2    4    4    0    0  0.14557985051E+03 -0.24688167170E+03 -0.28809151612E+03  0.41765559107E+03  0.96412750193E+02 0.  0.
          3    1    3    3  502    0  0.69227282066E+02 -0.32806860687E+01  0.10613439791E+03  0.12675839184E+03  0.00000000000E+00 0. -1.
         -4    1    3    3    0  502  0.19246859561E+03 -0.14204509299E+03  0.49246030246E+03  0.54748344106E+03  0.00000000000E+00 0.  1.
         11    1    5    5    0    0 -0.15571274044E+03  0.20125616413E+03 -0.58613764736E+03  0.63898970476E+03  0.00000000000E+00 0.  1.
        -11    1    5    5    0    0 -0.25156298775E+03  0.19095128663E+03 -0.87195459151E+03  0.92738942215E+03  0.00000000000E+00 0. -1.
          2    1    6    6  503    0 -0.10414835059E+02 -0.50479512362E+02 -0.51413289066E+02  0.72800935778E+02  0.00000000000E+00 0.  1.
         -2    1    6    6    0  503  0.15599468556E+03 -0.19640215934E+03 -0.23667822705E+03  0.34485465529E+03  0.00000000000E+00 0. -1.
<mgrwt>
<rscale>  0 0.23978060E+04</rscale>
<asrwt>0</asrwt>
<pdfrwt beam="1">  1        1 0.29275889E+00 0.23978060E+04</pdfrwt>
<pdfrwt beam="2">  1       -2 0.11620673E+00 0.23978060E+04</pdfrwt>
<totfact> 0.15696842E+00</totfact>
</mgrwt>
</event>
<event>
12    4  0.4424320E-008  0.1002866E+04  0.7818608E-02  0.9305407E-01
          1   -1    0    0  501    0  0.00000000000E+00  0.00000000000E+00  0.57414249028E+03  0.57414249028E+03  0.00000000000E+00 0. -1.
         -2   -1    0    0    0  501 -0.00000000000E+00 -0.00000000000E+00 -0.43793152707E+03  0.43793152707E+03  0.00000000000E+00 0.  1.
        -24    2    1    2    0    0  0.44790873842E+02  0.39564600256E+02  0.11724886171E+03  0.15407512727E+03  0.80126582962E+02 0.  0.
        254    2    1    2    0    0 -0.44790873842E+02 -0.39564600256E+02  0.18962101494E+02  0.85799889008E+03  0.85570494571E+03 0.  0.
         23    2    4    4    0    0 -0.15301585188E+03  0.58091736372E+02 -0.37998156652E+03  0.42375154317E+03  0.91601739522E+02 0.  0.
         23    2    4    4    0    0  0.10822497804E+03 -0.97656336629E+02  0.39894366801E+03  0.43424734691E+03  0.90362061166E+02 0.  0.
          3    1    3    3  502    0  0.17331150070E+02  0.44093813179E+02  0.17483384589E+02  0.50500513464E+02  0.00000000000E+00 0. -1.
         -4    1    3    3    0  502  0.27459723772E+02 -0.45292129223E+01  0.99765477123E+02  0.10357461381E+03  0.00000000000E+00 0.  1.
         11    1    5    5    0    0 -0.64202299665E+02  0.63762287587E+02 -0.12991196164E+03  0.15831829451E+03  0.00000000000E+00 0. -1.
        -11    1    5    5    0    0 -0.88813552218E+02 -0.56705512145E+01 -0.25006960488E+03  0.26543324865E+03  0.00000000000E+00 0.  1.
          1    1    6    6  503    0  0.30093241412E+02  0.14803674400E+02  0.60956557833E+02  0.69573370604E+02  0.00000000000E+00 0. -1.
         -1    1    6    6    0  503  0.78131736628E+02 -0.11246001103E+03  0.33798711018E+03  0.36467397631E+03  0.00000000000E+00 0.  1.
<mgrwt>
<rscale>  0 0.10028661E+04</rscale>
<asrwt>0</asrwt>
<pdfrwt beam="1">  1        1 0.88329615E-01 0.10028661E+04</pdfrwt>
<pdfrwt beam="2">  1       -2 0.67374080E-01 0.10028661E+04</pdfrwt>
<totfact> 0.64714648E+01</totfact>
</mgrwt>
</event>
<event>
12    4  0.4424320E-008  0.1642659E+04  0.7818608E-02  0.8794761E-01
          1   -1    0    0  501    0  0.00000000000E+00  0.00000000000E+00  0.19928740863E+04  0.19928740863E+04  0.00000000000E+00 0. -1.
         -2   -1    0    0    0  501 -0.00000000000E+00 -0.00000000000E+00 -0.33849696949E+03  0.33849696949E+03  0.00000000000E+00 0.  1.
        -24    2    1    2    0    0  0.11822192813E+03 -0.26266506767E+03 -0.11315348361E+03  0.31761230581E+03  0.71445810834E+02 0.  0.
        254    2    1    2    0    0 -0.11822192813E+03  0.26266506767E+03  0.17675306004E+04  0.20137587499E+04  0.92091830126E+03 0.  0.
         23    2    4    4    0    0 -0.10367917267E+03  0.40632818241E+03  0.27070634959E+03  0.50727934867E+03  0.90545277094E+02 0.  0.
         23    2    4    4    0    0 -0.14542755463E+02 -0.14366311475E+03  0.14968242508E+04  0.15064794013E+04  0.90259439548E+02 0.  0.
          3    1    3    3  502    0  0.61942796935E+02 -0.63665992823E+02 -0.21406176491E+02  0.91370088794E+02  0.00000000000E+00 0. -1.
         -4    1    3    3    0  502  0.56279131195E+02 -0.19899907485E+03 -0.91747307116E+02  0.22624221702E+03  0.00000000000E+00 0.  1.
         11    1    5    5    0    0 -0.56873355088E+02  0.16533506765E+03  0.63468059474E+02  0.18600660657E+03  0.00000000000E+00 0.  1.
        -11    1    5    5    0    0 -0.46805817580E+02  0.24099311476E+03  0.20723829012E+03  0.32127274209E+03  0.00000000000E+00 0. -1.
          3    1    6    6  503    0  0.37668652862E+02 -0.47677946341E+02  0.57519190221E+03  0.57839246048E+03  0.00000000000E+00 0. -1.
         -3    1    6    6    0  503 -0.52211408325E+02 -0.95985168405E+02  0.92163234858E+03  0.92808694079E+03  0.00000000000E+00 0.  1.
<mgrwt>
<rscale>  0 0.16426586E+04</rscale>
<asrwt>0</asrwt>
<pdfrwt beam="1">  1        1 0.30659601E+00 0.16426586E+04</pdfrwt>
<pdfrwt beam="2">  1       -2 0.52076458E-01 0.16426586E+04</pdfrwt>
<totfact> 0.88092806E+00</totfact>
</mgrwt>
</event>
<event>
12    4  0.4424320E-008  0.1838890E+04  0.7818608E-02  0.8685887E-01
         -2   -1    0    0    0  501 -0.00000000000E+00  0.00000000000E+00  0.52067655041E+03  0.52067655041E+03  0.00000000000E+00 0.  1.
          1   -1    0    0  501    0  0.00000000000E+00 -0.00000000000E+00 -0.16236168175E+04  0.16236168175E+04  0.00000000000E+00 0. -1.
        -24    2    1    2    0    0 -0.72583592606E+02 -0.56030968619E+03  0.48308303740E+02  0.57325935330E+03  0.84126521232E+02 0.  0.
        254    2    1    2    0    0  0.72583592606E+02  0.56030968619E+03 -0.11512485708E+04  0.15710340146E+04  0.90750166987E+03 0.  0.
         23    2    4    4    0    0  0.22511358722E+03  0.46430641313E+03 -0.12429926707E+04  0.13489737769E+04  0.91885248442E+02 0.  0.
         23    2    4    4    0    0 -0.15252999461E+03  0.96003273061E+02  0.91744099871E+02  0.22206023772E+03  0.91715547307E+02 0.  0.
          1    1    3    3  502    0  0.44540795671E+01 -0.25622971666E+03  0.27630063466E+01  0.25628332121E+03  0.00000000000E+00 0. -1.
         -2    1    3    3    0  502 -0.77037672174E+02 -0.30407996953E+03  0.45545297393E+02  0.31697603209E+03  0.00000000000E+00 0.  1.
         11    1    5    5    0    0  0.15638056767E+03  0.39738978304E+03 -0.10477286949E+04  0.11314189939E+04  0.00000000000E+00 0. -1.
        -11    1    5    5    0    0  0.68733019551E+02  0.66916630088E+02 -0.19526397574E+03  0.21755478294E+03  0.00000000000E+00 0.  1.
          4    1    6    6  503    0 -0.24840213882E+02  0.44924788579E+02  0.63513821416E+02  0.81665649850E+02  0.00000000000E+00 0. -1.
         -4    1    6    6    0  503 -0.12768978073E+03  0.51078484482E+02  0.28230278455E+02  0.14039458786E+03  0.00000000000E+00 0.  1.
<mgrwt>
<rscale>  0 0.18388901E+04</rscale>
<asrwt>0</asrwt>
<pdfrwt beam="1">  1        1 0.24978720E+00 0.18388901E+04</pdfrwt>
<pdfrwt beam="2">  1       -2 0.80104086E-01 0.18388901E+04</pdfrwt>
<totfact> 0.61159639E+00</totfact>
</mgrwt>
</event>
<event>
12    4  0.4424320E-008  0.1305154E+04  0.7818608E-02  0.9025488E-01
         -2   -1    0    0    0  501 -0.00000000000E+00  0.00000000000E+00  0.10945751879E+04  0.10945751879E+04  0.00000000000E+00 0.  1.
          1   -1    0    0  501    0  0.00000000000E+00 -0.00000000000E+00 -0.38906116402E+03  0.38906116402E+03  0.00000000000E+00 0. -1.
        -24    2    1    2    0    0  0.16195327106E+03 -0.28904024920E+03  0.95152501686E+02  0.35401562640E+03  0.80622189843E+02 0.  0.
        254    2    1    2    0    0 -0.16195327106E+03  0.28904024920E+03  0.61036152220E+03  0.11296207255E+04  0.89091451224E+03 0.  0.
         23    2    4    4    0    0  0.31716379464E+03 -0.89552815709E+01  0.56061572200E+02  0.33348352550E+03  0.85995884808E+02 0.  0.
         23    2    4    4    0    0 -0.47911706569E+03  0.29799553077E+03  0.55429995000E+03  0.79613720004E+03  0.90727656836E+02 0.  0.
          3    1    3    3  502    0  0.98887098672E+02 -0.21866072766E+03  0.36366688073E+02  0.24272146198E+03  0.00000000000E+00 0. -1.
         -4    1    3    3    0  502  0.63066172386E+02 -0.70379521535E+02  0.58785813614E+02  0.11129416442E+03  0.00000000000E+00 0.  1.
         11    1    5    5    0    0 -0.55912001569E+01  0.44308159764E+00  0.26526903194E+01  0.62044021813E+01  0.00000000000E+00 0.  1.
        -11    1    5    5    0    0  0.32275499479E+03 -0.93983631685E+01  0.53408881880E+02  0.32727912332E+03  0.00000000000E+00 0. -1.
          2    1    6    6  503    0 -0.42142757019E+03  0.24593271166E+03  0.43458529759E+03  0.65341294482E+03  0.00000000000E+00 0. -1.
         -2    1    6    6    0  503 -0.57689495509E+02  0.52062819108E+02  0.11971465241E+03  0.14272425522E+03  0.00000000000E+00 0.  1.
<mgrwt>
<rscale>  0 0.13051539E+04</rscale>
<asrwt>0</asrwt>
<pdfrwt beam="1">  1        1 0.59855564E-01 0.13051539E+04</pdfrwt>
<pdfrwt beam="2">  1       -2 0.16839618E+00 0.13051539E+04</pdfrwt>
<totfact> 0.11676622E+01</totfact>
</mgrwt>
</event>
<event>
12    4  0.4424320E-008  0.1192371E+04  0.7818608E-02  0.9119561E-01
         -2   -1    0    0    0  501 -0.00000000000E+00  0.00000000000E+00  0.54030652913E+03  0.54030652913E+03  0.00000000000E+00 0.  1.
          1   -1    0    0  501    0  0.00000000000E+00 -0.00000000000E+00 -0.65784334248E+03  0.65784334248E+03  0.00000000000E+00 0. -1.
        -24    2    1    2    0    0 -0.16909069256E+03 -0.82363936573E+02 -0.18407371448E+03  0.27469436737E+03  0.78729808493E+02 0.  0.
        254    2    1    2    0    0  0.16909069256E+03  0.82363936573E+02  0.66536901129E+02  0.92345550423E+03  0.90164706439E+03 0.  0.
         23    2    4    4    0    0 -0.33500085280E+03 -0.37340069447E+00  0.18325727623E+03  0.39251157903E+03  0.90864732280E+02 0.  0.
         23    2    4    4    0    0  0.50409154536E+03  0.82737337268E+02 -0.11672037510E+03  0.53094392521E+03  0.85580679270E+02 0.  0.
          1    1    3    3  502    0 -0.96139961225E+02 -0.37399955963E+02 -0.15092588301E+03  0.18281211944E+03  0.00000000000E+00 0. -1.
         -2    1    3    3    0  502 -0.72950731335E+02 -0.44963980611E+02 -0.33147831471E+02  0.91882247936E+02  0.00000000000E+00 0.  1.
         11    1    5    5    0    0  0.25089450934E+01  0.75016375714E+01  0.10871475058E+02  0.13444639887E+02  0.00000000000E+00 0. -1.
        -11    1    5    5    0    0 -0.33750979790E+03 -0.78750382658E+01  0.17238580117E+03  0.37906693914E+03  0.00000000000E+00 0.  1.
          2    1    6    6  503    0  0.14688544743E+03 -0.14744751331E+02 -0.29538544669E+02  0.15054988536E+03  0.00000000000E+00 0. -1.
         -2    1    6    6    0  503  0.35720609793E+03  0.97482088599E+02 -0.87181830431E+02  0.38039403985E+03  0.00000000000E+00 0.  1.
<mgrwt>
<rscale>  0 0.11923708E+04</rscale>
<asrwt>0</asrwt>
<pdfrwt beam="1">  1        1 0.10120667E+00 0.11923708E+04</pdfrwt>
<pdfrwt beam="2">  1       -2 0.83124081E-01 0.11923708E+04</pdfrwt>
<totfact> 0.32889097E+01</totfact>
</mgrwt>
</event>
<event>
12    4  0.4424320E-008  0.2844019E+04  0.7818608E-02  0.8289731E-01
         -2   -1    0    0    0  501 -0.00000000000E+00  0.00000000000E+00  0.14317204062E+04  0.14317204062E+04  0.00000000000E+00 0.  1.
          1   -1    0    0  501    0  0.00000000000E+00 -0.00000000000E+00 -0.14123646150E+04  0.14123646150E+04  0.00000000000E+00 0. -1.
        -24    2    1    2    0    0 -0.94894883038E+03 -0.42879071389E+03  0.74945543303E+03  0.12853719433E+04  0.78308541256E+02 0.  0.
        254    2    1    2    0    0  0.94894883038E+03  0.42879071389E+03 -0.73009964186E+03  0.15587130778E+04  0.90120786326E+03 0.  0.
         23    2    4    4    0    0  0.33553485658E+03  0.17727061727E+03 -0.79551679879E+03  0.88700338251E+03  0.99596745442E+02 0.  0.
         23    2    4    4    0    0  0.61341397381E+03  0.25152009662E+03  0.65417156934E+02  0.67170969527E+03  0.85880428698E+02 0.  0.
          3    1    3    3  502    0 -0.27364885807E+03 -0.15860593199E+03  0.24790183134E+03  0.40186422728E+03  0.00000000000E+00 0. -1.
         -4    1    3    3    0  502 -0.67529997231E+03 -0.27018478189E+03  0.50155360169E+03  0.88350771606E+03  0.00000000000E+00 0.  1.
         11    1    5    5    0    0  0.29684615812E+03  0.15126479013E+03 -0.60294572312E+03  0.68887025147E+03  0.00000000000E+00 0.  1.
        -11    1    5    5    0    0  0.38688698458E+02  0.26005827134E+02 -0.19257107567E+03  0.19813313104E+03  0.00000000000E+00 0. -1.
          2    1    6    6  503    0  0.14549743557E+03  0.91193124372E+02 -0.67739294749E+01  0.17184753653E+03  0.00000000000E+00 0. -1.
         -2    1    6    6    0  503  0.46791653823E+03  0.16032697225E+03  0.72191086409E+02  0.49986215874E+03  0.00000000000E+00 0.  1.
<mgrwt>
<rscale>  0 0.28440192E+04</rscale>
<asrwt>0</asrwt>
<pdfrwt beam="1">  1        1 0.21728686E+00 0.28440192E+04</pdfrwt>
<pdfrwt beam="2">  1       -2 0.22026468E+00 0.28440192E+04</pdfrwt>
<totfact> 0.56149827E-01</totfact>
</mgrwt>
</event>
<event>
12    4  0.4424320E-008  0.1735714E+04  0.7818608E-02  0.8741254E-01
          1   -1    0    0  501    0  0.00000000000E+00  0.00000000000E+00  0.49327053831E+03  0.49327053831E+03  0.00000000000E+00 0. -1.
         -2   -1    0    0    0  501 -0.00000000000E+00 -0.00000000000E+00 -0.15269011440E+04  0.15269011440E+04  0.00000000000E+00 0.  1.
        -24    2    1    2    0    0 -0.38055271496E+03  0.49031886465E+03 -0.52056334789E+03  0.81418595944E+03  0.81728939150E+02 0.  0.
        254    2    1    2    0    0  0.38055271496E+03 -0.49031886465E+03 -0.51306725776E+03  0.12059857228E+04  0.89773637267E+03 0.  0.
         23    2    4    4    0    0  0.42426422119E+03  0.11543842477E+03 -0.84889755219E+02  0.45720265701E+03  0.92205421440E+02 0.  0.
         23    2    4    4    0    0 -0.43711506234E+02 -0.60575728942E+03 -0.42817750254E+03  0.74878306582E+03  0.92127718527E+02 0.  0.
          1    1    3    3  502    0 -0.21038792895E+03  0.32584172619E+03 -0.29560175543E+03  0.48766413543E+03  0.00000000000E+00 0. -1.
         -2    1    3    3    0  502 -0.17016478601E+03  0.16447713846E+03 -0.22496159246E+03  0.32652182401E+03  0.00000000000E+00 0.  1.
         11    1    5    5    0    0  0.79441869927E+02  0.86263525657E+01  0.17854560624E+02  0.81879240295E+02  0.00000000000E+00 0.  1.
        -11    1    5    5    0    0  0.34482235126E+03  0.10681207220E+03 -0.10274431584E+03  0.37532341672E+03  0.00000000000E+00 0. -1.
          3    1    6    6  503    0 -0.65295056824E+02 -0.37925753237E+03 -0.24017379800E+03  0.45363330296E+03  0.00000000000E+00 0. -1.
         -3    1    6    6    0  503  0.21583550590E+02 -0.22649975704E+03 -0.18800370455E+03  0.29514976287E+03  0.00000000000E+00 0.  1.
<mgrwt>
<rscale>  0 0.17357135E+04</rscale>
<asrwt>0</asrwt>
<pdfrwt beam="1">  1        1 0.75887774E-01 0.17357135E+04</pdfrwt>
<pdfrwt beam="2">  1       -2 0.23490787E+00 0.17357135E+04</pdfrwt>
<totfact> 0.29855367E+00</totfact>
</mgrwt>
</event>
<event>
12    4  0.4424320E-008  0.1747564E+04  0.7818608E-02  0.8734692E-01
         -2   -1    0    0    0  501 -0.00000000000E+00  0.00000000000E+00  0.93781059448E+03  0.93781059448E+03  0.00000000000E+00 0.  1.
          1   -1    0    0  501    0  0.00000000000E+00 -0.00000000000E+00 -0.81412465269E+03  0.81412465269E+03  0.00000000000E+00 0. -1.
        -24    2    1    2    0    0 -0.17118794306E+03  0.34532419433E+02 -0.60108421150E+03  0.63109340581E+03  0.80491351729E+02 0.  0.
        254    2    1    2    0    0  0.17118794306E+03 -0.34532419433E+02  0.72477015329E+03  0.11208418414E+04  0.83695690355E+03 0.  0.
         23    2    4    4    0    0 -0.85179993981E+02 -0.38325829185E+03  0.25559697689E+03  0.47616042065E+03  0.85184399704E+02 0.  0.
         23    2    4    4    0    0  0.25636793704E+03  0.34872587242E+03  0.46917317641E+03  0.64468142071E+03  0.90312853540E+02 0.  0.
          1    1    3    3  502    0 -0.15376654397E+03  0.50503241158E+02 -0.45103770820E+03  0.47919697581E+03  0.00000000000E+00 0. -1.
         -2    1    3    3    0  502 -0.17421399086E+02 -0.15970821726E+02 -0.15004650330E+03  0.15189643000E+03  0.00000000000E+00 0.  1.
         11    1    5    5    0    0  0.10762560789E+02 -0.13746976356E+03  0.88757373016E+02  0.16398670639E+03  0.00000000000E+00 0. -1.
        -11    1    5    5    0    0 -0.95942554770E+02 -0.24578852829E+03  0.16683960387E+03  0.31217371426E+03  0.00000000000E+00 0.  1.
          3    1    6    6  503    0  0.15637112626E+02  0.78938238497E+01  0.10046454181E+01  0.17545399929E+02  0.00000000000E+00 0. -1.
         -3    1    6    6    0  503  0.24073082441E+03  0.34083204857E+03  0.46816853099E+03  0.62713602078E+03  0.00000000000E+00 0.  1.
<mgrwt>
<rscale>  0 0.17475637E+04</rscale>
<asrwt>0</asrwt>
<pdfrwt beam="1">  1        1 0.12524995E+00 0.17475637E+04</pdfrwt>
<pdfrwt beam="2">  1       -2 0.14427855E+00 0.17475637E+04</pdfrwt>
<totfact> 0.59231383E+00</totfact>
</mgrwt>
</event>
<event>
12    4  0.4424320E-008  0.1430638E+04  0.7818608E-02  0.8931935E-01
         -2   -1    0    0    0  501 -0.00000000000E+00  0.00000000000E+00  0.72535296639E+03  0.72535296639E+03  0.00000000000E+00 0.  1.
          1   -1    0    0  501    0  0.00000000000E+00 -0.00000000000E+00 -0.70542382702E+03  0.70542382702E+03  0.00000000000E+00 0. -1.
        -24    2    1    2    0    0  0.26755529513E+03  0.22165085503E+03 -0.25035056658E+03  0.43527711333E+03  0.77947557431E+02 0.  0.
        254    2    1    2    0    0 -0.26755529513E+03 -0.22165085503E+03  0.27027970596E+03  0.99549968009E+03  0.89289056222E+03 0.  0.
         23    2    4    4    0    0 -0.51617907055E+02  0.17620807928E+03 -0.23432312146E+03  0.31168986325E+03  0.92355563296E+02 0.  0.
         23    2    4    4    0    0 -0.21593738807E+03 -0.39785893431E+03  0.50460282742E+03  0.68380981683E+03  0.89728284160E+02 0.  0.
          3    1    3    3  502    0  0.27301875311E+03  0.21705562745E+03 -0.24701238710E+03  0.42739619131E+03  0.00000000000E+00 0. -1.
         -4    1    3    3    0  502 -0.54634579843E+01  0.45952275807E+01 -0.33381794796E+01  0.78809220211E+01  0.00000000000E+00 0.  1.
         11    1    5    5    0    0  0.23089713478E+02  0.19547227794E+02 -0.50559550173E+02  0.58919411883E+02  0.00000000000E+00 0.  1.
        -11    1    5    5    0    0 -0.74707620533E+02  0.15666085148E+03 -0.18376357129E+03  0.25277045137E+03  0.00000000000E+00 0. -1.
          2    1    6    6  503    0 -0.13471512571E+03 -0.29585932327E+03  0.40724332352E+03  0.52108351424E+03  0.00000000000E+00 0. -1.
         -2    1    6    6    0  503 -0.81222262366E+02 -0.10199961104E+03  0.97359503901E+02  0.16272630260E+03  0.00000000000E+00 0.  1.
<mgrwt>
<rscale>  0 0.14306380E+04</rscale>
<asrwt>0</asrwt>
<pdfrwt beam="1">  1        1 0.10852674E+00 0.14306380E+04</pdfrwt>
<pdfrwt beam="2">  1       -2 0.11159276E+00 0.14306380E+04</pdfrwt>
<totfact> 0.14549770E+01</totfact>
</mgrwt>
</event>
<event>
12    4  0.4424320E-008  0.2313897E+04  0.7818608E-02  0.8472462E-01
         -2   -1    0    0    0  501 -0.00000000000E+00  0.00000000000E+00  0.19998357060E+04  0.19998357060E+04  0.00000000000E+00 0.  1.
          1   -1    0    0  501    0  0.00000000000E+00 -0.00000000000E+00 -0.66931966900E+03  0.66931966900E+03  0.00000000000E+00 0. -1.
        -24    2    1    2    0    0  0.83636327908E+03 -0.52828567414E+03  0.54727429030E+03  0.11337226963E+04  0.85021850802E+02 0.  0.
        254    2    1    2    0    0 -0.83636327908E+03  0.52828567414E+03  0.78324174672E+03  0.15354326788E+04  0.87492661926E+03 0.  0.
         23    2    4    4    0    0 -0.64586116704E+03  0.74559576799E+03  0.46116237848E+03  0.10928077137E+04  0.92240248151E+02 0.  0.
         23    2    4    4    0    0 -0.19050211204E+03 -0.21731009385E+03  0.32207936824E+03  0.44262496509E+03  0.93096770601E+02 0.  0.
          1    1    3    3  502    0  0.35036718379E+03 -0.20570865236E+03  0.27033970774E+03  0.48801308457E+03  0.00000000000E+00 0. -1.
         -2    1    3    3    0  502  0.48599609529E+03 -0.32257702178E+03  0.27693458256E+03  0.64570961170E+03  0.00000000000E+00 0.  1.
         11    1    5    5    0    0 -0.49176960738E+02  0.26071352718E+02  0.19540480656E+02  0.58990840681E+02  0.00000000000E+00 0.  1.
        -11    1    5    5    0    0 -0.59668420631E+03  0.71952441528E+03  0.44162189783E+03  0.10338168730E+04  0.00000000000E+00 0. -1.
          3    1    6    6  503    0 -0.19614777538E+03 -0.21917421211E+03  0.30150362143E+03  0.42120745337E+03  0.00000000000E+00 0. -1.
         -3    1    6    6    0  503  0.56456633415E+01  0.18641182633E+01  0.20575746804E+02  0.21417511714E+02  0.00000000000E+00 0.  1.
<mgrwt>
<rscale>  0 0.23138966E+04</rscale>
<asrwt>0</asrwt>
<pdfrwt beam="1">  1        1 0.10297226E+00 0.23138966E+04</pdfrwt>
<pdfrwt beam="2">  1       -2 0.30766703E+00 0.23138966E+04</pdfrwt>
<totfact> 0.65815379E-01</totfact>
</mgrwt>
</event>
<event>
12    4  0.4424320E-008  0.1830888E+04  0.7818608E-02  0.8690044E-01
          1   -1    0    0  501    0  0.00000000000E+00  0.00000000000E+00  0.62525819896E+03  0.62525819896E+03  0.00000000000E+00 0. -1.
         -2   -1    0    0    0  501 -0.00000000000E+00 -0.00000000000E+00 -0.13403064637E+04  0.13403064637E+04  0.00000000000E+00 0.  1.
        -24    2    1    2    0    0  0.62815678502E+03 -0.28639091122E+03 -0.32425285222E+03  0.76680359381E+03  0.79038842988E+02 0.  0.
        254    2    1    2    0    0 -0.62815678502E+03  0.28639091122E+03 -0.39079541252E+03  0.11987610689E+04  0.89872484397E+03 0.  0.
         23    2    4    4    0    0 -0.54984799612E+02  0.57102632311E+02  0.26710302274E+03  0.29202353845E+03  0.87462468782E+02 0.  0.
         23    2    4    4    0    0 -0.57317198541E+03  0.22928827891E+03 -0.65789843527E+03  0.90673753041E+03  0.90792941463E+02 0.  0.
          3    1    3    3  502    0  0.45989995888E+03 -0.17334953292E+03 -0.21397493569E+03  0.53604412677E+03  0.00000000000E+00 0. -1.
         -4    1    3    3    0  502  0.16825682614E+03 -0.11304137830E+03 -0.11027791654E+03  0.23075946703E+03  0.00000000000E+00 0.  1.
         11    1    5    5    0    0 -0.34332195506E+02  0.61054654559E+02  0.26084303043E+03  0.27008416654E+03  0.00000000000E+00 0. -1.
        -11    1    5    5    0    0 -0.20652604106E+02 -0.39520222481E+01  0.62599923177E+01  0.21939371915E+02  0.00000000000E+00 0.  1.
          1    1    6    6  503    0 -0.45874142809E+03  0.15074729258E+03 -0.54216481525E+03  0.72602419447E+03  0.00000000000E+00 0. -1.
         -1    1    6    6    0  503 -0.11443055731E+03  0.78540986332E+02 -0.11573362002E+03  0.18071333593E+03  0.00000000000E+00 0.  1.
<mgrwt>
<rscale>  0 0.18308879E+04</rscale>
<asrwt>0</asrwt>
<pdfrwt beam="1">  1        1 0.96193570E-01 0.18308879E+04</pdfrwt>
<pdfrwt beam="2">  1       -2 0.20620099E+00 0.18308879E+04</pdfrwt>
<totfact> 0.32175795E+00</totfact>
</mgrwt>
</event>
<event>
12    4  0.4424320E-008  0.1796485E+04  0.7818608E-02  0.8708171E-01
          1   -1    0    0  501    0  0.00000000000E+00  0.00000000000E+00  0.25646149094E+04  0.25646149094E+04  0.00000000000E+00 0. -1.
         -2   -1    0    0    0  501 -0.00000000000E+00 -0.00000000000E+00 -0.31460454754E+03  0.31460454754E+03  0.00000000000E+00 0.  1.
        -24    2    1    2    0    0  0.31626344921E+03  0.70107415833E+02 -0.95441690796E+02  0.34619486555E+03  0.76184969161E+02 0.  0.
        254    2    1    2    0    0 -0.31626344921E+03 -0.70107415833E+02  0.23454520526E+04  0.25330245914E+04  0.90007256944E+03 0.  0.
         23    2    4    4    0    0  0.66978942288E+02 -0.72544123434E+02 -0.19354756880E+02  0.13540161236E+03  0.90609941289E+02 0.  0.
         23    2    4    4    0    0 -0.38324239150E+03  0.24367076009E+01  0.23648068095E+04  0.23976229790E+04  0.96974403906E+02 0.  0.
          1    1    3    3  502    0  0.14058356527E+02  0.12161340174E+02  0.97635923425E+01  0.20996745426E+02  0.00000000000E+00 0. -1.
         -2    1    3    3    0  502  0.30220509269E+03  0.57946075659E+02 -0.10520528314E+03  0.32519812012E+03  0.00000000000E+00 0.  1.
         11    1    5    5    0    0  0.92829339317E+01  0.14245283578E+02 -0.25896242752E+02  0.30979289135E+02  0.00000000000E+00 0. -1.
        -11    1    5    5    0    0  0.57696008356E+02 -0.86789407013E+02  0.65414858723E+01  0.10442232322E+03  0.00000000000E+00 0.  1.
          1    1    6    6  503    0  0.50010321717E+01  0.15751499965E+01  0.13572218570E+02  0.14549795091E+02  0.00000000000E+00 0. -1.
         -1    1    6    6    0  503 -0.38824342367E+03  0.86155760442E+00  0.23512345910E+04  0.23830731839E+04  0.00000000000E+00 0.  1.
<mgrwt>
<rscale>  0 0.17964849E+04</rscale>
<asrwt>0</asrwt>
<pdfrwt beam="1">  1        1 0.39455613E+00 0.17964849E+04</pdfrwt>
<pdfrwt beam="2">  1       -2 0.48400701E-01 0.17964849E+04</pdfrwt>
<totfact> 0.40996163E+00</totfact>
</mgrwt>
</event>
<event>
12    4  0.4424320E-008  0.2844111E+04  0.7818608E-02  0.8289703E-01
          1   -1    0    0  501    0  0.00000000000E+00  0.00000000000E+00  0.25681275978E+04  0.25681275978E+04  0.00000000000E+00 0. -1.
         -2   -1    0    0    0  501 -0.00000000000E+00 -0.00000000000E+00 -0.78743850395E+03  0.78743850395E+03  0.00000000000E+00 0.  1.
        -24    2    1    2    0    0  0.92004556364E+03  0.60014925795E+03  0.32286455650E+02  0.11017813392E+04  0.78846263122E+02 0.  0.
        254    2    1    2    0    0 -0.92004556364E+03 -0.60014925795E+03  0.17484026382E+04  0.22537847625E+04  0.90331113113E+03 0.  0.
         23    2    4    4    0    0 -0.48972971977E+02 -0.52675771049E+03  0.55957983230E+03  0.77531564991E+03  0.90070698475E+02 0.  0.
         23    2    4    4    0    0 -0.87107259166E+03 -0.73391547457E+02  0.11888228059E+04  0.14784691126E+04  0.91746792958E+02 0.  0.
          1    1    3    3  502    0  0.92006584275E+03  0.59730333860E+03  0.35458360631E+02  0.10975198079E+04  0.00000000000E+00 0. -1.
         -2    1    3    3    0  502 -0.20279114539E-01  0.28459193523E+01 -0.31719049806E+01  0.42615313454E+01  0.00000000000E+00 0.  1.
         11    1    5    5    0    0  0.37279008506E+01 -0.16685239518E+03  0.23210518136E+03  0.28587835567E+03  0.00000000000E+00 0. -1.
        -11    1    5    5    0    0 -0.52700872828E+02 -0.35990531531E+03  0.32747465094E+03  0.48943729424E+03  0.00000000000E+00 0.  1.
          3    1    6    6  503    0 -0.73058476260E+03 -0.54727370705E+02  0.93597546928E+03  0.11886123252E+04  0.00000000000E+00 0. -1.
         -3    1    6    6    0  503 -0.14048782907E+03 -0.18664176752E+02  0.25284733660E+03  0.28985678746E+03  0.00000000000E+00 0.  1.
<mgrwt>
<rscale>  0 0.28441115E+04</rscale>
<asrwt>0</asrwt>
<pdfrwt beam="1">  1        1 0.39509655E+00 0.28441115E+04</pdfrwt>
<pdfrwt beam="2">  1       -2 0.12114439E+00 0.28441115E+04</pdfrwt>
<totfact> 0.47768531E-01</totfact>
</mgrwt>
</event>
<event>
12    4  0.4424320E-008  0.1245126E+04  0.7818608E-02  0.9074250E-01
         -2   -1    0    0    0  501 -0.00000000000E+00  0.00000000000E+00  0.62232883560E+03  0.62232883560E+03  0.00000000000E+00 0.  1.
          1   -1    0    0  501    0  0.00000000000E+00 -0.00000000000E+00 -0.62279707578E+03  0.62279707578E+03  0.00000000000E+00 0. -1.
        -24    2    1    2    0    0 -0.27329820026E+03  0.10912491059E+03 -0.12700297045E+02  0.30668726894E+03  0.85414466010E+02 0.  0.
        254    2    1    2    0    0  0.27329820026E+03 -0.10912491059E+03  0.12232056868E+02  0.93843864245E+03  0.89102037577E+03 0.  0.
         23    2    4    4    0    0  0.31255140778E+03 -0.10850300182E+03  0.40582081868E+03  0.53189372892E+03  0.93590160192E+02 0.  0.
         23    2    4    4    0    0 -0.39253207516E+02 -0.62190877569E+00 -0.39358876181E+03  0.40654491353E+03  0.93943878033E+02 0.  0.
          3    1    3    3  502    0 -0.63291071587E+02 -0.85176098443E+01 -0.16445348120E+02  0.65945120326E+02  0.00000000000E+00 0. -1.
         -4    1    3    3    0  502 -0.21000712867E+03  0.11764252044E+03  0.37450510758E+01  0.24074214861E+03  0.00000000000E+00 0.  1.
         11    1    5    5    0    0  0.24360697075E+03 -0.66569678041E+02  0.24444756250E+03  0.35146904422E+03  0.00000000000E+00 0. -1.
        -11    1    5    5    0    0  0.68944437029E+02 -0.41933323778E+02  0.16137325618E+03  0.18042468470E+03  0.00000000000E+00 0.  1.
          3    1    6    6  503    0 -0.55595357036E+02  0.25112973995E+02 -0.33489997606E+03  0.34041078002E+03  0.00000000000E+00 0. -1.
         -3    1    6    6    0  503  0.16342149520E+02 -0.25734882771E+02 -0.58688785749E+02  0.66134133508E+02  0.00000000000E+00 0.  1.
<mgrwt>
<rscale>  0 0.12451258E+04</rscale>
<asrwt>0</asrwt>
<pdfrwt beam="1">  1        1 0.95814934E-01 0.12451258E+04</pdfrwt>
<pdfrwt beam="2">  1       -2 0.95742898E-01 0.12451258E+04</pdfrwt>
<totfact> 0.25637259E+01</totfact>
</mgrwt>
</event>
<event>
12    4  0.4424320E-008  0.1972565E+04  0.7818608E-02  0.8619556E-01
          3   -1    0    0  501    0  0.00000000000E+00  0.00000000000E+00  0.71488155336E+03  0.71488155336E+03  0.00000000000E+00 0. -1.
         -4   -1    0    0    0  501 -0.00000000000E+00 -0.00000000000E+00 -0.13607190004E+04  0.13607190004E+04  0.00000000000E+00 0.  1.
        -24    2    1    2    0    0 -0.64699738099E+03  0.16173502379E+03 -0.67159947945E+03  0.94959210051E+03  0.76912077332E+02 0.  0.
        254    2    1    2    0    0  0.64699738099E+03 -0.16173502379E+03  0.25762032447E+02  0.11260084532E+04  0.90689995338E+03 0.  0.
         23    2    4    4    0    0 -0.22184234721E+03 -0.43726842136E+02  0.24438714696E+02  0.24448829291E+03  0.89728539789E+02 0.  0.
         23    2    4    4    0    0  0.86883972820E+03 -0.11800818165E+03  0.13233177503E+01  0.88152016030E+03  0.90926550599E+02 0.  0.
          1    1    3    3  502    0 -0.32139125086E+01 -0.28537948478E+00 -0.16911607380E+02  0.17216652963E+02  0.00000000000E+00 0. -1.
         -2    1    3    3    0  502 -0.64378346848E+03  0.16202040327E+03 -0.65468787207E+03  0.93237544755E+03  0.00000000000E+00 0.  1.
         11    1    5    5    0    0 -0.62632207435E+02  0.27601548378E+02  0.90748918426E+00  0.68450437673E+02  0.00000000000E+00 0.  1.
        -11    1    5    5    0    0 -0.15921013978E+03 -0.71328390514E+02  0.23531225512E+02  0.17603785523E+03  0.00000000000E+00 0. -1.
          4    1    6    6  503    0  0.76323840629E+03 -0.74212163039E+02  0.96008521127E+01  0.76689796344E+03  0.00000000000E+00 0. -1.
         -4    1    6    6    0  503  0.10560132191E+03 -0.43796018611E+02 -0.82775343623E+01  0.11462219685E+03  0.00000000000E+00 0.  1.
<mgrwt>
<rscale>  0 0.19725647E+04</rscale>
<asrwt>0</asrwt>
<pdfrwt beam="1">  1        3 0.10998178E+00 0.19725647E+04</pdfrwt>
<pdfrwt beam="2">  1       -4 0.20934138E+00 0.19725647E+04</pdfrwt>
<totfact> 0.16984673E-01</totfact>
</mgrwt>
</event>
<event>
12    4  0.4424320E-008  0.1283041E+04  0.7818608E-02  0.9043123E-01
          1   -1    0    0  501    0  0.00000000000E+00  0.00000000000E+00  0.72091223463E+03  0.72091223463E+03  0.00000000000E+00 0. -1.
         -2   -1    0    0    0  501 -0.00000000000E+00 -0.00000000000E+00 -0.57087160521E+03  0.57087160521E+03  0.00000000000E+00 0.  1.
        -24    2    1    2    0    0  0.69976291496E+02  0.31720648325E+03  0.32305129337E+03  0.46584524753E+03  0.84457220606E+02 0.  0.
        254    2    1    2    0    0 -0.69976291496E+02 -0.31720648325E+03 -0.17301066395E+03  0.82593859230E+03  0.73940870567E+03 0.  0.
         23    2    4    4    0    0 -0.10263386441E+03  0.20269823564E+03  0.53762192167E+02  0.25113283818E+03  0.92504293153E+02 0.  0.
         23    2    4    4    0    0  0.32657572910E+02 -0.51990471889E+03 -0.22677285612E+03  0.57480575412E+03  0.87225528980E+02 0.  0.
          3    1    3    3  502    0  0.67859354552E+02  0.12497065401E+03  0.15682124582E+03  0.21169662138E+03  0.00000000000E+00 0. -1.
         -4    1    3    3    0  502  0.21169369438E+01  0.19223582924E+03  0.16623004756E+03  0.25414862615E+03  0.00000000000E+00 0.  1.
         11    1    5    5    0    0  0.12614440073E+02  0.62423692703E+02  0.16759767926E+02  0.65853863440E+02  0.00000000000E+00 0. -1.
        -11    1    5    5    0    0 -0.11524830448E+03  0.14027454294E+03  0.37002424241E+02  0.18527897474E+03  0.00000000000E+00 0.  1.
          3    1    6    6  503    0 -0.19955500079E+02 -0.32722890379E+03 -0.15430266656E+03  0.36233450066E+03  0.00000000000E+00 0. -1.
         -3    1    6    6    0  503  0.52613072989E+02 -0.19267581509E+03 -0.72470189561E+02  0.21247125346E+03  0.00000000000E+00 0.  1.
<mgrwt>
<rscale>  0 0.12830406E+04</rscale>
<asrwt>0</asrwt>
<pdfrwt beam="1">  1        1 0.11090957E+00 0.12830406E+04</pdfrwt>
<pdfrwt beam="2">  1       -2 0.87826401E-01 0.12830406E+04</pdfrwt>
<totfact> 0.25090318E+01</totfact>
</mgrwt>
</event>
<event>
12    4  0.4424320E-008  0.1836058E+04  0.7818608E-02  0.8687356E-01
         -2   -1    0    0    0  501 -0.00000000000E+00  0.00000000000E+00  0.38554057389E+03  0.38554057389E+03  0.00000000000E+00 0.  1.
          1   -1    0    0  501    0  0.00000000000E+00 -0.00000000000E+00 -0.21859621389E+04  0.21859621389E+04  0.00000000000E+00 0. -1.
        -24    2    1    2    0    0 -0.68450304245E+03  0.70857382907E+02 -0.61261674733E+03  0.92497272896E+03  0.81915116927E+02 0.  0.
        254    2    1    2    0    0  0.68450304245E+03 -0.70857382907E+02 -0.11878048177E+04  0.16465299839E+04  0.90918398518E+03 0.  0.
         23    2    4    4    0    0  0.11736079128E+03  0.27874034779E+03 -0.43659993068E+02  0.31941496362E+03  0.93005307225E+02 0.  0.
         23    2    4    4    0    0  0.56714225117E+03 -0.34959773070E+03 -0.11441448247E+04  0.13271150203E+04  0.91093308209E+02 0.  0.
          3    1    3    3  502    0 -0.17406204488E+03  0.28946026008E+02 -0.11331242154E+03  0.20970258168E+03  0.00000000000E+00 0. -1.
         -4    1    3    3    0  502 -0.51044099757E+03  0.41911356900E+02 -0.49930432579E+03  0.71527014728E+03  0.00000000000E+00 0.  1.
         11    1    5    5    0    0 -0.15432692207E+02  0.19854154164E+02  0.34313752361E+00  0.25149019260E+02  0.00000000000E+00 0. -1.
        -11    1    5    5    0    0  0.13279348349E+03  0.25888619363E+03 -0.44003130592E+02  0.29426594436E+03  0.00000000000E+00 0.  1.
          1    1    6    6  503    0  0.27885267222E+02 -0.26823922234E+02 -0.34434351975E+02  0.51796095682E+02  0.00000000000E+00 0. -1.
         -1    1    6    6    0  503  0.53925698394E+03 -0.32277380846E+03 -0.11097104727E+04  0.12753189246E+04  0.00000000000E+00 0.  1.
<mgrwt>
<rscale>  0 0.18360578E+04</rscale>
<asrwt>0</asrwt>
<pdfrwt beam="1">  1        1 0.33630186E+00 0.18360578E+04</pdfrwt>
<pdfrwt beam="2">  1       -2 0.59313936E-01 0.18360578E+04</pdfrwt>
<totfact> 0.48839115E+00</totfact>
</mgrwt>
</event>
<event>
12    4  0.4424320E-008  0.2526178E+04  0.7818608E-02  0.8393718E-01
          1   -1    0    0  501    0  0.00000000000E+00  0.00000000000E+00  0.53884585629E+03  0.53884585629E+03  0.00000000000E+00 0. -1.
         -2   -1    0    0    0  501 -0.00000000000E+00 -0.00000000000E+00 -0.29607610580E+04  0.29607610580E+04  0.00000000000E+00 0.  1.
        -24    2    1    2    0    0  0.92576042042E+03  0.39500478236E+03 -0.16691982659E+04  0.19508495646E+04  0.80808655424E+02 0.  0.
        254    2    1    2    0    0 -0.92576042042E+03 -0.39500478236E+03 -0.75271693585E+03  0.15487573497E+04  0.90498917598E+03 0.  0.
         23    2    4    4    0    0 -0.31701223542E+03  0.28467726989E+03 -0.21242305199E+03  0.48473241802E+03  0.91126607897E+02 0.  0.
         23    2    4    4    0    0 -0.60874818500E+03 -0.67968205226E+03 -0.54029388386E+03  0.10640249317E+04  0.87689961788E+02 0.  0.
          3    1    3    3  502    0  0.33757680433E+03  0.15498671836E+03 -0.54440348369E+03  0.65905548685E+03  0.00000000000E+00 0. -1.
         -4    1    3    3    0  502  0.58818361609E+03  0.24001806401E+03 -0.11247947822E+04  0.12917940778E+04  0.00000000000E+00 0.  1.
         11    1    5    5    0    0 -0.32137403543E+03  0.27066829342E+03 -0.19927203131E+03  0.46502896488E+03  0.00000000000E+00 0. -1.
        -11    1    5    5    0    0  0.43618000072E+01  0.14008976470E+02 -0.13151020678E+02  0.19703453147E+02  0.00000000000E+00 0.  1.
          2    1    6    6  503    0 -0.31693844667E+03 -0.39307672413E+03 -0.25783696368E+03  0.56695607402E+03  0.00000000000E+00 0. -1.
         -2    1    6    6    0  503 -0.29180973833E+03 -0.28660532812E+03 -0.28245692019E+03  0.49706885766E+03  0.00000000000E+00 0.  1.
<mgrwt>
<rscale>  0 0.25261780E+04</rscale>
<asrwt>0</asrwt>
<pdfrwt beam="1">  1        1 0.82899362E-01 0.25261780E+04</pdfrwt>
<pdfrwt beam="2">  1       -2 0.45550170E+00 0.25261780E+04</pdfrwt>
<totfact> 0.98892135E-02</totfact>
</mgrwt>
</event>
<event>
12    4  0.4424320E-008  0.1688757E+04  0.7818608E-02  0.8767803E-01
          1   -1    0    0  501    0  0.00000000000E+00  0.00000000000E+00  0.39413975901E+03  0.39413975901E+03  0.00000000000E+00 0. -1.
         -2   -1    0    0    0  501 -0.00000000000E+00 -0.00000000000E+00 -0.18089396398E+04  0.18089396398E+04  0.00000000000E+00 0.  1.
        -24    2    1    2    0    0 -0.12584328868E+03 -0.17248101811E+03 -0.12405517029E+04  0.12611580846E+04  0.77233101690E+02 0.  0.
        254    2    1    2    0    0  0.12584328868E+03  0.17248101811E+03 -0.17424817789E+03  0.94192131416E+03  0.90070366917E+03 0.  0.
         23    2    4    4    0    0  0.32656015014E+03  0.35476851122E+03  0.14556570202E+03  0.51220263445E+03  0.93058782072E+02 0.  0.
         23    2    4    4    0    0 -0.20071686145E+03 -0.18228749311E+03 -0.31981387992E+03  0.42971867971E+03  0.94134145163E+02 0.  0.
          1    1    3    3  502    0  0.77819263457E+01 -0.25971156332E+02 -0.20573359940E+03  0.20751234484E+03  0.00000000000E+00 0. -1.
         -2    1    3    3    0  502 -0.13362521503E+03 -0.14650986178E+03 -0.10348181035E+04  0.10536457398E+04  0.00000000000E+00 0.  1.
         11    1    5    5    0    0  0.52382311109E+02  0.20875074279E+02  0.34536227502E+02  0.66124324219E+02  0.00000000000E+00 0.  1.
        -11    1    5    5    0    0  0.27417783903E+03  0.33389343694E+03  0.11102947452E+03  0.44607831023E+03  0.00000000000E+00 0. -1.
          2    1    6    6  503    0 -0.17245607887E+03 -0.19005231858E+03 -0.27475840663E+03  0.37596963302E+03  0.00000000000E+00 0. -1.
         -2    1    6    6    0  503 -0.28260782582E+02  0.77648254735E+01 -0.45055473284E+02  0.53749046686E+02  0.00000000000E+00 0.  1.
<mgrwt>
<rscale>  0 0.16887570E+04</rscale>
<asrwt>0</asrwt>
<pdfrwt beam="1">  1        1 0.60636885E-01 0.16887570E+04</pdfrwt>
<pdfrwt beam="2">  1       -2 0.27829841E+00 0.16887570E+04</pdfrwt>
<totfact> 0.22007539E+00</totfact>
</mgrwt>
</event>
<event>
12    4  0.4424320E-008  0.1749291E+04  0.7818608E-02  0.8733741E-01
          1   -1    0    0  501    0  0.00000000000E+00  0.00000000000E+00  0.80791459551E+03  0.80791459551E+03  0.00000000000E+00 0. -1.
         -2   -1    0    0    0  501 -0.00000000000E+00 -0.00000000000E+00 -0.94688795632E+03  0.94688795632E+03  0.00000000000E+00 0.  1.
        -24    2    1    2    0    0  0.45220645125E+03 -0.34694432803E+03 -0.34600497978E+03  0.67125671730E+03  0.77492536290E+02 0.  0.
        254    2    1    2    0    0 -0.45220645125E+03  0.34694432803E+03  0.20703161897E+03  0.10835458345E+04  0.89796906571E+03 0.  0.
         23    2    4    4    0    0 -0.15363058488E+03  0.14817095726E+02  0.50708514080E+03  0.53778478344E+03  0.90858298111E+02 0.  0.
         23    2    4    4    0    0 -0.29857586636E+03  0.33212723231E+03 -0.30005352183E+03  0.54576105109E+03  0.91471102062E+02 0.  0.
          1    1    3    3  502    0  0.15854420505E+03 -0.12547175173E+03 -0.80483445033E+02  0.21761665920E+03  0.00000000000E+00 0. -1.
         -2    1    3    3    0  502  0.29366224619E+03 -0.22147257631E+03 -0.26552153475E+03  0.45364005810E+03  0.00000000000E+00 0.  1.
         11    1    5    5    0    0 -0.11867374785E+03  0.45037860165E+02  0.42541880817E+03  0.44395160730E+03  0.00000000000E+00 0. -1.
        -11    1    5    5    0    0 -0.34956837034E+02 -0.30220764439E+02  0.81666332630E+02  0.93833176137E+02  0.00000000000E+00 0.  1.
          4    1    6    6  503    0 -0.29135800818E+03  0.28642629884E+03 -0.25781366356E+03  0.48311220095E+03  0.00000000000E+00 0. -1.
         -4    1    6    6    0  503 -0.72178581882E+01  0.45700933473E+02 -0.42239858269E+02  0.62648850139E+02  0.00000000000E+00 0.  1.
<mgrwt>
<rscale>  0 0.17492908E+04</rscale>
<asrwt>0</asrwt>
<pdfrwt beam="1">  1        1 0.12429455E+00 0.17492908E+04</pdfrwt>
<pdfrwt beam="2">  1       -2 0.14567507E+00 0.17492908E+04</pdfrwt>
<totfact> 0.58460481E+00</totfact>
</mgrwt>
</event>
<event>
12    4  0.4567177E-008  0.1674579E+04  0.7818608E-02  0.8775997E-01
          1   -1    0    0  501    0  0.00000000000E+00  0.00000000000E+00  0.16774733399E+04  0.16774733399E+04  0.00000000000E+00 0. -1.
         -2   -1    0    0    0  501 -0.00000000000E+00 -0.00000000000E+00 -0.41792218980E+03  0.41792218980E+03  0.00000000000E+00 0.  1.
        -24    2    1    2    0    0 -0.46363276694E+03 -0.67543519922E+02  0.91385265799E+03  0.10301287625E+04  0.80753434707E+02 0.  0.
        254    2    1    2    0    0  0.46363276694E+03  0.67543519922E+02  0.34569849207E+03  0.10652667671E+04  0.89205850034E+03 0.  0.
         23    2    4    4    0    0  0.64346515658E+03  0.97870123904E+01 -0.11868125983E+02  0.65012275421E+03  0.91518029879E+02 0.  0.
         23    2    4    4    0    0 -0.17983238963E+03  0.57756507531E+02  0.35756661805E+03  0.41514401290E+03  0.93889097243E+02 0.  0.
          3    1    3    3  502    0 -0.34569216250E+03 -0.62645050133E+02  0.60677306941E+03  0.70114266115E+03  0.00000000000E+00 0. -1.
         -4    1    3    3    0  502 -0.11794060444E+03 -0.48984697884E+01  0.30707958858E+03  0.32898610139E+03  0.00000000000E+00 0.  1.
         11    1    5    5    0    0  0.62362376718E+03  0.20617966517E+02 -0.24081890089E+02  0.62442905199E+03  0.00000000000E+00 0.  1.
        -11    1    5    5    0    0  0.19841389395E+02 -0.10830954127E+02  0.12213764106E+02  0.25693702226E+02  0.00000000000E+00 0. -1.
          4    1    6    6  503    0  0.81373413731E+01 -0.75408609145E+01  0.28599170727E+02  0.30675616933E+02  0.00000000000E+00 0. -1.
         -4    1    6    6    0  503 -0.18796973100E+03  0.65297368446E+02  0.32896744732E+03  0.38446839597E+03  0.00000000000E+00 0.  1.
<mgrwt>
<rscale>  0 0.16745786E+04</rscale>
<asrwt>0</asrwt>
<pdfrwt beam="1">  1        1 0.25807282E+00 0.16745786E+04</pdfrwt>
<pdfrwt beam="2">  1       -2 0.64295722E-01 0.16745786E+04</pdfrwt>
<totfact> 0.92371345E+00</totfact>
</mgrwt>
</event>
<event>
12    4  0.4424320E-008  0.1259294E+04  0.7818608E-02  0.9062483E-01
          1   -1    0    0  501    0  0.00000000000E+00  0.00000000000E+00  0.13541251835E+04  0.13541251835E+04  0.00000000000E+00 0. -1.
         -2   -1    0    0    0  501 -0.00000000000E+00 -0.00000000000E+00 -0.29277583189E+03  0.29277583189E+03  0.00000000000E+00 0.  1.
        -24    2    1    2    0    0  0.17621484336E+03 -0.21638016955E+03  0.90122477092E+02  0.30403268610E+03  0.80260603918E+02 0.  0.
        254    2    1    2    0    0 -0.17621484336E+03  0.21638016955E+03  0.97122687454E+03  0.13428683293E+04  0.88438773129E+03 0.  0.
         23    2    4    4    0    0  0.73270100526E+01  0.43694154049E+03  0.93634768933E+03  0.10373880074E+04  0.91952638681E+02 0.  0.
         23    2    4    4    0    0 -0.18354185341E+03 -0.22056137093E+03  0.34879185210E+02  0.30548032189E+03  0.98826814178E+02 0.  0.
          3    1    3    3  502    0  0.13802045151E+03 -0.19975124195E+03  0.97655319406E+02  0.26169976137E+03  0.00000000000E+00 0. -1.
         -4    1    3    3    0  502  0.38194391855E+02 -0.16628927606E+02 -0.75328423139E+01  0.42332924726E+02  0.00000000000E+00 0.  1.
         11    1    5    5    0    0  0.75469978459E+01  0.42192856883E+03  0.92965350224E+03  0.10209487297E+04  0.00000000000E+00 0. -1.
        -11    1    5    5    0    0 -0.21998779328E+00  0.15012971659E+02  0.66941870899E+01  0.16439277766E+02  0.00000000000E+00 0.  1.
          2    1    6    6  503    0 -0.19436158950E+03 -0.21072127562E+03  0.41072857718E+02  0.28959776089E+03  0.00000000000E+00 0. -1.
         -2    1    6    6    0  503  0.10819736089E+02 -0.98400953163E+01 -0.61936725078E+01  0.15882561003E+02  0.00000000000E+00 0.  1.
<mgrwt>
<rscale>  0 0.12592937E+04</rscale>
<asrwt>0</asrwt>
<pdfrwt beam="1">  1        1 0.20832695E+00 0.12592937E+04</pdfrwt>
<pdfrwt beam="2">  1       -2 0.45042436E-01 0.12592937E+04</pdfrwt>
<totfact> 0.33445236E+01</totfact>
</mgrwt>
</event>
<event>
12    4  0.4424320E-008  0.1630546E+04  0.7818608E-02  0.8801999E-01
         -2   -1    0    0    0  501 -0.00000000000E+00  0.00000000000E+00  0.69953710190E+03  0.69953710190E+03  0.00000000000E+00 0.  1.
          1   -1    0    0  501    0  0.00000000000E+00 -0.00000000000E+00 -0.95015731411E+03  0.95015731411E+03  0.00000000000E+00 0. -1.
        -24    2    1    2    0    0  0.35187840757E+03  0.88379335080E+02 -0.52785348024E+03  0.64546338728E+03  0.79776983736E+02 0.  0.
        254    2    1    2    0    0 -0.35187840757E+03 -0.88379335080E+02  0.27723326804E+03  0.10042310287E+04  0.89442291651E+03 0.  0.
         23    2    4    4    0    0 -0.29860074230E+03 -0.37261978085E+03  0.44418236674E+03  0.65849779318E+03  0.91178200868E+02 0.  0.
         23    2    4    4    0    0 -0.53277665269E+02  0.28424044577E+03 -0.16694909870E+03  0.34573323555E+03  0.89600937375E+02 0.  0.
          3    1    3    3  502    0  0.22419612049E+03  0.24473290553E+02 -0.28123307690E+03  0.36049256017E+03  0.00000000000E+00 0. -1.
         -4    1    3    3    0  502  0.12768228708E+03  0.63906044527E+02 -0.24662040335E+03  0.28497082712E+03  0.00000000000E+00 0.  1.
         11    1    5    5    0    0 -0.19298659194E+03 -0.18506778501E+03  0.28495709707E+03  0.39076138101E+03  0.00000000000E+00 0. -1.
        -11    1    5    5    0    0 -0.10561415036E+03 -0.18755199584E+03  0.15922526967E+03  0.26773641217E+03  0.00000000000E+00 0.  1.
          2    1    6    6  503    0 -0.21492316993E+02  0.52222800691E+02  0.27303972853E+01  0.56538444187E+02  0.00000000000E+00 0. -1.
         -2    1    6    6    0  503 -0.31785348276E+02  0.23201764508E+03 -0.16967949599E+03  0.28919479137E+03  0.00000000000E+00 0.  1.
<mgrwt>
<rscale>  0 0.16305463E+04</rscale>
<asrwt>0</asrwt>
<pdfrwt beam="1">  1        1 0.14617805E+00 0.16305463E+04</pdfrwt>
<pdfrwt beam="2">  1       -2 0.10762109E+00 0.16305463E+04</pdfrwt>
<totfact> 0.96290652E+00</totfact>
</mgrwt>
</event>
<event>
12    4  0.4424320E-008  0.2074902E+04  0.7818608E-02  0.8572381E-01
         -2   -1    0    0    0  501 -0.00000000000E+00  0.00000000000E+00  0.61297802526E+03  0.61297802526E+03  0.00000000000E+00 0.  1.
          1   -1    0    0  501    0  0.00000000000E+00 -0.00000000000E+00 -0.17558614708E+04  0.17558614708E+04  0.00000000000E+00 0. -1.
        -24    2    1    2    0    0 -0.68098978110E+02 -0.23618159093E+03  0.45013203771E+03  0.51974187684E+03  0.84223229867E+02 0.  0.
        254    2    1    2    0    0  0.68098978110E+02  0.23618159093E+03 -0.15930154832E+04  0.18490976192E+04  0.90611503730E+03 0.  0.
         23    2    4    4    0    0 -0.17804289078E+03 -0.91314894103E+02 -0.18846337483E+02  0.21997151161E+03  0.89412530672E+02 0.  0.
         23    2    4    4    0    0  0.24614186889E+03  0.32749648503E+03 -0.15741691457E+04  0.16291261076E+04  0.90573769303E+02 0.  0.
          1    1    3    3  502    0 -0.27618949252E+02 -0.21705281159E+02  0.29572211858E+02  0.45917766737E+02  0.00000000000E+00 0. -1.
         -2    1    3    3    0  502 -0.40480028858E+02 -0.21447630977E+03  0.42055982586E+03  0.47382411010E+03  0.00000000000E+00 0.  1.
         11    1    5    5    0    0 -0.23987016480E+02 -0.53585704703E+02  0.75101756656E+01  0.59187899496E+02  0.00000000000E+00 0.  1.
        -11    1    5    5    0    0 -0.15405587430E+03 -0.37729189399E+02 -0.26356513148E+02  0.16078361212E+03  0.00000000000E+00 0. -1.
          2    1    6    6  503    0  0.15158809108E+03  0.13708661623E+03 -0.68125418117E+03  0.71125167773E+03  0.00000000000E+00 0. -1.
         -2    1    6    6    0  503  0.94553777810E+02  0.19040986880E+03 -0.89291496457E+03  0.91787442986E+03  0.00000000000E+00 0.  1.
<mgrwt>
<rscale>  0 0.20749019E+04</rscale>
<asrwt>0</asrwt>
<pdfrwt beam="1">  1        1 0.27013253E+00 0.20749019E+04</pdfrwt>
<pdfrwt beam="2">  1       -2 0.94304312E-01 0.20749019E+04</pdfrwt>
<totfact> 0.33500160E+00</totfact>
</mgrwt>
</event>
<event>
12    4  0.4424320E-008  0.1703557E+04  0.7818608E-02  0.8759339E-01
         -4   -1    0    0    0  501 -0.00000000000E+00  0.00000000000E+00  0.98742290425E+03  0.98742290425E+03  0.00000000000E+00 0.  1.
          3   -1    0    0  501    0  0.00000000000E+00 -0.00000000000E+00 -0.73476744582E+03  0.73476744582E+03  0.00000000000E+00 0. -1.
        -24    2    1    2    0    0  0.35573496654E+03  0.31301926826E+03 -0.30229390744E+03  0.56784938532E+03  0.80888127726E+02 0.  0.
        254    2    1    2    0    0 -0.35573496654E+03 -0.31301926826E+03  0.55494936587E+03  0.11543409648E+04  0.89443045314E+03 0.  0.
         23    2    4    4    0    0 -0.20448436333E+02 -0.24127033834E+03  0.71762197023E+03  0.76282044895E+03  0.91017748102E+02 0.  0.
         23    2    4    4    0    0 -0.33528653020E+03 -0.71748929921E+02 -0.16267260436E+03  0.39152051580E+03  0.96233943078E+02 0.  0.
          1    1    3    3  502    0  0.34698741117E+03  0.28748576122E+03 -0.29870183100E+03  0.54062104126E+03  0.00000000000E+00 0. -1.
         -2    1    3    3    0  502  0.87475553680E+01  0.25533507042E+02 -0.35920764461E+01  0.27228344055E+02  0.00000000000E+00 0.  1.
         11    1    5    5    0    0  0.10403975005E+02 -0.17824939885E+03  0.40820852767E+03  0.44555055038E+03  0.00000000000E+00 0. -1.
        -11    1    5    5    0    0 -0.30852411338E+02 -0.63020939498E+02  0.30941344256E+03  0.31726989857E+03  0.00000000000E+00 0.  1.
          2    1    6    6  503    0 -0.32269072058E+03 -0.44307971106E+02 -0.14500346323E+03  0.35653681690E+03  0.00000000000E+00 0. -1.
         -2    1    6    6    0  503 -0.12595809623E+02 -0.27440958814E+02 -0.17669141128E+02  0.34983698903E+02  0.00000000000E+00 0.  1.
<mgrwt>
<rscale>  0 0.17035565E+04</rscale>
<asrwt>0</asrwt>
<pdfrwt beam="1">  1        3 0.11304115E+00 0.17035565E+04</pdfrwt>
<pdfrwt beam="2">  1       -4 0.15191122E+00 0.17035565E+04</pdfrwt>
<totfact> 0.41013720E-01</totfact>
</mgrwt>
</event>
<event>
12    4  0.4424320E-008  0.3074594E+04  0.7818608E-02  0.8222745E-01
         -2   -1    0    0    0  501 -0.00000000000E+00  0.00000000000E+00  0.22999898419E+04  0.22999898419E+04  0.00000000000E+00 0.  1.
          1   -1    0    0  501    0  0.00000000000E+00 -0.00000000000E+00 -0.10275183754E+04  0.10275183754E+04  0.00000000000E+00 0. -1.
        -24    2    1    2    0    0 -0.13081684807E+04  0.93832803591E+02  0.37358812050E+02  0.13145288249E+04  0.80504544238E+02 0.  0.
        254    2    1    2    0    0  0.13081684807E+04 -0.93832803591E+02  0.12351126545E+04  0.20129793924E+04  0.89803863829E+03 0.  0.
         23    2    4    4    0    0  0.74713989457E+03 -0.38097143754E+03  0.32867409676E+03  0.90548045102E+03  0.92254685643E+02 0.  0.
         23    2    4    4    0    0  0.56102858614E+03  0.28713863395E+03  0.90643855771E+03  0.11074989413E+04  0.87871363775E+02 0.  0.
          1    1    3    3  502    0 -0.11226121973E+04  0.52202506984E+02  0.30860105010E+02  0.11242489019E+04  0.00000000000E+00 0. -1.
         -2    1    3    3    0  502 -0.18555628340E+03  0.41630296608E+02  0.64987070399E+01  0.19027992300E+03  0.00000000000E+00 0.  1.
         11    1    5    5    0    0  0.89775080268E+02 -0.43286581760E+02  0.83354226650E+01  0.10001386138E+03  0.00000000000E+00 0. -1.
        -11    1    5    5    0    0  0.65736481430E+03 -0.33768485578E+03  0.32033867409E+03  0.80546658964E+03  0.00000000000E+00 0.  1.
          3    1    6    6  503    0  0.68026115342E+02  0.10469614331E+02  0.12944521273E+03  0.14660568983E+03  0.00000000000E+00 0. -1.
         -3    1    6    6    0  503  0.49300247080E+03  0.27666901962E+03  0.77699334498E+03  0.96089325150E+03  0.00000000000E+00 0.  1.
<mgrwt>
<rscale>  0 0.30745938E+04</rscale>
<asrwt>0</asrwt>
<pdfrwt beam="1">  1        1 0.15807975E+00 0.30745938E+04</pdfrwt>
<pdfrwt beam="2">  1       -2 0.35384459E+00 0.30745938E+04</pdfrwt>
<totfact> 0.15719030E-01</totfact>
</mgrwt>
</event>
<event>
12    4  0.4424320E-008  0.2343163E+04  0.7818608E-02  0.8461094E-01
         -2   -1    0    0    0  501 -0.00000000000E+00  0.00000000000E+00  0.53184807554E+03  0.53184807554E+03  0.00000000000E+00 0.  1.
          1   -1    0    0  501    0  0.00000000000E+00 -0.00000000000E+00 -0.25808177059E+04  0.25808177059E+04  0.00000000000E+00 0. -1.
        -24    2    1    2    0    0 -0.90586748981E+03 -0.31726002407E+03 -0.49395484348E+03  0.10824850690E+04  0.80825152786E+02 0.  0.
        254    2    1    2    0    0  0.90586748981E+03  0.31726002407E+03 -0.15550147868E+04  0.20301807124E+04  0.88448454233E+03 0.  0.
         23    2    4    4    0    0 -0.15273905286E+03 -0.41691181707E+02 -0.24640728453E+03  0.30675924275E+03  0.91199288602E+02 0.  0.
         23    2    4    4    0    0  0.10586065427E+04  0.35895120578E+03 -0.13086075023E+04  0.17234214696E+04  0.90742418636E+02 0.  0.
          3    1    3    3  502    0 -0.87541499077E+03 -0.31410593458E+03 -0.49104553228E+03  0.10517317429E+04  0.00000000000E+00 0. -1.
         -4    1    3    3    0  502 -0.30452499034E+02 -0.31540894959E+01 -0.29093111972E+01  0.30753326155E+02  0.00000000000E+00 0.  1.
         11    1    5    5    0    0 -0.32052539692E+02 -0.10713853664E+02 -0.13647385236E+03  0.14059610357E+03  0.00000000000E+00 0. -1.
        -11    1    5    5    0    0 -0.12068651317E+03 -0.30977328043E+02 -0.10993343217E+03  0.16616313918E+03  0.00000000000E+00 0.  1.
          4    1    6    6  503    0  0.21972859200E+02  0.14441474481E+02 -0.14955927865E+02  0.30249669501E+02  0.00000000000E+00 0. -1.
         -4    1    6    6    0  503  0.10366336835E+04  0.34450973130E+03 -0.12936515745E+04  0.16931718001E+04  0.00000000000E+00 0.  1.
<mgrwt>
<rscale>  0 0.23431628E+04</rscale>
<asrwt>0</asrwt>
<pdfrwt beam="1">  1        1 0.39704888E+00 0.23431628E+04</pdfrwt>
<pdfrwt beam="2">  1       -2 0.81822781E-01 0.23431628E+04</pdfrwt>
<totfact> 0.12374342E+00</totfact>
</mgrwt>
</event>
<event>
12    4  0.4424320E-008  0.2037877E+04  0.7818608E-02  0.8589114E-01
          1   -1    0    0  501    0  0.00000000000E+00  0.00000000000E+00  0.11287294844E+04  0.11287294844E+04  0.00000000000E+00 0. -1.
         -2   -1    0    0    0  501 -0.00000000000E+00 -0.00000000000E+00 -0.91982725152E+03  0.91982725152E+03  0.00000000000E+00 0.  1.
        -24    2    1    2    0    0  0.22619627181E+03 -0.78494218827E+03  0.25007345397E+02  0.82116472712E+03  0.79919643608E+02 0.  0.
        254    2    1    2    0    0 -0.22619627181E+03  0.78494218827E+03  0.18389488743E+03  0.12273920088E+04  0.89742677764E+03 0.  0.
         23    2    4    4    0    0  0.18095721237E+03  0.65007837010E+03  0.33988749750E+03  0.76111229619E+03  0.91766096579E+02 0.  0.
         23    2    4    4    0    0 -0.40715348418E+03  0.13486381817E+03 -0.15599261006E+03  0.46627971256E+03  0.95503229389E+02 0.  0.
          3    1    3    3  502    0  0.55280720006E+02 -0.10922513682E+03 -0.13159297145E+02  0.12312292889E+03  0.00000000000E+00 0. -1.
         -4    1    3    3    0  502  0.17091555180E+03 -0.67571705145E+03  0.38166642541E+02  0.69804179823E+03  0.00000000000E+00 0.  1.
         11    1    5    5    0    0  0.87114239850E+02  0.19163117663E+03  0.13639435744E+03  0.25082826671E+03  0.00000000000E+00 0. -1.
        -11    1    5    5    0    0  0.93842972521E+02  0.45844719347E+03  0.20349314006E+03  0.51028402948E+03  0.00000000000E+00 0.  1.
          2    1    6    6  503    0 -0.39152047218E+02  0.45138299458E+02 -0.31610362071E+02  0.67598549316E+02  0.00000000000E+00 0. -1.
         -2    1    6    6    0  503 -0.36800143696E+03  0.89725518716E+02 -0.12438224799E+03  0.39868116325E+03  0.00000000000E+00 0.  1.
<mgrwt>
<rscale>  0 0.20378775E+04</rscale>
<asrwt>0</asrwt>
<pdfrwt beam="1">  1        1 0.17365069E+00 0.20378775E+04</pdfrwt>
<pdfrwt beam="2">  1       -2 0.14151188E+00 0.20378775E+04</pdfrwt>
<totfact> 0.34168007E+00</totfact>
</mgrwt>
</event>
<event>
12    4  0.4424320E-008  0.1299302E+04  0.7818608E-02  0.9030119E-01
          1   -1    0    0  501    0  0.00000000000E+00  0.00000000000E+00  0.24863782506E+04  0.24863782506E+04  0.00000000000E+00 0. -1.
         -2   -1    0    0    0  501 -0.00000000000E+00 -0.00000000000E+00 -0.16974352208E+03  0.16974352208E+03  0.00000000000E+00 0.  1.
        -24    2    1    2    0    0  0.23269593648E+03  0.13263471957E+02  0.78316172062E+03  0.82107119198E+03  0.80574829284E+02 0.  0.
        254    2    1    2    0    0 -0.23269593648E+03 -0.13263471957E+02  0.15334730079E+04  0.18350505807E+04  0.98058546248E+03 0.  0.
         23    2    4    4    0    0 -0.65085556177E+02 -0.28199014608E+03  0.39743294670E+02  0.30542492914E+03  0.89164374943E+02 0.  0.
         23    2    4    4    0    0 -0.16761038030E+03  0.26872667413E+03  0.14937297132E+04  0.15296256516E+04  0.90658219419E+02 0.  0.
          3    1    3    3  502    0  0.20776428823E+03 -0.15608737009E+02  0.67064966288E+03  0.70226818414E+03  0.00000000000E+00 0. -1.
         -4    1    3    3    0  502  0.24931648244E+02  0.28872208966E+02  0.11251205774E+03  0.11880300784E+03  0.00000000000E+00 0.  1.
         11    1    5    5    0    0  0.48489111058E+01 -0.14033032192E+03  0.44723066056E+02  0.14736439131E+03  0.00000000000E+00 0.  1.
        -11    1    5    5    0    0 -0.69934467283E+02 -0.14165982416E+03 -0.49797713855E+01  0.15806053783E+03  0.00000000000E+00 0. -1.
          3    1    6    6  503    0 -0.53089202056E+02  0.54824333338E+02  0.54706401865E+03  0.55236148616E+03  0.00000000000E+00 0. -1.
         -3    1    6    6    0  503 -0.11452117824E+03  0.21390234079E+03  0.94666569460E+03  0.97726416541E+03  0.00000000000E+00 0.  1.
<mgrwt>
<rscale>  0 0.12993023E+04</rscale>
<asrwt>0</asrwt>
<pdfrwt beam="1">  1        1 0.38251970E+00 0.12993023E+04</pdfrwt>
<pdfrwt beam="2">  1       -2 0.26114390E-01 0.12993023E+04</pdfrwt>
<totfact> 0.15899041E+01</totfact>
</mgrwt>
</event>
<event>
12    4  0.4424320E-008  0.1382825E+04  0.7818608E-02  0.8966346E-01
          1   -1    0    0  501    0  0.00000000000E+00  0.00000000000E+00  0.14226870396E+04  0.14226870396E+04  0.00000000000E+00 0. -1.
         -2   -1    0    0    0  501 -0.00000000000E+00 -0.00000000000E+00 -0.33601982629E+03  0.33601982629E+03  0.00000000000E+00 0.  1.
        -24    2    1    2    0    0 -0.13313615396E+03  0.97801345394E+02 -0.13217402802E+03  0.22922116394E+03  0.88215813018E+02 0.  0.
        254    2    1    2    0    0  0.13313615396E+03 -0.97801345394E+02  0.12188412413E+04  0.15294857019E+04  0.90909966574E+03 0.  0.
         23    2    4    4    0    0  0.41201720496E+03 -0.31818971469E+03  0.89900370199E+03  0.10428442104E+04  0.91178502657E+02 0.  0.
         23    2    4    4    0    0 -0.27888105100E+03  0.22038836929E+03  0.31983753929E+03  0.48664149147E+03  0.90433488003E+02 0.  0.
          1    1    3    3  502    0 -0.49559681301E+02 -0.10311443238E+02 -0.36435159485E+02  0.62369934416E+02  0.00000000000E+00 0. -1.
         -2    1    3    3    0  502 -0.83576472657E+02  0.10811278863E+03 -0.95738868531E+02  0.16685122953E+03  0.00000000000E+00 0.  1.
         11    1    5    5    0    0  0.18761206381E+03 -0.16339124389E+03  0.34441387977E+03  0.42487163432E+03  0.00000000000E+00 0.  1.
        -11    1    5    5    0    0  0.22440514114E+03 -0.15479847079E+03  0.55458982222E+03  0.61797257612E+03  0.00000000000E+00 0. -1.
          2    1    6    6  503    0 -0.26665924742E+03  0.20675578507E+03  0.26565904269E+03  0.42945294953E+03  0.00000000000E+00 0.  1.
         -2    1    6    6    0  503 -0.12221803577E+02  0.13632584221E+02  0.54178496598E+02  0.57188541937E+02  0.00000000000E+00 0. -1.
<mgrwt>
<rscale>  0 0.13828247E+04</rscale>
<asrwt>0</asrwt>
<pdfrwt beam="1">  1        1 0.21887492E+00 0.13828247E+04</pdfrwt>
<pdfrwt beam="2">  1       -2 0.51695359E-01 0.13828247E+04</pdfrwt>
<totfact> 0.22421149E+01</totfact>
</mgrwt>
</event>
<event>
12    4  0.4424320E-008  0.1914618E+04  0.7818608E-02  0.8647614E-01
          3   -1    0    0  501    0  0.00000000000E+00  0.00000000000E+00  0.19447172015E+04  0.19447172015E+04  0.00000000000E+00 0. -1.
         -4   -1    0    0    0  501 -0.00000000000E+00 -0.00000000000E+00 -0.47124592200E+03  0.47124592200E+03  0.00000000000E+00 0.  1.
        -24    2    1    2    0    0 -0.69892197600E+02 -0.16617651013E+03  0.14855878560E+04  0.14985916639E+04  0.79411242179E+02 0.  0.
        254    2    1    2    0    0  0.69892197600E+02  0.16617651013E+03 -0.12116576453E+02  0.91737145966E+03  0.89940204123E+03 0.  0.
         23    2    4    4    0    0 -0.28067956784E+03 -0.21471475110E+03  0.10375712329E+03  0.37920219518E+03  0.90251426859E+02 0.  0.
         23    2    4    4    0    0  0.35057176544E+03  0.38089126123E+03 -0.11587369974E+03  0.53816926449E+03  0.90668226718E+02 0.  0.
          3    1    3    3  502    0 -0.61247407847E+02 -0.12665647224E+03  0.13438303363E+04  0.13511747037E+04  0.00000000000E+00 0. -1.
         -4    1    3    3    0  502 -0.86447897529E+01 -0.39520037893E+02  0.14175751962E+03  0.14741696020E+03  0.00000000000E+00 0.  1.
         11    1    5    5    0    0 -0.13473417133E+03 -0.63470129595E+02  0.75978503394E+02  0.16719595465E+03  0.00000000000E+00 0.  1.
        -11    1    5    5    0    0 -0.14594539651E+03 -0.15124462150E+03  0.27778619892E+02  0.21200624052E+03  0.00000000000E+00 0. -1.
          3    1    6    6  503    0  0.22045232652E+03  0.27388751079E+03 -0.11428561448E+03  0.36969554840E+03  0.00000000000E+00 0. -1.
         -3    1    6    6    0  503  0.13011943892E+03  0.10700375045E+03 -0.15880852580E+01  0.16847371608E+03  0.00000000000E+00 0.  1.
<mgrwt>
<rscale>  0 0.19146175E+04</rscale>
<asrwt>0</asrwt>
<pdfrwt beam="1">  1        3 0.29918726E+00 0.19146175E+04</pdfrwt>
<pdfrwt beam="2">  1       -4 0.72499373E-01 0.19146175E+04</pdfrwt>
<totfact> 0.14538678E-01</totfact>
</mgrwt>
</event>
<event>
12    4  0.4424320E-008  0.1564900E+04  0.7818608E-02  0.8842406E-01
         -2   -1    0    0    0  501 -0.00000000000E+00  0.00000000000E+00  0.30237617842E+03  0.30237617842E+03  0.00000000000E+00 0.  1.
          1   -1    0    0  501    0  0.00000000000E+00 -0.00000000000E+00 -0.20247242412E+04  0.20247242412E+04  0.00000000000E+00 0. -1.
        -24    2    1    2    0    0  0.42907909502E+03  0.16146432096E+03 -0.22807105384E+03  0.51869088915E+03  0.82729898793E+02 0.  0.
        254    2    1    2    0    0 -0.42907909502E+03 -0.16146432096E+03 -0.14942770089E+04  0.18084095304E+04  0.90956124241E+03 0.  0.
         23    2    4    4    0    0  0.15124781785E+03  0.24469011742E+03 -0.50041539533E+03  0.58453099157E+03  0.92259179775E+02 0.  0.
         23    2    4    4    0    0 -0.58032691287E+03 -0.40615443839E+03 -0.99386161358E+03  0.12238785389E+04  0.91526047270E+02 0.  0.
          1    1    3    3  502    0  0.39230688245E+01  0.14713623055E+02 -0.13539888152E+02  0.20376696091E+02  0.00000000000E+00 0. -1.
         -2    1    3    3    0  502  0.42515602620E+03  0.14675069791E+03 -0.21453116569E+03  0.49831419306E+03  0.00000000000E+00 0.  1.
         11    1    5    5    0    0  0.13365709473E+03  0.24282109653E+03 -0.49252521094E+03  0.56516138164E+03  0.00000000000E+00 0. -1.
        -11    1    5    5    0    0  0.17590723119E+02  0.18690208926E+01 -0.78901843934E+01  0.19369609926E+02  0.00000000000E+00 0.  1.
          3    1    6    6  503    0 -0.28935283831E+03 -0.19029042422E+03 -0.56239476496E+03  0.66047209044E+03  0.00000000000E+00 0. -1.
         -3    1    6    6    0  503 -0.29097407456E+03 -0.21586401416E+03 -0.43146684862E+03  0.56340644843E+03  0.00000000000E+00 0.  1.
<mgrwt>
<rscale>  0 0.15649005E+04</rscale>
<asrwt>0</asrwt>
<pdfrwt beam="1">  1        1 0.31149604E+00 0.15649005E+04</pdfrwt>
<pdfrwt beam="2">  1       -2 0.46519412E-01 0.15649005E+04</pdfrwt>
<totfact> 0.10616880E+01</totfact>
</mgrwt>
</event>
<event>
12    4  0.4424320E-008  0.1388162E+04  0.7818608E-02  0.8962433E-01
         -2   -1    0    0    0  501 -0.00000000000E+00  0.00000000000E+00  0.60161071939E+03  0.60161071939E+03  0.00000000000E+00 0.  1.
          1   -1    0    0  501    0  0.00000000000E+00 -0.00000000000E+00 -0.80076384304E+03  0.80076384304E+03  0.00000000000E+00 0. -1.
        -24    2    1    2    0    0 -0.18101723532E+03 -0.20429534331E+03  0.24017073294E+03  0.37252440947E+03  0.81170363486E+02 0.  0.
        254    2    1    2    0    0  0.18101723532E+03  0.20429534331E+03 -0.43932385659E+03  0.10298501530E+04  0.89055154810E+03 0.  0.
         23    2    4    4    0    0 -0.22822939489E+03 -0.16469828665E+03  0.32404867121E+02  0.29847509435E+03  0.93931486811E+02 0.  0.
         23    2    4    4    0    0  0.40924663020E+03  0.36899362996E+03 -0.47172872371E+03  0.73137505862E+03  0.93500718261E+02 0.  0.
          3    1    3    3  502    0 -0.16060682278E+02 -0.20163290108E+02 -0.27605745456E+01  0.25925365090E+02  0.00000000000E+00 0. -1.
         -4    1    3    3    0  502 -0.16495655304E+03 -0.18413205320E+03  0.24293130749E+03  0.34659904438E+03  0.00000000000E+00 0.  1.
         11    1    5    5    0    0 -0.18782027170E+03 -0.17222435726E+03  0.35334565499E+02  0.25726681716E+03  0.00000000000E+00 0. -1.
        -11    1    5    5    0    0 -0.40409123193E+02  0.75260706070E+01 -0.29296983785E+01  0.41208277186E+02  0.00000000000E+00 0.  1.
          1    1    6    6  503    0  0.29482581514E+03  0.31376343202E+03 -0.38466791381E+03  0.57735531214E+03  0.00000000000E+00 0. -1.
         -1    1    6    6    0  503  0.11442081506E+03  0.55230197938E+02 -0.87060809904E+02  0.15401974648E+03  0.00000000000E+00 0.  1.
<mgrwt>
<rscale>  0 0.13881615E+04</rscale>
<asrwt>0</asrwt>
<pdfrwt beam="1">  1        1 0.12319444E+00 0.13881615E+04</pdfrwt>
<pdfrwt beam="2">  1       -2 0.92555495E-01 0.13881615E+04</pdfrwt>
<totfact> 0.18695552E+01</totfact>
</mgrwt>
</event>
<event>
12    4  0.4424320E-008  0.2106711E+04  0.7818608E-02  0.8558293E-01
         -2   -1    0    0    0  501 -0.00000000000E+00  0.00000000000E+00  0.68912833395E+03  0.68912833395E+03  0.00000000000E+00 0.  1.
          1   -1    0    0  501    0  0.00000000000E+00 -0.00000000000E+00 -0.16100882725E+04  0.16100882725E+04  0.00000000000E+00 0. -1.
        -24    2    1    2    0    0 -0.46097285365E+03  0.59292426375E+03 -0.83293321218E+03  0.11240818070E+04  0.75677066923E+02 0.  0.
        254    2    1    2    0    0  0.46097285365E+03 -0.59292426375E+03 -0.88026726423E+02  0.11751347995E+04  0.89952094925E+03 0.  0.
         23    2    4    4    0    0 -0.72913933543E+02  0.18610387826E+03  0.13182658632E+02  0.22025959156E+03  0.91593722369E+02 0.  0.
         23    2    4    4    0    0  0.53388678719E+03 -0.77902814201E+03 -0.10120938506E+03  0.95487520797E+03  0.98098805203E+02 0.  0.
          3    1    3    3  502    0 -0.42152485578E+03  0.55636945388E+03 -0.79673779202E+03  0.10592550602E+04  0.00000000000E+00 0. -1.
         -4    1    3    3    0  502 -0.39447997869E+02  0.36554809867E+02 -0.36195420159E+02  0.64826746801E+02  0.00000000000E+00 0.  1.
         11    1    5    5    0    0 -0.60684915386E+02  0.10221873681E+03  0.48548081122E+02  0.12840656250E+03  0.00000000000E+00 0. -1.
        -11    1    5    5    0    0 -0.12229018157E+02  0.83885141444E+02 -0.35365422489E+02  0.91853029063E+02  0.00000000000E+00 0.  1.
          1    1    6    6  503    0  0.44712837629E+03 -0.68370156438E+03 -0.11604159870E+03  0.82512863643E+03  0.00000000000E+00 0. -1.
         -1    1    6    6    0  503  0.86758410899E+02 -0.95326577626E+02  0.14832213646E+02  0.12974657154E+03  0.00000000000E+00 0.  1.
<mgrwt>
<rscale>  0 0.21067107E+04</rscale>
<asrwt>0</asrwt>
<pdfrwt beam="1">  1        1 0.24770588E+00 0.21067107E+04</pdfrwt>
<pdfrwt beam="2">  1       -2 0.10601975E+00 0.21067107E+04</pdfrwt>
<totfact> 0.31828253E+00</totfact>
</mgrwt>
</event>
<event>
12    4  0.4424320E-008  0.1334888E+04  0.7818608E-02  0.9002348E-01
          3   -1    0    0  501    0  0.00000000000E+00  0.00000000000E+00  0.52172594256E+03  0.52172594256E+03  0.00000000000E+00 0. -1.
         -4   -1    0    0    0  501 -0.00000000000E+00 -0.00000000000E+00 -0.85386049422E+03  0.85386049422E+03  0.00000000000E+00 0.  1.
        -24    2    1    2    0    0  0.83147598553E+02  0.25072895755E+03  0.14548696311E+03  0.31150265439E+03  0.78031493368E+02 0.  0.
        254    2    1    2    0    0 -0.83147598553E+02 -0.25072895755E+03 -0.47762151476E+03  0.10640837824E+04  0.91344044758E+03 0.  0.
         23    2    4    4    0    0 -0.16989703604E+03 -0.11969596124E+03  0.23591018887E+03  0.32743688469E+03  0.91483169211E+02 0.  0.
         23    2    4    4    0    0  0.86749437486E+02 -0.13103299631E+03 -0.71353170363E+03  0.73664689771E+03  0.93947053104E+02 0.  0.
          3    1    3    3  502    0  0.73620137998E+02  0.10117994206E+03  0.75177732836E+02  0.14597601484E+03  0.00000000000E+00 0. -1.
         -4    1    3    3    0  502  0.95274605557E+01  0.14954901549E+03  0.70309230273E+02  0.16552663955E+03  0.00000000000E+00 0.  1.
         11    1    5    5    0    0 -0.20744514287E+02 -0.41555079929E+02  0.13289945672E+02  0.48309235110E+02  0.00000000000E+00 0.  1.
        -11    1    5    5    0    0 -0.14915252175E+03 -0.78140881309E+02  0.22262024320E+03  0.27912764958E+03  0.00000000000E+00 0. -1.
          4    1    6    6  503    0  0.14625896762E+02 -0.88072160402E+02 -0.24739794534E+03  0.26301400277E+03  0.00000000000E+00 0. -1.
         -4    1    6    6    0  503  0.72123540724E+02 -0.42960835913E+02 -0.46613375829E+03  0.47363289493E+03  0.00000000000E+00 0.  1.
<mgrwt>
<rscale>  0 0.13348875E+04</rscale>
<asrwt>0</asrwt>
<pdfrwt beam="1">  1        3 0.80265530E-01 0.13348875E+04</pdfrwt>
<pdfrwt beam="2">  1       -4 0.13136315E+00 0.13348875E+04</pdfrwt>
<totfact> 0.13607835E+00</totfact>
</mgrwt>
</event>
<event>
12    4  0.4424320E-008  0.1899221E+04  0.7818608E-02  0.8655244E-01
         -2   -1    0    0    0  501 -0.00000000000E+00  0.00000000000E+00  0.51326673345E+03  0.51326673345E+03  0.00000000000E+00 0.  1.
          1   -1    0    0  501    0  0.00000000000E+00 -0.00000000000E+00 -0.17569029940E+04  0.17569029940E+04  0.00000000000E+00 0. -1.
        -24    2    1    2    0    0  0.64152698932E+02 -0.59846421540E+03  0.17535156605E+02  0.60738575542E+03  0.79592639592E+02 0.  0.
        254    2    1    2    0    0 -0.64152698932E+02  0.59846421540E+03 -0.12611714172E+04  0.16627839720E+04  0.90112274874E+03 0.  0.
         23    2    4    4    0    0  0.33019764151E+03  0.43161618601E+03 -0.35112479843E+03  0.65315487143E+03  0.89440748640E+02 0.  0.
         23    2    4    4    0    0 -0.39435034044E+03  0.16684802939E+03 -0.91004661873E+03  0.10096291006E+04  0.88405976086E+02 0.  0.
          3    1    3    3  502    0 -0.16905252267E+02 -0.51825636893E+02  0.21818917969E+01  0.54556803841E+02  0.00000000000E+00 0. -1.
         -4    1    3    3    0  502  0.81057951200E+02 -0.54663857851E+03  0.15353264808E+02  0.55282895158E+03  0.00000000000E+00 0.  1.
         11    1    5    5    0    0  0.28539172511E+03  0.37874445701E+03 -0.26724605305E+03  0.54434938537E+03  0.00000000000E+00 0. -1.
        -11    1    5    5    0    0  0.44805916393E+02  0.52871729007E+02 -0.83878745374E+02  0.10880548606E+03  0.00000000000E+00 0.  1.
          4    1    6    6  503    0 -0.37061843189E+03  0.14976491068E+03 -0.78149558867E+03  0.87779434131E+03  0.00000000000E+00 0. -1.
         -4    1    6    6    0  503 -0.23731908551E+02  0.17083118702E+02 -0.12855103006E+03  0.13183475929E+03  0.00000000000E+00 0.  1.
<mgrwt>
<rscale>  0 0.18992207E+04</rscale>
<asrwt>0</asrwt>
<pdfrwt beam="1">  1        1 0.27029276E+00 0.18992207E+04</pdfrwt>
<pdfrwt beam="2">  1       -2 0.78964114E-01 0.18992207E+04</pdfrwt>
<totfact> 0.50962476E+00</totfact>
</mgrwt>
</event>
<event>
12    4  0.4424320E-008  0.1498868E+04  0.7818608E-02  0.8885206E-01
         -2   -1    0    0    0  501 -0.00000000000E+00  0.00000000000E+00  0.47884269132E+03  0.47884269132E+03  0.00000000000E+00 0.  1.
          1   -1    0    0  501    0  0.00000000000E+00 -0.00000000000E+00 -0.11729356460E+04  0.11729356460E+04  0.00000000000E+00 0. -1.
        -24    2    1    2    0    0 -0.74372144832E+02  0.37207255340E+03  0.88600751765E+02  0.39784604986E+03  0.80387718287E+02 0.  0.
        254    2    1    2    0    0  0.74372144832E+02 -0.37207255340E+03 -0.78269370645E+03  0.12539322875E+04  0.90319850670E+03 0.  0.
         23    2    4    4    0    0 -0.72787014303E+02  0.19637596132E+03 -0.58449895466E+03  0.62743048633E+03  0.90379862505E+02 0.  0.
         23    2    4    4    0    0  0.14715915914E+03 -0.56844851473E+03 -0.19819475179E+03  0.62650180113E+03  0.91835805456E+02 0.  0.
          3    1    3    3  502    0 -0.56052467644E+02  0.18052246664E+03  0.79922488808E+02  0.20522632460E+03  0.00000000000E+00 0. -1.
         -4    1    3    3    0  502 -0.18319677188E+02  0.19155008676E+03  0.86782629567E+01  0.19261972526E+03  0.00000000000E+00 0.  1.
         11    1    5    5    0    0 -0.59473779957E+02  0.79623577171E+02 -0.17334326116E+03  0.19981223870E+03  0.00000000000E+00 0. -1.
        -11    1    5    5    0    0 -0.13313234346E+02  0.11675238415E+03 -0.41115569350E+03  0.42761824764E+03  0.00000000000E+00 0.  1.
          3    1    6    6  503    0  0.71949324247E+02 -0.22861260851E+03 -0.12699752375E+03  0.27123569283E+03  0.00000000000E+00 0. -1.
         -3    1    6    6    0  503  0.75209834889E+02 -0.33983590622E+03 -0.71197228036E+02  0.35526610829E+03  0.00000000000E+00 0.  1.
<mgrwt>
<rscale>  0 0.14988685E+04</rscale>
<asrwt>0</asrwt>
<pdfrwt beam="1">  1        1 0.18045164E+00 0.14988685E+04</pdfrwt>
<pdfrwt beam="2">  1       -2 0.73668107E-01 0.14988685E+04</pdfrwt>
<totfact> 0.15769573E+01</totfact>
</mgrwt>
</event>
<event>
12    4  0.4424320E-008  0.1426502E+04  0.7818608E-02  0.8934855E-01
         -2   -1    0    0    0  501 -0.00000000000E+00  0.00000000000E+00  0.24413531944E+03  0.24413531944E+03  0.00000000000E+00 0.  1.
          1   -1    0    0  501    0  0.00000000000E+00 -0.00000000000E+00 -0.20837907043E+04  0.20837907043E+04  0.00000000000E+00 0. -1.
        -24    2    1    2    0    0  0.31310934767E+03  0.42593073705E+02 -0.10476493856E+03  0.34384545706E+03  0.86037041225E+02 0.  0.
        254    2    1    2    0    0 -0.31310934767E+03 -0.42593073705E+02 -0.17348904463E+04  0.19840805667E+04  0.90932898388E+03 0.  0.
         23    2    4    4    0    0 -0.59253929670E+03 -0.86998870158E+02 -0.14561812646E+04  0.15773003316E+04  0.93492453862E+02 0.  0.
         23    2    4    4    0    0  0.27942994904E+03  0.44405796454E+02 -0.27870918169E+03  0.40678023515E+03  0.87968065634E+02 0.  0.
          1    1    3    3  502    0  0.14629064598E+03  0.22902462784E+02 -0.94284297405E+02  0.17554203098E+03  0.00000000000E+00 0. -1.
         -2    1    3    3    0  502  0.16681870169E+03  0.19690610920E+02 -0.10480641160E+02  0.16830342608E+03  0.00000000000E+00 0.  1.
         11    1    5    5    0    0 -0.17404214482E+03 -0.12578874382E+02 -0.53596419864E+03  0.56365460920E+03  0.00000000000E+00 0.  1.
        -11    1    5    5    0    0 -0.41849715189E+03 -0.74419995776E+02 -0.92021706599E+03  0.10136457224E+04  0.00000000000E+00 0. -1.
          3    1    6    6  503    0 -0.59177458037E+01 -0.21968041331E+01 -0.21184880854E+01  0.66583523160E+01  0.00000000000E+00 0. -1.
         -3    1    6    6    0  503  0.28534769484E+03  0.46602600587E+02 -0.27659069361E+03  0.40012188284E+03  0.00000000000E+00 0.  1.
<mgrwt>
<rscale>  0 0.14265019E+04</rscale>
<asrwt>0</asrwt>
<pdfrwt beam="1">  1        1 0.32058319E+00 0.14265019E+04</pdfrwt>
<pdfrwt beam="2">  1       -2 0.37559279E-01 0.14265019E+04</pdfrwt>
<totfact> 0.14947896E+01</totfact>
</mgrwt>
</event>
<event>
12    4  0.4424320E-008  0.1430705E+04  0.7818608E-02  0.8931888E-01
          1   -1    0    0  501    0  0.00000000000E+00  0.00000000000E+00  0.40561866864E+04  0.40561866864E+04  0.00000000000E+00 0. -1.
         -2   -1    0    0    0  501 -0.00000000000E+00 -0.00000000000E+00 -0.12616020877E+03  0.12616020877E+03  0.00000000000E+00 0.  1.
        -24    2    1    2    0    0  0.40521354048E+03  0.95161726335E+02  0.13349718154E+04  0.14009523320E+04  0.85228641258E+02 0.  0.
        254    2    1    2    0    0 -0.40521354048E+03 -0.95161726335E+02  0.25950546622E+04  0.27813945631E+04  0.91027097509E+03 0.  0.
         23    2    4    4    0    0 -0.16724507501E+03  0.20794995487E+03  0.22138958450E+04  0.22317286584E+04  0.89799183655E+02 0.  0.
         23    2    4    4    0    0 -0.23796846547E+03 -0.30311168121E+03  0.38115881723E+03  0.54966590469E+03  0.91350320112E+02 0.  0.
          1    1    3    3  502    0  0.12837620938E+03  0.13664919068E+02  0.30224954057E+03  0.32866695289E+03  0.00000000000E+00 0. -1.
         -2    1    3    3    0  502  0.27683733110E+03  0.81496807267E+02  0.10327222748E+04  0.10722853791E+04  0.00000000000E+00 0.  1.
         11    1    5    5    0    0  0.95454488991E+01  0.13833784802E+01  0.70375593595E+02  0.71033467497E+02  0.00000000000E+00 0. -1.
        -11    1    5    5    0    0 -0.17679052391E+03  0.20656657639E+03  0.21435202514E+04  0.21606951909E+04  0.00000000000E+00 0.  1.
          1    1    6    6  503    0 -0.53001362193E+02 -0.54448322147E+02  0.13076819676E+03  0.15124181123E+03  0.00000000000E+00 0. -1.
         -1    1    6    6    0  503 -0.18496710328E+03 -0.24866335906E+03  0.25039062047E+03  0.39842409346E+03  0.00000000000E+00 0.  1.
<mgrwt>
<rscale>  0 0.14307052E+04</rscale>
<asrwt>0</asrwt>
<pdfrwt beam="1">  1        1 0.62402862E+00 0.14307052E+04</pdfrwt>
<pdfrwt beam="2">  1       -2 0.19409266E-01 0.14307052E+04</pdfrwt>
<totfact> 0.16851640E+00</totfact>
</mgrwt>
</event>
<event>
12    4  0.4424320E-008  0.1339361E+04  0.7818608E-02  0.8998921E-01
          1   -1    0    0  501    0  0.00000000000E+00  0.00000000000E+00  0.28029202014E+04  0.28029202014E+04  0.00000000000E+00 0. -1.
         -2   -1    0    0    0  501 -0.00000000000E+00 -0.00000000000E+00 -0.16000177004E+03  0.16000177004E+03  0.00000000000E+00 0.  1.
        -24    2    1    2    0    0 -0.21082774383E+03  0.90666956969E+02  0.13711869981E+04  0.13925656423E+04  0.80102744716E+02 0.  0.
        254    2    1    2    0    0  0.21082774383E+03 -0.90666956969E+02  0.12717314332E+04  0.15703563291E+04  0.89221596458E+03 0.  0.
         23    2    4    4    0    0 -0.15843084729E+03  0.13646385382E+03  0.48197813955E+01  0.22823499935E+03  0.91352437634E+02 0.  0.
         23    2    4    4    0    0  0.36925859112E+03 -0.22713081079E+03  0.12669116518E+04  0.13421213298E+04  0.91017679113E+02 0.  0.
          1    1    3    3  502    0 -0.17889655536E+03  0.10567830152E+03  0.11671196463E+04  0.11854704339E+04  0.00000000000E+00 0. -1.
         -2    1    3    3    0  502 -0.31931188468E+02 -0.15011344553E+02  0.20406735186E+03  0.20709520844E+03  0.00000000000E+00 0.  1.
         11    1    5    5    0    0 -0.10185295316E+02  0.71283124082E+01  0.27517613787E+02  0.30195565022E+02  0.00000000000E+00 0.  1.
        -11    1    5    5    0    0 -0.14824555197E+03  0.12933554142E+03 -0.22697832392E+02  0.19803943433E+03  0.00000000000E+00 0. -1.
          4    1    6    6  503    0  0.37087127753E+03 -0.22715208437E+03  0.12677711888E+04  0.13402937593E+04  0.00000000000E+00 0. -1.
         -4    1    6    6    0  503 -0.16126864154E+01  0.21273575791E-01 -0.85953699021E+00  0.18275704848E+01  0.00000000000E+00 0.  1.
<mgrwt>
<rscale>  0 0.13393613E+04</rscale>
<asrwt>0</asrwt>
<pdfrwt beam="1">  1        1 0.43121846E+00 0.13393613E+04</pdfrwt>
<pdfrwt beam="2">  1       -2 0.24615659E-01 0.13393613E+04</pdfrwt>
<totfact> 0.10599798E+01</totfact>
</mgrwt>
</event>
<event>
12    4  0.4424320E-008  0.1531110E+04  0.7818608E-02  0.8864024E-01
         -2   -1    0    0    0  501 -0.00000000000E+00  0.00000000000E+00  0.25818768822E+03  0.25818768822E+03  0.00000000000E+00 0.  1.
          1   -1    0    0  501    0  0.00000000000E+00 -0.00000000000E+00 -0.22699562731E+04  0.22699562731E+04  0.00000000000E+00 0. -1.
        -24    2    1    2    0    0 -0.15001802148E+03  0.43157670975E+03 -0.95814066480E+03  0.10644455298E+04  0.79037264122E+02 0.  0.
        254    2    1    2    0    0  0.15001802148E+03 -0.43157670975E+03 -0.10536279201E+04  0.14636984316E+04  0.90747861761E+03 0.  0.
         23    2    4    4    0    0 -0.21649789161E+03  0.12183431461E+03 -0.59224164921E+03  0.64880689525E+03  0.92115574018E+02 0.  0.
         23    2    4    4    0    0  0.36651591308E+03 -0.55341102436E+03 -0.46138627086E+03  0.81489153631E+03  0.10282630295E+03 0.  0.
          1    1    3    3  502    0 -0.43685799369E+02  0.23853092386E+03 -0.53309999122E+03  0.58566291614E+03  0.00000000000E+00 0. -1.
         -2    1    3    3    0  502 -0.10633222211E+03  0.19304578589E+03 -0.42504067359E+03  0.47878261363E+03  0.00000000000E+00 0.  1.
         11    1    5    5    0    0 -0.21545711418E+02 -0.96774185088E+01 -0.10710837315E+03  0.10968169267E+03  0.00000000000E+00 0. -1.
        -11    1    5    5    0    0 -0.19495218019E+03  0.13151173312E+03 -0.48513327606E+03  0.53912520257E+03  0.00000000000E+00 0.  1.
          2    1    6    6  503    0  0.16798695294E+03 -0.30367832588E+03 -0.18769443139E+03  0.39454954257E+03  0.00000000000E+00 0. -1.
         -2    1    6    6    0  503  0.19852896015E+03 -0.24973269848E+03 -0.27369183947E+03  0.42034199374E+03  0.00000000000E+00 0.  1.
<mgrwt>
<rscale>  0 0.15311104E+04</rscale>
<asrwt>0</asrwt>
<pdfrwt beam="1">  1        1 0.34922404E+00 0.15311104E+04</pdfrwt>
<pdfrwt beam="2">  1       -2 0.39721183E-01 0.15311104E+04</pdfrwt>
<totfact> 0.99268653E+00</totfact>
</mgrwt>
</event>
<event>
12    4  0.4424320E-008  0.1605307E+04  0.7818608E-02  0.8817294E-01
          3   -1    0    0  501    0  0.00000000000E+00  0.00000000000E+00  0.23257729705E+04  0.23257729705E+04  0.00000000000E+00 0. -1.
         -4   -1    0    0    0  501 -0.00000000000E+00 -0.00000000000E+00 -0.27700577773E+03  0.27700577773E+03  0.00000000000E+00 0.  1.
        -24    2    1    2    0    0  0.35299921898E+03 -0.35447912279E+03  0.34622732778E+03  0.61331424839E+03  0.77570017952E+02 0.  0.
        254    2    1    2    0    0 -0.35299921898E+03  0.35447912279E+03  0.17025398650E+04  0.19894644998E+04  0.89947935338E+03 0.  0.
         23    2    4    4    0    0  0.68401293149E+02  0.50500868198E+03  0.12121047991E+04  0.13180081850E+04  0.90747044556E+02 0.  0.
         23    2    4    4    0    0 -0.42140051213E+03 -0.15052955919E+03  0.49043506591E+03  0.67145631481E+03  0.10044644844E+03 0.  0.
          3    1    3    3  502    0  0.11083817044E+02 -0.29311197838E+02  0.39969796081E+02  0.50789584737E+02  0.00000000000E+00 0. -1.
         -4    1    3    3    0  502  0.34191540194E+03 -0.32516792495E+03  0.30625753170E+03  0.56252466365E+03  0.00000000000E+00 0.  1.
         11    1    5    5    0    0 -0.21444687305E+02  0.13333718828E+03  0.33304947085E+03  0.35938924640E+03  0.00000000000E+00 0. -1.
        -11    1    5    5    0    0  0.89845980454E+02  0.37167149370E+03  0.87905532820E+03  0.95861893861E+03  0.00000000000E+00 0.  1.
          2    1    6    6  503    0 -0.23146694757E+03 -0.37738064936E+02  0.21293088778E+03  0.31676595829E+03  0.00000000000E+00 0. -1.
         -2    1    6    6    0  503 -0.18993356456E+03 -0.11279149426E+03  0.27750417814E+03  0.35469035652E+03  0.00000000000E+00 0.  1.
<mgrwt>
<rscale>  0 0.16053069E+04</rscale>
<asrwt>0</asrwt>
<pdfrwt beam="1">  1        3 0.35781121E+00 0.16053069E+04</pdfrwt>
<pdfrwt beam="2">  1       -4 0.42616275E-01 0.16053069E+04</pdfrwt>
<totfact> 0.22219221E-01</totfact>
</mgrwt>
</event>
<event>
12    4  0.4424320E-008  0.2040695E+04  0.7818608E-02  0.8587827E-01
         -2   -1    0    0    0  501 -0.00000000000E+00  0.00000000000E+00  0.27292431947E+03  0.27292431947E+03  0.00000000000E+00 0.  1.
          1   -1    0    0  501    0  0.00000000000E+00 -0.00000000000E+00 -0.38146432299E+04  0.38146432299E+04  0.00000000000E+00 0. -1.
        -24    2    1    2    0    0  0.39807638334E+03 -0.36756377902E+03 -0.26554146099E+04  0.27112654433E+04  0.78521429507E+02 0.  0.
        254    2    1    2    0    0 -0.39807638334E+03  0.36756377902E+03 -0.88630430055E+03  0.13763021061E+04  0.90283123312E+03 0.  0.
         23    2    4    4    0    0  0.25509300976E+03  0.27421186097E+03 -0.38117542568E+03  0.54053852375E+03  0.81379371982E+02 0.  0.
         23    2    4    4    0    0 -0.65316939310E+03  0.93351918046E+02 -0.50512887487E+03  0.83576358236E+03  0.89446904318E+02 0.  0.
          3    1    3    3  502    0  0.25025485201E+03 -0.18966461682E+03 -0.16467771670E+04  0.16764471944E+04  0.00000000000E+00 0. -1.
         -4    1    3    3    0  502  0.14782153133E+03 -0.17789916220E+03 -0.10086374429E+04  0.10348182489E+04  0.00000000000E+00 0.  1.
         11    1    5    5    0    0  0.26598936220E+02  0.35434447240E+02 -0.88980094588E+02  0.99401009513E+02  0.00000000000E+00 0.  1.
        -11    1    5    5    0    0  0.22849407354E+03  0.23877741373E+03 -0.29219533109E+03  0.44113751423E+03  0.00000000000E+00 0. -1.
          3    1    6    6  503    0 -0.57171474017E+03  0.95071961838E+02 -0.40688537404E+03  0.70813284747E+03  0.00000000000E+00 0. -1.
         -3    1    6    6    0  503 -0.81454652926E+02 -0.17200437919E+01 -0.98243500828E+02  0.12763073489E+03  0.00000000000E+00 0.  1.
<mgrwt>
<rscale>  0 0.20406949E+04</rscale>
<asrwt>0</asrwt>
<pdfrwt beam="1">  1        1 0.58686816E+00 0.20406949E+04</pdfrwt>
<pdfrwt beam="2">  1       -2 0.41988359E-01 0.20406949E+04</pdfrwt>
<totfact> 0.60863258E-01</totfact>
</mgrwt>
</event>
<event>
12    4  0.4424320E-008  0.1972874E+04  0.7818608E-02  0.8619409E-01
          1   -1    0    0  501    0  0.00000000000E+00  0.00000000000E+00  0.48252144838E+03  0.48252144838E+03  0.00000000000E+00 0. -1.
         -2   -1    0    0    0  501 -0.00000000000E+00 -0.00000000000E+00 -0.20166105214E+04  0.20166105214E+04  0.00000000000E+00 0.  1.
        -24    2    1    2    0    0  0.56917308444E+02 -0.87605511394E+02  0.36741952064E+03  0.39038011777E+03  0.80530904494E+02 0.  0.
        254    2    1    2    0    0 -0.56917308444E+02  0.87605511394E+02 -0.19015085937E+04  0.21087518520E+04  0.90564073226E+03 0.  0.
         23    2    4    4    0    0 -0.35853280649E+03  0.30900676232E+02 -0.16783639977E+04  0.17189611709E+04  0.91766950201E+02 0.  0.
         23    2    4    4    0    0  0.30161549805E+03  0.56704835162E+02 -0.22314459597E+03  0.38979068112E+03  0.89195949339E+02 0.  0.
          1    1    3    3  502    0  0.38422726582E+01 -0.77427785203E+02  0.20250204586E+03  0.21683381554E+03  0.00000000000E+00 0. -1.
         -4    1    3    3    0  502  0.53075035786E+02 -0.10177726191E+02  0.16491747477E+03  0.17354630224E+03  0.00000000000E+00 0.  1.
         11    1    5    5    0    0  0.55747008201E+01  0.16889636923E+01 -0.35877599010E+02  0.36347379525E+02  0.00000000000E+00 0. -1.
        -11    1    5    5    0    0 -0.36410750731E+03  0.29211712539E+02 -0.16424863987E+04  0.16826137914E+04  0.00000000000E+00 0.  1.
          2    1    6    6  503    0 -0.31501547220E+00  0.13264528058E+02 -0.29844039917E+01  0.13599764944E+02  0.00000000000E+00 0. -1.
         -2    1    6    6    0  503  0.30193051352E+03  0.43440307104E+02 -0.22016019198E+03  0.37619091617E+03  0.00000000000E+00 0.  1.
<mgrwt>
<rscale>  0 0.19728739E+04</rscale>
<asrwt>0</asrwt>
<pdfrwt beam="1">  1        1 0.74234071E-01 0.19728739E+04</pdfrwt>
<pdfrwt beam="2">  1       -2 0.31024776E+00 0.19728739E+04</pdfrwt>
<totfact> 0.10432416E+00</totfact>
</mgrwt>
</event>
<event>
12    4  0.4555948E-008  0.2652067E+04  0.7818608E-02  0.8350727E-01
         -2   -1    0    0    0  501 -0.00000000000E+00  0.00000000000E+00  0.82137159979E+03  0.82137159979E+03  0.00000000000E+00 0.  1.
          1   -1    0    0  501    0  0.00000000000E+00 -0.00000000000E+00 -0.21407665621E+04  0.21407665621E+04  0.00000000000E+00 0. -1.
        -24    2    1    2    0    0  0.10553452480E+04  0.18330000909E+03 -0.50127443830E+02  0.10743705484E+04  0.66383949763E+02 0.  0.
        254    2    1    2    0    0 -0.10553452480E+04 -0.18330000909E+03 -0.12692675185E+04  0.18877676135E+04  0.89737062749E+03 0.  0.
         23    2    4    4    0    0 -0.41511702051E+03  0.22839022738E+03 -0.10531229975E+03  0.49402990285E+03  0.92144602385E+02 0.  0.
         23    2    4    4    0    0 -0.64022822754E+03 -0.41169023646E+03 -0.11639552188E+04  0.13937377106E+04  0.91279902799E+02 0.  0.
          1    1    3    3  502    0  0.16130188774E+03  0.26591896156E+02  0.16183314119E+02  0.16427820179E+03  0.00000000000E+00 0. -1.
         -2    1    3    3    0  502  0.89404336031E+03  0.15670811293E+03 -0.66310757948E+02  0.91009234663E+03  0.00000000000E+00 0.  1.
         11    1    5    5    0    0  0.22907800899E+01  0.95245998224E+01  0.33580075820E+01  0.10355766032E+02  0.00000000000E+00 0.  1.
        -11    1    5    5    0    0 -0.41740780060E+03  0.21886562756E+03 -0.10867030733E+03  0.48367413681E+03  0.00000000000E+00 0. -1.
          3    1    6    6  503    0 -0.58102569061E+03 -0.40186720399E+03 -0.10651983257E+04  0.12781766607E+04  0.00000000000E+00 0. -1.
         -3    1    6    6    0  503 -0.59202536933E+02 -0.98230324744E+01 -0.98756893022E+02  0.11556104995E+03  0.00000000000E+00 0.  1.
<mgrwt>
<rscale>  0 0.26520670E+04</rscale>
<asrwt>0</asrwt>
<pdfrwt beam="1">  1        1 0.32934870E+00 0.26520670E+04</pdfrwt>
<pdfrwt beam="2">  1       -2 0.12636486E+00 0.26520670E+04</pdfrwt>
<totfact> 0.85961759E-01</totfact>
</mgrwt>
</event>
<event>
12    4  0.4424320E-008  0.1951810E+04  0.7818608E-02  0.8629489E-01
          1   -1    0    0  501    0  0.00000000000E+00  0.00000000000E+00  0.37903976532E+04  0.37903976532E+04  0.00000000000E+00 0. -1.
         -2   -1    0    0    0  501 -0.00000000000E+00 -0.00000000000E+00 -0.25126390217E+03  0.25126390217E+03  0.00000000000E+00 0.  1.
        -24    2    1    2    0    0 -0.11131525376E+03 -0.75189247170E+03  0.15114343082E+04  0.16937298113E+04  0.80954499553E+02 0.  0.
        254    2    1    2    0    0  0.11131525376E+03  0.75189247170E+03  0.20276994427E+04  0.23479317440E+04  0.90746078129E+03 0.  0.
         23    2    4    4    0    0 -0.16060114123E+02  0.92103658487E+03  0.13884238330E+04  0.16685685456E+04  0.88509509940E+02 0.  0.
         23    2    4    4    0    0  0.12737536788E+03 -0.16914411317E+03  0.63927560974E+03  0.67936319839E+03  0.89592604352E+02 0.  0.
          1    1    3    3  502    0 -0.27750911840E+02 -0.31980787120E+03  0.71597545852E+03  0.78464517127E+03  0.00000000000E+00 0. -1.
         -4    1    3    3    0  502 -0.83564341917E+02 -0.43208460050E+03  0.79545884971E+03  0.90908464007E+03  0.00000000000E+00 0.  1.
         11    1    5    5    0    0 -0.18008357013E+02  0.49709380629E+02  0.10102188347E+03  0.11402080680E+03  0.00000000000E+00 0.  1.
        -11    1    5    5    0    0  0.19482428901E+01  0.87132720424E+03  0.12874019495E+04  0.15545477388E+04  0.00000000000E+00 0. -1.
          2    1    6    6  503    0  0.52995694943E+02 -0.14056253430E+03  0.41438090624E+03  0.44076967362E+03  0.00000000000E+00 0. -1.
         -2    1    6    6    0  503  0.74379672938E+02 -0.28581578871E+02  0.22489470351E+03  0.23859352477E+03  0.00000000000E+00 0.  1.
<mgrwt>
<rscale>  0 0.19518095E+04</rscale>
<asrwt>0</asrwt>
<pdfrwt beam="1">  1        1 0.58313806E+00 0.19518095E+04</pdfrwt>
<pdfrwt beam="2">  1       -2 0.38655988E-01 0.19518095E+04</pdfrwt>
<totfact> 0.75660831E-01</totfact>
</mgrwt>
</event>
<event>
12    4  0.4424320E-008  0.2055876E+04  0.7818608E-02  0.8580933E-01
          1   -1    0    0  501    0  0.00000000000E+00  0.00000000000E+00  0.23588734213E+04  0.23588734213E+04  0.00000000000E+00 0. -1.
         -2   -1    0    0    0  501 -0.00000000000E+00 -0.00000000000E+00 -0.44794953710E+03  0.44794953710E+03  0.00000000000E+00 0.  1.
        -24    2    1    2    0    0 -0.37122814942E+03 -0.40707910529E+03  0.16186308124E+04  0.17116964929E+04  0.80096443725E+02 0.  0.
        254    2    1    2    0    0  0.37122814942E+03  0.40707910529E+03  0.29229307179E+03  0.10951264654E+04  0.90019053460E+03 0.  0.
         23    2    4    4    0    0 -0.31440661101E+02 -0.23923749325E+03 -0.35693890844E+02  0.26100841058E+03  0.92888337297E+02 0.  0.
         23    2    4    4    0    0  0.40266881052E+03  0.64631659853E+03  0.32798696263E+03  0.83411805485E+03  0.91160107825E+02 0.  0.
          3    1    3    3  502    0 -0.20775331476E+03 -0.24906214731E+03  0.83604168963E+03  0.89674918445E+03  0.00000000000E+00 0. -1.
         -4    1    3    3    0  502 -0.16347483466E+03 -0.15801695797E+03  0.78258912275E+03  0.81494730849E+03  0.00000000000E+00 0.  1.
         11    1    5    5    0    0 -0.11277558585E+02 -0.19403251552E+03 -0.63205187665E+02  0.20437880554E+03  0.00000000000E+00 0.  1.
        -11    1    5    5    0    0 -0.20163102516E+02 -0.45204977727E+02  0.27511296821E+02  0.56629605042E+02  0.00000000000E+00 0. -1.
          3    1    6    6  503    0  0.11661160666E+03  0.14719220405E+03  0.45510498302E+02  0.19322271398E+03  0.00000000000E+00 0. -1.
         -3    1    6    6    0  503  0.28605720387E+03  0.49912439448E+03  0.28247646433E+03  0.64089534087E+03  0.00000000000E+00 0.  1.
<mgrwt>
<rscale>  0 0.20558757E+04</rscale>
<asrwt>0</asrwt>
<pdfrwt beam="1">  1        1 0.36290359E+00 0.20558757E+04</pdfrwt>
<pdfrwt beam="2">  1       -2 0.68915315E-01 0.20558757E+04</pdfrwt>
<totfact> 0.26456434E+00</totfact>
</mgrwt>
</event>
<event>
12    4  0.4424320E-008  0.2888527E+04  0.7818608E-02  0.8276299E-01
          1   -1    0    0  501    0  0.00000000000E+00  0.00000000000E+00  0.10955854479E+04  0.10955854479E+04  0.00000000000E+00 0. -1.
         -2   -1    0    0    0  501 -0.00000000000E+00 -0.00000000000E+00 -0.19039108603E+04  0.19039108603E+04  0.00000000000E+00 0.  1.
        -24    2    1    2    0    0  0.30796692686E+03  0.10780040695E+04  0.32717825308E+03  0.11695295700E+04  0.61785144522E+02 0.  0.
        254    2    1    2    0    0 -0.30796692686E+03 -0.10780040695E+04 -0.11355036656E+04  0.18299667381E+04  0.89580873311E+03 0.  0.
         23    2    4    4    0    0 -0.19205455957E+03  0.55164394265E+02 -0.44067532388E+03  0.49248030562E+03  0.91728109668E+02 0.  0.
         23    2    4    4    0    0 -0.11591236729E+03 -0.11331684637E+04 -0.69482834167E+03  0.13374864325E+04  0.92612572768E+02 0.  0.
          1    1    3    3  502    0  0.16831856909E+02  0.56553999651E+02  0.32208076378E+01  0.59093484289E+02  0.00000000000E+00 0. -1.
         -2    1    3    3    0  502  0.29113506995E+03  0.10214500698E+04  0.32395744544E+03  0.11104360858E+04  0.00000000000E+00 0.  1.
         11    1    5    5    0    0 -0.29032718631E+02 -0.24039219456E+02 -0.94238437454E+02  0.10149712270E+03  0.00000000000E+00 0. -1.
        -11    1    5    5    0    0 -0.16302184094E+03  0.79203613721E+02 -0.34643688643E+03  0.39098318292E+03  0.00000000000E+00 0.  1.
          1    1    6    6  503    0 -0.52598043636E+02 -0.33204186566E+03 -0.25012586426E+03  0.41902422688E+03  0.00000000000E+00 0. -1.
         -1    1    6    6    0  503 -0.63314323653E+02 -0.80112659809E+03 -0.44470247741E+03  0.91846220562E+03  0.00000000000E+00 0.  1.
<mgrwt>
<rscale>  0 0.28885270E+04</rscale>
<asrwt>0</asrwt>
<pdfrwt beam="1">  1        1 0.16855161E+00 0.28885270E+04</pdfrwt>
<pdfrwt beam="2">  1       -2 0.29290936E+00 0.28885270E+04</pdfrwt>
<totfact> 0.33832109E-01</totfact>
</mgrwt>
</event>
<event>
12    4  0.4424320E-008  0.1980810E+04  0.7818608E-02  0.8615646E-01
         -4   -1    0    0    0  501 -0.00000000000E+00  0.00000000000E+00  0.16760577753E+04  0.16760577753E+04  0.00000000000E+00 0.  1.
          3   -1    0    0  501    0  0.00000000000E+00 -0.00000000000E+00 -0.58524340911E+03  0.58524340911E+03  0.00000000000E+00 0. -1.
        -24    2    1    2    0    0  0.30665035464E+03 -0.70936131577E+03  0.52539137731E+03  0.93684621102E+03  0.66459065852E+02 0.  0.
        254    2    1    2    0    0 -0.30665035464E+03  0.70936131577E+03  0.56542298893E+03  0.13244549734E+04  0.91501360861E+03 0.  0.
         23    2    4    4    0    0 -0.54583232147E+03  0.73857405719E+03  0.34305625589E+03  0.98461861212E+03  0.91442088303E+02 0.  0.
         23    2    4    4    0    0  0.23918196683E+03 -0.29212741412E+02  0.22236673304E+03  0.33983636133E+03  0.89333034199E+02 0.  0.
          1    1    3    3  502    0  0.27357697678E+03 -0.63363455324E+03  0.49264600064E+03  0.84796060713E+03  0.00000000000E+00 0. -1.
         -2    1    3    3    0  502  0.33073377861E+02 -0.75726762530E+02  0.32745376663E+02  0.88885603892E+02  0.00000000000E+00 0.  1.
         11    1    5    5    0    0 -0.43090039010E+03  0.51531624859E+03  0.24375859642E+03  0.71459375562E+03  0.00000000000E+00 0. -1.
        -11    1    5    5    0    0 -0.11493193137E+03  0.22325780860E+03  0.99297659466E+02  0.27002485649E+03  0.00000000000E+00 0.  1.
          4    1    6    6  503    0  0.59431982657E+02  0.91549234367E+01  0.13528796130E+02  0.61636040678E+02  0.00000000000E+00 0.  1.
         -4    1    6    6    0  503  0.17974998417E+03 -0.38367664849E+02  0.20883793691E+03  0.27820032065E+03  0.00000000000E+00 0. -1.
<mgrwt>
<rscale>  0 0.19808097E+04</rscale>
<asrwt>0</asrwt>
<pdfrwt beam="1">  1        3 0.90037448E-01 0.19808097E+04</pdfrwt>
<pdfrwt beam="2">  1       -4 0.25785504E+00 0.19808097E+04</pdfrwt>
<totfact> 0.13373387E-01</totfact>
</mgrwt>
</event>
<event>
12    4  0.4424320E-008  0.1661781E+04  0.7818608E-02  0.8783467E-01
          1   -1    0    0  501    0  0.00000000000E+00  0.00000000000E+00  0.17005502362E+04  0.17005502362E+04  0.00000000000E+00 0. -1.
         -2   -1    0    0    0  501 -0.00000000000E+00 -0.00000000000E+00 -0.40597410556E+03  0.40597410556E+03  0.00000000000E+00 0.  1.
        -24    2    1    2    0    0 -0.26985136342E+03 -0.45856995335E+03  0.13698299944E+03  0.55589400312E+03  0.84543717178E+02 0.  0.
        254    2    1    2    0    0  0.26985136342E+03  0.45856995335E+03  0.11575931312E+04  0.15506303386E+04  0.88392671032E+03 0.  0.
         23    2    4    4    0    0  0.26123602876E+03 -0.23728711062E+02  0.99592471828E+03  0.10337129610E+04  0.88820756899E+02 0.  0.
         23    2    4    4    0    0  0.86153346655E+01  0.48229866441E+03  0.16166841291E+03  0.51691737760E+03  0.91546020365E+02 0.  0.
          3    1    3    3  502    0 -0.89925191090E+02 -0.93678387180E+02  0.12600014798E+02  0.13046432689E+03  0.00000000000E+00 0. -1.
         -4    1    3    3    0  502 -0.17992617233E+03 -0.36489156617E+03  0.12438298464E+03  0.42542967624E+03  0.00000000000E+00 0.  1.
         11    1    5    5    0    0  0.56170879036E+01  0.93045900999E+01  0.10404266583E+02  0.15045791324E+02  0.00000000000E+00 0.  1.
        -11    1    5    5    0    0  0.25561894085E+03 -0.33033301162E+02  0.98552045169E+03  0.10186671697E+04  0.00000000000E+00 0. -1.
          3    1    6    6  503    0 -0.27610944686E+02  0.30226680661E+03  0.13162168477E+03  0.33083508664E+03  0.00000000000E+00 0. -1.
         -3    1    6    6    0  503  0.36226279352E+02  0.18003185780E+03  0.30046728141E+02  0.18608229097E+03  0.00000000000E+00 0.  1.
<mgrwt>
<rscale>  0 0.16617814E+04</rscale>
<asrwt>0</asrwt>
<pdfrwt beam="1">  1        1 0.26162311E+00 0.16617814E+04</pdfrwt>
<pdfrwt beam="2">  1       -2 0.62457555E-01 0.16617814E+04</pdfrwt>
<totfact> 0.94889843E+00</totfact>
</mgrwt>
</event>
<event>
12    4  0.4424320E-008  0.2306109E+04  0.7818608E-02  0.8475516E-01
         -2   -1    0    0    0  501 -0.00000000000E+00  0.00000000000E+00  0.14853523310E+04  0.14853523310E+04  0.00000000000E+00 0.  1.
          1   -1    0    0  501    0  0.00000000000E+00 -0.00000000000E+00 -0.89509702853E+03  0.89509702853E+03  0.00000000000E+00 0. -1.
        -24    2    1    2    0    0  0.71493158279E+03  0.26194391942E+03  0.88170882355E+03  0.11676597527E+04  0.79227921550E+02 0.  0.
        254    2    1    2    0    0 -0.71493158279E+03 -0.26194391942E+03 -0.29145352111E+03  0.12127896068E+04  0.89787064237E+03 0.  0.
         23    2    4    4    0    0 -0.52238310948E+03 -0.51148113519E+02  0.25460994988E+03  0.59029487560E+03  0.90119759170E+02 0.  0.
         23    2    4    4    0    0 -0.19254847330E+03 -0.21079580590E+03 -0.54606347099E+03  0.62249473121E+03  0.88343588751E+02 0.  0.
          3    1    3    3  502    0  0.45276973949E+02  0.28204393673E+01  0.75230391334E+02  0.87849707049E+02  0.00000000000E+00 0. -1.
         -4    1    3    3    0  502  0.66965460884E+03  0.25912348005E+03  0.80647843222E+03  0.10798100456E+04  0.00000000000E+00 0.  1.
         11    1    5    5    0    0 -0.86899277485E+02 -0.20035168353E+02  0.80920575338E+02  0.12042023049E+03  0.00000000000E+00 0.  1.
        -11    1    5    5    0    0 -0.43548383200E+03 -0.31112945166E+02  0.17368937454E+03  0.46987464511E+03  0.00000000000E+00 0. -1.
          3    1    6    6  503    0 -0.83893000179E+02 -0.15553711328E+03 -0.33522675213E+03  0.37895488443E+03  0.00000000000E+00 0. -1.
         -3    1    6    6    0  503 -0.10865547312E+03 -0.55258692617E+02 -0.21083671886E+03  0.24353984678E+03  0.00000000000E+00 0.  1.
<mgrwt>
<rscale>  0 0.23061088E+04</rscale>
<asrwt>0</asrwt>
<pdfrwt beam="1">  1        1 0.13770723E+00 0.23061088E+04</pdfrwt>
<pdfrwt beam="2">  1       -2 0.22851574E+00 0.23061088E+04</pdfrwt>
<totfact> 0.12703697E+00</totfact>
</mgrwt>
</event>
<event>
12    4  0.4424320E-008  0.1812222E+04  0.7818608E-02  0.8699827E-01
          1   -1    0    0  501    0  0.00000000000E+00  0.00000000000E+00  0.18687510589E+04  0.18687510589E+04  0.00000000000E+00 0. -1.
         -2   -1    0    0    0  501 -0.00000000000E+00 -0.00000000000E+00 -0.43935096690E+03  0.43935096690E+03  0.00000000000E+00 0.  1.
        -24    2    1    2    0    0  0.57285451751E+03  0.33500262063E+03  0.39157209843E+03  0.77469394152E+03  0.80205615123E+02 0.  0.
        254    2    1    2    0    0 -0.57285451751E+03 -0.33500262063E+03  0.10378279936E+04  0.15334080843E+04  0.91316173519E+03 0.  0.
         23    2    4    4    0    0  0.13168050645E+03  0.41568590242E+02 -0.56806564964E+02  0.17515075209E+03  0.91559252174E+02 0.  0.
         23    2    4    4    0    0 -0.70453502396E+03 -0.37657121087E+03  0.10946345585E+04  0.13582573322E+04  0.91992863065E+02 0.  0.
          1    1    3    3  502    0  0.39235974183E+02  0.23026498462E+02  0.52994969360E+01  0.45801375190E+02  0.00000000000E+00 0. -1.
         -2    1    3    3    0  502  0.53361854333E+03  0.31197612217E+03  0.38627260149E+03  0.72889256633E+03  0.00000000000E+00 0.  1.
         11    1    5    5    0    0  0.58490476172E+02  0.57316813124E+02 -0.12127480675E+01  0.81901304186E+02  0.00000000000E+00 0. -1.
        -11    1    5    5    0    0  0.73190030283E+02 -0.15748222882E+02 -0.55593816896E+02  0.93249447901E+02  0.00000000000E+00 0.  1.
          3    1    6    6  503    0 -0.43238386348E+03 -0.23224556075E+03  0.59525053616E+03  0.77150308274E+03  0.00000000000E+00 0. -1.
         -3    1    6    6    0  503 -0.27215116048E+03 -0.14432565012E+03  0.49938402238E+03  0.58675424944E+03  0.00000000000E+00 0.  1.
<mgrwt>
<rscale>  0 0.18122225E+04</rscale>
<asrwt>0</asrwt>
<pdfrwt beam="1">  1        1 0.28750016E+00 0.18122225E+04</pdfrwt>
<pdfrwt beam="2">  1       -2 0.67592457E-01 0.18122225E+04</pdfrwt>
<totfact> 0.60744412E+00</totfact>
</mgrwt>
</event>
<event>
12    4  0.4424320E-008  0.1128158E+04  0.7818608E-02  0.9178174E-01
         -2   -1    0    0    0  501 -0.00000000000E+00  0.00000000000E+00  0.45745744074E+03  0.45745744074E+03  0.00000000000E+00 0.  1.
          1   -1    0    0  501    0  0.00000000000E+00 -0.00000000000E+00 -0.69555087749E+03  0.69555087749E+03  0.00000000000E+00 0. -1.
        -24    2    1    2    0    0  0.91500795221E+02  0.13601772677E+03  0.56960346452E+02  0.19215999066E+03  0.82509171749E+02 0.  0.
        254    2    1    2    0    0 -0.91500795221E+02 -0.13601772677E+03 -0.29505378320E+03  0.96084832756E+03  0.89961078032E+03 0.  0.
         23    2    4    4    0    0  0.33630362197E+03 -0.44621560386E+02 -0.36733710958E+03  0.50809549641E+03  0.90184652801E+02 0.  0.
         23    2    4    4    0    0 -0.42780441719E+03 -0.91396166380E+02  0.72283326383E+02  0.45275283115E+03  0.91598953288E+02 0.  0.
          3    1    3    3  502    0 -0.10499351865E+02  0.46058453832E+01 -0.75602848694E+01  0.13733466736E+02  0.00000000000E+00 0. -1.
         -4    1    3    3    0  502  0.10200014709E+03  0.13141188138E+03  0.64520631322E+02  0.17842652393E+03  0.00000000000E+00 0.  1.
         11    1    5    5    0    0  0.81408309345E+02  0.55169372245E+01 -0.14399649781E+03  0.16550752493E+03  0.00000000000E+00 0.  1.
        -11    1    5    5    0    0  0.25489531262E+03 -0.50138497611E+02 -0.22334061177E+03  0.34258797149E+03  0.00000000000E+00 0. -1.
          3    1    6    6  503    0 -0.37240032707E+03 -0.46048575643E+02  0.56958854787E+02  0.37953496026E+03  0.00000000000E+00 0. -1.
         -3    1    6    6    0  503 -0.55404090117E+02 -0.45347590737E+02  0.15324471596E+02  0.73217870885E+02  0.00000000000E+00 0.  1.
<mgrwt>
<rscale>  0 0.11281577E+04</rscale>
<asrwt>0</asrwt>
<pdfrwt beam="1">  1        1 0.10700783E+00 0.11281577E+04</pdfrwt>
<pdfrwt beam="2">  1       -2 0.70378068E-01 0.11281577E+04</pdfrwt>
<totfact> 0.44036725E+01</totfact>
</mgrwt>
</event>
<event>
12    4  0.4424320E-008  0.2528209E+04  0.7818608E-02  0.8393004E-01
         -2   -1    0    0    0  501 -0.00000000000E+00  0.00000000000E+00  0.20555251441E+04  0.20555251441E+04  0.00000000000E+00 0.  1.
          1   -1    0    0  501    0  0.00000000000E+00 -0.00000000000E+00 -0.77739781918E+03  0.77739781918E+03  0.00000000000E+00 0. -1.
        -24    2    1    2    0    0  0.14655349293E+03  0.10519342701E+01  0.17803963158E+04  0.17881864484E+04  0.79502829927E+02 0.  0.
        254    2    1    2    0    0 -0.14655349293E+03 -0.10519342701E+01 -0.50226899091E+03  0.10447365149E+04  0.90427938904E+03 0.  0.
         23    2    4    4    0    0  0.29200161814E+02 -0.22627191988E+03 -0.66300084109E+03  0.70735243136E+03  0.93411539375E+02 0.  0.
         23    2    4    4    0    0 -0.17575365475E+03  0.22521998561E+03  0.16073185018E+03  0.33738408352E+03  0.79874295447E+02 0.  0.
          3    1    3    3  502    0  0.97071803251E+02  0.35660306447E+02  0.12772445531E+04  0.12814243016E+04  0.00000000000E+00 0. -1.
         -4    1    3    3    0  502  0.49481689683E+02 -0.34608372177E+02  0.50315176275E+03  0.50676214677E+03  0.00000000000E+00 0.  1.
         11    1    5    5    0    0  0.35265670278E+02 -0.27895621254E+02 -0.83954316092E+02  0.95237389589E+02  0.00000000000E+00 0. -1.
        -11    1    5    5    0    0 -0.60655084643E+01 -0.19837629863E+03 -0.57904652500E+03  0.61211504177E+03  0.00000000000E+00 0.  1.
          3    1    6    6  503    0 -0.34232938973E+02  0.31649924229E+02 -0.34912010321E+01  0.46752543237E+02  0.00000000000E+00 0. -1.
         -3    1    6    6    0  503 -0.14152071577E+03  0.19357006138E+03  0.16422305121E+03  0.29063154028E+03  0.00000000000E+00 0.  1.
<mgrwt>
<rscale>  0 0.25282095E+04</rscale>
<asrwt>0</asrwt>
<pdfrwt beam="1">  1        1 0.11959967E+00 0.25282095E+04</pdfrwt>
<pdfrwt beam="2">  1       -2 0.31623464E+00 0.25282095E+04</pdfrwt>
<totfact> 0.45442694E-01</totfact>
</mgrwt>
</event>
<event>
12    4  0.4424320E-008  0.1744765E+04  0.7818608E-02  0.8736237E-01
         -2   -1    0    0    0  501 -0.00000000000E+00  0.00000000000E+00  0.84896648669E+03  0.84896648669E+03  0.00000000000E+00 0.  1.
          1   -1    0    0  501    0  0.00000000000E+00 -0.00000000000E+00 -0.89644477491E+03  0.89644477491E+03  0.00000000000E+00 0. -1.
        -24    2    1    2    0    0  0.32036054245E+03  0.43390438820E+03  0.32300245918E+03  0.63368592511E+03  0.79519606327E+02 0.  0.
        254    2    1    2    0    0 -0.32036054245E+03 -0.43390438820E+03 -0.37048074740E+03  0.11117253365E+04  0.89876211776E+03 0.  0.
         23    2    4    4    0    0 -0.58173499640E+03 -0.76331243784E+02 -0.24153771352E+03  0.64142124369E+03  0.94014254199E+02 0.  0.
         23    2    4    4    0    0  0.26137445395E+03 -0.35757314442E+03 -0.12894303388E+03  0.47030409279E+03  0.91566778512E+02 0.  0.
          1    1    3    3  502    0  0.63862039262E+02  0.76998596266E+02  0.26422920987E+02  0.10346649042E+03  0.00000000000E+00 0. -1.
         -2    1    3    3    0  502  0.25649850319E+03  0.35690579194E+03  0.29657953819E+03  0.53021943470E+03  0.00000000000E+00 0.  1.
         11    1    5    5    0    0 -0.60579005908E+02 -0.38285592745E+02 -0.29111976793E+02  0.77350564067E+02  0.00000000000E+00 0.  1.
        -11    1    5    5    0    0 -0.52115599049E+03 -0.38045651039E+02 -0.21242573673E+03  0.56407067962E+03  0.00000000000E+00 0. -1.
          4    1    6    6  503    0  0.20436373596E+03 -0.33133704865E+03 -0.10578194253E+03  0.40340872047E+03  0.00000000000E+00 0. -1.
         -4    1    6    6    0  503  0.57010717983E+02 -0.26236095772E+02 -0.23161091355E+02  0.66895372329E+02  0.00000000000E+00 0.  1.
<mgrwt>
<rscale>  0 0.17447654E+04</rscale>
<asrwt>0</asrwt>
<pdfrwt beam="1">  1        1 0.13791458E+00 0.17447654E+04</pdfrwt>
<pdfrwt beam="2">  1       -2 0.13061023E+00 0.17447654E+04</pdfrwt>
<totfact> 0.65308894E+00</totfact>
</mgrwt>
</event>
<event>
12    4  0.4424320E-008  0.2051372E+04  0.7818608E-02  0.8582972E-01
         -2   -1    0    0    0  501 -0.00000000000E+00  0.00000000000E+00  0.54995058680E+03  0.54995058680E+03  0.00000000000E+00 0.  1.
          1   -1    0    0  501    0  0.00000000000E+00 -0.00000000000E+00 -0.19129571993E+04  0.19129571993E+04  0.00000000000E+00 0. -1.
        -24    2    1    2    0    0 -0.27054990232E+03  0.59657295227E+03  0.80260312056E+02  0.66501357197E+03  0.81882819871E+02 0.  0.
        254    2    1    2    0    0  0.27054990232E+03 -0.59657295227E+03 -0.14432669245E+04  0.17978942141E+04  0.84870940413E+03 0.  0.
         23    2    4    4    0    0 -0.10269845934E+03 -0.56662386611E+03 -0.12195646249E+04  0.13519850106E+04  0.94424654269E+02 0.  0.
         23    2    4    4    0    0  0.37324836166E+03 -0.29949086162E+02 -0.22370229962E+03  0.44590920351E+03  0.92633750244E+02 0.  0.
          1    1    3    3  502    0 -0.59903734331E+01 -0.15020838155E+01  0.74294170481E+00  0.62203530473E+01  0.00000000000E+00 0. -1.
         -2    1    3    3    0  502 -0.26455952888E+03  0.59807503608E+03  0.79517370352E+02  0.65879321892E+03  0.00000000000E+00 0.  1.
         11    1    5    5    0    0 -0.46751195946E+02 -0.22548604722E+03 -0.38436403015E+03  0.44806845402E+03  0.00000000000E+00 0. -1.
        -11    1    5    5    0    0 -0.55947263393E+02 -0.34113781889E+03 -0.83520059476E+03  0.90391655657E+03  0.00000000000E+00 0.  1.
          3    1    6    6  503    0  0.31835760146E+03 -0.41264599449E+02 -0.22111850901E+03  0.38980472624E+03  0.00000000000E+00 0. -1.
         -3    1    6    6    0  503  0.54890760201E+02  0.11315513287E+02 -0.25837906067E+01  0.56104477275E+02  0.00000000000E+00 0.  1.
<mgrwt>
<rscale>  0 0.20513722E+04</rscale>
<asrwt>0</asrwt>
<pdfrwt beam="1">  1        1 0.29430111E+00 0.20513722E+04</pdfrwt>
<pdfrwt beam="2">  1       -2 0.84607782E-01 0.20513722E+04</pdfrwt>
<totfact> 0.33718424E+00</totfact>
</mgrwt>
</event>
<event>
12    4  0.4424320E-008  0.1149331E+04  0.7818608E-02  0.9158401E-01
          1   -1    0    0  501    0  0.00000000000E+00  0.00000000000E+00  0.58591980935E+03  0.58591980935E+03  0.00000000000E+00 0. -1.
         -2   -1    0    0    0  501 -0.00000000000E+00 -0.00000000000E+00 -0.56362750398E+03  0.56362750398E+03  0.00000000000E+00 0.  1.
        -24    2    1    2    0    0  0.74653585808E+02  0.10670924976E+03 -0.14111620191E+03  0.20793751613E+03  0.79775975801E+02 0.  0.
        254    2    1    2    0    0 -0.74653585808E+02 -0.10670924976E+03  0.16340850728E+03  0.94160979720E+03  0.91813215175E+03 0.  0.
         23    2    4    4    0    0  0.29905759933E+03  0.25169384752E+03  0.75948840862E+02  0.40865966037E+03  0.91919807378E+02 0.  0.
         23    2    4    4    0    0 -0.37371118514E+03 -0.35840309728E+03  0.87459666418E+02  0.53295013683E+03  0.90960568715E+02 0.  0.
          3    1    3    3  502    0  0.24952627671E+02 -0.53993267375E+01 -0.46502136874E+02  0.53049364659E+02  0.00000000000E+00 0. -1.
         -4    1    3    3    0  502  0.49700958137E+02  0.11210857649E+03 -0.94614065038E+02  0.15488815147E+03  0.00000000000E+00 0.  1.
         11    1    5    5    0    0  0.67063915173E+02  0.12310538801E+02  0.12574695279E+02  0.69334270352E+02  0.00000000000E+00 0. -1.
        -11    1    5    5    0    0  0.23199368416E+03  0.23938330872E+03  0.63374145583E+02  0.33932539002E+03  0.00000000000E+00 0.  1.
          1    1    6    6  503    0 -0.37865022030E+03 -0.35219320449E+03  0.89370760339E+02  0.52478869598E+03  0.00000000000E+00 0. -1.
         -1    1    6    6    0  503  0.49390351637E+01 -0.62098927891E+01 -0.19110939206E+01  0.81614408516E+01  0.00000000000E+00 0.  1.
<mgrwt>
<rscale>  0 0.11493311E+04</rscale>
<asrwt>0</asrwt>
<pdfrwt beam="1">  1        1 0.90141509E-01 0.11493311E+04</pdfrwt>
<pdfrwt beam="2">  1       -2 0.86711923E-01 0.11493311E+04</pdfrwt>
<totfact> 0.35476610E+01</totfact>
</mgrwt>
</event>
<event>
12    4  0.4424320E-008  0.2089806E+04  0.7818608E-02  0.8565747E-01
         -2   -1    0    0    0  501 -0.00000000000E+00  0.00000000000E+00  0.88472676397E+03  0.88472676397E+03  0.00000000000E+00 0.  1.
          1   -1    0    0  501    0  0.00000000000E+00 -0.00000000000E+00 -0.12340786393E+04  0.12340786393E+04  0.00000000000E+00 0. -1.
        -24    2    1    2    0    0  0.29858167207E+02 -0.81135153200E+03  0.10557089324E+03  0.82261976941E+03  0.79845180796E+02 0.  0.
        254    2    1    2    0    0 -0.29858167207E+02  0.81135153200E+03 -0.45492276861E+03  0.12961856339E+04  0.90219712564E+03 0.  0.
         23    2    4    4    0    0 -0.19629089560E+03 -0.10741661243E+03 -0.22439154581E+03  0.32996225210E+03  0.91951496226E+02 0.  0.
         23    2    4    4    0    0  0.16643272839E+03  0.91876814443E+03 -0.23053122280E+03  0.96622338181E+03  0.92780507490E+02 0.  0.
          3    1    3    3  502    0  0.10234861766E+02 -0.15431837809E+02 -0.40266732560E+01  0.18950148048E+02  0.00000000000E+00 0. -1.
         -4    1    3    3    0  502  0.19623305441E+02 -0.79591969419E+03  0.10959756649E+03  0.80366962136E+03  0.00000000000E+00 0.  1.
         11    1    5    5    0    0 -0.93120023654E+02 -0.10109339565E+03 -0.14353425573E+03  0.19872920273E+03  0.00000000000E+00 0. -1.
        -11    1    5    5    0    0 -0.10317087194E+03 -0.63232167822E+01 -0.80857290086E+02  0.13123304937E+03  0.00000000000E+00 0.  1.
          1    1    6    6  503    0  0.90157368080E+02  0.68802649632E+03 -0.19361607521E+03  0.72041376669E+03  0.00000000000E+00 0. -1.
         -1    1    6    6    0  503  0.76275360312E+02  0.23074164811E+03 -0.36915147589E+02  0.24580961512E+03  0.00000000000E+00 0.  1.
<mgrwt>
<rscale>  0 0.20898061E+04</rscale>
<asrwt>0</asrwt>
<pdfrwt beam="1">  1        1 0.18985825E+00 0.20898061E+04</pdfrwt>
<pdfrwt beam="2">  1       -2 0.13611181E+00 0.20898061E+04</pdfrwt>
<totfact> 0.31482775E+00</totfact>
</mgrwt>
</event>
<event>
12    4  0.4424320E-008  0.2059169E+04  0.7818608E-02  0.8579446E-01
         -2   -1    0    0    0  501 -0.00000000000E+00  0.00000000000E+00  0.11187185434E+04  0.11187185434E+04  0.00000000000E+00 0.  1.
          1   -1    0    0  501    0  0.00000000000E+00 -0.00000000000E+00 -0.94755202738E+03  0.94755202738E+03  0.00000000000E+00 0. -1.
        -24    2    1    2    0    0  0.15505875434E+03  0.47065393055E+03 -0.59891969930E+03  0.78135059890E+03  0.79029188045E+02 0.  0.
        254    2    1    2    0    0 -0.15505875434E+03 -0.47065393055E+03  0.77008621534E+03  0.12849199719E+04  0.90134799911E+03 0.  0.
         23    2    4    4    0    0  0.77066413267E+02  0.19759009366E+03  0.44497649926E+03  0.50135549011E+03  0.91499537738E+02 0.  0.
         23    2    4    4    0    0 -0.23212516761E+03 -0.66824402421E+03  0.32510971608E+03  0.78356448179E+03  0.88570877271E+02 0.  0.
          1    1    3    3  502    0  0.13967621921E+03  0.42830894050E+03 -0.57460135331E+03  0.73015389471E+03  0.00000000000E+00 0. -1.
         -2    1    3    3    0  502  0.15382535130E+02  0.42344990051E+02 -0.24318345983E+02  0.51196704198E+02  0.00000000000E+00 0.  1.
         11    1    5    5    0    0 -0.11918110333E+02  0.69115061266E+02  0.18716823038E+03  0.19987716105E+03  0.00000000000E+00 0. -1.
        -11    1    5    5    0    0  0.88984523600E+02  0.12847503239E+03  0.25780826888E+03  0.30147832906E+03  0.00000000000E+00 0.  1.
          4    1    6    6  503    0  0.23693222241E+01 -0.57946561814E+02  0.39105831116E+02  0.69947721486E+02  0.00000000000E+00 0. -1.
         -4    1    6    6    0  503 -0.23449448983E+03 -0.61029746239E+03  0.28600388496E+03  0.71361676030E+03  0.00000000000E+00 0.  1.
<mgrwt>
<rscale>  0 0.20591688E+04</rscale>
<asrwt>0</asrwt>
<pdfrwt beam="1">  1        1 0.14577724E+00 0.20591688E+04</pdfrwt>
<pdfrwt beam="2">  1       -2 0.17211054E+00 0.20591688E+04</pdfrwt>
<totfact> 0.27729913E+00</totfact>
</mgrwt>
</event>
<event>
12    4  0.4424320E-008  0.1305047E+04  0.7818608E-02  0.9025573E-01
          1   -1    0    0  501    0  0.00000000000E+00  0.00000000000E+00  0.88079672291E+03  0.88079672291E+03  0.00000000000E+00 0. -1.
         -2   -1    0    0    0  501 -0.00000000000E+00 -0.00000000000E+00 -0.48341091172E+03  0.48341091172E+03  0.00000000000E+00 0.  1.
        -24    2    1    2    0    0 -0.18629177107E+03 -0.10521330723E+03 -0.17075095907E+03  0.28506171379E+03  0.79560207732E+02 0.  0.
        254    2    1    2    0    0  0.18629177107E+03  0.10521330723E+03  0.56813677027E+03  0.10791459208E+04  0.89218947805E+03 0.  0.
         23    2    4    4    0    0  0.32222932065E+03 -0.57517219755E+02  0.72530478553E+03  0.80087271315E+03  0.90499199400E+02 0.  0.
         23    2    4    4    0    0 -0.13593754958E+03  0.16273052699E+03 -0.15716801526E+03  0.27827320769E+03  0.88170013581E+02 0.  0.
          1    1    3    3  502    0 -0.13722471934E+02  0.12561800481E+02 -0.81247950475E+01  0.20300673926E+02  0.00000000000E+00 0. -1.
         -2    1    3    3    0  502 -0.17256929914E+03 -0.11777510771E+03 -0.16262616403E+03  0.26476103986E+03  0.00000000000E+00 0.  1.
         11    1    5    5    0    0  0.22055224816E+03 -0.75089518720E+02  0.55235016350E+03  0.59947679947E+03  0.00000000000E+00 0. -1.
        -11    1    5    5    0    0  0.10167707250E+03  0.17572298965E+02  0.17295462203E+03  0.20139591368E+03  0.00000000000E+00 0.  1.
          3    1    6    6  503    0 -0.14296361985E+03  0.13271909042E+03 -0.11638556100E+03  0.22715314740E+03  0.00000000000E+00 0. -1.
         -3    1    6    6    0  503  0.70260702693E+01  0.30011436567E+02 -0.40782454267E+02  0.51120060292E+02  0.00000000000E+00 0.  1.
<mgrwt>
<rscale>  0 0.13050467E+04</rscale>
<asrwt>0</asrwt>
<pdfrwt beam="1">  1        1 0.13550719E+00 0.13050467E+04</pdfrwt>
<pdfrwt beam="2">  1       -2 0.74370910E-01 0.13050467E+04</pdfrwt>
<totfact> 0.26432534E+01</totfact>
</mgrwt>
</event>
<event>
12    4  0.4424320E-008  0.1233256E+04  0.7818608E-02  0.9084235E-01
         -2   -1    0    0    0  501 -0.00000000000E+00  0.00000000000E+00  0.34861259550E+03  0.34861259550E+03  0.00000000000E+00 0.  1.
          1   -1    0    0  501    0  0.00000000000E+00 -0.00000000000E+00 -0.10906955397E+04  0.10906955397E+04  0.00000000000E+00 0. -1.
        -24    2    1    2    0    0  0.26097499469E+03  0.12139615304E+02 -0.41869434317E+02  0.27666066242E+03  0.80825456928E+02 0.  0.
        254    2    1    2    0    0 -0.26097499469E+03 -0.12139615304E+02 -0.70021350991E+03  0.11626474728E+04  0.89061488222E+03 0.  0.
         23    2    4    4    0    0 -0.25561724270E+03  0.29227453587E+03 -0.56784223888E+01  0.39880300680E+03  0.90813075417E+02 0.  0.
         23    2    4    4    0    0 -0.53577519916E+01 -0.30441415118E+03 -0.69453508753E+03  0.76384446600E+03  0.91557083261E+02 0.  0.
          3    1    3    3  502    0  0.10787862161E+03  0.34878796988E+02 -0.44669904384E+02  0.12185945937E+03  0.00000000000E+00 0. -1.
         -4    1    3    3    0  502  0.15309637308E+03 -0.22739181684E+02  0.28004700671E+01  0.15480120305E+03  0.00000000000E+00 0.  1.
         11    1    5    5    0    0 -0.90905075771E+01 -0.32420527175E+00 -0.13306199376E+02  0.16118231258E+02  0.00000000000E+00 0.  1.
        -11    1    5    5    0    0 -0.24652673512E+03  0.29259874114E+03  0.76277769868E+01  0.38268477554E+03  0.00000000000E+00 0. -1.
          4    1    6    6  503    0  0.24272034420E+02 -0.26577674179E+03 -0.61758572110E+03  0.67278416378E+03  0.00000000000E+00 0. -1.
         -4    1    6    6    0  503 -0.29629786412E+02 -0.38637409383E+02 -0.76949366427E+02  0.91060302219E+02  0.00000000000E+00 0.  1.
<mgrwt>
<rscale>  0 0.12332562E+04</rscale>
<asrwt>0</asrwt>
<pdfrwt beam="1">  1        1 0.16779931E+00 0.12332562E+04</pdfrwt>
<pdfrwt beam="2">  1       -2 0.53632708E-01 0.12332562E+04</pdfrwt>
<totfact> 0.36542697E+01</totfact>
</mgrwt>
</event>
<event>
12    4  0.4424320E-008  0.1263348E+04  0.7818608E-02  0.9059146E-01
          1   -1    0    0  501    0  0.00000000000E+00  0.00000000000E+00  0.11325828860E+04  0.11325828860E+04  0.00000000000E+00 0. -1.
         -2   -1    0    0    0  501 -0.00000000000E+00 -0.00000000000E+00 -0.35230265529E+03  0.35230265529E+03  0.00000000000E+00 0.  1.
        -24    2    1    2    0    0 -0.24756607395E+03  0.10147590565E+03  0.40722114795E+03  0.49366798014E+03  0.79326482816E+02 0.  0.
        254    2    1    2    0    0  0.24756607395E+03 -0.10147590565E+03  0.37305908273E+03  0.99121756113E+03  0.87849465217E+03 0.  0.
         23    2    4    4    0    0  0.19407496954E+03 -0.47326063307E+03  0.12921293333E+03  0.53550462717E+03  0.91806878628E+02 0.  0.
         23    2    4    4    0    0  0.53491104414E+02  0.37178472743E+03  0.24384614940E+03  0.45571293396E+03  0.84428382670E+02 0.  0.
          1    1    3    3  502    0 -0.61637982799E+02  0.56042628050E+02  0.16606000638E+03  0.18578466783E+03  0.00000000000E+00 0. -1.
         -2    1    3    3    0  502 -0.18592809115E+03  0.45433277599E+02  0.24116114157E+03  0.30788331231E+03  0.00000000000E+00 0.  1.
         11    1    5    5    0    0  0.33575762079E+02 -0.11359970165E+03  0.68978356147E+02  0.13707748768E+03  0.00000000000E+00 0. -1.
        -11    1    5    5    0    0  0.16049920746E+03 -0.35966093143E+03  0.60234577179E+02  0.39842713949E+03  0.00000000000E+00 0.  1.
          2    1    6    6  503    0  0.26961533263E+02  0.23526420611E+03  0.10448961343E+03  0.25883247529E+03  0.00000000000E+00 0. -1.
         -2    1    6    6    0  503  0.26529571151E+02  0.13652052132E+03  0.13935653597E+03  0.19688045867E+03  0.00000000000E+00 0.  1.
<mgrwt>
<rscale>  0 0.12633479E+04</rscale>
<asrwt>0</asrwt>
<pdfrwt beam="1">  1        1 0.17424352E+00 0.12633479E+04</pdfrwt>
<pdfrwt beam="2">  1       -2 0.54200409E-01 0.12633479E+04</pdfrwt>
<totfact> 0.33184010E+01</totfact>
</mgrwt>
</event>
<event>
12    4  0.4424320E-008  0.1567517E+04  0.7818608E-02  0.8840756E-01
         -2   -1    0    0    0  501 -0.00000000000E+00  0.00000000000E+00  0.34654396676E+03  0.34654396676E+03  0.00000000000E+00 0.  1.
          1   -1    0    0  501    0  0.00000000000E+00 -0.00000000000E+00 -0.17725822309E+04  0.17725822309E+04  0.00000000000E+00 0. -1.
        -24    2    1    2    0    0 -0.54569059860E+02  0.12005486803E+03 -0.11687480888E+04  0.11788289584E+04  0.79212780635E+02 0.  0.
        254    2    1    2    0    0  0.54569059860E+02 -0.12005486803E+03 -0.25729017535E+03  0.94029723920E+03  0.89474561194E+03 0.  0.
         23    2    4    4    0    0 -0.32186948793E+03 -0.30892683095E+03 -0.22293750386E+03  0.50720022923E+03  0.92277775037E+02 0.  0.
         23    2    4    4    0    0  0.37643854779E+03  0.18887196291E+03 -0.34352671493E+02  0.43309700997E+03  0.94943748464E+02 0.  0.
          3    1    3    3  502    0 -0.24904807757E+02  0.90966631115E+02 -0.10211145093E+04  0.10254608810E+04  0.00000000000E+00 0. -1.
         -4    1    3    3    0  502 -0.29664252103E+02  0.29088236919E+02 -0.14763357948E+03  0.15336807741E+03  0.00000000000E+00 0.  1.
         11    1    5    5    0    0 -0.57097148294E+01 -0.32845459103E+02 -0.33799743980E+01  0.33508942896E+02  0.00000000000E+00 0. -1.
        -11    1    5    5    0    0 -0.31615977310E+03 -0.27608137184E+03 -0.21955752946E+03  0.47369128633E+03  0.00000000000E+00 0.  1.
          2    1    6    6  503    0  0.29532168229E+03  0.14942425984E+03 -0.66033371977E+02  0.33749505430E+03  0.00000000000E+00 0. -1.
         -2    1    6    6    0  503  0.81116865497E+02  0.39447703073E+02  0.31680700484E+02  0.95601955675E+02  0.00000000000E+00 0.  1.
<mgrwt>
<rscale>  0 0.15675174E+04</rscale>
<asrwt>0</asrwt>
<pdfrwt beam="1">  1        1 0.27270496E+00 0.15675174E+04</pdfrwt>
<pdfrwt beam="2">  1       -2 0.53314456E-01 0.15675174E+04</pdfrwt>
<totfact> 0.11912079E+01</totfact>
</mgrwt>
</event>
<event>
12    4  0.4424320E-008  0.1800269E+04  0.7818608E-02  0.8706156E-01
          1   -1    0    0  501    0  0.00000000000E+00  0.00000000000E+00  0.17071546712E+04  0.17071546712E+04  0.00000000000E+00 0. -1.
         -2   -1    0    0    0  501 -0.00000000000E+00 -0.00000000000E+00 -0.47461559094E+03  0.47461559094E+03  0.00000000000E+00 0.  1.
        -24    2    1    2    0    0 -0.17828386382E+03  0.45166616545E+03 -0.84684594381E+02  0.49937670684E+03  0.80113380283E+02 0.  0.
        254    2    1    2    0    0  0.17828386382E+03 -0.45166616545E+03  0.13172236746E+04  0.16823935553E+04  0.92713666994E+03 0.  0.
         23    2    4    4    0    0  0.44213221085E+03  0.15211719204E+02  0.35256542034E+03  0.57504853743E+03  0.10327708607E+03 0.  0.
         23    2    4    4    0    0 -0.26384834703E+03 -0.46687788465E+03  0.96465825430E+03  0.11073450179E+04  0.89758183950E+02 0.  0.
          1    1    3    3  502    0 -0.40533996485E+02  0.35907305806E+02 -0.84127731712E+01  0.54800677311E+02  0.00000000000E+00 0. -1.
         -2    1    3    3    0  502 -0.13774986733E+03  0.41575885964E+03 -0.76271821210E+02  0.44457602953E+03  0.00000000000E+00 0.  1.
         11    1    5    5    0    0  0.24326562135E+03 -0.42362583465E+02  0.18085020184E+03  0.30607114617E+03  0.00000000000E+00 0. -1.
        -11    1    5    5    0    0  0.19886658949E+03  0.57574302669E+02  0.17171521850E+03  0.26897739126E+03  0.00000000000E+00 0.  1.
          3    1    6    6  503    0 -0.28934387655E+02 -0.36854229722E+02  0.14504942059E+03  0.15242954914E+03  0.00000000000E+00 0. -1.
         -3    1    6    6    0  503 -0.23491395938E+03 -0.43002365493E+03  0.81960883370E+03  0.95491546872E+03  0.00000000000E+00 0.  1.
<mgrwt>
<rscale>  0 0.18002691E+04</rscale>
<asrwt>0</asrwt>
<pdfrwt beam="1">  1        1 0.26263918E+00 0.18002691E+04</pdfrwt>
<pdfrwt beam="2">  1       -2 0.73017784E-01 0.18002691E+04</pdfrwt>
<totfact> 0.66136044E+00</totfact>
</mgrwt>
</event>
<event>
12    4  0.4424320E-008  0.1348098E+04  0.7818608E-02  0.8992269E-01
         -4   -1    0    0    0  501 -0.00000000000E+00  0.00000000000E+00  0.73885011967E+03  0.73885011967E+03  0.00000000000E+00 0.  1.
          1   -1    0    0  501    0  0.00000000000E+00 -0.00000000000E+00 -0.61493145918E+03  0.61493145918E+03  0.00000000000E+00 0. -1.
        -24    2    1    2    0    0  0.29908603972E+03  0.71755044999E+02 -0.17977587545E+03  0.36506480674E+03  0.79697566395E+02 0.  0.
        254    2    1    2    0    0 -0.29908603972E+03 -0.71755044999E+02  0.30369453594E+03  0.98871677211E+03  0.88922957590E+03 0.  0.
         23    2    4    4    0    0 -0.52527982000E+03 -0.14265634516E+03 -0.48435955275E+02  0.55421599675E+03  0.92409995008E+02 0.  0.
         23    2    4    4    0    0  0.22619378028E+03  0.70901300164E+02  0.35213049121E+03  0.43450077536E+03  0.92760014786E+02 0.  0.
          3    1    3    3  502    0  0.28387519080E+03  0.57682105652E+02 -0.18497815491E+03  0.34369938472E+03  0.00000000000E+00 0. -1.
         -4    1    3    3    0  502  0.15210848922E+02  0.14072939346E+02  0.52022794540E+01  0.21365422025E+02  0.00000000000E+00 0.  1.
         11    1    5    5    0    0 -0.52921863863E+03 -0.14239929991E+03 -0.47158064312E+02  0.55006709692E+03  0.00000000000E+00 0.  1.
        -11    1    5    5    0    0  0.39388186307E+01 -0.25704525512E+00 -0.12778909630E+01  0.41488998279E+01  0.00000000000E+00 0. -1.
          1    1    6    6  503    0  0.85854382215E+02  0.63211188177E+02  0.20475867903E+03  0.23085221657E+03  0.00000000000E+00 0. -1.
         -1    1    6    6    0  503  0.14033939806E+03  0.76901119869E+01  0.14737181218E+03  0.20364855879E+03  0.00000000000E+00 0.  1.
<mgrwt>
<rscale>  0 0.13480982E+04</rscale>
<asrwt>0</asrwt>
<pdfrwt beam="1">  1        1 0.94604840E-01 0.13480982E+04</pdfrwt>
<pdfrwt beam="2">  1       -4 0.11366925E+00 0.13480982E+04</pdfrwt>
<totfact> 0.94305186E+00</totfact>
</mgrwt>
</event>
<event>
12    4  0.4424320E-008  0.1495219E+04  0.7818608E-02  0.8887638E-01
          1   -1    0    0  501    0  0.00000000000E+00  0.00000000000E+00  0.13227485064E+04  0.13227485064E+04  0.00000000000E+00 0. -1.
         -2   -1    0    0    0  501 -0.00000000000E+00 -0.00000000000E+00 -0.42254462702E+03  0.42254462702E+03  0.00000000000E+00 0.  1.
        -24    2    1    2    0    0  0.23110087123E+03 -0.26315130237E+03  0.67091367435E+03  0.76129169601E+03  0.82363021773E+02 0.  0.
        254    2    1    2    0    0 -0.23110087123E+03  0.26315130237E+03  0.22929020498E+03  0.98400143737E+03  0.89052153822E+03 0.  0.
         23    2    4    4    0    0  0.12402362386E+03  0.29202086653E+03  0.44616037103E+03  0.55485077393E+03  0.90234466212E+02 0.  0.
         23    2    4    4    0    0 -0.35512449510E+03 -0.28869564158E+02 -0.21687016605E+03  0.42915066344E+03  0.10094931528E+03 0.  0.
          3    1    3    3  502    0  0.14335246024E+03 -0.14024092315E+03  0.30046736527E+03  0.36124518263E+03  0.00000000000E+00 0. -1.
         -4    1    3    3    0  502  0.87748410994E+02 -0.12291037921E+03  0.37044630908E+03  0.40004651338E+03  0.00000000000E+00 0.  1.
         11    1    5    5    0    0  0.10937589979E+03  0.24382455640E+03  0.42072441211E+03  0.49842003641E+03  0.00000000000E+00 0. -1.
        -11    1    5    5    0    0  0.14647724076E+02  0.48196310127E+02  0.25435958926E+02  0.56430737519E+02  0.00000000000E+00 0.  1.
          4    1    6    6  503    0 -0.27270468020E+03 -0.33368593553E+02 -0.11448784431E+03  0.29763866035E+03  0.00000000000E+00 0.  1.
         -4    1    6    6    0  503 -0.82419814895E+02  0.44990293946E+01 -0.10238232173E+03  0.13151200309E+03  0.00000000000E+00 0. -1.
<mgrwt>
<rscale>  0 0.14952194E+04</rscale>
<asrwt>0</asrwt>
<pdfrwt beam="1">  1        1 0.20349977E+00 0.14952194E+04</pdfrwt>
<pdfrwt beam="2">  1       -2 0.65006866E-01 0.14952194E+04</pdfrwt>
<totfact> 0.16145088E+01</totfact>
</mgrwt>
</event>
<event>
12    4  0.4424320E-008  0.1452561E+04  0.7818608E-02  0.8916627E-01
          1   -1    0    0  501    0  0.00000000000E+00  0.00000000000E+00  0.15187851202E+04  0.15187851202E+04  0.00000000000E+00 0. -1.
         -2   -1    0    0    0  501 -0.00000000000E+00 -0.00000000000E+00 -0.34730621754E+03  0.34730621754E+03  0.00000000000E+00 0.  1.
        -24    2    1    2    0    0  0.27301794601E+03 -0.30675442742E+03  0.55297752371E+03  0.69326402646E+03  0.78700642152E+02 0.  0.
        254    2    1    2    0    0 -0.27301794601E+03  0.30675442742E+03  0.61850137894E+03  0.11728273113E+04  0.90793329531E+03 0.  0.
         23    2    4    4    0    0 -0.45934534708E+03  0.49427442765E+03  0.28599211316E+03  0.73844695968E+03  0.90592857073E+02 0.  0.
         23    2    4    4    0    0  0.18632740107E+03 -0.18752000023E+03  0.33250926578E+03  0.43438035159E+03  0.90786712365E+02 0.  0.
          1    1    3    3  502    0  0.27236557163E+03 -0.31014071918E+03  0.55268228083E+03  0.68980285143E+03  0.00000000000E+00 0. -1.
         -2    1    3    3    0  502  0.65237437729E+00  0.33862917623E+01  0.29524288238E+00  0.34611750298E+01  0.00000000000E+00 0.  1.
         11    1    5    5    0    0 -0.13115689713E+03  0.19447294449E+03  0.12411360188E+03  0.26537905715E+03  0.00000000000E+00 0.  1.
        -11    1    5    5    0    0 -0.32818844994E+03  0.29980148316E+03  0.16187851128E+03  0.47306790252E+03  0.00000000000E+00 0. -1.
          2    1    6    6  503    0  0.10536227789E+03 -0.10570660456E+03  0.25547983131E+03  0.29588011095E+03  0.00000000000E+00 0. -1.
         -2    1    6    6    0  503  0.80965123180E+02 -0.81813395676E+02  0.77029434476E+02  0.13850024065E+03  0.00000000000E+00 0.  1.
<mgrwt>
<rscale>  0 0.14525612E+04</rscale>
<asrwt>0</asrwt>
<pdfrwt beam="1">  1        1 0.23365925E+00 0.14525612E+04</pdfrwt>
<pdfrwt beam="2">  1       -2 0.53431726E-01 0.14525612E+04</pdfrwt>
<totfact> 0.17857803E+01</totfact>
</mgrwt>
</event>
<event>
12    4  0.4424320E-008  0.3119581E+04  0.7818608E-02  0.8210384E-01
         -2   -1    0    0    0  501 -0.00000000000E+00  0.00000000000E+00  0.10027666000E+04  0.10027666000E+04  0.00000000000E+00 0.  1.
          1   -1    0    0  501    0  0.00000000000E+00 -0.00000000000E+00 -0.24262342770E+04  0.24262342770E+04  0.00000000000E+00 0. -1.
        -24    2    1    2    0    0  0.28425976952E+03 -0.12575030456E+03  0.88731648958E+03  0.94366270751E+03  0.80944408016E+02 0.  0.
        254    2    1    2    0    0 -0.28425976952E+03  0.12575030456E+03 -0.23107841666E+04  0.24853381696E+04  0.86056121036E+03 0.  0.
         23    2    4    4    0    0 -0.34923743963E+03 -0.63954542904E+02 -0.32967663373E+03  0.49197381068E+03  0.85408282788E+02 0.  0.
         23    2    4    4    0    0  0.64977670109E+02  0.18970484747E+03 -0.19811075329E+04  0.19933643589E+04  0.92219215258E+02 0.  0.
          1    1    3    3  502    0  0.77094638414E+01 -0.46711423833E+01  0.34353759917E+01  0.96466166137E+01  0.00000000000E+00 0. -1.
         -2    1    3    3    0  502  0.27655030568E+03 -0.12107916218E+03  0.88388111359E+03  0.93401609089E+03  0.00000000000E+00 0.  1.
         11    1    5    5    0    0 -0.17545132890E+03 -0.65379189268E+02 -0.13390764324E+03  0.23019310181E+03  0.00000000000E+00 0. -1.
        -11    1    5    5    0    0 -0.17378611074E+03  0.14246463634E+01 -0.19576899048E+03  0.26178070887E+03  0.00000000000E+00 0.  1.
          4    1    6    6  503    0  0.14940708371E+02  0.63646493376E+02 -0.31313454557E+03  0.31988645566E+03  0.00000000000E+00 0. -1.
         -4    1    6    6    0  503  0.50036961739E+02  0.12605835409E+03 -0.16679729873E+04  0.16734779032E+04  0.00000000000E+00 0.  1.
<mgrwt>
<rscale>  0 0.31195812E+04</rscale>
<asrwt>0</asrwt>
<pdfrwt beam="1">  1        1 0.37326681E+00 0.31195812E+04</pdfrwt>
<pdfrwt beam="2">  1       -2 0.15427179E+00 0.31195812E+04</pdfrwt>
<totfact> 0.31389675E-01</totfact>
</mgrwt>
</event>
<event>
12    4  0.4424320E-008  0.1788103E+04  0.7818608E-02  0.8712652E-01
          1   -1    0    0  501    0  0.00000000000E+00  0.00000000000E+00  0.11823363663E+04  0.11823363663E+04  0.00000000000E+00 0. -1.
         -2   -1    0    0    0  501 -0.00000000000E+00 -0.00000000000E+00 -0.67605836911E+03  0.67605836911E+03  0.00000000000E+00 0.  1.
        -24    2    1    2    0    0 -0.19127992702E+02  0.53997295246E+03  0.62375989192E+03  0.82914174167E+03  0.80392509071E+02 0.  0.
        254    2    1    2    0    0  0.19127992702E+02 -0.53997295246E+03 -0.11748189474E+03  0.10292529937E+04  0.86811465833E+03 0.  0.
         23    2    4    4    0    0  0.41451525497E+03 -0.21467049884E+03 -0.17267835814E+03  0.50614832963E+03  0.91989111005E+02 0.  0.
         23    2    4    4    0    0 -0.39538726227E+03 -0.32530245362E+03  0.55196463402E+02  0.52310466410E+03  0.91864392080E+02 0.  0.
          1    1    3    3  502    0 -0.66154894527E+01  0.53035791153E+03  0.60803725876E+03  0.80686590402E+03  0.00000000000E+00 0. -1.
         -2    1    3    3    0  502 -0.12512503249E+02  0.96150409349E+01  0.15722633155E+02  0.22275837651E+02  0.00000000000E+00 0.  1.
         11    1    5    5    0    0  0.11695981864E+03 -0.10549739396E+03 -0.39730100712E+02  0.16244315994E+03  0.00000000000E+00 0. -1.
        -11    1    5    5    0    0  0.29755543633E+03 -0.10917310488E+03 -0.13294825743E+03  0.34370516969E+03  0.00000000000E+00 0.  1.
          2    1    6    6  503    0 -0.34042112272E+02 -0.40494646573E+02 -0.20672146641E+02  0.56798058556E+02  0.00000000000E+00 0. -1.
         -2    1    6    6    0  503 -0.36134514999E+03 -0.28480780705E+03  0.75868610043E+02  0.46630660554E+03  0.00000000000E+00 0.  1.
<mgrwt>
<rscale>  0 0.17881033E+04</rscale>
<asrwt>0</asrwt>
<pdfrwt beam="1">  1        1 0.18189790E+00 0.17881033E+04</pdfrwt>
<pdfrwt beam="2">  1       -2 0.10400898E+00 0.17881033E+04</pdfrwt>
<totfact> 0.68592331E+00</totfact>
</mgrwt>
</event>
<event>
12    4  0.4424320E-008  0.2068190E+04  0.7818608E-02  0.8575387E-01
         -2   -1    0    0    0  501 -0.00000000000E+00  0.00000000000E+00  0.55017518715E+03  0.55017518715E+03  0.00000000000E+00 0.  1.
          1   -1    0    0  501    0  0.00000000000E+00 -0.00000000000E+00 -0.19436574087E+04  0.19436574087E+04  0.00000000000E+00 0. -1.
        -24    2    1    2    0    0  0.39210932154E+03  0.59629584431E+03 -0.11001495597E+04  0.13138291361E+04  0.80619422131E+02 0.  0.
        254    2    1    2    0    0 -0.39210932154E+03 -0.59629584431E+03 -0.29333266185E+03  0.11800034597E+04  0.89277413744E+03 0.  0.
         23    2    4    4    0    0 -0.53136392821E+03 -0.72943232994E+03 -0.13995989610E+03  0.91752017561E+03  0.88517523596E+02 0.  0.
         23    2    4    4    0    0  0.13925460667E+03  0.13313648563E+03 -0.15337276575E+03  0.26248328411E+03  0.90868585769E+02 0.  0.
          1    1    3    3  502    0  0.35648496915E+03  0.56460580713E+03 -0.99389666908E+03  0.11973687149E+04  0.00000000000E+00 0. -1.
         -2    1    3    3    0  502  0.35624352397E+02  0.31690037177E+02 -0.10625289058E+03  0.11646042116E+03  0.00000000000E+00 0.  1.
         11    1    5    5    0    0 -0.15524908927E+03 -0.26075751621E+03 -0.78440808841E+02  0.31344811767E+03  0.00000000000E+00 0. -1.
        -11    1    5    5    0    0 -0.37611483894E+03 -0.46867481373E+03 -0.61519087257E+02  0.60407205794E+03  0.00000000000E+00 0.  1.
          4    1    6    6  503    0  0.85960468873E+02  0.12348410145E+03 -0.77450019996E+02  0.16922183995E+03  0.00000000000E+00 0. -1.
         -4    1    6    6    0  503  0.53294137794E+02  0.96523841820E+01 -0.75922745756E+02  0.93261444159E+02  0.00000000000E+00 0.  1.
<mgrwt>
<rscale>  0 0.20681896E+04</rscale>
<asrwt>0</asrwt>
<pdfrwt beam="1">  1        1 0.29902421E+00 0.20681896E+04</pdfrwt>
<pdfrwt beam="2">  1       -2 0.84642338E-01 0.20681896E+04</pdfrwt>
<totfact> 0.32063855E+00</totfact>
</mgrwt>
</event>
<event>
12    4  0.4424320E-008  0.1443921E+04  0.7818608E-02  0.8922626E-01
         -2   -1    0    0    0  501 -0.00000000000E+00  0.00000000000E+00  0.95787349901E+03  0.95787349901E+03  0.00000000000E+00 0.  1.
          1   -1    0    0  501    0  0.00000000000E+00 -0.00000000000E+00 -0.54415024542E+03  0.54415024542E+03  0.00000000000E+00 0. -1.
        -24    2    1    2    0    0 -0.22009575824E+03  0.15866298875E+03 -0.23477828822E+03  0.36746186382E+03  0.79317652152E+02 0.  0.
        254    2    1    2    0    0  0.22009575824E+03 -0.15866298875E+03  0.64850154182E+03  0.11345618806E+04  0.89053934467E+03 0.  0.
         23    2    4    4    0    0  0.21320801561E+03  0.33107141721E+03  0.43361872447E+03  0.59197971909E+03  0.85725424378E+02 0.  0.
         23    2    4    4    0    0  0.68877426326E+01 -0.48973440595E+03  0.21488281734E+03  0.54258216153E+03  0.91288265644E+02 0.  0.
          3    1    3    3  502    0 -0.21143699507E+03  0.13078190689E+03 -0.18553220792E+03  0.31021236312E+03  0.00000000000E+00 0. -1.
         -4    1    3    3    0  502 -0.86587631719E+01  0.27881081854E+02 -0.49246080300E+02  0.57249500696E+02  0.00000000000E+00 0.  1.
         11    1    5    5    0    0  0.38488425904E+02  0.95040858840E+02  0.16341718567E+03  0.19292304256E+03  0.00000000000E+00 0. -1.
        -11    1    5    5    0    0  0.17471958971E+03  0.23603055837E+03  0.27020153880E+03  0.39905667653E+03  0.00000000000E+00 0.  1.
          2    1    6    6  503    0  0.47772744341E+02 -0.21749962901E+03  0.87635554474E+02  0.23930799011E+03  0.00000000000E+00 0. -1.
         -2    1    6    6    0  503 -0.40885001709E+02 -0.27223477695E+03  0.12724726287E+03  0.30327417142E+03  0.00000000000E+00 0.  1.
<mgrwt>
<rscale>  0 0.14439212E+04</rscale>
<asrwt>0</asrwt>
<pdfrwt beam="1">  1        1 0.83715422E-01 0.14439212E+04</pdfrwt>
<pdfrwt beam="2">  1       -2 0.14736515E+00 0.14439212E+04</pdfrwt>
<totfact> 0.10503882E+01</totfact>
</mgrwt>
</event>
<event>
12    4  0.4424320E-008  0.1199022E+04  0.7818608E-02  0.9113713E-01
         -2   -1    0    0    0  501 -0.00000000000E+00  0.00000000000E+00  0.45892454584E+03  0.45892454584E+03  0.00000000000E+00 0.  1.
          1   -1    0    0  501    0  0.00000000000E+00 -0.00000000000E+00 -0.78316509258E+03  0.78316509258E+03  0.00000000000E+00 0. -1.
        -24    2    1    2    0    0  0.10224402772E+03  0.15395081921E+03  0.99819055541E+02  0.22758887070E+03  0.87625077906E+02 0.  0.
        254    2    1    2    0    0 -0.10224402772E+03 -0.15395081921E+03 -0.42405960228E+03  0.10145007677E+04  0.90290119364E+03 0.  0.
         23    2    4    4    0    0 -0.13800374407E+03  0.26109572647E+03 -0.49486435249E+03  0.58260227683E+03  0.85549248102E+02 0.  0.
         23    2    4    4    0    0  0.35759716352E+02 -0.41504654568E+03  0.70804750205E+02  0.43189849088E+03  0.89334211715E+02 0.  0.
          1    1    3    3  502    0  0.91238699391E+02  0.15914733049E+03  0.71719985812E+02  0.19696733088E+03  0.00000000000E+00 0. -1.
         -2    1    3    3    0  502  0.11005328324E+02 -0.51965112850E+01  0.28099069729E+02  0.30621539816E+02  0.00000000000E+00 0.  1.
         11    1    5    5    0    0  0.93486832232E+01  0.26741300026E+02 -0.69924573346E+02  0.75444953195E+02  0.00000000000E+00 0. -1.
        -11    1    5    5    0    0 -0.14735242729E+03  0.23435442644E+03 -0.42493977914E+03  0.50715732364E+03  0.00000000000E+00 0.  1.
          1    1    6    6  503    0  0.30864604748E+01  0.15373452528E+01 -0.61096901789E+01  0.70155529199E+01  0.00000000000E+00 0. -1.
         -1    1    6    6    0  503  0.32673255877E+02 -0.41658389093E+03  0.76914440384E+02  0.42488293796E+03  0.00000000000E+00 0.  1.
<mgrwt>
<rscale>  0 0.11990224E+04</rscale>
<asrwt>0</asrwt>
<pdfrwt beam="1">  1        1 0.12048694E+00 0.11990224E+04</pdfrwt>
<pdfrwt beam="2">  1       -2 0.70603777E-01 0.11990224E+04</pdfrwt>
<totfact> 0.36195277E+01</totfact>
</mgrwt>
</event>
<event>
12    4  0.4424320E-008  0.2286903E+04  0.7818608E-02  0.8483103E-01
         -2   -1    0    0    0  501 -0.00000000000E+00  0.00000000000E+00  0.18951374052E+04  0.18951374052E+04  0.00000000000E+00 0.  1.
          1   -1    0    0  501    0  0.00000000000E+00 -0.00000000000E+00 -0.68991391775E+03  0.68991391775E+03  0.00000000000E+00 0. -1.
        -24    2    1    2    0    0 -0.65195830295E+03 -0.67611786228E+03  0.27703196051E+03  0.98261487279E+03  0.81242160268E+02 0.  0.
        254    2    1    2    0    0  0.65195830295E+03  0.67611786228E+03  0.92819152690E+03  0.16024364501E+04  0.90778746057E+03 0.  0.
         23    2    4    4    0    0  0.28482122646E+03  0.72418441355E+03  0.24820344219E+03  0.82267797245E+03  0.98121872062E+02 0.  0.
         23    2    4    4    0    0  0.36713707650E+03 -0.48066551268E+02  0.67998808471E+03  0.77975847766E+03  0.92409208726E+02 0.  0.
          3    1    3    3  502    0 -0.26931999946E+03 -0.29492587713E+03  0.77603250313E+02  0.40686213828E+03  0.00000000000E+00 0. -1.
         -4    1    3    3    0  502 -0.38263830350E+03 -0.38119198515E+03  0.19942871020E+03  0.57575273452E+03  0.00000000000E+00 0.  1.
         11    1    5    5    0    0  0.55743127020E+02  0.16077839292E+03  0.97374397098E+02  0.19605805530E+03  0.00000000000E+00 0. -1.
        -11    1    5    5    0    0  0.22907809944E+03  0.56340602063E+03  0.15082904509E+03  0.62661991715E+03  0.00000000000E+00 0.  1.
          1    1    6    6  503    0  0.24115244527E+03 -0.55380973049E+02  0.37043572603E+03  0.44547074108E+03  0.00000000000E+00 0. -1.
         -1    1    6    6    0  503  0.12598463123E+03  0.73144217809E+01  0.30955235867E+03  0.33428773658E+03  0.00000000000E+00 0.  1.
<mgrwt>
<rscale>  0 0.22869033E+04</rscale>
<asrwt>0</asrwt>
<pdfrwt beam="1">  1        1 0.10614060E+00 0.22869033E+04</pdfrwt>
<pdfrwt beam="2">  1       -2 0.29155960E+00 0.22869033E+04</pdfrwt>
<totfact> 0.79080589E-01</totfact>
</mgrwt>
</event>
<event>
12    4  0.4424320E-008  0.1494593E+04  0.7818608E-02  0.8888057E-01
          1   -1    0    0  501    0  0.00000000000E+00  0.00000000000E+00  0.80892049624E+03  0.80892049624E+03  0.00000000000E+00 0. -1.
         -2   -1    0    0    0  501 -0.00000000000E+00 -0.00000000000E+00 -0.69036681068E+03  0.69036681068E+03  0.00000000000E+00 0.  1.
        -24    2    1    2    0    0 -0.44821231613E+03  0.12673338376E+03 -0.67028219660E+02  0.47751260187E+03  0.81054745873E+02 0.  0.
        254    2    1    2    0    0  0.44821231613E+03 -0.12673338376E+03  0.18558190523E+03  0.10217747051E+04  0.89029617176E+03 0.  0.
         23    2    4    4    0    0  0.27230334047E+02  0.81964582505E+02  0.45606679221E+03  0.47251494106E+03  0.88395512823E+02 0.  0.
         23    2    4    4    0    0  0.42098198208E+03 -0.20869796626E+03 -0.27048488698E+03  0.54925976399E+03  0.87997408470E+02 0.  0.
          3    1    3    3  502    0 -0.31252642508E+02  0.22822683060E+02  0.12160428039E+02  0.40564498467E+02  0.00000000000E+00 0. -1.
         -4    1    3    3    0  502 -0.41695967362E+03  0.10391070070E+03 -0.79188647699E+02  0.43694810340E+03  0.00000000000E+00 0.  1.
         11    1    5    5    0    0  0.24803247012E+02  0.64098131169E+02  0.44714773872E+03  0.45239901826E+03  0.00000000000E+00 0. -1.
        -11    1    5    5    0    0  0.24270870358E+01  0.17866451336E+02  0.89190534942E+01  0.20115922799E+02  0.00000000000E+00 0.  1.
          1    1    6    6  503    0  0.20878776978E+03 -0.14428364857E+03 -0.11629994069E+03  0.27916980542E+03  0.00000000000E+00 0. -1.
         -1    1    6    6    0  503  0.21219421230E+03 -0.64414317690E+02 -0.15418494630E+03  0.27008995857E+03  0.00000000000E+00 0.  1.
<mgrwt>
<rscale>  0 0.14945927E+04</rscale>
<asrwt>0</asrwt>
<pdfrwt beam="1">  1        1 0.12444931E+00 0.14945927E+04</pdfrwt>
<pdfrwt beam="2">  1       -2 0.10621028E+00 0.14945927E+04</pdfrwt>
<totfact> 0.13166646E+01</totfact>
</mgrwt>
</event>
<event>
12    4  0.4424320E-008  0.1887746E+04  0.7818608E-02  0.8660980E-01
          1   -1    0    0  501    0  0.00000000000E+00  0.00000000000E+00  0.15260495721E+04  0.15260495721E+04  0.00000000000E+00 0. -1.
         -2   -1    0    0    0  501 -0.00000000000E+00 -0.00000000000E+00 -0.58379255797E+03  0.58379255797E+03  0.00000000000E+00 0.  1.
        -24    2    1    2    0    0 -0.57702533731E+03  0.42623411292E+03  0.54162593405E+03  0.90242754815E+03  0.79894106808E+02 0.  0.
        254    2    1    2    0    0  0.57702533731E+03 -0.42623411292E+03  0.40063108006E+03  0.12074145819E+04  0.88470952937E+03 0.  0.
         23    2    4    4    0    0 -0.18542230409E+03 -0.28946627500E+03  0.90737032471E+02  0.36822187065E+03  0.95822657825E+02 0.  0.
         23    2    4    4    0    0  0.76244764140E+03 -0.13676783793E+03  0.30989404759E+03  0.83919271125E+03  0.90433613826E+02 0.  0.
          1    1    3    3  502    0 -0.41328906873E+03  0.28180748451E+03  0.41553168900E+03  0.65029985178E+03  0.00000000000E+00 0. -1.
         -2    1    3    3    0  502 -0.16373626858E+03  0.14442662841E+03  0.12609424506E+03  0.25212769638E+03  0.00000000000E+00 0.  1.
         11    1    5    5    0    0 -0.51222731771E+02 -0.18562634954E+02  0.16357550544E+02  0.56885051871E+02  0.00000000000E+00 0. -1.
        -11    1    5    5    0    0 -0.13419957232E+03 -0.27090364004E+03  0.74379481928E+02  0.31133681878E+03  0.00000000000E+00 0.  1.
          3    1    6    6  503    0  0.48787300479E+03 -0.12186416215E+03  0.22908717592E+03  0.55258653349E+03  0.00000000000E+00 0. -1.
         -3    1    6    6    0  503  0.27457463661E+03 -0.14903675775E+02  0.80806871672E+02  0.28660617776E+03  0.00000000000E+00 0.  1.
<mgrwt>
<rscale>  0 0.18877462E+04</rscale>
<asrwt>0</asrwt>
<pdfrwt beam="1">  1        1 0.23477686E+00 0.18877462E+04</pdfrwt>
<pdfrwt beam="2">  1       -2 0.89814240E-01 0.18877462E+04</pdfrwt>
<totfact> 0.54775452E+00</totfact>
</mgrwt>
</event>
<event>
12    4  0.4424320E-008  0.1543208E+04  0.7818608E-02  0.8856218E-01
         -4   -1    0    0    0  501 -0.00000000000E+00  0.00000000000E+00  0.59052452291E+03  0.59052452291E+03  0.00000000000E+00 0.  1.
          3   -1    0    0  501    0  0.00000000000E+00 -0.00000000000E+00 -0.10082096348E+04  0.10082096348E+04  0.00000000000E+00 0. -1.
        -24    2    1    2    0    0 -0.33055237234E+03 -0.26036089661E+03 -0.43522881134E+03  0.61045364258E+03  0.78593028795E+02 0.  0.
        254    2    1    2    0    0  0.33055237234E+03  0.26036089661E+03  0.17543699478E+02  0.98828051510E+03  0.89405700477E+03 0.  0.
         23    2    4    4    0    0  0.28008945028E+03 -0.20793379094E+03 -0.25087606648E+03  0.43934245445E+03  0.91632035760E+02 0.  0.
         23    2    4    4    0    0  0.50462922064E+02  0.46829468755E+03  0.26841976596E+03  0.54893806065E+03  0.86240377901E+02 0.  0.
          1    1    3    3  502    0 -0.32528557308E+03 -0.23541603134E+03 -0.39825952663E+03  0.56554580930E+03  0.00000000000E+00 0. -1.
         -2    1    3    3    0  502 -0.52667992577E+01 -0.24944865273E+02 -0.36969284705E+02  0.44907833275E+02  0.00000000000E+00 0.  1.
         11    1    5    5    0    0  0.69876900084E+02 -0.58226554884E+02 -0.11825041299E+03  0.14918536467E+03  0.00000000000E+00 0. -1.
        -11    1    5    5    0    0  0.21021255019E+03 -0.14970723606E+03 -0.13262565349E+03  0.29015708978E+03  0.00000000000E+00 0.  1.
          2    1    6    6  503    0  0.61991810085E+02  0.25763884948E+03  0.11943145396E+03  0.29066240464E+03  0.00000000000E+00 0. -1.
         -2    1    6    6    0  503 -0.11528888021E+02  0.21065583807E+03  0.14898831200E+03  0.25827565600E+03  0.00000000000E+00 0.  1.
<mgrwt>
<rscale>  0 0.15432077E+04</rscale>
<asrwt>0</asrwt>
<pdfrwt beam="1">  1        3 0.15510917E+00 0.15432077E+04</pdfrwt>
<pdfrwt beam="2">  1       -4 0.90849927E-01 0.15432077E+04</pdfrwt>
<totfact> 0.67738453E-01</totfact>
</mgrwt>
</event>
<event>
12    4  0.4424320E-008  0.1685101E+04  0.7818608E-02  0.8769908E-01
         -2   -1    0    0    0  501 -0.00000000000E+00  0.00000000000E+00  0.82450582651E+03  0.82450582651E+03  0.00000000000E+00 0.  1.
          1   -1    0    0  501    0  0.00000000000E+00 -0.00000000000E+00 -0.86099036874E+03  0.86099036874E+03  0.00000000000E+00 0. -1.
        -24    2    1    2    0    0 -0.10082969913E+03  0.58466473210E+03 -0.31823730151E+02  0.59935979945E+03  0.78866610183E+02 0.  0.
        254    2    1    2    0    0  0.10082969913E+03 -0.58466473210E+03 -0.46608120759E+01  0.10861363958E+04  0.90976429361E+03 0.  0.
         23    2    4    4    0    0 -0.37902224271E+03 -0.29920216242E+03 -0.12635919000E+03  0.50757175288E+03  0.92101275508E+02 0.  0.
         23    2    4    4    0    0  0.47985194184E+03 -0.28546256968E+03  0.12169837793E+03  0.57856464292E+03  0.90442169770E+02 0.  0.
          1    1    3    3  502    0 -0.47767338340E+02  0.32914097391E+03  0.20386803575E+02  0.33321332669E+03  0.00000000000E+00 0. -1.
         -2    1    3    3    0  502 -0.53062360788E+02  0.25552375819E+03 -0.52210533726E+02  0.26614647276E+03  0.00000000000E+00 0.  1.
         11    1    5    5    0    0 -0.10278587607E+03 -0.90142877923E+02  0.56849580351E+01  0.13683199007E+03  0.00000000000E+00 0. -1.
        -11    1    5    5    0    0 -0.27623636665E+03 -0.20905928450E+03 -0.13204414804E+03  0.37073976281E+03  0.00000000000E+00 0.  1.
          1    1    6    6  503    0  0.40073910112E+03 -0.22601121332E+03  0.65382964716E+02  0.46470186979E+03  0.00000000000E+00 0. -1.
         -1    1    6    6    0  503  0.79112840727E+02 -0.59451356356E+02  0.56315413213E+02  0.11386277313E+03  0.00000000000E+00 0.  1.
<mgrwt>
<rscale>  0 0.16851013E+04</rscale>
<asrwt>0</asrwt>
<pdfrwt beam="1">  1        1 0.13246006E+00 0.16851013E+04</pdfrwt>
<pdfrwt beam="2">  1       -2 0.12684705E+00 0.16851013E+04</pdfrwt>
<totfact> 0.75623398E+00</totfact>
</mgrwt>
</event>
<event>
12    4  0.6996319E-008  0.2169477E+04  0.7818608E-02  0.8531241E-01
          1   -1    0    0  501    0  0.00000000000E+00  0.00000000000E+00  0.13942004286E+04  0.13942004286E+04  0.00000000000E+00 0. -1.
         -2   -1    0    0    0  501 -0.00000000000E+00 -0.00000000000E+00 -0.84396601199E+03  0.84396601199E+03  0.00000000000E+00 0.  1.
        -24    2    1    2    0    0  0.82034574386E+03  0.12688411408E+03  0.57744824956E+03  0.10143311810E+04  0.79715405631E+02 0.  0.
        254    2    1    2    0    0 -0.82034574386E+03 -0.12688411408E+03 -0.27213832900E+02  0.12238352597E+04  0.89886897391E+03 0.  0.
         23    2    4    4    0    0 -0.50277734108E+03 -0.50064531797E+03  0.55950604170E+02  0.71733140548E+03  0.89459969120E+02 0.  0.
         23    2    4    4    0    0 -0.31756840278E+03  0.37376120389E+03 -0.83164437070E+02  0.50650385419E+03  0.95303214771E+02 0.  0.
          3    1    3    3  502    0  0.77649433724E+03  0.10950047292E+03  0.52448944305E+03  0.94341029526E+03  0.00000000000E+00 0. -1.
         -4    1    3    3    0  502  0.43851406613E+02  0.17383641165E+02  0.52958806508E+02  0.70920885703E+02  0.00000000000E+00 0.  1.
         11    1    5    5    0    0 -0.41308790974E+02 -0.13337702066E+02 -0.36123054809E+01  0.43558687526E+02  0.00000000000E+00 0.  1.
        -11    1    5    5    0    0 -0.46146855010E+03 -0.48730761590E+03  0.59562909651E+02  0.67377271795E+03  0.00000000000E+00 0. -1.
          3    1    6    6  503    0 -0.32210047381E+03  0.35959029254E+03 -0.88297937667E+02  0.49076513682E+03  0.00000000000E+00 0. -1.
         -3    1    6    6    0  503  0.45320710337E+01  0.14170911350E+02  0.51335005973E+01  0.15738717378E+02  0.00000000000E+00 0.  1.
<mgrwt>
<rscale>  0 0.21694771E+04</rscale>
<asrwt>0</asrwt>
<pdfrwt beam="1">  1        1 0.21449237E+00 0.21694771E+04</pdfrwt>
<pdfrwt beam="2">  1       -2 0.12984093E+00 0.21694771E+04</pdfrwt>
<totfact> 0.27108929E+00</totfact>
</mgrwt>
</event>
<event>
12    4  0.4424320E-008  0.1796174E+04  0.7818608E-02  0.8708337E-01
          1   -1    0    0  501    0  0.00000000000E+00  0.00000000000E+00  0.55718488115E+03  0.55718488115E+03  0.00000000000E+00 0. -1.
         -2   -1    0    0    0  501 -0.00000000000E+00 -0.00000000000E+00 -0.14475636043E+04  0.14475636043E+04  0.00000000000E+00 0.  1.
        -24    2    1    2    0    0  0.15178152946E+03 -0.61791562705E+03 -0.57205947483E+03  0.85926292748E+03  0.78888408261E+02 0.  0.
        254    2    1    2    0    0 -0.15178152946E+03  0.61791562705E+03 -0.31831924830E+03  0.11454855580E+04  0.89774866461E+03 0.  0.
         23    2    4    4    0    0 -0.37349790959E+03  0.54104562572E+03 -0.50293348635E+03  0.83260798250E+03  0.89793670446E+02 0.  0.
         23    2    4    4    0    0  0.22171638013E+03  0.76870001335E+02  0.18461423805E+03  0.31287757546E+03  0.93502994657E+02 0.  0.
          1    1    3    3  502    0  0.44476939595E+02 -0.19616477407E+03 -0.13342814154E+03  0.24137498979E+03  0.00000000000E+00 0. -1.
         -2    1    3    3    0  502  0.10730458986E+03 -0.42175085298E+03 -0.43863133329E+03  0.61788793769E+03  0.00000000000E+00 0.  1.
         11    1    5    5    0    0 -0.19166631606E+03  0.20267144277E+03 -0.22699827477E+03  0.35963857854E+03  0.00000000000E+00 0. -1.
        -11    1    5    5    0    0 -0.18183159353E+03  0.33837418294E+03 -0.27593521157E+03  0.47296940395E+03  0.00000000000E+00 0.  1.
          1    1    6    6  503    0  0.16780467273E+03  0.85225510567E+02  0.10254481350E+03  0.21432973340E+03  0.00000000000E+00 0. -1.
         -1    1    6    6    0  503  0.53911707399E+02 -0.83555092324E+01  0.82069424546E+02  0.98547842059E+02  0.00000000000E+00 0.  1.
<mgrwt>
<rscale>  0 0.17961743E+04</rscale>
<asrwt>0</asrwt>
<pdfrwt beam="1">  1        1 0.85720753E-01 0.17961743E+04</pdfrwt>
<pdfrwt beam="2">  1       -2 0.22270209E+00 0.17961743E+04</pdfrwt>
<totfact> 0.29878806E+00</totfact>
</mgrwt>
</event>
<event>
12    4  0.4424320E-008  0.1238049E+04  0.7818608E-02  0.9080189E-01
          1   -1    0    0  501    0  0.00000000000E+00  0.00000000000E+00  0.21719632868E+04  0.21719632868E+04  0.00000000000E+00 0. -1.
         -2   -1    0    0    0  501 -0.00000000000E+00 -0.00000000000E+00 -0.17642631277E+03  0.17642631277E+03  0.00000000000E+00 0.  1.
        -24    2    1    2    0    0 -0.69176017499E+02  0.97245195206E+02 -0.29645809753E+02  0.14113304102E+03  0.69265516997E+02 0.  0.
        254    2    1    2    0    0  0.69176017499E+02 -0.97245195206E+02  0.20251827838E+04  0.22072565586E+04  0.86969779702E+03 0.  0.
         23    2    4    4    0    0 -0.14353720342E+03 -0.43551504905E+03  0.10344860214E+04  0.11352413161E+04  0.91297484228E+02 0.  0.
         23    2    4    4    0    0  0.21271322092E+03  0.33826985384E+03  0.99069676239E+03  0.10720152424E+04  0.89795304153E+02 0.  0.
          1    1    3    3  502    0 -0.66911440641E+02  0.45630571247E+02  0.11293047307E+01  0.80997316314E+02  0.00000000000E+00 0. -1.
         -2    1    3    3    0  502 -0.22645768584E+01  0.51614623959E+02 -0.30775114484E+02  0.60135724709E+02  0.00000000000E+00 0.  1.
         11    1    5    5    0    0 -0.14817956924E+02 -0.12603117695E+03  0.21198097023E+03  0.24706145218E+03  0.00000000000E+00 0. -1.
        -11    1    5    5    0    0 -0.12871924649E+03 -0.30948387210E+03  0.82250505120E+03  0.88817986397E+03  0.00000000000E+00 0.  1.
          4    1    6    6  503    0 -0.21242607985E+01 -0.36577371676E+01  0.37583324599E+01  0.56583202460E+01  0.00000000000E+00 0. -1.
         -4    1    6    6    0  503  0.21483748172E+03  0.34192759101E+03  0.98693842993E+03  0.10663569222E+04  0.00000000000E+00 0.  1.
<mgrwt>
<rscale>  0 0.12380492E+04</rscale>
<asrwt>0</asrwt>
<pdfrwt beam="1">  1        1 0.33414818E+00 0.12380492E+04</pdfrwt>
<pdfrwt beam="2">  1       -2 0.27142511E-01 0.12380492E+04</pdfrwt>
<totfact> 0.24419978E+01</totfact>
</mgrwt>
</event>
<event>
12    4  0.4424320E-008  0.1666125E+04  0.7818608E-02  0.8780924E-01
          1   -1    0    0  501    0  0.00000000000E+00  0.00000000000E+00  0.69536488152E+03  0.69536488152E+03  0.00000000000E+00 0. -1.
         -2   -1    0    0    0  501 -0.00000000000E+00 -0.00000000000E+00 -0.99802703213E+03  0.99802703213E+03  0.00000000000E+00 0.  1.
        -24    2    1    2    0    0  0.32588751417E+03 -0.11524611272E+02  0.38573327183E+03  0.51182397341E+03  0.82693011789E+02 0.  0.
        254    2    1    2    0    0 -0.32588751417E+03  0.11524611272E+02 -0.68839542245E+03  0.11815679402E+04  0.90326023449E+03 0.  0.
         23    2    4    4    0    0 -0.36603708772E+03  0.25067329567E+02 -0.88434291163E+03  0.96155428395E+03  0.88953555530E+02 0.  0.
         23    2    4    4    0    0  0.40149573555E+02 -0.13542718295E+02  0.19594748918E+03  0.22001365629E+03  0.90637723718E+02 0.  0.
          3    1    3    3  502    0  0.16555254624E+03 -0.44820830921E+01  0.25857733375E+03  0.30706672266E+03  0.00000000000E+00 0. -1.
         -4    1    3    3    0  502  0.16033496793E+03 -0.70425281799E+01  0.12715593808E+03  0.20475725074E+03  0.00000000000E+00 0.  1.
         11    1    5    5    0    0 -0.16182289708E+03  0.47377012347E+02 -0.46426048932E+03  0.49393221525E+03  0.00000000000E+00 0.  1.
        -11    1    5    5    0    0 -0.20421419064E+03 -0.22309682780E+02 -0.42008242231E+03  0.46762206870E+03  0.00000000000E+00 0. -1.
          2    1    6    6  503    0  0.90159557695E+01  0.27862434102E+02  0.14288926115E+03  0.14585932827E+03  0.00000000000E+00 0. -1.
         -2    1    6    6    0  503  0.31133617786E+02 -0.41405152397E+02  0.53058228038E+02  0.74154328019E+02  0.00000000000E+00 0.  1.
<mgrwt>
<rscale>  0 0.16661248E+04</rscale>
<asrwt>0</asrwt>
<pdfrwt beam="1">  1        1 0.10697921E+00 0.16661248E+04</pdfrwt>
<pdfrwt beam="2">  1       -2 0.15354262E+00 0.16661248E+04</pdfrwt>
<totfact> 0.64711053E+00</totfact>
</mgrwt>
</event>
<event>
12    4  0.4424320E-008  0.3127416E+04  0.7818608E-02  0.8208254E-01
         -2   -1    0    0    0  501 -0.00000000000E+00  0.00000000000E+00  0.15140009014E+04  0.15140009014E+04  0.00000000000E+00 0.  1.
          1   -1    0    0  501    0  0.00000000000E+00 -0.00000000000E+00 -0.16150466859E+04  0.16150466859E+04  0.00000000000E+00 0. -1.
        -24    2    1    2    0    0 -0.11937865858E+04 -0.18098643595E+03 -0.81939171202E+03  0.14614032255E+04  0.80088121446E+02 0.  0.
        254    2    1    2    0    0  0.11937865858E+04  0.18098643595E+03  0.71834592753E+03  0.16676443618E+04  0.89840655789E+03 0.  0.
         23    2    4    4    0    0  0.94637448215E+02 -0.13385369843E+03 -0.14073147864E+03  0.23453728835E+03  0.91265170575E+02 0.  0.
         23    2    4    4    0    0  0.10991491376E+04  0.31484013438E+03  0.85907740616E+03  0.14331070734E+04  0.92351270605E+02 0.  0.
          3    1    3    3  502    0 -0.11237398964E+04 -0.15922698911E+03 -0.74965055721E+03  0.13601913640E+04  0.00000000000E+00 0. -1.
         -4    1    3    3    0  502 -0.70046689468E+02 -0.21759446835E+02 -0.69741154802E+02  0.10121186148E+03  0.00000000000E+00 0.  1.
         11    1    5    5    0    0 -0.14880979500E+02 -0.30786897706E+02 -0.10990192885E+02  0.35917418628E+02  0.00000000000E+00 0.  1.
        -11    1    5    5    0    0  0.10951842772E+03 -0.10306680073E+03 -0.12974128575E+03  0.19861986972E+03  0.00000000000E+00 0. -1.
          1    1    6    6  503    0  0.37929123097E+03  0.12391692612E+03  0.35230655233E+03  0.53229423187E+03  0.00000000000E+00 0. -1.
         -1    1    6    6    0  503  0.71985790664E+03  0.19092320827E+03  0.50677085384E+03  0.90081284155E+03  0.00000000000E+00 0.  1.
<mgrwt>
<rscale>  0 0.31274156E+04</rscale>
<asrwt>0</asrwt>
<pdfrwt beam="1">  1        1 0.24846872E+00 0.31274156E+04</pdfrwt>
<pdfrwt beam="2">  1       -2 0.23292322E+00 0.31274156E+04</pdfrwt>
<totfact> 0.33036359E-01</totfact>
</mgrwt>
</event>
<event>
12    4  0.4424320E-008  0.2520708E+04  0.7818608E-02  0.8395645E-01
          1   -1    0    0  501    0  0.00000000000E+00  0.00000000000E+00  0.68754636863E+03  0.68754636863E+03  0.00000000000E+00 0. -1.
         -2   -1    0    0    0  501 -0.00000000000E+00 -0.00000000000E+00 -0.23103784300E+04  0.23103784300E+04  0.00000000000E+00 0.  1.
        -24    2    1    2    0    0  0.35112141087E+03  0.78764585289E+03  0.10854683158E+03  0.87291704648E+03  0.80805449297E+02 0.  0.
        254    2    1    2    0    0 -0.35112141087E+03 -0.78764585289E+03 -0.17313788929E+04  0.21250077521E+04  0.87995047645E+03 0.  0.
         23    2    4    4    0    0  0.14184108561E+03 -0.82038677926E+01 -0.10405633961E+02  0.17041104512E+03  0.93517111099E+02 0.  0.
         23    2    4    4    0    0 -0.49296249648E+03 -0.77944198510E+03 -0.17209732589E+04  0.19545967070E+04  0.90318867985E+02 0.  0.
          1    1    3    3  502    0  0.16133824466E+03  0.36693347030E+03  0.91052900992E+02  0.41104845407E+03  0.00000000000E+00 0. -1.
         -4    1    3    3    0  502  0.18978316621E+03  0.42071238259E+03  0.17493930588E+02  0.46186859240E+03  0.00000000000E+00 0.  1.
         11    1    5    5    0    0  0.14676022835E+03  0.10079636286E+02 -0.21185522406E+02  0.14862365240E+03  0.00000000000E+00 0. -1.
        -11    1    5    5    0    0 -0.49191427426E+01 -0.18283504079E+02  0.10779888445E+02  0.21787392722E+02  0.00000000000E+00 0.  1.
          2    1    6    6  503    0 -0.36471867110E+03 -0.52378165786E+03 -0.11219082183E+04  0.12907536498E+04  0.00000000000E+00 0. -1.
         -2    1    6    6    0  503 -0.12824382538E+03 -0.25566032724E+03 -0.59906504066E+03  0.66384305722E+03  0.00000000000E+00 0.  1.
<mgrwt>
<rscale>  0 0.25207081E+04</rscale>
<asrwt>0</asrwt>
<pdfrwt beam="1">  1        1 0.10577637E+00 0.25207081E+04</pdfrwt>
<pdfrwt beam="2">  1       -2 0.35544283E+00 0.25207081E+04</pdfrwt>
<totfact> 0.31296800E-01</totfact>
</mgrwt>
</event>
<event>
12    4  0.4424320E-008  0.1535171E+04  0.7818608E-02  0.8861396E-01
          1   -1    0    0  501    0  0.00000000000E+00  0.00000000000E+00  0.11255422595E+04  0.11255422595E+04  0.00000000000E+00 0. -1.
         -2   -1    0    0    0  501 -0.00000000000E+00 -0.00000000000E+00 -0.52347008222E+03  0.52347008222E+03  0.00000000000E+00 0.  1.
        -24    2    1    2    0    0 -0.16650707786E+03  0.39300003231E+03  0.47703775166E+03  0.64552926612E+03  0.83482839750E+02 0.  0.
        254    2    1    2    0    0  0.16650707786E+03 -0.39300003231E+03  0.12503442563E+03  0.10034830756E+04  0.89953935049E+03 0.  0.
         23    2    4    4    0    0  0.28920847873E+03  0.84818890039E+02  0.33301720341E+03  0.45966143164E+03  0.97736306941E+02 0.  0.
         23    2    4    4    0    0 -0.12270140087E+03 -0.47781892235E+03 -0.20798277778E+03  0.54382164398E+03  0.95491299446E+02 0.  0.
          3    1    3    3  502    0 -0.15886754328E+03  0.35159378862E+03  0.45928894351E+03  0.59983616275E+03  0.00000000000E+00 0. -1.
         -4    1    3    3    0  502 -0.76395345768E+01  0.41406243694E+02  0.17748808150E+02  0.45693103376E+02  0.00000000000E+00 0.  1.
         11    1    5    5    0    0  0.23351409891E+03  0.34589510031E+02  0.28723931167E+03  0.37179522692E+03  0.00000000000E+00 0.  1.
        -11    1    5    5    0    0  0.55694379818E+02  0.50229380008E+02  0.45777891743E+02  0.87866204719E+02  0.00000000000E+00 0. -1.
          3    1    6    6  503    0 -0.96155054397E+02 -0.22419590265E+03 -0.13385965002E+03  0.27825887794E+03  0.00000000000E+00 0. -1.
         -3    1    6    6    0  503 -0.26546346471E+02 -0.25362301970E+03 -0.74123127768E+02  0.26556276603E+03  0.00000000000E+00 0.  1.
<mgrwt>
<rscale>  0 0.15351713E+04</rscale>
<asrwt>0</asrwt>
<pdfrwt beam="1">  1        1 0.17316035E+00 0.15351713E+04</pdfrwt>
<pdfrwt beam="2">  1       -2 0.80533859E-01 0.15351713E+04</pdfrwt>
<totfact> 0.13973744E+01</totfact>
</mgrwt>
</event>
<event>
12    4  0.4424320E-008  0.1997864E+04  0.7818608E-02  0.8607620E-01
         -2   -1    0    0    0  501 -0.00000000000E+00  0.00000000000E+00  0.40138123743E+03  0.40138123743E+03  0.00000000000E+00 0.  1.
          1   -1    0    0  501    0  0.00000000000E+00 -0.00000000000E+00 -0.24860784777E+04  0.24860784777E+04  0.00000000000E+00 0. -1.
        -24    2    1    2    0    0 -0.37568678718E+03 -0.57160759108E+03 -0.14292226255E+04  0.15864811999E+04  0.79809047869E+02 0.  0.
        254    2    1    2    0    0  0.37568678718E+03  0.57160759108E+03 -0.65547461474E+03  0.13009785152E+04  0.89164024485E+03 0.  0.
         23    2    4    4    0    0  0.18167036242E+03  0.29947360743E+03 -0.83516242956E+03  0.91066311690E+03  0.95511604551E+02 0.  0.
         23    2    4    4    0    0  0.19401642476E+03  0.27213398365E+03  0.17968781482E+03  0.39031539831E+03  0.91428229950E+02 0.  0.
          3    1    3    3  502    0 -0.21649763532E+03 -0.27186633858E+03 -0.77917077033E+03  0.85316447505E+03  0.00000000000E+00 0. -1.
         -4    1    3    3    0  502 -0.15918915186E+03 -0.29974125250E+03 -0.65005185521E+03  0.73331672488E+03  0.00000000000E+00 0.  1.
         11    1    5    5    0    0  0.86180571986E+02  0.18525631363E+03 -0.37545266250E+03  0.42744788513E+03  0.00000000000E+00 0.  1.
        -11    1    5    5    0    0  0.95489790435E+02  0.11421729380E+03 -0.45970976706E+03  0.48321523177E+03  0.00000000000E+00 0. -1.
          1    1    6    6  503    0  0.58161533496E+02  0.15920732201E+03  0.79406685098E+02  0.18717680679E+03  0.00000000000E+00 0. -1.
         -1    1    6    6    0  503  0.13585489126E+03  0.11292666164E+03  0.10028112972E+03  0.20313859153E+03  0.00000000000E+00 0.  1.
<mgrwt>
<rscale>  0 0.19978641E+04</rscale>
<asrwt>0</asrwt>
<pdfrwt beam="1">  1        1 0.38247361E+00 0.19978641E+04</pdfrwt>
<pdfrwt beam="2">  1       -2 0.61750960E-01 0.19978641E+04</pdfrwt>
<totfact> 0.27521693E+00</totfact>
</mgrwt>
</event>
<event>
12    4  0.4424320E-008  0.2327037E+04  0.7818608E-02  0.8467337E-01
         -2   -1    0    0    0  501 -0.00000000000E+00  0.00000000000E+00  0.52793053810E+03  0.52793053810E+03  0.00000000000E+00 0.  1.
          1   -1    0    0  501    0  0.00000000000E+00 -0.00000000000E+00 -0.25643054381E+04  0.25643054381E+04  0.00000000000E+00 0. -1.
        -24    2    1    2    0    0  0.96957129664E+03  0.16688741938E+02 -0.11642508155E+04  0.15170352902E+04  0.74626383501E+02 0.  0.
        254    2    1    2    0    0 -0.96957129664E+03 -0.16688741938E+02 -0.87212408450E+03  0.15752006859E+04  0.88335144128E+03 0.  0.
         23    2    4    4    0    0 -0.33876612562E+03  0.32341308630E+03 -0.48700391981E+02  0.47961769013E+03  0.91120185760E+02 0.  0.
         23    2    4    4    0    0 -0.63080517103E+03 -0.34010182824E+03 -0.82342369252E+03  0.10955829958E+04  0.93226101041E+02 0.  0.
          1    1    3    3  502    0  0.82937895769E+03 -0.74058720924E+00 -0.10269294471E+04  0.13200204897E+04  0.00000000000E+00 0. -1.
         -2    1    3    3    0  502  0.14019233895E+03  0.17429329147E+02 -0.13732136837E+03  0.19701480053E+03  0.00000000000E+00 0.  1.
         11    1    5    5    0    0 -0.16080115744E+03  0.16264061907E+03  0.21507978587E+02  0.22972064850E+03  0.00000000000E+00 0. -1.
        -11    1    5    5    0    0 -0.17796496818E+03  0.16077246723E+03 -0.70208370568E+02  0.24989704163E+03  0.00000000000E+00 0.  1.
          3    1    6    6  503    0 -0.35032861489E+02 -0.75318978375E+01 -0.73141031820E+02  0.81447169410E+02  0.00000000000E+00 0. -1.
         -3    1    6    6    0  503 -0.59577230954E+03 -0.33256993040E+03 -0.75028266069E+03  0.10141358264E+04  0.00000000000E+00 0.  1.
<mgrwt>
<rscale>  0 0.23270369E+04</rscale>
<asrwt>0</asrwt>
<pdfrwt beam="1">  1        1 0.39450853E+00 0.23270369E+04</pdfrwt>
<pdfrwt beam="2">  1       -2 0.81220082E-01 0.23270369E+04</pdfrwt>
<totfact> 0.12939138E+00</totfact>
</mgrwt>
</event>
<event>
12    4  0.4424320E-008  0.2989375E+04  0.7818608E-02  0.8246772E-01
          1   -1    0    0  501    0  0.00000000000E+00  0.00000000000E+00  0.16065254464E+04  0.16065254464E+04  0.00000000000E+00 0. -1.
         -2   -1    0    0    0  501 -0.00000000000E+00 -0.00000000000E+00 -0.13906348480E+04  0.13906348480E+04  0.00000000000E+00 0.  1.
        -24    2    1    2    0    0 -0.96778178041E+02  0.13443334926E+04 -0.62509842764E+02  0.13516436264E+04  0.80215068756E+02 0.  0.
        254    2    1    2    0    0  0.96778178041E+02 -0.13443334926E+04  0.27840044114E+03  0.16455166680E+04  0.90200872724E+03 0.  0.
         23    2    4    4    0    0  0.33206309651E+03 -0.12925801638E+04  0.34495037847E+03  0.13821260236E+04  0.10125315648E+03 0.  0.
         23    2    4    4    0    0 -0.23528491847E+03 -0.51753328830E+02 -0.66549937330E+02  0.26339064441E+03  0.83116409324E+02 0.  0.
          1    1    3    3  502    0  0.13168377578E+02  0.24291092676E+03 -0.76166180981E+01  0.24338680609E+03  0.00000000000E+00 0. -1.
         -2    1    3    3    0  502 -0.10994655562E+03  0.11014225658E+04 -0.54893224666E+02  0.11082568203E+04  0.00000000000E+00 0.  1.
         11    1    5    5    0    0  0.92059132592E+02 -0.26630555153E+03  0.10869288943E+03  0.30200608418E+03  0.00000000000E+00 0. -1.
        -11    1    5    5    0    0  0.24000396392E+03 -0.10262746122E+04  0.23625748904E+03  0.10801199394E+04  0.00000000000E+00 0.  1.
          1    1    6    6  503    0 -0.41851963008E+02 -0.25852608010E+02  0.15656238250E+02  0.51624237958E+02  0.00000000000E+00 0. -1.
         -1    1    6    6    0  503 -0.19343295546E+03 -0.25900720821E+02 -0.82206175580E+02  0.21176640645E+03  0.00000000000E+00 0.  1.
<mgrwt>
<rscale>  0 0.29893747E+04</rscale>
<asrwt>0</asrwt>
<pdfrwt beam="1">  1        1 0.24715776E+00 0.29893747E+04</pdfrwt>
<pdfrwt beam="2">  1       -2 0.21394382E+00 0.29893747E+04</pdfrwt>
<totfact> 0.44643589E-01</totfact>
</mgrwt>
</event>
<event>
12    4  0.4424320E-008  0.1369390E+04  0.7818608E-02  0.8976279E-01
         -2   -1    0    0    0  501 -0.00000000000E+00  0.00000000000E+00  0.23387611608E+03  0.23387611608E+03  0.00000000000E+00 0.  1.
          1   -1    0    0  501    0  0.00000000000E+00 -0.00000000000E+00 -0.20045096426E+04  0.20045096426E+04  0.00000000000E+00 0. -1.
        -24    2    1    2    0    0 -0.15266883238E+03  0.11186601041E+03  0.39157607505E+02  0.20805238263E+03  0.77011031844E+02 0.  0.
        254    2    1    2    0    0  0.15266883238E+03 -0.11186601041E+03 -0.18097911340E+04  0.20303333760E+04  0.90060418190E+03 0.  0.
         23    2    4    4    0    0 -0.15029194415E+03  0.14771181126E+03 -0.14984100780E+04  0.15159145116E+04  0.91419893713E+02 0.  0.
         23    2    4    4    0    0  0.30296077653E+03 -0.25957782166E+03 -0.31138105597E+03  0.51441886440E+03  0.92210240306E+02 0.  0.
          3    1    3    3  502    0 -0.54904249341E+02 -0.44392138361E+00  0.39634677081E+01  0.55048912235E+02  0.00000000000E+00 0. -1.
         -4    1    3    3    0  502 -0.97764583041E+02  0.11230993179E+03  0.35194139797E+02  0.15300347039E+03  0.00000000000E+00 0.  1.
         11    1    5    5    0    0 -0.61913799023E+02  0.45449264618E+02 -0.29107954581E+03  0.30104195082E+03  0.00000000000E+00 0.  1.
        -11    1    5    5    0    0 -0.88378145129E+02  0.10226254664E+03 -0.12073305322E+04  0.12148725608E+04  0.00000000000E+00 0. -1.
          3    1    6    6  503    0  0.22705338557E+03 -0.15221499996E+03 -0.17283032181E+03  0.32340835834E+03  0.00000000000E+00 0. -1.
         -3    1    6    6    0  503  0.75907390968E+02 -0.10736282170E+03 -0.13855073416E+03  0.19101050606E+03  0.00000000000E+00 0.  1.
<mgrwt>
<rscale>  0 0.13693895E+04</rscale>
<asrwt>0</asrwt>
<pdfrwt beam="1">  1        1 0.30838609E+00 0.13693895E+04</pdfrwt>
<pdfrwt beam="2">  1       -2 0.35980942E-01 0.13693895E+04</pdfrwt>
<totfact> 0.18463788E+01</totfact>
</mgrwt>
</event>
<event>
12    4  0.4424320E-008  0.1692425E+04  0.7818608E-02  0.8765696E-01
         -2   -1    0    0    0  501 -0.00000000000E+00  0.00000000000E+00  0.55307642387E+03  0.55307642387E+03  0.00000000000E+00 0.  1.
          1   -1    0    0  501    0  0.00000000000E+00 -0.00000000000E+00 -0.12947137065E+04  0.12947137065E+04  0.00000000000E+00 0. -1.
        -24    2    1    2    0    0  0.10005692984E+03  0.52270462349E+03 -0.57707534419E+03  0.78908670341E+03  0.80064723804E+02 0.  0.
        254    2    1    2    0    0 -0.10005692984E+03 -0.52270462349E+03 -0.16456193848E+03  0.10587034270E+04  0.90030039549E+03 0.  0.
         23    2    4    4    0    0 -0.25533513074E+03 -0.72130655780E+03 -0.69440283035E+02  0.77375353534E+03  0.91615507609E+02 0.  0.
         23    2    4    4    0    0  0.15527820090E+03  0.19860193431E+03 -0.95121655441E+02  0.28494989166E+03  0.92705250295E+02 0.  0.
          1    1    3    3  502    0  0.36298049281E+01 -0.11682360596E+01 -0.11695621393E+02  0.12301537265E+02  0.00000000000E+00 0. -1.
         -2    1    3    3    0  502  0.96427124907E+02  0.52387285955E+03 -0.56537972280E+03  0.77678516614E+03  0.00000000000E+00 0.  1.
         11    1    5    5    0    0 -0.19217865544E+03 -0.54181374260E+03 -0.91779551682E+02  0.58216686043E+03  0.00000000000E+00 0. -1.
        -11    1    5    5    0    0 -0.63156475293E+02 -0.17949281520E+03  0.22339268647E+02  0.19158667491E+03  0.00000000000E+00 0.  1.
          3    1    6    6  503    0  0.12797794815E+03  0.20003607653E+03 -0.69378029953E+02  0.24739866241E+03  0.00000000000E+00 0. -1.
         -3    1    6    6    0  503  0.27300252754E+02 -0.14341422124E+01 -0.25743625487E+02  0.37551229242E+02  0.00000000000E+00 0.  1.
<mgrwt>
<rscale>  0 0.16924250E+04</rscale>
<asrwt>0</asrwt>
<pdfrwt beam="1">  1        1 0.19918672E+00 0.16924250E+04</pdfrwt>
<pdfrwt beam="2">  1       -2 0.85088681E-01 0.16924250E+04</pdfrwt>
<totfact> 0.91623873E+00</totfact>
</mgrwt>
</event>
<event>
12    4  0.4424320E-008  0.1489855E+04  0.7818608E-02  0.8891228E-01
         -2   -1    0    0    0  501 -0.00000000000E+00  0.00000000000E+00  0.14557126705E+04  0.14557126705E+04  0.00000000000E+00 0.  1.
          1   -1    0    0  501    0  0.00000000000E+00 -0.00000000000E+00 -0.38119934374E+03  0.38119934374E+03  0.00000000000E+00 0. -1.
        -24    2    1    2    0    0  0.20598935144E+03  0.35586973609E+03  0.52124645986E+02  0.42177423320E+03  0.78113014931E+02 0.  0.
        254    2    1    2    0    0 -0.20598935144E+03 -0.35586973609E+03  0.10223886808E+04  0.14151377811E+04  0.88784088822E+03 0.  0.
         23    2    4    4    0    0 -0.23633424746E+03  0.24684754311E+03  0.26188699104E+03  0.44054434835E+03  0.93310989311E+02 0.  0.
         23    2    4    4    0    0  0.30344896022E+02 -0.60271727919E+03  0.76050168977E+03  0.97459343272E+03  0.85326476580E+02 0.  0.
          3    1    3    3  502    0  0.75100480327E+02  0.18973371176E+03  0.47395066461E+00  0.20405682579E+03  0.00000000000E+00 0. -1.
         -4    1    3    3    0  502  0.13088887111E+03  0.16613602433E+03  0.51650695322E+02  0.21771740741E+03  0.00000000000E+00 0.  1.
         11    1    5    5    0    0 -0.24230725668E+03  0.23622576458E+03  0.23795448691E+03  0.41368799394E+03  0.00000000000E+00 0. -1.
        -11    1    5    5    0    0  0.59730092197E+01  0.10621778531E+02  0.23932504127E+02  0.26856354408E+02  0.00000000000E+00 0.  1.
          3    1    6    6  503    0  0.19445127689E+02 -0.33455722051E+03  0.35379804112E+03  0.48731889014E+03  0.00000000000E+00 0. -1.
         -3    1    6    6    0  503  0.10899768333E+02 -0.26816005868E+03  0.40670364865E+03  0.48727454258E+03  0.00000000000E+00 0.  1.
<mgrwt>
<rscale>  0 0.14898546E+04</rscale>
<asrwt>0</asrwt>
<pdfrwt beam="1">  1        1 0.58646054E-01 0.14898546E+04</pdfrwt>
<pdfrwt beam="2">  1       -2 0.22395579E+00 0.14898546E+04</pdfrwt>
<totfact> 0.50477744E+00</totfact>
</mgrwt>
</event>
<event>
12    4  0.4424320E-008  0.1934779E+04  0.7818608E-02  0.8637736E-01
         -2   -1    0    0    0  501 -0.00000000000E+00  0.00000000000E+00  0.14655473740E+04  0.14655473740E+04  0.00000000000E+00 0.  1.
          1   -1    0    0  501    0  0.00000000000E+00 -0.00000000000E+00 -0.63856150958E+03  0.63856150958E+03  0.00000000000E+00 0. -1.
        -24    2    1    2    0    0  0.22074255403E+03  0.28440567900E+03 -0.39385541677E+03  0.53933653101E+03  0.78408793877E+02 0.  0.
        254    2    1    2    0    0 -0.22074255403E+03 -0.28440567900E+03  0.12208412811E+04  0.15647723525E+04  0.91018965940E+03 0.  0.
         23    2    4    4    0    0 -0.48377884796E+03 -0.43941928488E+03  0.83216191484E+03  0.10620892847E+04  0.91700133479E+02 0.  0.
         23    2    4    4    0    0  0.26303629393E+03  0.15501360588E+03  0.38867936630E+03  0.50268306784E+03  0.91658643719E+02 0.  0.
          3    1    3    3  502    0  0.15712316886E+03  0.21725575759E+03 -0.24015381894E+03  0.35994667821E+03  0.00000000000E+00 0. -1.
         -2    1    3    3    0  502  0.63619385165E+02  0.67149921409E+02 -0.15370159782E+03  0.17938985280E+03  0.00000000000E+00 0.  1.
         11    1    5    5    0    0 -0.42606411476E+03 -0.36555652758E+03  0.66354492037E+03  0.86916860625E+03  0.00000000000E+00 0. -1.
        -11    1    5    5    0    0 -0.57714733194E+02 -0.73862757307E+02  0.16861699447E+03  0.19292067844E+03  0.00000000000E+00 0.  1.
          1    1    6    6  503    0  0.25758449731E+03  0.12869937653E+03  0.37417909214E+03  0.47214753602E+03  0.00000000000E+00 0. -1.
         -1    1    6    6    0  503  0.54517966213E+01  0.26314229349E+02  0.14500274160E+02  0.30535531817E+02  0.00000000000E+00 0.  1.
<mgrwt>
<rscale>  0 0.19347787E+04</rscale>
<asrwt>0</asrwt>
<pdfrwt beam="1">  1        1 0.98240233E-01 0.19347787E+04</pdfrwt>
<pdfrwt beam="2">  1       -2 0.22546883E+00 0.19347787E+04</pdfrwt>
<totfact> 0.23303548E+00</totfact>
</mgrwt>
</event>
<event>
12    4  0.4424320E-008  0.1339115E+04  0.7818608E-02  0.8999109E-01
          1   -1    0    0  501    0  0.00000000000E+00  0.00000000000E+00  0.36327866171E+03  0.36327866171E+03  0.00000000000E+00 0. -1.
         -2   -1    0    0    0  501 -0.00000000000E+00 -0.00000000000E+00 -0.12340586554E+04  0.12340586554E+04  0.00000000000E+00 0.  1.
        -24    2    1    2    0    0  0.17865530888E+03  0.25900237560E+03 -0.54214379112E+02  0.32931295366E+03  0.80671386421E+02 0.  0.
        254    2    1    2    0    0 -0.17865530888E+03 -0.25900237560E+03 -0.81656561456E+03  0.12680243634E+04  0.91766357311E+03 0.  0.
         23    2    4    4    0    0  0.12975787676E+03 -0.44416431965E+03 -0.75672747469E+03  0.89190669770E+03  0.93498861049E+02 0.  0.
         23    2    4    4    0    0 -0.30841318563E+03  0.18516194405E+03 -0.59838139864E+02  0.37611766573E+03  0.92088310287E+02 0.  0.
          1    1    3    3  502    0  0.90489921902E+02  0.18338799555E+03 -0.59699088976E+02  0.21303418529E+03  0.00000000000E+00 0. -1.
         -2    1    3    3    0  502  0.88165386976E+02  0.75614380058E+02  0.54847098635E+01  0.11627876837E+03  0.00000000000E+00 0.  1.
         11    1    5    5    0    0  0.13096306444E+03 -0.29393342810E+03 -0.50939384468E+03  0.60251993610E+03  0.00000000000E+00 0.  1.
        -11    1    5    5    0    0 -0.12051876840E+01 -0.15023089155E+03 -0.24733363002E+03  0.28938676160E+03  0.00000000000E+00 0. -1.
          3    1    6    6  503    0 -0.10778367049E+01  0.17825903230E+02 -0.14994016319E+02  0.23318342207E+02  0.00000000000E+00 0. -1.
         -3    1    6    6    0  503 -0.30733534893E+03  0.16733604082E+03 -0.44844123545E+02  0.35279932352E+03  0.00000000000E+00 0.  1.
<mgrwt>
<rscale>  0 0.13391149E+04</rscale>
<asrwt>0</asrwt>
<pdfrwt beam="1">  1        1 0.55889025E-01 0.13391149E+04</pdfrwt>
<pdfrwt beam="2">  1       -2 0.18985518E+00 0.13391149E+04</pdfrwt>
<totfact> 0.90545840E+00</totfact>
</mgrwt>
</event>
<event>
12    4  0.4424320E-008  0.2405094E+04  0.7818608E-02  0.8437599E-01
         -2   -1    0    0    0  501 -0.00000000000E+00  0.00000000000E+00  0.60220877872E+03  0.60220877872E+03  0.00000000000E+00 0.  1.
          1   -1    0    0  501    0  0.00000000000E+00 -0.00000000000E+00 -0.24013584087E+04  0.24013584087E+04  0.00000000000E+00 0. -1.
        -24    2    1    2    0    0  0.68240917174E+03  0.30115937942E+03  0.11479791191E+03  0.75879856564E+03  0.78850828522E+02 0.  0.
        254    2    1    2    0    0 -0.68240917174E+03 -0.30115937942E+03 -0.19139475419E+04  0.22447686218E+04  0.90521363377E+03 0.  0.
         23    2    4    4    0    0 -0.32359694688E+03 -0.12296602302E+03 -0.17734960108E+04  0.18092360792E+04  0.90617123285E+02 0.  0.
         23    2    4    4    0    0 -0.35881222486E+03 -0.17819335640E+03 -0.14045153104E+03  0.43553254256E+03  0.97277325650E+02 0.  0.
          1    1    3    3  502    0  0.85722540985E+02  0.58295876890E+02 -0.38825641988E+01  0.10373927704E+03  0.00000000000E+00 0. -1.
         -2    1    3    3    0  502  0.59668663075E+03  0.24286350253E+03  0.11868047611E+03  0.65505928860E+03  0.00000000000E+00 0.  1.
         11    1    5    5    0    0 -0.28235421403E+03 -0.13392749880E+03 -0.14782039497E+04  0.15108763663E+04  0.00000000000E+00 0. -1.
        -11    1    5    5    0    0 -0.41242732852E+02  0.10961475779E+02 -0.29529206110E+03  0.29835971295E+03  0.00000000000E+00 0.  1.
          4    1    6    6  503    0 -0.30766235806E+03 -0.12678581824E+03 -0.82851478547E+02  0.34292147465E+03  0.00000000000E+00 0. -1.
         -4    1    6    6    0  503 -0.51149866792E+02 -0.51407538162E+02 -0.57600052497E+02  0.92611067915E+02  0.00000000000E+00 0.  1.
<mgrwt>
<rscale>  0 0.24050939E+04</rscale>
<asrwt>0</asrwt>
<pdfrwt beam="1">  1        1 0.36943975E+00 0.24050939E+04</pdfrwt>
<pdfrwt beam="2">  1       -2 0.92647504E-01 0.24050939E+04</pdfrwt>
<totfact> 0.12330915E+00</totfact>
</mgrwt>
</event>
<event>
12    4  0.4424320E-008  0.2205923E+04  0.7818608E-02  0.8515967E-01
         -2   -1    0    0    0  501 -0.00000000000E+00  0.00000000000E+00  0.16416824369E+04  0.16416824369E+04  0.00000000000E+00 0.  1.
          1   -1    0    0  501    0  0.00000000000E+00 -0.00000000000E+00 -0.74102263655E+03  0.74102263655E+03  0.00000000000E+00 0. -1.
        -24    2    1    2    0    0 -0.11493195190E+03  0.86571543430E+03  0.69320496559E+03  0.11180352615E+04  0.82444860056E+02 0.  0.
        254    2    1    2    0    0  0.11493195190E+03 -0.86571543430E+03  0.20745483474E+03  0.12646698119E+04  0.89088700626E+03 0.  0.
         23    2    4    4    0    0  0.44499684806E+03 -0.57702074646E+03 -0.70584189442E+02  0.73737069616E+03  0.88081094019E+02 0.  0.
         23    2    4    4    0    0 -0.33006489617E+03 -0.28869468784E+03  0.27803902419E+03  0.52729911574E+03  0.91930408575E+02 0.  0.
          3    1    3    3  502    0 -0.58799812634E+02  0.25722068176E+03  0.24658681734E+03  0.36114395409E+03  0.00000000000E+00 0. -1.
         -4    1    3    3    0  502 -0.56132139263E+02  0.60849475254E+03  0.44661814825E+03  0.75689130744E+03  0.00000000000E+00 0.  1.
         11    1    5    5    0    0  0.53883470806E+02 -0.10752379904E+03  0.11507338188E+02  0.12081893319E+03  0.00000000000E+00 0. -1.
        -11    1    5    5    0    0  0.39111337726E+03 -0.46949694742E+03 -0.82091527630E+02  0.61655176297E+03  0.00000000000E+00 0.  1.
          2    1    6    6  503    0 -0.33298550618E+02 -0.91722122234E+01  0.12977863818E+01  0.34563090137E+02  0.00000000000E+00 0. -1.
         -2    1    6    6    0  503 -0.29676634555E+03 -0.27952247562E+03  0.27674123780E+03  0.49273602560E+03  0.00000000000E+00 0.  1.
<mgrwt>
<rscale>  0 0.22059228E+04</rscale>
<asrwt>0</asrwt>
<pdfrwt beam="1">  1        1 0.11400348E+00 0.22059228E+04</pdfrwt>
<pdfrwt beam="2">  1       -2 0.25256653E+00 0.22059228E+04</pdfrwt>
<totfact> 0.12347750E+00</totfact>
</mgrwt>
</event>
<event>
12    4  0.4424320E-008  0.1321066E+04  0.7818608E-02  0.9013024E-01
          1   -1    0    0  501    0  0.00000000000E+00  0.00000000000E+00  0.15310122234E+04  0.15310122234E+04  0.00000000000E+00 0. -1.
         -2   -1    0    0    0  501 -0.00000000000E+00 -0.00000000000E+00 -0.28497755063E+03  0.28497755063E+03  0.00000000000E+00 0.  1.
        -24    2    1    2    0    0  0.12494265368E+03  0.27248906707E+03  0.10772848521E+03  0.32852610992E+03  0.80392910072E+02 0.  0.
        254    2    1    2    0    0 -0.12494265368E+03 -0.27248906707E+03  0.11383061875E+04  0.14874636641E+04  0.90936583232E+03 0.  0.
         23    2    4    4    0    0  0.32473723648E+03 -0.25383564942E+03  0.83874614569E+03  0.93917637029E+03  0.93114703122E+02 0.  0.
         23    2    4    4    0    0 -0.44967989016E+03 -0.18653417657E+02  0.29956004185E+03  0.54828729379E+03  0.91229294905E+02 0.  0.
          3    1    3    3  502    0  0.63090736261E+02  0.98643007906E+02  0.80288205846E+02  0.14197563174E+03  0.00000000000E+00 0. -1.
         -4    1    3    3    0  502  0.61851917423E+02  0.17384605917E+03  0.27440279363E+02  0.18655047818E+03  0.00000000000E+00 0.  1.
         11    1    5    5    0    0  0.11763922949E+03 -0.11738048872E+03  0.43098374064E+03  0.46191357648E+03  0.00000000000E+00 0. -1.
        -11    1    5    5    0    0  0.20709800699E+03 -0.13645516070E+03  0.40776240505E+03  0.47726279381E+03  0.00000000000E+00 0.  1.
          3    1    6    6  503    0 -0.85532062090E+02  0.84524337524E+01  0.19584352248E+02  0.88151710901E+02  0.00000000000E+00 0. -1.
         -3    1    6    6    0  503 -0.36414782807E+03 -0.27105851410E+02  0.27997568960E+03  0.46013558289E+03  0.00000000000E+00 0.  1.
<mgrwt>
<rscale>  0 0.13210664E+04</rscale>
<asrwt>0</asrwt>
<pdfrwt beam="1">  1        1 0.23554034E+00 0.13210664E+04</pdfrwt>
<pdfrwt beam="2">  1       -2 0.43842701E-01 0.13210664E+04</pdfrwt>
<totfact> 0.26438851E+01</totfact>
</mgrwt>
</event>
<event>
12    4  0.4424320E-008  0.1469438E+04  0.7818608E-02  0.8905034E-01
          1   -1    0    0  501    0  0.00000000000E+00  0.00000000000E+00  0.67662779998E+03  0.67662779998E+03  0.00000000000E+00 0. -1.
         -2   -1    0    0    0  501 -0.00000000000E+00 -0.00000000000E+00 -0.79779783895E+03  0.79779783895E+03  0.00000000000E+00 0.  1.
        -24    2    1    2    0    0 -0.15089463951E+03  0.19948825926E+03 -0.41756264052E+03  0.49319166223E+03  0.79465081153E+02 0.  0.
        254    2    1    2    0    0  0.15089463951E+03 -0.19948825926E+03  0.29639260155E+03  0.98123397669E+03  0.90133611097E+03 0.  0.
         23    2    4    4    0    0 -0.61940881611E+02  0.77546847252E+02 -0.27448925176E+03  0.30578585543E+03  0.91161689957E+02 0.  0.
         23    2    4    4    0    0  0.21283552112E+03 -0.27703510651E+03  0.57088185331E+03  0.67544812126E+03  0.90976176979E+02 0.  0.
          3    1    3    3  502    0 -0.83661964321E+02  0.52588532448E+02 -0.12920107697E+03  0.16265852671E+03  0.00000000000E+00 0. -1.
         -4    1    3    3    0  502 -0.67232675193E+02  0.14689972681E+03 -0.28836156354E+03  0.33053313553E+03  0.00000000000E+00 0.  1.
         11    1    5    5    0    0  0.83931190356E+01  0.50144629817E+02 -0.61373136320E+02  0.79696864483E+02  0.00000000000E+00 0. -1.
        -11    1    5    5    0    0 -0.70334000646E+02  0.27402217436E+02 -0.21311611544E+03  0.22608899095E+03  0.00000000000E+00 0.  1.
          1    1    6    6  503    0  0.14771161529E+03 -0.24433393307E+03  0.41954472787E+03  0.50747962602E+03  0.00000000000E+00 0. -1.
         -1    1    6    6    0  503  0.65123905837E+02 -0.32701173442E+02  0.15133712544E+03  0.16796849524E+03  0.00000000000E+00 0.  1.
<mgrwt>
<rscale>  0 0.14694383E+04</rscale>
<asrwt>0</asrwt>
<pdfrwt beam="1">  1        1 0.10409658E+00 0.14694383E+04</pdfrwt>
<pdfrwt beam="2">  1       -2 0.12273813E+00 0.14694383E+04</pdfrwt>
<totfact> 0.12219336E+01</totfact>
</mgrwt>
</event>
<event>
12    4  0.4424320E-008  0.1709267E+04  0.7818608E-02  0.8756097E-01
          1   -1    0    0  501    0  0.00000000000E+00  0.00000000000E+00  0.21110151251E+04  0.21110151251E+04  0.00000000000E+00 0. -1.
         -2   -1    0    0    0  501 -0.00000000000E+00 -0.00000000000E+00 -0.34599395226E+03  0.34599395226E+03  0.00000000000E+00 0.  1.
        -24    2    1    2    0    0 -0.28796760900E+02 -0.58613556843E+03  0.74083427517E+03  0.94845651822E+03  0.79688052267E+02 0.  0.
        254    2    1    2    0    0  0.28796760900E+02  0.58613556843E+03  0.10241868977E+04  0.15085525592E+04  0.93935502572E+03 0.  0.
         23    2    4    4    0    0 -0.26790206371E+03  0.50432512757E+02  0.80073584233E+03  0.85051720473E+03  0.88806938169E+02 0.  0.
         23    2    4    4    0    0  0.29669882461E+03  0.53570305567E+03  0.22345105539E+03  0.65803535445E+03  0.89845407076E+02 0.  0.
          1    1    3    3  502    0 -0.36829844788E+02 -0.57323351389E+03  0.70398987175E+03  0.90860048340E+03  0.00000000000E+00 0. -1.
         -2    1    3    3    0  502  0.80330838881E+01 -0.12902054540E+02  0.36844403421E+02  0.39856034820E+02  0.00000000000E+00 0.  1.
         11    1    5    5    0    0 -0.30385143500E+02  0.94297675720E+01  0.33016412432E+02  0.45850419320E+02  0.00000000000E+00 0. -1.
        -11    1    5    5    0    0 -0.23751692021E+03  0.41002745185E+02  0.76771942990E+03  0.80466678541E+03  0.00000000000E+00 0.  1.
          4    1    6    6  503    0  0.19379647776E+03  0.25903705540E+03  0.12606435797E+03  0.34720238077E+03  0.00000000000E+00 0. -1.
         -4    1    6    6    0  503  0.10290234686E+03  0.27666600027E+03  0.97386697417E+02  0.31083297368E+03  0.00000000000E+00 0.  1.
<mgrwt>
<rscale>  0 0.17092671E+04</rscale>
<asrwt>0</asrwt>
<pdfrwt beam="1">  1        1 0.32477155E+00 0.17092671E+04</pdfrwt>
<pdfrwt beam="2">  1       -2 0.53229840E-01 0.17092671E+04</pdfrwt>
<totfact> 0.69617460E+00</totfact>
</mgrwt>
</event>
<event>
12    4  0.4424320E-008  0.1123679E+04  0.7818608E-02  0.9182415E-01
         -2   -1    0    0    0  501 -0.00000000000E+00  0.00000000000E+00  0.17731081177E+04  0.17731081177E+04  0.00000000000E+00 0.  1.
          1   -1    0    0  501    0  0.00000000000E+00 -0.00000000000E+00 -0.17802845181E+03  0.17802845181E+03  0.00000000000E+00 0. -1.
        -24    2    1    2    0    0  0.14489687448E+03  0.85879048536E+02  0.15113415630E+03  0.24040037261E+03  0.81120223976E+02 0.  0.
        254    2    1    2    0    0 -0.14489687448E+03 -0.85879048536E+02  0.14439455096E+04  0.17107361969E+04  0.90181449618E+03 0.  0.
         23    2    4    4    0    0 -0.18137291600E+03 -0.23936187339E+03  0.14905897791E+04  0.15231578273E+04  0.89228001588E+02 0.  0.
         23    2    4    4    0    0  0.36476041515E+02  0.15348282486E+03 -0.46644269464E+02  0.18757836963E+03  0.90124789856E+02 0.  0.
          3    1    3    3  502    0  0.98949952678E+02  0.95264319900E+02  0.93787536581E+02  0.16632043109E+03  0.00000000000E+00 0. -1.
         -4    1    3    3    0  502  0.45946921803E+02 -0.93852713646E+01  0.57346619716E+02  0.74079941513E+02  0.00000000000E+00 0.  1.
         11    1    5    5    0    0 -0.81064921912E+02 -0.93288920088E+02  0.41297835949E+03  0.43107478421E+03  0.00000000000E+00 0. -1.
        -11    1    5    5    0    0 -0.10030799408E+03 -0.14607295331E+03  0.10776114196E+04  0.10920830431E+04  0.00000000000E+00 0.  1.
          3    1    6    6  503    0  0.47120197855E+02  0.16136438567E+03 -0.46156038557E+02  0.17432486313E+03  0.00000000000E+00 0. -1.
         -3    1    6    6    0  503 -0.10644156340E+02 -0.78815608139E+01 -0.48823090613E+00  0.13253506498E+02  0.00000000000E+00 0.  1.
<mgrwt>
<rscale>  0 0.11236791E+04</rscale>
<asrwt>0</asrwt>
<pdfrwt beam="1">  1        1 0.27388994E-01 0.11236791E+04</pdfrwt>
<pdfrwt beam="2">  1       -2 0.27278585E+00 0.11236791E+04</pdfrwt>
<totfact> 0.70447869E+00</totfact>
</mgrwt>
</event>
<event>
12    4  0.4424320E-008  0.1211616E+04  0.7818608E-02  0.9102749E-01
         -2   -1    0    0    0  501 -0.00000000000E+00  0.00000000000E+00  0.26564910169E+03  0.26564910169E+03  0.00000000000E+00 0.  1.
          1   -1    0    0  501    0  0.00000000000E+00 -0.00000000000E+00 -0.13815353835E+04  0.13815353835E+04  0.00000000000E+00 0. -1.
        -24    2    1    2    0    0  0.41582609367E+01  0.27427376428E+03 -0.43202225679E+03  0.51792058229E+03  0.79718945613E+02 0.  0.
        254    2    1    2    0    0 -0.41582609367E+01 -0.27427376428E+03 -0.68386402507E+03  0.11292639029E+04  0.85575906002E+03 0.  0.
         23    2    4    4    0    0 -0.25302606876E+03 -0.28635943554E+03  0.27557445398E+01  0.39322427647E+03  0.92702856948E+02 0.  0.
         23    2    4    4    0    0  0.24886780782E+03  0.12085671262E+02 -0.68661976961E+03  0.73603962648E+03  0.90699363274E+02 0.  0.
          3    1    3    3  502    0 -0.57564882410E+00  0.23840991622E+03 -0.41343311488E+03  0.47724894972E+03  0.00000000000E+00 0. -1.
         -4    1    3    3    0  502  0.47339097608E+01  0.35863848057E+02 -0.18589141906E+02  0.40671632569E+02  0.00000000000E+00 0.  1.
         11    1    5    5    0    0 -0.23909621515E+03 -0.21960410919E+03  0.88142698010E+01  0.32476246123E+03  0.00000000000E+00 0.  1.
        -11    1    5    5    0    0 -0.13929853601E+02 -0.66755326350E+02 -0.60585252612E+01  0.68461815239E+02  0.00000000000E+00 0. -1.
          1    1    6    6  503    0  0.57919305581E+02  0.27568735063E+02 -0.98865940123E+02  0.11785226018E+03  0.00000000000E+00 0. -1.
         -1    1    6    6    0  503  0.19094850224E+03 -0.15483063801E+02 -0.58775382949E+03  0.61818736630E+03  0.00000000000E+00 0.  1.
<mgrwt>
<rscale>  0 0.12116165E+04</rscale>
<asrwt>0</asrwt>
<pdfrwt beam="1">  1        1 0.21254390E+00 0.12116165E+04</pdfrwt>
<pdfrwt beam="2">  1       -2 0.40869093E-01 0.12116165E+04</pdfrwt>
<totfact> 0.38931833E+01</totfact>
</mgrwt>
</event>
<event>
12    4  0.4424320E-008  0.2313983E+04  0.7818608E-02  0.8472428E-01
         -2   -1    0    0    0  501 -0.00000000000E+00  0.00000000000E+00  0.92804922636E+03  0.92804922636E+03  0.00000000000E+00 0.  1.
          1   -1    0    0  501    0  0.00000000000E+00 -0.00000000000E+00 -0.14424124985E+04  0.14424124985E+04  0.00000000000E+00 0. -1.
        -24    2    1    2    0    0 -0.39453627346E+03  0.66878081607E+02 -0.11376935709E+04  0.12086213850E+04  0.79293392839E+02 0.  0.
        254    2    1    2    0    0  0.39453627346E+03 -0.66878081607E+02  0.62333029883E+03  0.11618403398E+04  0.89509818727E+03 0.  0.
         23    2    4    4    0    0  0.16552569690E+03 -0.25295631771E+03  0.76047221171E+03  0.82366101536E+03  0.93347889299E+02 0.  0.
         23    2    4    4    0    0  0.22901057656E+03  0.18607823611E+03 -0.13714191289E+03  0.33817932443E+03  0.92121642795E+02 0.  0.
          1    1    3    3  502    0 -0.32648030068E+03  0.75309027992E+02 -0.10028741571E+04  0.10573634245E+04  0.00000000000E+00 0. -1.
         -2    1    3    3    0  502 -0.68055972784E+02 -0.84309463851E+01 -0.13481941384E+03  0.15125796057E+03  0.00000000000E+00 0.  1.
         11    1    5    5    0    0  0.16339810925E+03 -0.23588361365E+03  0.75114891079E+03  0.80409247446E+03  0.00000000000E+00 0.  1.
        -11    1    5    5    0    0  0.21275876525E+01 -0.17072704060E+02  0.93233009221E+01  0.19568540906E+02  0.00000000000E+00 0. -1.
          1    1    6    6  503    0  0.27078455702E+01  0.32390164144E+02 -0.76188451644E+00  0.32512084352E+02  0.00000000000E+00 0. -1.
         -1    1    6    6    0  503  0.22630273099E+03  0.15368807196E+03 -0.13638002837E+03  0.30566724008E+03  0.00000000000E+00 0.  1.
<mgrwt>
<rscale>  0 0.23139834E+04</rscale>
<asrwt>0</asrwt>
<pdfrwt beam="1">  1        1 0.22190961E+00 0.23139834E+04</pdfrwt>
<pdfrwt beam="2">  1       -2 0.14277681E+00 0.23139834E+04</pdfrwt>
<totfact> 0.19402750E+00</totfact>
</mgrwt>
</event>
<event>
12    4  0.4424320E-008  0.2783352E+04  0.7818608E-02  0.8308456E-01
         -2   -1    0    0    0  501 -0.00000000000E+00  0.00000000000E+00  0.14698540394E+04  0.14698540394E+04  0.00000000000E+00 0.  1.
          1   -1    0    0  501    0  0.00000000000E+00 -0.00000000000E+00 -0.13176559833E+04  0.13176559833E+04  0.00000000000E+00 0. -1.
        -24    2    1    2    0    0  0.77657500130E+03  0.98222352698E+03  0.72695297425E+02  0.12568885345E+04  0.81562198357E+02 0.  0.
        254    2    1    2    0    0 -0.77657500130E+03 -0.98222352698E+03  0.79502758709E+02  0.15306214882E+04  0.87672667464E+03 0.  0.
         23    2    4    4    0    0 -0.66105788022E+03 -0.52625410577E+03 -0.31778514472E+03  0.90747823150E+03  0.92673823725E+02 0.  0.
         23    2    4    4    0    0 -0.11551712108E+03 -0.45596942121E+03  0.39728790343E+03  0.62314325674E+03  0.96007926055E+02 0.  0.
          1    1    3    3  502    0  0.63831263934E+03  0.78045851502E+03  0.30669337897E+02  0.10087116176E+04  0.00000000000E+00 0. -1.
         -2    1    3    3    0  502  0.13826236196E+03  0.20176501196E+03  0.42025959529E+02  0.24817691685E+03  0.00000000000E+00 0.  1.
         11    1    5    5    0    0 -0.29778132057E+02 -0.51726733329E+02 -0.13855924152E+02  0.61272985269E+02  0.00000000000E+00 0. -1.
        -11    1    5    5    0    0 -0.63127974816E+03 -0.47452737244E+03 -0.30392922057E+03  0.84620524623E+03  0.00000000000E+00 0.  1.
          1    1    6    6  503    0 -0.59638320223E+02 -0.14418280138E+03  0.82185610896E+02  0.17635159226E+03  0.00000000000E+00 0. -1.
         -1    1    6    6    0  503 -0.55878800853E+02 -0.31178661982E+03  0.31510229253E+03  0.44679166448E+03  0.00000000000E+00 0.  1.
<mgrwt>
<rscale>  0 0.27833519E+04</rscale>
<asrwt>0</asrwt>
<pdfrwt beam="1">  1        1 0.20271630E+00 0.27833519E+04</pdfrwt>
<pdfrwt beam="2">  1       -2 0.22613139E+00 0.27833519E+04</pdfrwt>
<totfact> 0.60459495E-01</totfact>
</mgrwt>
</event>
<event>
12    4  0.4424320E-008  0.1256274E+04  0.7818608E-02  0.9064977E-01
          1   -1    0    0  501    0  0.00000000000E+00  0.00000000000E+00  0.77436158978E+03  0.77436158978E+03  0.00000000000E+00 0. -1.
         -2   -1    0    0    0  501 -0.00000000000E+00 -0.00000000000E+00 -0.50952447590E+03  0.50952447590E+03  0.00000000000E+00 0.  1.
        -24    2    1    2    0    0 -0.52393776276E+01  0.23223361489E+03 -0.10737838555E+03  0.26792322495E+03  0.79327383810E+02 0.  0.
        254    2    1    2    0    0  0.52393776276E+01 -0.23223361489E+03  0.37221549942E+03  0.10159628407E+04  0.91633848155E+03 0.  0.
         23    2    4    4    0    0 -0.19864439726E+03 -0.38303405412E+03 -0.11696346251E+03  0.45643422143E+03  0.92070971241E+02 0.  0.
         23    2    4    4    0    0  0.20388377489E+03  0.15080043923E+03  0.48917896193E+03  0.55952861930E+03  0.97297753769E+02 0.  0.
          1    1    3    3  502    0  0.36927686642E+02  0.96442513760E+02 -0.44233262441E+02  0.11234497767E+03  0.00000000000E+00 0. -1.
         -2    1    3    3    0  502 -0.42167064270E+02  0.13579110113E+03 -0.63145123106E+02  0.15557824728E+03  0.00000000000E+00 0.  1.
         11    1    5    5    0    0 -0.19471883363E+03 -0.36306218286E+03 -0.13030387213E+03  0.43209798876E+03  0.00000000000E+00 0.  1.
        -11    1    5    5    0    0 -0.39255636301E+01 -0.19971871264E+02  0.13340409626E+02  0.24336232670E+02  0.00000000000E+00 0. -1.
          2    1    6    6  503    0  0.13515367788E+03  0.46283652914E+02  0.30610048172E+03  0.33779608950E+03  0.00000000000E+00 0. -1.
         -2    1    6    6    0  503  0.68730097004E+02  0.10451678632E+03  0.18307848021E+03  0.22173252980E+03  0.00000000000E+00 0.  1.
<mgrwt>
<rscale>  0 0.12562741E+04</rscale>
<asrwt>0</asrwt>
<pdfrwt beam="1">  1        1 0.11913255E+00 0.12562741E+04</pdfrwt>
<pdfrwt beam="2">  1       -2 0.78388380E-01 0.12562741E+04</pdfrwt>
<totfact> 0.29106019E+01</totfact>
</mgrwt>
</event>
<event>
12    4  0.4424320E-008  0.2937898E+04  0.7818608E-02  0.8261690E-01
         -2   -1    0    0    0  501 -0.00000000000E+00  0.00000000000E+00  0.98925081275E+03  0.98925081275E+03  0.00000000000E+00 0.  1.
          1   -1    0    0  501    0  0.00000000000E+00 -0.00000000000E+00 -0.21812574750E+04  0.21812574750E+04  0.00000000000E+00 0. -1.
        -24    2    1    2    0    0 -0.35387877948E+03  0.31627254706E+03  0.80043511498E+03  0.93389220092E+03  0.78738523329E+02 0.  0.
        254    2    1    2    0    0  0.35387877948E+03 -0.31627254706E+03 -0.19924417773E+04  0.22366160869E+04  0.89853701629E+03 0.  0.
         23    2    4    4    0    0 -0.42546955803E+02  0.84000818918E+00  0.61753185689E+02  0.11876063204E+03  0.92085192712E+02 0.  0.
         23    2    4    4    0    0  0.39642573528E+03 -0.31711255525E+03 -0.20541949629E+04  0.21178554548E+04  0.88775252366E+02 0.  0.
          3    1    3    3  502    0 -0.24087086720E+03  0.20741917247E+03  0.60347079737E+03  0.68206927145E+03  0.00000000000E+00 0. -1.
         -4    1    3    3    0  502 -0.11300791228E+03  0.10885337458E+03  0.19696431761E+03  0.25182292947E+03  0.00000000000E+00 0.  1.
         11    1    5    5    0    0 -0.23259621684E+02 -0.45206375185E+02  0.38021788174E+02  0.63484507829E+02  0.00000000000E+00 0.  1.
        -11    1    5    5    0    0 -0.19287334118E+02  0.46046383375E+02  0.23731397515E+02  0.55276124206E+02  0.00000000000E+00 0. -1.
          3    1    6    6  503    0  0.31575760306E+03 -0.20221647853E+03 -0.15012597321E+04  0.15473768615E+04  0.00000000000E+00 0. -1.
         -3    1    6    6    0  503  0.80668132222E+02 -0.11489607671E+03 -0.55293523082E+03  0.57047859336E+03  0.00000000000E+00 0.  1.
<mgrwt>
<rscale>  0 0.29378977E+04</rscale>
<asrwt>0</asrwt>
<pdfrwt beam="1">  1        1 0.33557807E+00 0.29378977E+04</pdfrwt>
<pdfrwt beam="2">  1       -2 0.15219243E+00 0.29378977E+04</pdfrwt>
<totfact> 0.48656444E-01</totfact>
</mgrwt>
</event>
<event>
12    4  0.4424320E-008  0.2230821E+04  0.7818608E-02  0.8505708E-01
          1   -1    0    0  501    0  0.00000000000E+00  0.00000000000E+00  0.10485163992E+04  0.10485163992E+04  0.00000000000E+00 0. -1.
         -2   -1    0    0    0  501 -0.00000000000E+00 -0.00000000000E+00 -0.11865721476E+04  0.11865721476E+04  0.00000000000E+00 0.  1.
        -24    2    1    2    0    0 -0.40909433264E+03 -0.48231373868E+03  0.62686582812E+03  0.89513583301E+03  0.91228710119E+02 0.  0.
        254    2    1    2    0    0  0.40909433264E+03  0.48231373868E+03 -0.76492157650E+03  0.13399527138E+04  0.90021305336E+03 0.  0.
         23    2    4    4    0    0  0.54398440140E+02 -0.61460525298E+02  0.16296047355E+03  0.20426544826E+03  0.91824130577E+02 0.  0.
         23    2    4    4    0    0  0.35469589250E+03  0.54377426397E+03 -0.92788205005E+03  0.11356872655E+04  0.85561906958E+02 0.  0.
          1    1    3    3  502    0 -0.40536667351E+03 -0.45704549936E+03  0.58345096771E+03  0.84476491416E+03  0.00000000000E+00 0. -1.
         -2    1    3    3    0  502 -0.37276591354E+01 -0.25268239312E+02  0.43414860413E+02  0.50370918845E+02  0.00000000000E+00 0.  1.
         11    1    5    5    0    0  0.18018518523E+02 -0.33420405311E+02  0.32795409450E+01  0.38109656122E+02  0.00000000000E+00 0. -1.
        -11    1    5    5    0    0  0.36379921618E+02 -0.28040119988E+02  0.15968093260E+03  0.16615579214E+03  0.00000000000E+00 0.  1.
          1    1    6    6  503    0  0.35422054121E+02  0.10724695795E+03 -0.13669286147E+03  0.17731771001E+03  0.00000000000E+00 0. -1.
         -1    1    6    6    0  503  0.31927383838E+03  0.43652730602E+03 -0.79118918858E+03  0.95836955550E+03  0.00000000000E+00 0.  1.
<mgrwt>
<rscale>  0 0.22308208E+04</rscale>
<asrwt>0</asrwt>
<pdfrwt beam="1">  1        1 0.16131022E+00 0.22308208E+04</pdfrwt>
<pdfrwt beam="2">  1       -2 0.18254956E+00 0.22308208E+04</pdfrwt>
<totfact> 0.19265132E+00</totfact>
</mgrwt>
</event>
<event>
12    4  0.4424320E-008  0.1471876E+04  0.7818608E-02  0.8903373E-01
         -2   -1    0    0    0  501 -0.00000000000E+00  0.00000000000E+00  0.54361076253E+03  0.54361076253E+03  0.00000000000E+00 0.  1.
          1   -1    0    0  501    0  0.00000000000E+00 -0.00000000000E+00 -0.99631027735E+03  0.99631027735E+03  0.00000000000E+00 0. -1.
        -24    2    1    2    0    0 -0.10194050334E+03  0.42110722562E+03 -0.25139106375E+03  0.50740747845E+03  0.80880903555E+02 0.  0.
        254    2    1    2    0    0  0.10194050334E+03 -0.42110722562E+03 -0.20130845107E+03  0.10325135614E+04  0.91533381910E+03 0.  0.
         23    2    4    4    0    0  0.11510764873E+03 -0.67303546393E+03  0.12525002401E+02  0.68907888813E+03  0.91903927414E+02 0.  0.
         23    2    4    4    0    0 -0.13167145392E+02  0.25192823831E+03 -0.21383345347E+03  0.34343467331E+03  0.92635943501E+02 0.  0.
          1    1    3    3  502    0 -0.62515028088E+02  0.37414028685E+03 -0.21249666224E+03  0.43479180586E+03  0.00000000000E+00 0. -1.
         -2    1    3    3    0  502 -0.39425475252E+02  0.46966938772E+02 -0.38894401512E+02  0.72615672588E+02  0.00000000000E+00 0.  1.
         11    1    5    5    0    0  0.12647106324E+03 -0.64768244452E+03  0.36908533653E+01  0.65992507240E+03  0.00000000000E+00 0.  1.
        -11    1    5    5    0    0 -0.11363414511E+02 -0.25353019407E+02  0.88341490361E+01  0.29153815730E+02  0.00000000000E+00 0. -1.
          1    1    6    6  503    0  0.19259150259E+02  0.15483973032E+02 -0.28254647389E+01  0.24872706739E+02  0.00000000000E+00 0. -1.
         -1    1    6    6    0  503 -0.32426295652E+02  0.23644426528E+03 -0.21100798873E+03  0.31856196657E+03  0.00000000000E+00 0.  1.
<mgrwt>
<rscale>  0 0.14718763E+04</rscale>
<asrwt>0</asrwt>
<pdfrwt beam="1">  1        1 0.15327850E+00 0.14718763E+04</pdfrwt>
<pdfrwt beam="2">  1       -2 0.83632425E-01 0.14718763E+04</pdfrwt>
<totfact> 0.16186671E+01</totfact>
</mgrwt>
</event>
<event>
12    4  0.4424320E-008  0.1599440E+04  0.7818608E-02  0.8820892E-01
         -2   -1    0    0    0  501 -0.00000000000E+00  0.00000000000E+00  0.98066411845E+03  0.98066411845E+03  0.00000000000E+00 0.  1.
          1   -1    0    0  501    0  0.00000000000E+00 -0.00000000000E+00 -0.65216197313E+03  0.65216197313E+03  0.00000000000E+00 0. -1.
        -24    2    1    2    0    0  0.44392182915E+02 -0.50039220773E+03 -0.12070087044E+03  0.52280580221E+03  0.79963612013E+02 0.  0.
        254    2    1    2    0    0 -0.44392182915E+02  0.50039220773E+03  0.44920301575E+03  0.11100202894E+04  0.88204232664E+03 0.  0.
         23    2    4    4    0    0 -0.14656587522E+02  0.20763499582E+03 -0.25472601809E+03  0.34164040283E+03  0.92226425196E+02 0.  0.
         23    2    4    4    0    0 -0.29735595394E+02  0.29275721191E+03  0.70392903384E+03  0.76837988654E+03  0.91107489233E+02 0.  0.
          3    1    3    3  502    0  0.32875625929E+02 -0.39660717446E+03 -0.61270997742E+02  0.40265642026E+03  0.00000000000E+00 0. -1.
         -2    1    3    3    0  502  0.11516556987E+02 -0.10378503326E+03 -0.59429872693E+02  0.12014938195E+03  0.00000000000E+00 0.  1.
         11    1    5    5    0    0 -0.45103826170E+02  0.11080501174E+03 -0.96721694579E+02  0.15384145074E+03  0.00000000000E+00 0.  1.
        -11    1    5    5    0    0  0.30447238649E+02  0.96829984075E+02 -0.15800432351E+03  0.18779895209E+03  0.00000000000E+00 0. -1.
          2    1    6    6  503    0 -0.44627864521E+02  0.28550384483E+03  0.68352287675E+03  0.74209676913E+03  0.00000000000E+00 0. -1.
         -2    1    6    6    0  503  0.14892269127E+02  0.72533670769E+01  0.20406157087E+02  0.26283117410E+02  0.00000000000E+00 0.  1.
<mgrwt>
<rscale>  0 0.15994397E+04</rscale>
<asrwt>0</asrwt>
<pdfrwt beam="1">  1        1 0.10033261E+00 0.15994397E+04</pdfrwt>
<pdfrwt beam="2">  1       -2 0.15087140E+00 0.15994397E+04</pdfrwt>
<totfact> 0.75065774E+00</totfact>
</mgrwt>
</event>
<event>
12    4  0.4424320E-008  0.1526370E+04  0.7818608E-02  0.8867104E-01
         -2   -1    0    0    0  501 -0.00000000000E+00  0.00000000000E+00  0.24321651362E+03  0.24321651362E+03  0.00000000000E+00 0.  1.
          1   -1    0    0  501    0  0.00000000000E+00 -0.00000000000E+00 -0.23947860648E+04  0.23947860648E+04  0.00000000000E+00 0. -1.
        -24    2    1    2    0    0  0.19177830705E+03  0.31961181995E+03 -0.16084960424E+03  0.41382296141E+03  0.80288316070E+02 0.  0.
        254    2    1    2    0    0 -0.19177830705E+03 -0.31961181995E+03 -0.19907199469E+04  0.22241796170E+04  0.91928147327E+03 0.  0.
         23    2    4    4    0    0 -0.40178272511E+02 -0.45696106463E+03 -0.39308505820E+03  0.61085758717E+03  0.90572736798E+02 0.  0.
         23    2    4    4    0    0 -0.15160003454E+03  0.13734924468E+03 -0.15976348887E+04  0.16133220299E+04  0.92321984239E+02 0.  0.
          3    1    3    3  502    0  0.30436819931E+02  0.22025844424E+02  0.31049754745E+01  0.37698523881E+02  0.00000000000E+00 0. -1.
         -4    1    3    3    0  502  0.16134148712E+03  0.29758597552E+03 -0.16395457972E+03  0.37612443753E+03  0.00000000000E+00 0.  1.
         11    1    5    5    0    0 -0.29487341342E+02 -0.37994513119E+03 -0.27693687935E+03  0.47108581082E+03  0.00000000000E+00 0.  1.
        -11    1    5    5    0    0 -0.10690931169E+02 -0.77015933441E+02 -0.11614817884E+03  0.13977177634E+03  0.00000000000E+00 0. -1.
          2    1    6    6  503    0  0.38355904679E+01 -0.54999434517E+01 -0.17309290643E+03  0.17322273346E+03  0.00000000000E+00 0. -1.
         -2    1    6    6    0  503 -0.15543562501E+03  0.14284918814E+03 -0.14245419823E+04  0.14400992964E+04  0.00000000000E+00 0.  1.
<mgrwt>
<rscale>  0 0.15263702E+04</rscale>
<asrwt>0</asrwt>
<pdfrwt beam="1">  1        1 0.36842861E+00 0.15263702E+04</pdfrwt>
<pdfrwt beam="2">  1       -2 0.37417926E-01 0.15263702E+04</pdfrwt>
<totfact> 0.91629324E+00</totfact>
</mgrwt>
</event>
<event>
12    4  0.4424320E-008  0.1102497E+04  0.7818608E-02  0.9202761E-01
         -2   -1    0    0    0  501 -0.00000000000E+00  0.00000000000E+00  0.12771406596E+03  0.12771406596E+03  0.00000000000E+00 0.  1.
          1   -1    0    0  501    0  0.00000000000E+00 -0.00000000000E+00 -0.23793385102E+04  0.23793385102E+04  0.00000000000E+00 0. -1.
        -24    2    1    2    0    0 -0.11034791805E+03 -0.44683317609E+01 -0.69518785832E+02  0.14808962901E+03  0.70007482673E+02 0.  0.
        254    2    1    2    0    0  0.11034791805E+03  0.44683317609E+01 -0.21821056584E+04  0.23589629471E+04  0.88933933487E+03 0.  0.
         23    2    4    4    0    0  0.47652639368E+03  0.14910531858E+02 -0.90090210920E+03  0.10233334082E+04  0.91032555078E+02 0.  0.
         23    2    4    4    0    0 -0.36617847563E+03 -0.10442200097E+02 -0.12812035492E+04  0.13356295390E+04  0.90708408179E+02 0.  0.
          1    1    3    3  502    0  0.98637677148E+01  0.19159616083E+01 -0.83198900378E+01  0.13045512357E+02  0.00000000000E+00 0. -1.
         -2    1    3    3    0  502 -0.12021168577E+03 -0.63842933692E+01 -0.61198895794E+02  0.13504411665E+03  0.00000000000E+00 0.  1.
         11    1    5    5    0    0  0.16042271046E+02 -0.12947180312E+02 -0.69788441675E+02  0.72769571455E+02  0.00000000000E+00 0.  1.
        -11    1    5    5    0    0  0.46048412264E+03  0.27857712169E+02 -0.83111366752E+03  0.95056383672E+03  0.00000000000E+00 0. -1.
          2    1    6    6  503    0 -0.22024920159E+03 -0.45467443197E+01 -0.60568798166E+03  0.64450625661E+03  0.00000000000E+00 0.  1.
         -2    1    6    6    0  503 -0.14592927404E+03 -0.58954557772E+01 -0.67551556755E+03  0.69112328236E+03  0.00000000000E+00 0. -1.
<mgrwt>
<rscale>  0 0.11024972E+04</rscale>
<asrwt>0</asrwt>
<pdfrwt beam="1">  1        1 0.36605204E+00 0.11024972E+04</pdfrwt>
<pdfrwt beam="2">  1       -2 0.19648320E-01 0.11024972E+04</pdfrwt>
<totfact> 0.31890773E+01</totfact>
</mgrwt>
</event>
<event>
12    4  0.4424320E-008  0.1080203E+04  0.7818608E-02  0.9224705E-01
          3   -1    0    0  501    0  0.00000000000E+00  0.00000000000E+00  0.12909452818E+03  0.12909452818E+03  0.00000000000E+00 0. -1.
         -4   -1    0    0    0  501 -0.00000000000E+00 -0.00000000000E+00 -0.22596612290E+04  0.22596612290E+04  0.00000000000E+00 0.  1.
        -24    2    1    2    0    0  0.85715693968E+02 -0.87129194223E+01 -0.37887336987E+03  0.39769849636E+03  0.84829054313E+02 0.  0.
        254    2    1    2    0    0 -0.85715693968E+02  0.87129194223E+01 -0.17516933309E+04  0.19910572608E+04  0.94257964916E+03 0.  0.
         23    2    4    4    0    0  0.21794681605E+03  0.38671394918E+03 -0.82633631916E+03  0.94238387259E+03  0.90593365282E+02 0.  0.
         23    2    4    4    0    0 -0.30366251002E+03 -0.37800102976E+03 -0.92535701175E+03  0.10486733882E+04  0.91293906823E+02 0.  0.
          1    1    3    3  502    0  0.66952712096E+00  0.98158703466E+01 -0.18408150798E+03  0.18434424634E+03  0.00000000000E+00 0. -1.
         -2    1    3    3    0  502  0.85046166847E+02 -0.18528789769E+02 -0.19479186189E+03  0.21335425002E+03  0.00000000000E+00 0.  1.
         11    1    5    5    0    0  0.13012724994E+03  0.14593916298E+03 -0.39232773318E+03  0.43835190280E+03  0.00000000000E+00 0. -1.
        -11    1    5    5    0    0  0.87819566115E+02  0.24077478620E+03 -0.43400858598E+03  0.50403196979E+03  0.00000000000E+00 0.  1.
          1    1    6    6  503    0  0.58670753960E+01 -0.43497186462E+01 -0.23090638717E+02  0.24218179584E+02  0.00000000000E+00 0. -1.
         -1    1    6    6    0  503 -0.30952958542E+03 -0.37365131112E+03 -0.90226637304E+03  0.10244552086E+04  0.00000000000E+00 0.  1.
<mgrwt>
<rscale>  0 0.10802035E+04</rscale>
<asrwt>0</asrwt>
<pdfrwt beam="1">  1        3 0.19860697E-01 0.10802035E+04</pdfrwt>
<pdfrwt beam="2">  1       -4 0.34764018E+00 0.10802035E+04</pdfrwt>
<totfact> 0.83126091E-01</totfact>
</mgrwt>
</event>
<event>
12    4  0.4424320E-008  0.2216950E+04  0.7818608E-02  0.8511406E-01
         -2   -1    0    0    0  501 -0.00000000000E+00  0.00000000000E+00  0.27904298077E+04  0.27904298077E+04  0.00000000000E+00 0.  1.
          1   -1    0    0  501    0  0.00000000000E+00 -0.00000000000E+00 -0.44033263314E+03  0.44033263314E+03  0.00000000000E+00 0. -1.
        -24    2    1    2    0    0 -0.76475570830E+03  0.23663279571E+03  0.16552798327E+04  0.18404464532E+04  0.80283554426E+02 0.  0.
        254    2    1    2    0    0  0.76475570830E+03 -0.23663279571E+03  0.69481734186E+03  0.13903159877E+04  0.89964494864E+03 0.  0.
         23    2    4    4    0    0  0.56950889122E+03  0.26875973691E+03  0.25053493720E+03  0.68381169642E+03  0.90876333776E+02 0.  0.
         23    2    4    4    0    0  0.19524681708E+03 -0.50539253263E+03  0.44428240466E+03  0.70650429124E+03  0.90656091013E+02 0.  0.
          1    1    3    3  502    0 -0.50422733223E+03  0.18265338986E+03  0.11688123743E+04  0.12859742726E+04  0.00000000000E+00 0. -1.
         -2    1    3    3    0  502 -0.26052837606E+03  0.53979405850E+02  0.48646745842E+03  0.55447218063E+03  0.00000000000E+00 0.  1.
         11    1    5    5    0    0  0.11216697121E+03  0.89187238898E+02  0.36466081421E+02  0.14787010552E+03  0.00000000000E+00 0. -1.
        -11    1    5    5    0    0  0.45734192001E+03  0.17957249801E+03  0.21406885578E+03  0.53594159090E+03  0.00000000000E+00 0.  1.
          2    1    6    6  503    0  0.15336592502E+03 -0.42069232260E+03  0.31992840956E+03  0.55032474458E+03  0.00000000000E+00 0.  1.
         -2    1    6    6    0  503  0.41880892061E+02 -0.84700210026E+02  0.12435399510E+03  0.15617954667E+03  0.00000000000E+00 0. -1.
<mgrwt>
<rscale>  0 0.22169504E+04</rscale>
<asrwt>0</asrwt>
<pdfrwt beam="1">  1        1 0.67743484E-01 0.22169504E+04</pdfrwt>
<pdfrwt beam="2">  1       -2 0.42929688E+00 0.22169504E+04</pdfrwt>
<totfact> 0.20022877E-01</totfact>
</mgrwt>
</event>
<event>
12    4  0.4424320E-008  0.2799485E+04  0.7818608E-02  0.8303428E-01
         -2   -1    0    0    0  501 -0.00000000000E+00  0.00000000000E+00  0.14993692724E+04  0.14993692724E+04  0.00000000000E+00 0.  1.
          1   -1    0    0  501    0  0.00000000000E+00 -0.00000000000E+00 -0.13067355123E+04  0.13067355123E+04  0.00000000000E+00 0. -1.
        -24    2    1    2    0    0  0.55961209067E+01 -0.37632595255E+03  0.12871583783E+04  0.13433971457E+04  0.79288467434E+02 0.  0.
        254    2    1    2    0    0 -0.55961209067E+01  0.37632595255E+03 -0.10945246182E+04  0.14627076390E+04  0.89435840591E+03 0.  0.
         23    2    4    4    0    0  0.30605443513E+02  0.48147477866E+03 -0.15888481707E+03  0.51605172240E+03  0.91161063137E+02 0.  0.
         23    2    4    4    0    0 -0.36201564419E+02 -0.10514882611E+03 -0.93563980112E+03  0.94665591660E+03  0.91480916605E+02 0.  0.
          1    1    3    3  502    0  0.32566003851E+02 -0.75859541236E+02  0.30248644974E+03  0.31354946480E+03  0.00000000000E+00 0. -1.
         -2    1    3    3    0  502 -0.26969882945E+02 -0.30046641132E+03  0.98467192854E+03  0.10298476809E+04  0.00000000000E+00 0.  1.
         11    1    5    5    0    0  0.51637433966E+02  0.28268718154E+03 -0.12469081110E+03  0.31325112221E+03  0.00000000000E+00 0.  1.
        -11    1    5    5    0    0 -0.21031990453E+02  0.19878759712E+03 -0.34194005979E+02  0.20280060018E+03  0.00000000000E+00 0. -1.
          4    1    6    6  503    0 -0.46992377369E+02 -0.44437149946E+02 -0.70347334986E+03  0.70644015868E+03  0.00000000000E+00 0. -1.
         -4    1    6    6    0  503  0.10790812949E+02 -0.60711676161E+02 -0.23216645126E+03  0.24021575793E+03  0.00000000000E+00 0.  1.
<mgrwt>
<rscale>  0 0.27994850E+04</rscale>
<asrwt>0</asrwt>
<pdfrwt beam="1">  1        1 0.20103623E+00 0.27994850E+04</pdfrwt>
<pdfrwt beam="2">  1       -2 0.23067220E+00 0.27994850E+04</pdfrwt>
<totfact> 0.57568659E-01</totfact>
</mgrwt>
</event>
<event>
12    4  0.4424320E-008  0.1330296E+04  0.7818608E-02  0.9005879E-01
         -2   -1    0    0    0  501 -0.00000000000E+00  0.00000000000E+00  0.11017672767E+04  0.11017672767E+04  0.00000000000E+00 0.  1.
          1   -1    0    0  501    0  0.00000000000E+00 -0.00000000000E+00 -0.40155663902E+03  0.40155663902E+03  0.00000000000E+00 0. -1.
        -24    2    1    2    0    0 -0.65121606787E+02 -0.34607902618E+03  0.19968840014E+03  0.41264244342E+03  0.79917538303E+02 0.  0.
        254    2    1    2    0    0  0.65121606787E+02  0.34607902618E+03  0.50052223756E+03  0.10906814723E+04  0.90280233039E+03 0.  0.
         23    2    4    4    0    0  0.19307375759E+03  0.56559541726E+03  0.10727264937E+03  0.61410717837E+03  0.91894250827E+02 0.  0.
         23    2    4    4    0    0 -0.12795215080E+03 -0.21951639108E+03  0.39324958819E+03  0.47657429395E+03  0.88986629336E+02 0.  0.
          1    1    3    3  502    0  0.10426957027E+02 -0.20419277604E+02 -0.58657368278E+00  0.22934960201E+02  0.00000000000E+00 0. -1.
         -2    1    3    3    0  502 -0.75548563814E+02 -0.32565974857E+03  0.20027497382E+03  0.38970748322E+03  0.00000000000E+00 0.  1.
         11    1    5    5    0    0  0.19498935408E+03  0.46899445738E+03  0.85419854748E+02  0.51504679481E+03  0.00000000000E+00 0.  1.
        -11    1    5    5    0    0 -0.19155964919E+01  0.96600959877E+02  0.21852794626E+02  0.99060383565E+02  0.00000000000E+00 0. -1.
          2    1    6    6  503    0 -0.30012579192E+02 -0.45112022492E+01  0.26384291383E+02  0.40214881416E+02  0.00000000000E+00 0. -1.
         -2    1    6    6    0  503 -0.97939571607E+02 -0.21500518883E+03  0.36686529680E+03  0.43635941254E+03  0.00000000000E+00 0.  1.
<mgrwt>
<rscale>  0 0.13302962E+04</rscale>
<asrwt>0</asrwt>
<pdfrwt beam="1">  1        1 0.61777945E-01 0.13302962E+04</pdfrwt>
<pdfrwt beam="2">  1       -2 0.16950266E+00 0.13302962E+04</pdfrwt>
<totfact> 0.10973600E+01</totfact>
</mgrwt>
</event>
<event>
12    4  0.5630814E-008  0.1781055E+04  0.7818608E-02  0.8716440E-01
         -2   -1    0    0    0  501 -0.00000000000E+00  0.00000000000E+00  0.83929711394E+03  0.83929711394E+03  0.00000000000E+00 0.  1.
          1   -1    0    0  501    0  0.00000000000E+00 -0.00000000000E+00 -0.94488485763E+03  0.94488485763E+03  0.00000000000E+00 0. -1.
        -24    2    1    2    0    0  0.88801678865E+02  0.34472867254E+02  0.62322047931E+03  0.63382948584E+03  0.65283493636E+02 0.  0.
        254    2    1    2    0    0 -0.88801678865E+02 -0.34472867254E+02 -0.72880822299E+03  0.11503524857E+04  0.88491541900E+03 0.  0.
         23    2    4    4    0    0 -0.28492112932E+02  0.83980782692E+02  0.18368527035E+03  0.22366714284E+03  0.91772217377E+02 0.  0.
         23    2    4    4    0    0 -0.60309565933E+02 -0.11845364995E+03 -0.91249349334E+03  0.92668534289E+03  0.91830487390E+02 0.  0.
          3    1    3    3  502    0  0.29324418238E+01 -0.17852257112E+01 -0.23841313187E+00  0.34413786062E+01  0.00000000000E+00 0. -1.
         -4    1    3    3    0  502  0.85869237042E+02  0.36258092965E+02  0.62345889244E+03  0.63038810723E+03  0.00000000000E+00 0.  1.
         11    1    5    5    0    0 -0.84744685413E+01 -0.19908013595E+02  0.26860506283E+02  0.34491048406E+02  0.00000000000E+00 0.  1.
        -11    1    5    5    0    0 -0.20017644391E+02  0.10388879629E+03  0.15682476407E+03  0.18917609443E+03  0.00000000000E+00 0. -1.
          2    1    6    6  503    0  0.63108983983E+01  0.33941811065E+01 -0.52707026747E+01  0.88954039066E+01  0.00000000000E+00 0.  1.
         -2    1    6    6    0  503 -0.66620464331E+02 -0.12184783105E+03 -0.90722279067E+03  0.91778993899E+03  0.00000000000E+00 0. -1.
<mgrwt>
<rscale>  0 0.17810549E+04</rscale>
<asrwt>0</asrwt>
<pdfrwt beam="1">  1        1 0.14536690E+00 0.17810549E+04</pdfrwt>
<pdfrwt beam="2">  1       -2 0.12912263E+00 0.17810549E+04</pdfrwt>
<totfact> 0.61231526E+00</totfact>
</mgrwt>
</event>
<event>
12    4  0.4424320E-008  0.1871438E+04  0.7818608E-02  0.8669205E-01
         -2   -1    0    0    0  501 -0.00000000000E+00  0.00000000000E+00  0.77347379436E+03  0.77347379436E+03  0.00000000000E+00 0.  1.
          1   -1    0    0  501    0  0.00000000000E+00 -0.00000000000E+00 -0.11319973376E+04  0.11319973376E+04  0.00000000000E+00 0. -1.
        -24    2    1    2    0    0  0.35615525522E+03 -0.25046235229E+03 -0.70818039515E+03  0.83507715526E+03  0.79097581713E+02 0.  0.
        254    2    1    2    0    0 -0.35615525522E+03  0.25046235229E+03  0.34965685192E+03  0.10703939767E+04  0.91318420676E+03 0.  0.
         23    2    4    4    0    0 -0.37533175642E+03  0.11240531278E+03  0.62815713765E+03  0.74580106154E+03  0.90160701550E+02 0.  0.
         23    2    4    4    0    0  0.19176501198E+02  0.13805703951E+03 -0.27850028573E+03  0.32459291514E+03  0.91491349595E+02 0.  0.
          3    1    3    3  502    0  0.24099619139E+03 -0.16223944905E+03 -0.53823392640E+03  0.61163433734E+03  0.00000000000E+00 0. -1.
         -4    1    3    3    0  502  0.11515906383E+03 -0.88222903241E+02 -0.16994646875E+03  0.22344281792E+03  0.00000000000E+00 0.  1.
         11    1    5    5    0    0 -0.11569436528E+03 -0.32272802404E+01  0.21753604707E+03  0.24640928000E+03  0.00000000000E+00 0. -1.
        -11    1    5    5    0    0 -0.25963739114E+03  0.11563259302E+03  0.41062109058E+03  0.49939178154E+03  0.00000000000E+00 0.  1.
          3    1    6    6  503    0  0.11940321970E+02  0.13521907779E+03 -0.17830679719E+03  0.22409838065E+03  0.00000000000E+00 0. -1.
         -3    1    6    6    0  503  0.72361792280E+01  0.28379617253E+01 -0.10019348853E+03  0.10049453448E+03  0.00000000000E+00 0.  1.
<mgrwt>
<rscale>  0 0.18714382E+04</rscale>
<asrwt>0</asrwt>
<pdfrwt beam="1">  1        1 0.17415344E+00 0.18714382E+04</pdfrwt>
<pdfrwt beam="2">  1       -2 0.11899597E+00 0.18714382E+04</pdfrwt>
<totfact> 0.53504127E+00</totfact>
</mgrwt>
</event>
<event>
12    4  0.4424320E-008  0.1297662E+04  0.7818608E-02  0.9031421E-01
         -2   -1    0    0    0  501 -0.00000000000E+00  0.00000000000E+00  0.12328581918E+04  0.12328581918E+04  0.00000000000E+00 0.  1.
          1   -1    0    0  501    0  0.00000000000E+00 -0.00000000000E+00 -0.34146817799E+03  0.34146817799E+03  0.00000000000E+00 0. -1.
        -24    2    1    2    0    0 -0.47066762539E+02  0.20920117084E+02  0.61694102533E+03  0.62434209166E+03  0.80832464040E+02 0.  0.
        254    2    1    2    0    0  0.47066762539E+02 -0.20920117084E+02  0.27444898853E+03  0.94998427818E+03  0.90801704282E+03 0.  0.
         23    2    4    4    0    0  0.15386269884E+03 -0.38777389959E+03  0.34652464702E+03  0.54976447484E+03  0.90107266689E+02 0.  0.
         23    2    4    4    0    0 -0.10679593630E+03  0.36685378250E+03 -0.72075658495E+02  0.40021980334E+03  0.94836283609E+02 0.  0.
          1    1    3    3  502    0  0.76450632411E+01 -0.16032698424E+02  0.41708311954E+02  0.45332964792E+02  0.00000000000E+00 0. -1.
         -4    1    3    3    0  502 -0.54711825780E+02  0.36952815508E+02  0.57523271338E+03  0.57900912687E+03  0.00000000000E+00 0.  1.
         11    1    5    5    0    0  0.10301828368E+02 -0.39943493490E+02  0.75484618278E+02  0.86020566939E+02  0.00000000000E+00 0. -1.
        -11    1    5    5    0    0  0.14356087047E+03 -0.34783040610E+03  0.27104002874E+03  0.46374390790E+03  0.00000000000E+00 0.  1.
          3    1    6    6  503    0 -0.31134468156E+02  0.16925086363E+02 -0.26582014484E+01  0.35537018596E+02  0.00000000000E+00 0. -1.
         -3    1    6    6    0  503 -0.75661468147E+02  0.34992869614E+03 -0.69417457046E+02  0.36468278474E+03  0.00000000000E+00 0.  1.
<mgrwt>
<rscale>  0 0.12976623E+04</rscale>
<asrwt>0</asrwt>
<pdfrwt beam="1">  1        1 0.52533567E-01 0.12976623E+04</pdfrwt>
<pdfrwt beam="2">  1       -2 0.18967049E+00 0.12976623E+04</pdfrwt>
<totfact> 0.98815979E+00</totfact>
</mgrwt>
</event>
<event>
12    4  0.4424320E-008  0.1476402E+04  0.7818608E-02  0.8900299E-01
         -4   -1    0    0    0  501 -0.00000000000E+00  0.00000000000E+00  0.62850611681E+03  0.62850611681E+03  0.00000000000E+00 0.  1.
          3   -1    0    0  501    0  0.00000000000E+00 -0.00000000000E+00 -0.86704079722E+03  0.86704079722E+03  0.00000000000E+00 0. -1.
        -24    2    1    2    0    0 -0.28622823580E+03 -0.70722272118E+02  0.26613294796E+03  0.40529014554E+03  0.80654282840E+02 0.  0.
        254    2    1    2    0    0  0.28622823580E+03  0.70722272118E+02 -0.50466762837E+03  0.10902567685E+04  0.92034893565E+03 0.  0.
         23    2    4    4    0    0 -0.74142914591E+02 -0.25400458071E+03 -0.52636418876E+03  0.59631069714E+03  0.92258818066E+02 0.  0.
         23    2    4    4    0    0  0.36037115039E+03  0.32472685283E+03  0.21696560389E+02  0.49394607134E+03  0.90537758296E+02 0.  0.
          3    1    3    3  502    0 -0.18431042073E+02 -0.85585025529E+00 -0.36334565399E+01  0.18805259849E+02  0.00000000000E+00 0. -1.
         -4    1    3    3    0  502 -0.26779719373E+03 -0.69866421863E+02  0.26976640450E+03  0.38648488569E+03  0.00000000000E+00 0.  1.
         11    1    5    5    0    0 -0.24315079472E+02 -0.18612974651E+03 -0.29051883265E+03  0.34588538239E+03  0.00000000000E+00 0.  1.
        -11    1    5    5    0    0 -0.49827835118E+02 -0.67874834199E+02 -0.23584535611E+03  0.25042531476E+03  0.00000000000E+00 0. -1.
          4    1    6    6  503    0  0.55749940833E+02  0.27317579042E+02  0.28149682430E+02  0.68166785523E+02  0.00000000000E+00 0. -1.
         -4    1    6    6    0  503  0.30462120956E+03  0.29740927379E+03 -0.64531220403E+01  0.42577928582E+03  0.00000000000E+00 0.  1.
<mgrwt>
<rscale>  0 0.14764016E+04</rscale>
<asrwt>0</asrwt>
<pdfrwt beam="1">  1        3 0.13339089E+00 0.14764016E+04</pdfrwt>
<pdfrwt beam="2">  1       -4 0.96693249E-01 0.14764016E+04</pdfrwt>
<totfact> 0.86482385E-01</totfact>
</mgrwt>
</event>
<event>
12    4  0.4424320E-008  0.1889296E+04  0.7818608E-02  0.8660203E-01
          1   -1    0    0  501    0  0.00000000000E+00  0.00000000000E+00  0.13620344851E+04  0.13620344851E+04  0.00000000000E+00 0. -1.
         -2   -1    0    0    0  501 -0.00000000000E+00 -0.00000000000E+00 -0.65516710492E+03  0.65516710492E+03  0.00000000000E+00 0.  1.
        -24    2    1    2    0    0  0.11089337324E+03 -0.18789553422E+03  0.96076024333E+03  0.98846286651E+03  0.79978255153E+02 0.  0.
        254    2    1    2    0    0 -0.11089337324E+03  0.18789553422E+03 -0.25389286316E+03  0.10287387235E+04  0.97274853033E+03 0.  0.
         23    2    4    4    0    0 -0.12962315025E+03  0.52395374664E+03 -0.37208249255E+03  0.66188050834E+03  0.91163240167E+02 0.  0.
         23    2    4    4    0    0  0.18729777011E+02 -0.33605821242E+03  0.11818962939E+03  0.36685821516E+03  0.85616790710E+02 0.  0.
          3    1    3    3  502    0  0.70372119957E+02 -0.17676846028E+03  0.79750482972E+03  0.81988613676E+03  0.00000000000E+00 0. -1.
         -4    1    3    3    0  502  0.40521253280E+02 -0.11127073944E+02  0.16325541361E+03  0.16857672975E+03  0.00000000000E+00 0.  1.
         11    1    5    5    0    0 -0.80918754895E+02  0.44139579168E+03 -0.33087307341E+03  0.55754379247E+03  0.00000000000E+00 0.  1.
        -11    1    5    5    0    0 -0.48704395353E+02  0.82557954959E+02 -0.41209419144E+02  0.10433671588E+03  0.00000000000E+00 0. -1.
          3    1    6    6  503    0  0.19890521581E+02 -0.43432474463E+02 -0.75424317982E+01  0.48362185271E+02  0.00000000000E+00 0. -1.
         -3    1    6    6    0  503 -0.11607445700E+01 -0.29262573796E+03  0.12573206119E+03  0.31849602989E+03  0.00000000000E+00 0.  1.
<mgrwt>
<rscale>  0 0.18892964E+04</rscale>
<asrwt>0</asrwt>
<pdfrwt beam="1">  1        1 0.20954377E+00 0.18892964E+04</pdfrwt>
<pdfrwt beam="2">  1       -2 0.10079494E+00 0.18892964E+04</pdfrwt>
<totfact> 0.54429320E+00</totfact>
</mgrwt>
</event>
<event>
12    4  0.4424320E-008  0.1760486E+04  0.7818608E-02  0.8727600E-01
         -2   -1    0    0    0  501 -0.00000000000E+00  0.00000000000E+00  0.24230743137E+03  0.24230743137E+03  0.00000000000E+00 0.  1.
          1   -1    0    0  501    0  0.00000000000E+00 -0.00000000000E+00 -0.31977040874E+04  0.31977040874E+04  0.00000000000E+00 0. -1.
        -24    2    1    2    0    0 -0.36754897295E+03 -0.21743233116E+03 -0.20166687731E+04  0.20629077496E+04  0.79160449013E+02 0.  0.
        254    2    1    2    0    0  0.36754897295E+03  0.21743233116E+03 -0.93872788297E+03  0.13771037692E+04  0.91259831626E+03 0.  0.
         23    2    4    4    0    0  0.60382723030E+03  0.28606110425E+02 -0.33945963574E+03  0.69931154723E+03  0.91532301365E+02 0.  0.
         23    2    4    4    0    0 -0.23627825735E+03  0.18882622074E+03 -0.59926824724E+03  0.67779222201E+03  0.93792897043E+02 0.  0.
          3    1    3    3  502    0 -0.25474823217E+03 -0.11401341981E+03 -0.13985187935E+04  0.14260962581E+04  0.00000000000E+00 0. -1.
         -4    1    3    3    0  502 -0.11280074078E+03 -0.10341891136E+03 -0.61814997964E+03  0.63681149147E+03  0.00000000000E+00 0.  1.
         11    1    5    5    0    0  0.48576359264E+03  0.60882127696E+01 -0.30750015381E+03  0.57494319621E+03  0.00000000000E+00 0.  1.
        -11    1    5    5    0    0  0.11806363766E+03  0.22517897656E+02 -0.31959481926E+02  0.12436835103E+03  0.00000000000E+00 0. -1.
          3    1    6    6  503    0 -0.17221020144E+02  0.59382876870E+02 -0.13106926173E+03  0.14492080931E+03  0.00000000000E+00 0. -1.
         -3    1    6    6    0  503 -0.21905723721E+03  0.12944334387E+03 -0.46819898550E+03  0.53287141270E+03  0.00000000000E+00 0.  1.
<mgrwt>
<rscale>  0 0.17604857E+04</rscale>
<asrwt>0</asrwt>
<pdfrwt beam="1">  1        1 0.49195446E+00 0.17604857E+04</pdfrwt>
<pdfrwt beam="2">  1       -2 0.37278068E-01 0.17604857E+04</pdfrwt>
<totfact> 0.24193007E+00</totfact>
</mgrwt>
</event>
<event>
12    4  0.4424320E-008  0.2943899E+04  0.7818608E-02  0.8259935E-01
          1   -1    0    0  501    0  0.00000000000E+00  0.00000000000E+00  0.18369514017E+04  0.18369514017E+04  0.00000000000E+00 0. -1.
         -2   -1    0    0    0  501 -0.00000000000E+00 -0.00000000000E+00 -0.11794733281E+04  0.11794733281E+04  0.00000000000E+00 0.  1.
        -24    2    1    2    0    0  0.15670488468E+03  0.65920006041E+03 -0.87168212478E+03  0.11084203359E+04  0.98309581648E+02 0.  0.
        254    2    1    2    0    0 -0.15670488468E+03 -0.65920006041E+03  0.15291601984E+04  0.19080043940E+04  0.91817684276E+03 0.  0.
         23    2    4    4    0    0 -0.70700645822E+02 -0.83943327904E+03  0.14416108892E+04  0.16722610764E+04  0.92565331011E+02 0.  0.
         23    2    4    4    0    0 -0.86004238854E+02  0.18023321863E+03  0.87549309144E+02  0.23574331754E+03  0.89606294600E+02 0.  0.
          1    1    3    3  502    0  0.62761670526E+01  0.14770165844E+03 -0.23923669352E+03  0.28122831597E+03  0.00000000000E+00 0. -1.
         -2    1    3    3    0  502  0.15042871762E+03  0.51149840197E+03 -0.63244543126E+03  0.82719201992E+03  0.00000000000E+00 0.  1.
         11    1    5    5    0    0  0.90262179065E+01 -0.23565118057E+02  0.24752794361E+02  0.35348100761E+02  0.00000000000E+00 0.  1.
        -11    1    5    5    0    0 -0.79726863728E+02 -0.81586816098E+03  0.14168580949E+04  0.16369129757E+04  0.00000000000E+00 0. -1.
          3    1    6    6  503    0 -0.10378176165E+03  0.16189930628E+03  0.69539758304E+02  0.20449405226E+03  0.00000000000E+00 0. -1.
         -3    1    6    6    0  503  0.17777522794E+02  0.18333912354E+02  0.18009550840E+02  0.31249265277E+02  0.00000000000E+00 0.  1.
<mgrwt>
<rscale>  0 0.29438989E+04</rscale>
<asrwt>0</asrwt>
<pdfrwt beam="1">  1        1 0.28260791E+00 0.29438989E+04</pdfrwt>
<pdfrwt beam="2">  1       -2 0.18145744E+00 0.29438989E+04</pdfrwt>
<totfact> 0.51203019E-01</totfact>
</mgrwt>
</event>
<event>
12    4  0.4424320E-008  0.3480236E+04  0.7818608E-02  0.8118490E-01
         -2   -1    0    0    0  501 -0.00000000000E+00  0.00000000000E+00  0.21079460470E+04  0.21079460470E+04  0.00000000000E+00 0.  1.
          1   -1    0    0  501    0  0.00000000000E+00 -0.00000000000E+00 -0.14364744089E+04  0.14364744089E+04  0.00000000000E+00 0. -1.
        -24    2    1    2    0    0  0.15904840258E+04 -0.13820862351E+03  0.28468356828E+02  0.15987901655E+04  0.81107867793E+02 0.  0.
        254    2    1    2    0    0 -0.15904840258E+04  0.13820862351E+03  0.64300328132E+03  0.19456302904E+04  0.90734940748E+03 0.  0.
         23    2    4    4    0    0 -0.99145861531E+03 -0.94199273510E+02 -0.43387401850E+02  0.10009394382E+04  0.90186492163E+02 0.  0.
         23    2    4    4    0    0 -0.59902541047E+03  0.23240789702E+03  0.68639068316E+03  0.94469085217E+03  0.91998713271E+02 0.  0.
          3    1    3    3  502    0  0.90580852119E+03 -0.97567726180E+02  0.51726688997E+02  0.91251530870E+03  0.00000000000E+00 0. -1.
         -4    1    3    3    0  502  0.68467550458E+03 -0.40640897332E+02 -0.23258332169E+02  0.68627485683E+03  0.00000000000E+00 0.  1.
         11    1    5    5    0    0 -0.54731136511E+03 -0.59139619646E+02 -0.68280776941E+02  0.55471568347E+03  0.00000000000E+00 0. -1.
        -11    1    5    5    0    0 -0.44414725020E+03 -0.35059653864E+02  0.24893375091E+02  0.44622375476E+03  0.00000000000E+00 0.  1.
          4    1    6    6  503    0 -0.20108027695E+03  0.38083317025E+02  0.24810530646E+03  0.32162067705E+03  0.00000000000E+00 0. -1.
         -4    1    6    6    0  503 -0.39794513352E+03  0.19432458000E+03  0.43828537671E+03  0.62307017511E+03  0.00000000000E+00 0.  1.
<mgrwt>
<rscale>  0 0.34802359E+04</rscale>
<asrwt>0</asrwt>
<pdfrwt beam="1">  1        1 0.22099606E+00 0.34802359E+04</pdfrwt>
<pdfrwt beam="2">  1       -2 0.32429939E+00 0.34802359E+04</pdfrwt>
<totfact> 0.11704148E-01</totfact>
</mgrwt>
</event>
<event>
12    4  0.4424320E-008  0.1398462E+04  0.7818608E-02  0.8954933E-01
          1   -1    0    0  501    0  0.00000000000E+00  0.00000000000E+00  0.18589882099E+03  0.18589882099E+03  0.00000000000E+00 0. -1.
         -2   -1    0    0    0  501 -0.00000000000E+00 -0.00000000000E+00 -0.26300531625E+04  0.26300531625E+04  0.00000000000E+00 0.  1.
        -24    2    1    2    0    0 -0.58703721192E+02  0.23244927633E+03 -0.13418748397E+04  0.13654789507E+04  0.80161627395E+02 0.  0.
        254    2    1    2    0    0  0.58703721192E+02 -0.23244927633E+03 -0.11022795018E+04  0.14504730327E+04  0.91179664712E+03 0.  0.
         23    2    4    4    0    0  0.12491120814E+03  0.11090324069E+03 -0.10707419080E+04  0.10876598741E+04  0.92808563356E+02 0.  0.
         23    2    4    4    0    0 -0.66207486945E+02 -0.34335251702E+03 -0.31537593709E+02  0.36281315858E+03  0.91457016972E+02 0.  0.
          1    1    3    3  502    0 -0.63607074096E+02  0.93858845914E+02 -0.55222426408E+03  0.56374371896E+03  0.00000000000E+00 0. -1.
         -2    1    3    3    0  502  0.49033529035E+01  0.13859043041E+03 -0.78965057564E+03  0.80173523178E+03  0.00000000000E+00 0.  1.
         11    1    5    5    0    0  0.63531783677E+02  0.57097198294E+02 -0.28060665928E+03  0.29331974844E+03  0.00000000000E+00 0.  1.
        -11    1    5    5    0    0  0.61379424461E+02  0.53806042400E+02 -0.79013524876E+03  0.79434012569E+03  0.00000000000E+00 0. -1.
          3    1    6    6  503    0 -0.71181311407E+02 -0.31239377162E+03 -0.53083422049E+02  0.32476837490E+03  0.00000000000E+00 0. -1.
         -3    1    6    6    0  503  0.49738244618E+01 -0.30958745402E+02  0.21545828340E+02  0.38044783683E+02  0.00000000000E+00 0.  1.
<mgrwt>
<rscale>  0 0.13984617E+04</rscale>
<asrwt>0</asrwt>
<pdfrwt beam="1">  1        1 0.28599823E-01 0.13984617E+04</pdfrwt>
<pdfrwt beam="2">  1       -2 0.40462351E+00 0.13984617E+04</pdfrwt>
<totfact> 0.97534636E-01</totfact>
</mgrwt>
</event>
<event>
12    4  0.4424320E-008  0.3141044E+04  0.7818608E-02  0.8204563E-01
          1   -1    0    0  501    0  0.00000000000E+00  0.00000000000E+00  0.19434334536E+04  0.19434334536E+04  0.00000000000E+00 0. -1.
         -2   -1    0    0    0  501 -0.00000000000E+00 -0.00000000000E+00 -0.12691659083E+04  0.12691659083E+04  0.00000000000E+00 0.  1.
        -24    2    1    2    0    0 -0.47921351946E+03  0.13546065669E+04  0.38864700496E+03  0.14905554254E+04  0.78130874364E+02 0.  0.
        254    2    1    2    0    0  0.47921351946E+03 -0.13546065669E+04  0.28562054036E+03  0.17220439365E+04  0.90512522770E+03 0.  0.
         23    2    4    4    0    0  0.59590456230E+03 -0.13917150262E+04  0.34945576572E+03  0.15564225642E+04  0.91427045083E+02 0.  0.
         23    2    4    4    0    0 -0.11669104284E+03  0.37108459392E+02 -0.63835225357E+02  0.16562137224E+03  0.91442144044E+02 0.  0.
          3    1    3    3  502    0 -0.36094066142E+03  0.93595577653E+03  0.29408681516E+03  0.10453604314E+04  0.00000000000E+00 0. -1.
         -2    1    3    3    0  502 -0.11827285804E+03  0.41865079032E+03  0.94560189803E+02  0.44519499400E+03  0.00000000000E+00 0.  1.
         11    1    5    5    0    0  0.12792403583E+03 -0.25595542801E+03  0.33901498162E+02  0.28814415081E+03  0.00000000000E+00 0. -1.
        -11    1    5    5    0    0  0.46798052647E+03 -0.11357595982E+04  0.31555426756E+03  0.12682784134E+04  0.00000000000E+00 0.  1.
          3    1    6    6  503    0 -0.28441004332E+02 -0.15278606748E+02  0.15587121396E+02  0.35850870352E+02  0.00000000000E+00 0. -1.
         -3    1    6    6    0  503 -0.88250038510E+02  0.52387066140E+02 -0.79422346753E+02  0.12977050189E+03  0.00000000000E+00 0.  1.
<mgrwt>
<rscale>  0 0.31410441E+04</rscale>
<asrwt>0</asrwt>
<pdfrwt beam="1">  1        1 0.29898976E+00 0.31410441E+04</pdfrwt>
<pdfrwt beam="2">  1       -2 0.19525629E+00 0.31410441E+04</pdfrwt>
<totfact> 0.34403319E-01</totfact>
</mgrwt>
</event>
<event>
12    4  0.4424320E-008  0.2105707E+04  0.7818608E-02  0.8558733E-01
         -2   -1    0    0    0  501 -0.00000000000E+00  0.00000000000E+00  0.52200371743E+03  0.52200371743E+03  0.00000000000E+00 0.  1.
          1   -1    0    0  501    0  0.00000000000E+00 -0.00000000000E+00 -0.21235497162E+04  0.21235497162E+04  0.00000000000E+00 0. -1.
        -24    2    1    2    0    0 -0.56415998165E+03 -0.46192143868E+03 -0.86167518744E+02  0.73844330212E+03  0.78903540807E+02 0.  0.
        254    2    1    2    0    0  0.56415998165E+03  0.46192143868E+03 -0.15153784801E+04  0.19071101316E+04  0.89947163137E+03 0.  0.
         23    2    4    4    0    0  0.86961327127E+02  0.61417624145E+03 -0.10118713845E+04  0.11905310228E+04  0.93304284085E+02 0.  0.
         23    2    4    4    0    0  0.47719865452E+03 -0.15225480277E+03 -0.50350709556E+03  0.71657910879E+03  0.95216295992E+02 0.  0.
          1    1    3    3  502    0 -0.96539393878E+02 -0.11255260260E+03  0.77397267581E+00  0.14828533965E+03  0.00000000000E+00 0. -1.
         -2    1    3    3    0  502 -0.46762058777E+03 -0.34936883608E+03 -0.86941491419E+02  0.59015796246E+03  0.00000000000E+00 0.  1.
         11    1    5    5    0    0  0.10157343055E+03  0.52448625946E+03 -0.82723932361E+03  0.98474763096E+03  0.00000000000E+00 0.  1.
        -11    1    5    5    0    0 -0.14612103419E+02  0.89689981991E+02 -0.18463206090E+03  0.20578339182E+03  0.00000000000E+00 0. -1.
          1    1    6    6  503    0  0.22488695686E+03 -0.57470586203E+02 -0.29750813073E+03  0.37734347682E+03  0.00000000000E+00 0. -1.
         -1    1    6    6    0  503  0.25231169766E+03 -0.94784216564E+02 -0.20599896483E+03  0.33923563197E+03  0.00000000000E+00 0.  1.
<mgrwt>
<rscale>  0 0.21057073E+04</rscale>
<asrwt>0</asrwt>
<pdfrwt beam="1">  1        1 0.32669996E+00 0.21057073E+04</pdfrwt>
<pdfrwt beam="2">  1       -2 0.80308264E-01 0.21057073E+04</pdfrwt>
<totfact> 0.27177255E+00</totfact>
</mgrwt>
</event>
<event>
12    4  0.4424320E-008  0.1322004E+04  0.7818608E-02  0.9012295E-01
         -2   -1    0    0    0  501 -0.00000000000E+00  0.00000000000E+00  0.34479089611E+03  0.34479089611E+03  0.00000000000E+00 0.  1.
          1   -1    0    0  501    0  0.00000000000E+00 -0.00000000000E+00 -0.12672143337E+04  0.12672143337E+04  0.00000000000E+00 0. -1.
        -24    2    1    2    0    0  0.17767919078E+03 -0.28670771108E+03 -0.10308181956E+03  0.36188269937E+03  0.81006296996E+02 0.  0.
        254    2    1    2    0    0 -0.17767919078E+03  0.28670771108E+03 -0.81934161803E+03  0.12501225304E+04  0.88188119812E+03 0.  0.
         23    2    4    4    0    0 -0.13060600613E+03  0.50334245012E+03 -0.85659769140E+03  0.10062056690E+04  0.90987320081E+02 0.  0.
         23    2    4    4    0    0 -0.47073184649E+02 -0.21663473904E+03  0.37256073372E+02  0.24391686146E+03  0.94662164723E+02 0.  0.
          1    1    3    3  502    0  0.84124434499E+02 -0.11369216375E+03 -0.36261372721E+01  0.14147783377E+03  0.00000000000E+00 0. -1.
         -2    1    3    3    0  502  0.93554756279E+02 -0.17301554734E+03 -0.99455682284E+02  0.22040486560E+03  0.00000000000E+00 0.  1.
         11    1    5    5    0    0 -0.85481312207E+02  0.40093338988E+03 -0.73004419977E+03  0.83726887645E+03  0.00000000000E+00 0. -1.
        -11    1    5    5    0    0 -0.45124693922E+02  0.10240906024E+03 -0.12655349163E+03  0.16893679251E+03  0.00000000000E+00 0.  1.
          4    1    6    6  503    0 -0.25556379993E+02 -0.97166301636E+02  0.64649542864E+02  0.11947377170E+03  0.00000000000E+00 0. -1.
         -4    1    6    6    0  503 -0.21516804656E+02 -0.11946843740E+03 -0.27393469492E+02  0.12444308976E+03  0.00000000000E+00 0.  1.
<mgrwt>
<rscale>  0 0.13220045E+04</rscale>
<asrwt>0</asrwt>
<pdfrwt beam="1">  1        1 0.19495605E+00 0.13220045E+04</pdfrwt>
<pdfrwt beam="2">  1       -2 0.53044753E-01 0.13220045E+04</pdfrwt>
<totfact> 0.27534391E+01</totfact>
</mgrwt>
</event>
<event>
12    4  0.4424320E-008  0.2102954E+04  0.7818608E-02  0.8559943E-01
          1   -1    0    0  501    0  0.00000000000E+00  0.00000000000E+00  0.11223439859E+04  0.11223439859E+04  0.00000000000E+00 0. -1.
         -2   -1    0    0    0  501 -0.00000000000E+00 -0.00000000000E+00 -0.98508443778E+03  0.98508443778E+03  0.00000000000E+00 0.  1.
        -24    2    1    2    0    0 -0.30296177560E+03  0.62527795138E+03 -0.44605048344E+03  0.82951436172E+03  0.79841646800E+02 0.  0.
        254    2    1    2    0    0  0.30296177560E+03 -0.62527795138E+03  0.58331003158E+03  0.12779140620E+04  0.90003077889E+03 0.  0.
         23    2    4    4    0    0  0.41710893637E+03 -0.75044906360E+03  0.64269075193E+03  0.10765194452E+04  0.93215081710E+02 0.  0.
         23    2    4    4    0    0 -0.11414716077E+03  0.12517111222E+03 -0.59380720346E+02  0.20139461678E+03  0.91303560024E+02 0.  0.
          1    1    3    3  502    0 -0.17058919082E+01 -0.24810940546E+01 -0.27217496439E+01  0.40587948992E+01  0.00000000000E+00 0. -1.
         -2    1    3    3    0  502 -0.30125588369E+03  0.62775904543E+03 -0.44332873379E+03  0.82545556682E+03  0.00000000000E+00 0.  1.
         11    1    5    5    0    0  0.13836381923E+03 -0.18844188435E+03  0.13889080405E+03  0.27192930276E+03  0.00000000000E+00 0. -1.
        -11    1    5    5    0    0  0.27874511714E+03 -0.56200717925E+03  0.50379994788E+03  0.80459014246E+03  0.00000000000E+00 0.  1.
          1    1    6    6  503    0 -0.10539190762E+03  0.10123275285E+03 -0.81780013361E+02  0.16746192112E+03  0.00000000000E+00 0.  1.
         -1    1    6    6    0  503 -0.87552531568E+01  0.23938359372E+02  0.22399293015E+02  0.33932695661E+02  0.00000000000E+00 0. -1.
<mgrwt>
<rscale>  0 0.21029537E+04</rscale>
<asrwt>0</asrwt>
<pdfrwt beam="1">  1        1 0.17266830E+00 0.21029537E+04</pdfrwt>
<pdfrwt beam="2">  1       -2 0.15155145E+00 0.21029537E+04</pdfrwt>
<totfact> 0.28675203E+00</totfact>
</mgrwt>
</event>
<event>
12    4  0.4424320E-008  0.1890043E+04  0.7818608E-02  0.8659829E-01
          1   -1    0    0  501    0  0.00000000000E+00  0.00000000000E+00  0.84059072636E+03  0.84059072636E+03  0.00000000000E+00 0. -1.
         -2   -1    0    0    0  501 -0.00000000000E+00 -0.00000000000E+00 -0.10624259194E+04  0.10624259194E+04  0.00000000000E+00 0.  1.
        -24    2    1    2    0    0 -0.45235450577E+02  0.41340947686E+02  0.64636727270E+03  0.65387508851E+03  0.77502646517E+02 0.  0.
        254    2    1    2    0    0  0.45235450577E+02 -0.41340947686E+02 -0.86820246578E+03  0.12491415573E+04  0.89600434630E+03 0.  0.
         23    2    4    4    0    0  0.14170587133E+03 -0.64443583866E+02 -0.10259125146E+04  0.10415729089E+04  0.90244709785E+02 0.  0.
         23    2    4    4    0    0 -0.96470420754E+02  0.23102636180E+02  0.15771004877E+03  0.20756864834E+03  0.91498690749E+02 0.  0.
          3    1    3    3  502    0 -0.46740170745E+02  0.24093364102E+02  0.62064701621E+03  0.62287065470E+03  0.00000000000E+00 0. -1.
         -4    1    3    3    0  502  0.15047201672E+01  0.17247583584E+02  0.25720256491E+02  0.31004433816E+02  0.00000000000E+00 0.  1.
         11    1    5    5    0    0  0.53747776186E+02 -0.46285415651E+02 -0.69762214200E+03  0.70121880762E+03  0.00000000000E+00 0.  1.
        -11    1    5    5    0    0  0.87958095146E+02 -0.18158168215E+02 -0.32829037255E+03  0.34035410132E+03  0.00000000000E+00 0. -1.
          2    1    6    6  503    0 -0.57349832000E+02  0.18439529730E+02  0.18690257732E+02  0.63074124815E+02  0.00000000000E+00 0. -1.
         -2    1    6    6    0  503 -0.39120588754E+02  0.46631064495E+01  0.13901979104E+03  0.14449452352E+03  0.00000000000E+00 0.  1.
<mgrwt>
<rscale>  0 0.18900427E+04</rscale>
<asrwt>0</asrwt>
<pdfrwt beam="1">  1        1 0.12932165E+00 0.18900427E+04</pdfrwt>
<pdfrwt beam="2">  1       -2 0.16345014E+00 0.18900427E+04</pdfrwt>
<totfact> 0.39753974E+00</totfact>
</mgrwt>
</event>
<event>
12    4  0.4424320E-008  0.2016078E+04  0.7818608E-02  0.8599140E-01
          1   -1    0    0  501    0  0.00000000000E+00  0.00000000000E+00  0.94452428414E+03  0.94452428414E+03  0.00000000000E+00 0. -1.
         -2   -1    0    0    0  501 -0.00000000000E+00 -0.00000000000E+00 -0.10758249521E+04  0.10758249521E+04  0.00000000000E+00 0.  1.
        -24    2    1    2    0    0  0.58827665962E+03 -0.52992127692E+03  0.20713294192E+02  0.79624698230E+03  0.81818263768E+02 0.  0.
        254    2    1    2    0    0 -0.58827665962E+03  0.52992127692E+03 -0.15201396216E+03  0.12241022539E+04  0.92110373759E+03 0.  0.
         23    2    4    4    0    0 -0.15822470494E+03 -0.21478761545E+03  0.13477039173E+03  0.31297061656E+03  0.92837338057E+02 0.  0.
         23    2    4    4    0    0 -0.43005195467E+03  0.74470889237E+03 -0.28678435388E+03  0.91113163738E+03  0.91540028967E+02 0.  0.
          1    1    3    3  502    0  0.51075541020E+02 -0.22327111284E+02  0.12481885269E+02  0.57122747208E+02  0.00000000000E+00 0. -1.
         -2    1    3    3    0  502  0.53720111860E+03 -0.50759416564E+03  0.82314089223E+01  0.73912423509E+03  0.00000000000E+00 0.  1.
         11    1    5    5    0    0 -0.88861762621E+02 -0.46432197932E+02  0.52256146489E+02  0.11306222493E+03  0.00000000000E+00 0.  1.
        -11    1    5    5    0    0 -0.69362942323E+02 -0.16835541752E+03  0.82514245237E+02  0.19990839162E+03  0.00000000000E+00 0. -1.
          3    1    6    6  503    0 -0.14795990864E+03  0.27422382810E+03 -0.58917557939E+02  0.31711531199E+03  0.00000000000E+00 0. -1.
         -3    1    6    6    0  503 -0.28209204603E+03  0.47048506427E+03 -0.22786679595E+03  0.59401632539E+03  0.00000000000E+00 0.  1.
<mgrwt>
<rscale>  0 0.20160782E+04</rscale>
<asrwt>0</asrwt>
<pdfrwt beam="1">  1        1 0.14531143E+00 0.20160782E+04</pdfrwt>
<pdfrwt beam="2">  1       -2 0.16551153E+00 0.20160782E+04</pdfrwt>
<totfact> 0.31201538E+00</totfact>
</mgrwt>
</event>
<event>
12    4  0.4424320E-008  0.1848719E+04  0.7818608E-02  0.8680812E-01
         -2   -1    0    0    0  501 -0.00000000000E+00  0.00000000000E+00  0.29084399947E+03  0.29084399947E+03  0.00000000000E+00 0.  1.
          1   -1    0    0  501    0  0.00000000000E+00 -0.00000000000E+00 -0.29377961199E+04  0.29377961199E+04  0.00000000000E+00 0. -1.
        -24    2    1    2    0    0 -0.46233995625E+03  0.13983600843E+03 -0.19067951681E+04  0.19686565806E+04  0.80178393806E+02 0.  0.
        254    2    1    2    0    0  0.46233995625E+03 -0.13983600843E+03 -0.74015695232E+03  0.12599835388E+04  0.89800548968E+03 0.  0.
         23    2    4    4    0    0  0.36019726356E+03 -0.50056148084E+03 -0.54127655424E+03  0.82564191110E+03  0.91653654694E+02 0.  0.
         23    2    4    4    0    0  0.10214269269E+03  0.36072547241E+03 -0.19888039808E+03  0.43434162767E+03  0.92429652537E+02 0.  0.
          3    1    3    3  502    0 -0.33457404006E+03  0.97006130280E+02 -0.15079033247E+04  0.15476183038E+04  0.00000000000E+00 0. -1.
         -4    1    3    3    0  502 -0.12776591619E+03  0.42829878150E+02 -0.39889184343E+03  0.42103827683E+03  0.00000000000E+00 0.  1.
         11    1    5    5    0    0  0.33435499445E+03 -0.49447094576E+03 -0.51900482129E+03  0.79098722052E+03  0.00000000000E+00 0. -1.
        -11    1    5    5    0    0  0.25842269108E+02 -0.60905350837E+01 -0.22271732950E+02  0.34654690575E+02  0.00000000000E+00 0.  1.
          4    1    6    6  503    0  0.10165901580E+03  0.36488606044E+03 -0.18838836097E+03  0.42304440328E+03  0.00000000000E+00 0. -1.
         -4    1    6    6    0  503  0.48367689179E+00 -0.41605880313E+01 -0.10492037112E+02  0.11297224387E+02  0.00000000000E+00 0.  1.
<mgrwt>
<rscale>  0 0.18487189E+04</rscale>
<asrwt>0</asrwt>
<pdfrwt beam="1">  1        1 0.45196864E+00 0.18487189E+04</pdfrwt>
<pdfrwt beam="2">  1       -2 0.44745230E-01 0.18487189E+04</pdfrwt>
<totfact> 0.26001827E+00</totfact>
</mgrwt>
</event>
<event>
12    4  0.4424320E-008  0.1885118E+04  0.7818608E-02  0.8662300E-01
         -2   -1    0    0    0  501 -0.00000000000E+00  0.00000000000E+00  0.18862717277E+04  0.18862717277E+04  0.00000000000E+00 0.  1.
          1   -1    0    0  501    0  0.00000000000E+00 -0.00000000000E+00 -0.47099101500E+03  0.47099101500E+03  0.00000000000E+00 0. -1.
        -24    2    1    2    0    0 -0.45337292129E+03  0.47033523248E+03  0.16820017459E+03  0.67939040200E+03  0.80732787163E+02 0.  0.
        254    2    1    2    0    0  0.45337292129E+03 -0.47033523248E+03  0.12470805381E+04  0.16778723406E+04  0.91284362649E+03 0.  0.
         23    2    4    4    0    0  0.55385779584E+03  0.70911898743E+02  0.63349531395E+03  0.84923393634E+03  0.89972275946E+02 0.  0.
         23    2    4    4    0    0 -0.10048487455E+03 -0.54124713122E+03  0.61358522411E+03  0.82863840431E+03  0.84315542933E+02 0.  0.
          3    1    3    3  502    0 -0.17828197770E+03  0.17647442588E+03  0.10494889171E+03  0.27192270305E+03  0.00000000000E+00 0. -1.
         -4    1    3    3    0  502 -0.27509094359E+03  0.29386080660E+03  0.63251282882E+02  0.40746769895E+03  0.00000000000E+00 0.  1.
         11    1    5    5    0    0  0.21336545593E+03 -0.79280621240E+01  0.28016377839E+03  0.35224908045E+03  0.00000000000E+00 0. -1.
        -11    1    5    5    0    0  0.34049233991E+03  0.78839960867E+02  0.35333153556E+03  0.49698485589E+03  0.00000000000E+00 0.  1.
          1    1    6    6  503    0 -0.99081354800E+02 -0.52023389063E+03  0.60905104146E+03  0.80709577309E+03  0.00000000000E+00 0. -1.
         -1    1    6    6    0  503 -0.14035197482E+01 -0.21013240584E+02  0.45341826516E+01  0.21542631219E+02  0.00000000000E+00 0.  1.
<mgrwt>
<rscale>  0 0.18851175E+04</rscale>
<asrwt>0</asrwt>
<pdfrwt beam="1">  1        1 0.72460157E-01 0.18851175E+04</pdfrwt>
<pdfrwt beam="2">  1       -2 0.29019565E+00 0.18851175E+04</pdfrwt>
<totfact> 0.14409097E+00</totfact>
</mgrwt>
</event>
<event>
12    4  0.4424320E-008  0.2093546E+04  0.7818608E-02  0.8564092E-01
         -2   -1    0    0    0  501 -0.00000000000E+00  0.00000000000E+00  0.69492423326E+03  0.69492423326E+03  0.00000000000E+00 0.  1.
          1   -1    0    0  501    0  0.00000000000E+00 -0.00000000000E+00 -0.15767666700E+04  0.15767666700E+04  0.00000000000E+00 0. -1.
        -24    2    1    2    0    0  0.48042080840E+03  0.69835721757E+03 -0.35793399806E+03  0.92358388753E+03  0.79896769978E+02 0.  0.
        254    2    1    2    0    0 -0.48042080840E+03 -0.69835721757E+03 -0.52390843865E+03  0.13481070157E+04  0.90796779526E+03 0.  0.
         23    2    4    4    0    0 -0.25574452186E+03 -0.77710212301E+03 -0.66274646125E+03  0.10570225328E+04  0.93652511138E+02 0.  0.
         23    2    4    4    0    0 -0.22467628654E+03  0.78744905438E+02  0.13883802260E+03  0.29108448294E+03  0.93669556531E+02 0.  0.
          1    1    3    3  502    0  0.38234782284E+03  0.55525740321E+03 -0.31879588058E+03  0.74574221747E+03  0.00000000000E+00 0. -1.
         -2    1    3    3    0  502  0.98072985565E+02  0.14309981436E+03 -0.39138117485E+02  0.17784167006E+03  0.00000000000E+00 0.  1.
         11    1    5    5    0    0 -0.12824057218E+02 -0.11249335867E+03 -0.12204606696E+03  0.16647658889E+03  0.00000000000E+00 0.  1.
        -11    1    5    5    0    0 -0.24292046464E+03 -0.66460876433E+03 -0.54070039429E+03  0.89054594388E+03  0.00000000000E+00 0. -1.
          1    1    6    6  503    0 -0.16267001731E+03  0.99195909179E+02  0.10184465136E+03  0.21604095894E+03  0.00000000000E+00 0. -1.
         -1    1    6    6    0  503 -0.62006269237E+02 -0.20451003741E+02  0.36993371234E+02  0.75043523997E+02  0.00000000000E+00 0.  1.
<mgrwt>
<rscale>  0 0.20935457E+04</rscale>
<asrwt>0</asrwt>
<pdfrwt beam="1">  1        1 0.24257949E+00 0.20935457E+04</pdfrwt>
<pdfrwt beam="2">  1       -2 0.10691142E+00 0.20935457E+04</pdfrwt>
<totfact> 0.32918192E+00</totfact>
</mgrwt>
</event>
<event>
12    4  0.4424320E-008  0.2375962E+04  0.7818608E-02  0.8448558E-01
         -2   -1    0    0    0  501 -0.00000000000E+00  0.00000000000E+00  0.74503602769E+03  0.74503602769E+03  0.00000000000E+00 0.  1.
          1   -1    0    0  501    0  0.00000000000E+00 -0.00000000000E+00 -0.18942697953E+04  0.18942697953E+04  0.00000000000E+00 0. -1.
        -24    2    1    2    0    0  0.22840556101E+03  0.92521785236E+03 -0.10396841696E+03  0.96270258856E+03  0.88259093913E+02 0.  0.
        254    2    1    2    0    0 -0.22840556101E+03 -0.92521785236E+03 -0.10452653507E+04  0.16766032345E+04  0.90012309038E+03 0.  0.
         23    2    4    4    0    0  0.17428622632E+03 -0.30041972140E+03 -0.81900746352E+03  0.89411943326E+03  0.89714201466E+02 0.  0.
         23    2    4    4    0    0 -0.40269178733E+03 -0.62479813096E+03 -0.22625788715E+03  0.78248380119E+03  0.92492635321E+02 0.  0.
          1    1    3    3  502    0  0.34004579179E+02  0.14321129427E+03 -0.48543101558E+02  0.15499102852E+03  0.00000000000E+00 0. -1.
         -2    1    3    3    0  502  0.19440098183E+03  0.78200655809E+03 -0.55425315406E+02  0.80771156004E+03  0.00000000000E+00 0.  1.
         11    1    5    5    0    0  0.94433566102E+01 -0.94299090474E+02 -0.21287119927E+03  0.23301425477E+03  0.00000000000E+00 0.  1.
        -11    1    5    5    0    0  0.16484286971E+03 -0.20612063093E+03 -0.60613626425E+03  0.66110517849E+03  0.00000000000E+00 0. -1.
          3    1    6    6  503    0 -0.29353233682E+03 -0.45674505214E+03 -0.12151006406E+03  0.55636496212E+03  0.00000000000E+00 0. -1.
         -3    1    6    6    0  503 -0.10915945051E+03 -0.16805307882E+03 -0.10474782309E+03  0.22611883907E+03  0.00000000000E+00 0.  1.
<mgrwt>
<rscale>  0 0.23759623E+04</rscale>
<asrwt>0</asrwt>
<pdfrwt beam="1">  1        1 0.29142612E+00 0.23759623E+04</pdfrwt>
<pdfrwt beam="2">  1       -2 0.11462093E+00 0.23759623E+04</pdfrwt>
<totfact> 0.16485049E+00</totfact>
</mgrwt>
</event>
<event>
12    4  0.4424320E-008  0.1146262E+04  0.7818608E-02  0.9161239E-01
          1   -1    0    0  501    0  0.00000000000E+00  0.00000000000E+00  0.92875775550E+03  0.92875775550E+03  0.00000000000E+00 0. -1.
         -2   -1    0    0    0  501 -0.00000000000E+00 -0.00000000000E+00 -0.35367561604E+03  0.35367561604E+03  0.00000000000E+00 0.  1.
        -24    2    1    2    0    0  0.55796366169E+02 -0.68026176336E+02  0.32530963902E+03  0.34608983128E+03  0.78809992604E+02 0.  0.
        254    2    1    2    0    0 -0.55796366169E+02  0.68026176336E+02  0.24977250045E+03  0.93634354026E+03  0.89811587686E+03 0.  0.
         23    2    4    4    0    0 -0.40125676080E+03  0.10194185628E+03  0.36379735828E+03  0.55869133304E+03  0.91587977236E+02 0.  0.
         23    2    4    4    0    0  0.34546039463E+03 -0.33915679943E+02 -0.11402485784E+03  0.37765220722E+03  0.95532004132E+02 0.  0.
          1    1    3    3  502    0  0.30741636665E+01  0.66215929667E+01  0.13268096348E+03  0.13288165429E+03  0.00000000000E+00 0. -1.
         -2    1    3    3    0  502  0.52722202502E+02 -0.74647769303E+02  0.19262867554E+03  0.21320817700E+03  0.00000000000E+00 0.  1.
         11    1    5    5    0    0 -0.24144600200E+03  0.15074015282E+02  0.19907410764E+03  0.31329522523E+03  0.00000000000E+00 0. -1.
        -11    1    5    5    0    0 -0.15981075880E+03  0.86867840997E+02  0.16472325065E+03  0.24539610781E+03  0.00000000000E+00 0.  1.
          4    1    6    6  503    0  0.35161176191E+03 -0.30442675568E+02 -0.11251673814E+03  0.37042894592E+03  0.00000000000E+00 0. -1.
         -4    1    6    6    0  503 -0.61513672858E+01 -0.34730043747E+01 -0.15081196954E+01  0.72232613055E+01  0.00000000000E+00 0.  1.
<mgrwt>
<rscale>  0 0.11462617E+04</rscale>
<asrwt>0</asrwt>
<pdfrwt beam="1">  1        1 0.14288581E+00 0.11462617E+04</pdfrwt>
<pdfrwt beam="2">  1       -2 0.54411634E-01 0.11462617E+04</pdfrwt>
<totfact> 0.47727938E+01</totfact>
</mgrwt>
</event>
<event>
12    4  0.5241607E-008  0.2019746E+04  0.7818608E-02  0.8597444E-01
          1   -1    0    0  501    0  0.00000000000E+00  0.00000000000E+00  0.12685752870E+04  0.12685752870E+04  0.00000000000E+00 0. -1.
         -2   -1    0    0    0  501 -0.00000000000E+00 -0.00000000000E+00 -0.80392859416E+03  0.80392859416E+03  0.00000000000E+00 0.  1.
        -24    2    1    2    0    0  0.41254299906E+03 -0.26086383213E+02 -0.52795751547E+03  0.67516669843E+03  0.78985486418E+02 0.  0.
        254    2    1    2    0    0 -0.41254299906E+03  0.26086383213E+02  0.99260420832E+03  0.13973371827E+04  0.89242134804E+03 0.  0.
         23    2    4    4    0    0  0.21750514887E+03  0.21443025721E+03  0.30277046228E+03  0.43986067691E+03  0.92296464013E+02 0.  0.
         23    2    4    4    0    0 -0.63004814793E+03 -0.18834387400E+03  0.68983374605E+03  0.95747650584E+03  0.91959656688E+02 0.  0.
          1    1    3    3  502    0  0.69200786033E+01  0.60426160415E+01 -0.33904624326E+02  0.35127257895E+02  0.00000000000E+00 0. -1.
         -2    1    3    3    0  502  0.40562292045E+03 -0.32128999254E+02 -0.49405289115E+03  0.64003944053E+03  0.00000000000E+00 0.  1.
         11    1    5    5    0    0 -0.76671806789E+00  0.98827969245E+01  0.41571831194E+02  0.42737275071E+02  0.00000000000E+00 0. -1.
        -11    1    5    5    0    0  0.21827186694E+03  0.20454746029E+03  0.26119863108E+03  0.39712340184E+03  0.00000000000E+00 0.  1.
          1    1    6    6  503    0 -0.51596030935E+02 -0.37360849722E+02  0.92957153313E+02  0.11268991016E+03  0.00000000000E+00 0. -1.
         -1    1    6    6    0  503 -0.57845211700E+03 -0.15098302428E+03  0.59687659273E+03  0.84478659567E+03  0.00000000000E+00 0.  1.
<mgrwt>
<rscale>  0 0.20197465E+04</rscale>
<asrwt>0</asrwt>
<pdfrwt beam="1">  1        1 0.19516543E+00 0.20197465E+04</pdfrwt>
<pdfrwt beam="2">  1       -2 0.12368132E+00 0.20197465E+04</pdfrwt>
<totfact> 0.38120698E+00</totfact>
</mgrwt>
</event>
<event>
12    4  0.4424320E-008  0.1102403E+04  0.7818608E-02  0.9202853E-01
         -2   -1    0    0    0  501 -0.00000000000E+00  0.00000000000E+00  0.41728864958E+03  0.41728864958E+03  0.00000000000E+00 0.  1.
          1   -1    0    0  501    0  0.00000000000E+00 -0.00000000000E+00 -0.72808814559E+03  0.72808814559E+03  0.00000000000E+00 0. -1.
        -24    2    1    2    0    0  0.17877982138E+02  0.16123352093E+03 -0.48418707471E+02  0.18729486124E+03  0.80119431439E+02 0.  0.
        254    2    1    2    0    0 -0.17877982138E+02 -0.16123352093E+03 -0.26238078854E+03  0.95808193393E+03  0.90706198433E+03 0.  0.
         23    2    4    4    0    0  0.62136205646E+02  0.31863065961E+03  0.91077900564E+02  0.34982704792E+03  0.93259713631E+02 0.  0.
         23    2    4    4    0    0 -0.80014187784E+02 -0.47986418055E+03 -0.35345868911E+03  0.60825488602E+03  0.91482563576E+02 0.  0.
          3    1    3    3  502    0  0.46102658763E+02  0.79527112613E+02 -0.40623178518E+02  0.10050004686E+03  0.00000000000E+00 0. -1.
         -4    1    3    3    0  502 -0.28224676624E+02  0.81706408320E+02 -0.77955289533E+01  0.86794814377E+02  0.00000000000E+00 0.  1.
         11    1    5    5    0    0  0.83830781736E+02  0.22359559399E+03  0.49606467808E+02  0.24389217139E+03  0.00000000000E+00 0.  1.
        -11    1    5    5    0    0 -0.21694576090E+02  0.95035065625E+02  0.41471432757E+02  0.10593487653E+03  0.00000000000E+00 0. -1.
          4    1    6    6  503    0 -0.62579603645E+01 -0.15737894427E+03 -0.16240675544E+03  0.22623715075E+03  0.00000000000E+00 0. -1.
         -4    1    6    6    0  503 -0.73756227420E+02 -0.32248523627E+03 -0.19105193367E+03  0.38201773526E+03  0.00000000000E+00 0.  1.
<mgrwt>
<rscale>  0 0.11024027E+04</rscale>
<asrwt>0</asrwt>
<pdfrwt beam="1">  1        1 0.11201356E+00 0.11024027E+04</pdfrwt>
<pdfrwt beam="2">  1       -2 0.64198254E-01 0.11024027E+04</pdfrwt>
<totfact> 0.50200657E+01</totfact>
</mgrwt>
</event>
<event>
12    4  0.4424320E-008  0.1508843E+04  0.7818608E-02  0.8878594E-01
         -2   -1    0    0    0  501 -0.00000000000E+00  0.00000000000E+00  0.34323337940E+03  0.34323337940E+03  0.00000000000E+00 0.  1.
          1   -1    0    0  501    0  0.00000000000E+00 -0.00000000000E+00 -0.16582060159E+04  0.16582060159E+04  0.00000000000E+00 0. -1.
        -24    2    1    2    0    0  0.45359381493E+02 -0.40819795318E+03 -0.79291969098E+03  0.89636615738E+03  0.77894860443E+02 0.  0.
        254    2    1    2    0    0 -0.45359381493E+02  0.40819795318E+03 -0.52205294548E+03  0.11050732379E+04  0.88315601155E+03 0.  0.
         23    2    4    4    0    0 -0.64940938134E+02 -0.23961205921E+03  0.76372476474E+01  0.26317197645E+03  0.87005156594E+02 0.  0.
         23    2    4    4    0    0  0.19581556640E+02  0.64781001239E+03 -0.52969019313E+03  0.84190126144E+03  0.90469794932E+02 0.  0.
          1    1    3    3  502    0  0.46142283582E+02 -0.37719813167E+03 -0.67690078131E+03  0.77627457037E+03  0.00000000000E+00 0. -1.
         -2    1    3    3    0  502 -0.78290208821E+00 -0.30999821515E+02 -0.11601890967E+03  0.12009158701E+03  0.00000000000E+00 0.  1.
         11    1    5    5    0    0 -0.65294829858E+02 -0.22237879860E+03 -0.17795158835E+02  0.23244873102E+03  0.00000000000E+00 0.  1.
        -11    1    5    5    0    0  0.35389172413E+00 -0.17233260607E+02  0.25432406483E+02  0.30723245434E+02  0.00000000000E+00 0. -1.
          2    1    6    6  503    0  0.24067328159E+02  0.73655003746E+02 -0.39656582561E+02  0.87045622532E+02  0.00000000000E+00 0. -1.
         -2    1    6    6    0  503 -0.44857715189E+01  0.57415500865E+03 -0.49003361057E+03  0.75485563890E+03  0.00000000000E+00 0.  1.
<mgrwt>
<rscale>  0 0.15088428E+04</rscale>
<asrwt>0</asrwt>
<pdfrwt beam="1">  1        1 0.25510862E+00 0.15088428E+04</pdfrwt>
<pdfrwt beam="2">  1       -2 0.52805134E-01 0.15088428E+04</pdfrwt>
<totfact> 0.14609062E+01</totfact>
</mgrwt>
</event>
<event>
12    4  0.4424320E-008  0.1408401E+04  0.7818608E-02  0.8947760E-01
          1   -1    0    0  501    0  0.00000000000E+00  0.00000000000E+00  0.48786368292E+03  0.48786368292E+03  0.00000000000E+00 0. -1.
         -2   -1    0    0    0  501 -0.00000000000E+00 -0.00000000000E+00 -0.10164689531E+04  0.10164689531E+04  0.00000000000E+00 0.  1.
        -24    2    1    2    0    0  0.16185046222E+03 -0.36287877010E+03 -0.26996585537E+03  0.48702216649E+03  0.80202579009E+02 0.  0.
        254    2    1    2    0    0 -0.16185046222E+03  0.36287877010E+03 -0.25863941478E+03  0.10173104695E+04  0.90008314648E+03 0.  0.
         23    2    4    4    0    0 -0.16740774160E+03  0.58789765998E+03 -0.40053389294E+03  0.73660461228E+03  0.92249362461E+02 0.  0.
         23    2    4    4    0    0  0.55572793741E+01 -0.22501888989E+03  0.14189447816E+03  0.28070585722E+03  0.89427910562E+02 0.  0.
          1    1    3    3  502    0  0.41531274906E+02 -0.80144342100E+02 -0.23923974937E+02  0.93382647974E+02  0.00000000000E+00 0. -1.
         -2    1    3    3    0  502  0.12031918732E+03 -0.28273442800E+03 -0.24604188043E+03  0.39363951852E+03  0.00000000000E+00 0.  1.
         11    1    5    5    0    0 -0.11597986436E+03  0.42217309941E+03 -0.23549246998E+03  0.49712992086E+03  0.00000000000E+00 0. -1.
        -11    1    5    5    0    0 -0.51427877243E+02  0.16572456057E+03 -0.16504142296E+03  0.23947469141E+03  0.00000000000E+00 0.  1.
          2    1    6    6  503    0 -0.25641813281E+02 -0.18629599181E+03  0.13264074762E+03  0.23012445998E+03  0.00000000000E+00 0. -1.
         -2    1    6    6    0  503  0.31199092656E+02 -0.38722898080E+02  0.92537305396E+01  0.50581397244E+02  0.00000000000E+00 0.  1.
<mgrwt>
<rscale>  0 0.14084009E+04</rscale>
<asrwt>0</asrwt>
<pdfrwt beam="1">  1        1 0.75055952E-01 0.14084009E+04</pdfrwt>
<pdfrwt beam="2">  1       -2 0.15637984E+00 0.14084009E+04</pdfrwt>
<totfact> 0.10462194E+01</totfact>
</mgrwt>
</event>
<event>
12    4  0.4424320E-008  0.2228511E+04  0.7818608E-02  0.8506654E-01
          1   -1    0    0  501    0  0.00000000000E+00  0.00000000000E+00  0.14469194409E+04  0.14469194409E+04  0.00000000000E+00 0. -1.
         -2   -1    0    0    0  501 -0.00000000000E+00 -0.00000000000E+00 -0.85807473682E+03  0.85807473682E+03  0.00000000000E+00 0.  1.
        -24    2    1    2    0    0 -0.69501888272E+03 -0.54399519921E+03  0.55104925999E+03  0.10433694176E+04  0.77346173140E+02 0.  0.
        254    2    1    2    0    0  0.69501888272E+03  0.54399519921E+03  0.37795444132E+02  0.12616247602E+04  0.90071444743E+03 0.  0.
         23    2    4    4    0    0  0.72895293285E+03  0.73312656993E+03 -0.30448245314E+02  0.10380281651E+04  0.87911489652E+02 0.  0.
         23    2    4    4    0    0 -0.33934050126E+02 -0.18913137071E+03  0.68243689446E+02  0.22359659510E+03  0.91738983244E+02 0.  0.
          1    1    3    3  502    0 -0.56275032859E+03 -0.44160246642E+03  0.48108028268E+03  0.86205504990E+03  0.00000000000E+00 0. -1.
         -2    1    3    3    0  502 -0.13226855414E+03 -0.10239273279E+03  0.69968977309E+02  0.18131436768E+03  0.00000000000E+00 0.  1.
         11    1    5    5    0    0  0.37681815389E+03  0.38146978854E+03 -0.59696728252E+02  0.53951350311E+03  0.00000000000E+00 0.  1.
        -11    1    5    5    0    0  0.35213477895E+03  0.35165678139E+03  0.29248482938E+02  0.49851466197E+03  0.00000000000E+00 0. -1.
          3    1    6    6  503    0 -0.44527307439E+01 -0.17119210971E+03  0.33248939928E+02  0.17444786397E+03  0.00000000000E+00 0.  1.
         -3    1    6    6    0  503 -0.29481319382E+02 -0.17939261002E+02  0.34994749518E+02  0.49148731130E+02  0.00000000000E+00 0. -1.
<mgrwt>
<rscale>  0 0.22285107E+04</rscale>
<asrwt>0</asrwt>
<pdfrwt beam="1">  1        1 0.22260299E+00 0.22285107E+04</pdfrwt>
<pdfrwt beam="2">  1       -2 0.13201150E+00 0.22285107E+04</pdfrwt>
<totfact> 0.23752499E+00</totfact>
</mgrwt>
</event>
<event>
12    4  0.4424320E-008  0.1543050E+04  0.7818608E-02  0.8856319E-01
          1   -1    0    0  501    0  0.00000000000E+00  0.00000000000E+00  0.47827981611E+03  0.47827981611E+03  0.00000000000E+00 0. -1.
         -2   -1    0    0    0  501 -0.00000000000E+00 -0.00000000000E+00 -0.12445661486E+04  0.12445661486E+04  0.00000000000E+00 0.  1.
        -24    2    1    2    0    0  0.29269244954E+03 -0.29727983372E+02 -0.71195569354E+03  0.77443683564E+03  0.79491382063E+02 0.  0.
        254    2    1    2    0    0 -0.29269244954E+03  0.29727983372E+02 -0.54330638914E+02  0.94840912904E+03  0.89998635251E+03 0.  0.
         23    2    4    4    0    0 -0.66706466294E+01  0.43406284680E+03 -0.25101506740E+02  0.44402577235E+03  0.89854039298E+02 0.  0.
         23    2    4    4    0    0 -0.28602180291E+03 -0.40433486342E+03 -0.29229132174E+02  0.50438335669E+03  0.90846435343E+02 0.  0.
          1    1    3    3  502    0 -0.52170093880E+01  0.35714014543E+00 -0.99199534306E+01  0.11213840203E+02  0.00000000000E+00 0. -1.
         -2    1    3    3    0  502  0.29790945893E+03 -0.30085123517E+02 -0.70203574011E+03  0.76322299544E+03  0.00000000000E+00 0.  1.
         11    1    5    5    0    0 -0.46699023871E+02  0.22426751161E+03 -0.25071999655E+02  0.23044591722E+03  0.00000000000E+00 0.  1.
        -11    1    5    5    0    0  0.40028377241E+02  0.20979533518E+03 -0.29507085187E-01  0.21357985514E+03  0.00000000000E+00 0. -1.
          1    1    6    6  503    0 -0.25223661015E+03 -0.39449802933E+03 -0.24564532198E+02  0.46888742667E+03  0.00000000000E+00 0. -1.
         -1    1    6    6    0  503 -0.33785192759E+02 -0.98368340907E+01 -0.46645999761E+01  0.35495930015E+02  0.00000000000E+00 0.  1.
<mgrwt>
<rscale>  0 0.15430501E+04</rscale>
<asrwt>0</asrwt>
<pdfrwt beam="1">  1        1 0.73581511E-01 0.15430501E+04</pdfrwt>
<pdfrwt beam="2">  1       -2 0.19147171E+00 0.15430501E+04</pdfrwt>
<totfact> 0.60128798E+00</totfact>
</mgrwt>
</event>
<event>
12    4  0.4424320E-008  0.1270951E+04  0.7818608E-02  0.9052924E-01
         -2   -1    0    0    0  501 -0.00000000000E+00  0.00000000000E+00  0.26518444589E+03  0.26518444589E+03  0.00000000000E+00 0.  1.
          1   -1    0    0  501    0  0.00000000000E+00 -0.00000000000E+00 -0.15228229615E+04  0.15228229615E+04  0.00000000000E+00 0. -1.
        -24    2    1    2    0    0  0.75659956352E+02  0.82591222489E+02  0.89022682872E+02  0.16285033252E+03  0.77778234159E+02 0.  0.
        254    2    1    2    0    0 -0.75659956352E+02 -0.82591222489E+02 -0.13466611985E+04  0.16251570749E+04  0.90282522977E+03 0.  0.
         23    2    4    4    0    0  0.30164174599E+03 -0.25233509809E+03 -0.99464203172E+03  0.10734856356E+04  0.91640023109E+02 0.  0.
         23    2    4    4    0    0 -0.37730170234E+03  0.16974387560E+03 -0.35201916679E+03  0.55167143934E+03  0.96199403854E+02 0.  0.
          1    1    3    3  502    0  0.92136536027E+01  0.25258515530E+01 -0.13659042723E+02  0.16668556833E+02  0.00000000000E+00 0. -1.
         -2    1    3    3    0  502  0.66446302749E+02  0.80065370936E+02  0.10268172559E+03  0.14618177569E+03  0.00000000000E+00 0.  1.
         11    1    5    5    0    0  0.33105940396E+02 -0.16372618954E+02 -0.41724092255E+02  0.55722220123E+02  0.00000000000E+00 0.  1.
        -11    1    5    5    0    0  0.26853580559E+03 -0.23596247914E+03 -0.95291793947E+03  0.10177634154E+04  0.00000000000E+00 0. -1.
          2    1    6    6  503    0 -0.34115748604E+03  0.13209062930E+03 -0.33690320581E+03  0.49733302194E+03  0.00000000000E+00 0. -1.
         -2    1    6    6    0  503 -0.36144216302E+02  0.37653246302E+02 -0.15115960986E+02  0.54338417401E+02  0.00000000000E+00 0.  1.
<mgrwt>
<rscale>  0 0.12709508E+04</rscale>
<asrwt>0</asrwt>
<pdfrwt beam="1">  1        1 0.23428046E+00 0.12709508E+04</pdfrwt>
<pdfrwt beam="2">  1       -2 0.40797607E-01 0.12709508E+04</pdfrwt>
<totfact> 0.31004194E+01</totfact>
</mgrwt>
</event>
<event>
12    4  0.4424320E-008  0.1750746E+04  0.7818608E-02  0.8732940E-01
          1   -1    0    0  501    0  0.00000000000E+00  0.00000000000E+00  0.14553222899E+04  0.14553222899E+04  0.00000000000E+00 0. -1.
         -2   -1    0    0    0  501 -0.00000000000E+00 -0.00000000000E+00 -0.52653459074E+03  0.52653459074E+03  0.00000000000E+00 0.  1.
        -24    2    1    2    0    0  0.50112378002E+03 -0.32180078524E+03  0.83454563230E+02  0.60629410828E+03  0.77117399718E+02 0.  0.
        254    2    1    2    0    0 -0.50112378002E+03  0.32180078524E+03  0.84533313595E+03  0.13755627724E+04  0.90714058541E+03 0.  0.
         23    2    4    4    0    0 -0.96427119397E+02  0.49013873675E+03  0.11907328695E+03  0.52201211321E+03  0.93723145768E+02 0.  0.
         23    2    4    4    0    0 -0.40469666062E+03 -0.16833795151E+03  0.72625984900E+03  0.85355065916E+03  0.94753925773E+02 0.  0.
          1    1    3    3  502    0  0.28029828894E+03 -0.17903728492E+03  0.78683717488E+01  0.33269113521E+03  0.00000000000E+00 0. -1.
         -2    1    3    3    0  502  0.22082549108E+03 -0.14276350032E+03  0.75586191481E+02  0.27360297308E+03  0.00000000000E+00 0.  1.
         11    1    5    5    0    0 -0.11303789395E+03  0.41491652629E+03  0.11356418975E+03  0.44478097357E+03  0.00000000000E+00 0. -1.
        -11    1    5    5    0    0  0.16610774553E+02  0.75222210456E+02  0.55090972026E+01  0.77231139634E+02  0.00000000000E+00 0.  1.
          3    1    6    6  503    0 -0.32672121574E+03 -0.16082998100E+03  0.53816954535E+03  0.64979958075E+03  0.00000000000E+00 0. -1.
         -3    1    6    6    0  503 -0.77975444879E+02 -0.75079705060E+01  0.18809030365E+03  0.20375107841E+03  0.00000000000E+00 0.  1.
<mgrwt>
<rscale>  0 0.17507456E+04</rscale>
<asrwt>0</asrwt>
<pdfrwt beam="1">  1        1 0.22389574E+00 0.17507456E+04</pdfrwt>
<pdfrwt beam="2">  1       -2 0.81005322E-01 0.17507456E+04</pdfrwt>
<totfact> 0.78523382E+00</totfact>
</mgrwt>
</event>
<event>
12    4  0.4424320E-008  0.1661676E+04  0.7818608E-02  0.8783529E-01
         -2   -1    0    0    0  501 -0.00000000000E+00  0.00000000000E+00  0.33816291637E+03  0.33816291637E+03  0.00000000000E+00 0.  1.
          1   -1    0    0  501    0  0.00000000000E+00 -0.00000000000E+00 -0.20412986929E+04  0.20412986929E+04  0.00000000000E+00 0. -1.
        -24    2    1    2    0    0  0.28837469172E+02 -0.18126829276E+03  0.18724444946E+03  0.27434843812E+03  0.80726625457E+02 0.  0.
        254    2    1    2    0    0 -0.28837469172E+02  0.18126829276E+03 -0.18903802259E+04  0.21051131711E+04  0.90789551763E+03 0.  0.
         23    2    4    4    0    0  0.92069603441E+02  0.48642871982E+03 -0.15230413851E+04  0.16042024054E+04  0.93384074727E+02 0.  0.
         23    2    4    4    0    0 -0.12090707261E+03 -0.30516042706E+03 -0.36733884083E+03  0.50091076569E+03  0.90732379857E+02 0.  0.
          1    1    3    3  502    0  0.14418620401E+01 -0.15441899411E+03  0.11496413563E+03  0.19252027735E+03  0.00000000000E+00 0. -1.
         -2    1    3    3    0  502  0.27395607132E+02 -0.26849298645E+02  0.72280313833E+02  0.81828160774E+02  0.00000000000E+00 0.  1.
         11    1    5    5    0    0  0.67358068602E+02  0.46616505899E+03 -0.14466760497E+04  0.15214199172E+04  0.00000000000E+00 0.  1.
        -11    1    5    5    0    0  0.24711534839E+02  0.20263660833E+02 -0.76365335453E+02  0.82782488265E+02  0.00000000000E+00 0. -1.
          3    1    6    6  503    0 -0.29250797595E+02 -0.10122298792E+02 -0.42952887500E+02  0.52943560867E+02  0.00000000000E+00 0. -1.
         -3    1    6    6    0  503 -0.91656275018E+02 -0.29503812827E+03 -0.32438595333E+03  0.44796720483E+03  0.00000000000E+00 0.  1.
<mgrwt>
<rscale>  0 0.16616757E+04</rscale>
<asrwt>0</asrwt>
<pdfrwt beam="1">  1        1 0.31404596E+00 0.16616757E+04</pdfrwt>
<pdfrwt beam="2">  1       -2 0.52025064E-01 0.16616757E+04</pdfrwt>
<totfact> 0.81714630E+00</totfact>
</mgrwt>
</event>
<event>
12    4  0.4424320E-008  0.1364555E+04  0.7818608E-02  0.8979883E-01
         -2   -1    0    0    0  501 -0.00000000000E+00  0.00000000000E+00  0.15767832464E+03  0.15767832464E+03  0.00000000000E+00 0.  1.
          1   -1    0    0  501    0  0.00000000000E+00 -0.00000000000E+00 -0.29522304986E+04  0.29522304986E+04  0.00000000000E+00 0. -1.
        -24    2    1    2    0    0  0.31156664245E+03  0.20725181098E+03 -0.95900825298E+03  0.10327120001E+04  0.82280982105E+02 0.  0.
        254    2    1    2    0    0 -0.31156664245E+03 -0.20725181098E+03 -0.18355439210E+04  0.20771968231E+04  0.89749544308E+03 0.  0.
         23    2    4    4    0    0  0.24966876079E+03 -0.17837621624E+03 -0.29740996463E+03  0.43700553649E+03  0.91479982655E+02 0.  0.
         23    2    4    4    0    0 -0.56123540324E+03 -0.28875594742E+02 -0.15381339564E+04  0.16401912867E+04  0.92479247838E+02 0.  0.
          1    1    3    3  502    0  0.11796988197E+02  0.95930036032E+01 -0.10782478227E+03  0.10889158976E+03  0.00000000000E+00 0. -1.
         -2    1    3    3    0  502  0.29976965425E+03  0.19765880738E+03 -0.85118347070E+03  0.92382041033E+03  0.00000000000E+00 0.  1.
         11    1    5    5    0    0  0.19136671310E+03 -0.88904873985E+02 -0.17155858407E+03  0.27195154582E+03  0.00000000000E+00 0. -1.
        -11    1    5    5    0    0  0.58302047687E+02 -0.89471342255E+02 -0.12585138055E+03  0.16505399067E+03  0.00000000000E+00 0.  1.
          1    1    6    6  503    0 -0.40820776271E+03 -0.52976775892E+02 -0.10389728423E+04  0.11175440409E+04  0.00000000000E+00 0. -1.
         -1    1    6    6    0  503 -0.15302764053E+03  0.24101181150E+02 -0.49916111409E+03  0.52264724577E+03  0.00000000000E+00 0.  1.
<mgrwt>
<rscale>  0 0.13645553E+04</rscale>
<asrwt>0</asrwt>
<pdfrwt beam="1">  1        1 0.45418926E+00 0.13645553E+04</pdfrwt>
<pdfrwt beam="2">  1       -2 0.24258206E-01 0.13645553E+04</pdfrwt>
<totfact> 0.84917953E+00</totfact>
</mgrwt>
</event>
<event>
12    4  0.4424320E-008  0.3893989E+04  0.7818608E-02  0.8026281E-01
         -2   -1    0    0    0  501 -0.00000000000E+00  0.00000000000E+00  0.12420454400E+04  0.12420454400E+04  0.00000000000E+00 0.  1.
          1   -1    0    0  501    0  0.00000000000E+00 -0.00000000000E+00 -0.30520524588E+04  0.30520524588E+04  0.00000000000E+00 0. -1.
        -24    2    1    2    0    0 -0.14213535065E+04 -0.14064346673E+02  0.43489746018E+03  0.14885320326E+04  0.78410552854E+02 0.  0.
        254    2    1    2    0    0  0.14213535065E+04  0.14064346673E+02 -0.22449044790E+04  0.28055658662E+04  0.90064427691E+03 0.  0.
         23    2    4    4    0    0  0.43750193061E+03  0.37983396855E+03 -0.51844901902E+03  0.78288147056E+03  0.91827167421E+02 0.  0.
         23    2    4    4    0    0  0.98385157590E+03 -0.36576962188E+03 -0.17264554600E+04  0.20226843956E+04  0.94087031201E+02 0.  0.
          3    1    3    3  502    0 -0.73666072999E+03  0.25600274583E+02  0.20301016895E+03  0.76455054370E+03  0.00000000000E+00 0. -1.
         -4    1    3    3    0  502 -0.68469277652E+03 -0.39664621256E+02  0.23188729123E+03  0.72398148887E+03  0.00000000000E+00 0.  1.
         11    1    5    5    0    0  0.25207098170E+03  0.17861423754E+03 -0.32051394255E+03  0.44516515254E+03  0.00000000000E+00 0.  1.
        -11    1    5    5    0    0  0.18543094891E+03  0.20121973101E+03 -0.19793507646E+03  0.33771631802E+03  0.00000000000E+00 0. -1.
          2    1    6    6  503    0  0.82067303838E+03 -0.26658663362E+03 -0.14167954753E+04  0.16588797690E+04  0.00000000000E+00 0. -1.
         -2    1    6    6    0  503  0.16317853751E+03 -0.99182988259E+02 -0.30965998465E+03  0.36380462663E+03  0.00000000000E+00 0.  1.
<mgrwt>
<rscale>  0 0.38939891E+04</rscale>
<asrwt>0</asrwt>
<pdfrwt beam="1">  1        1 0.46954652E+00 0.38939891E+04</pdfrwt>
<pdfrwt beam="2">  1       -2 0.19108392E+00 0.38939891E+04</pdfrwt>
<totfact> 0.57981441E-02</totfact>
</mgrwt>
</event>
<event>
12    4  0.4424320E-008  0.1310724E+04  0.7818608E-02  0.9021104E-01
         -2   -1    0    0    0  501 -0.00000000000E+00  0.00000000000E+00  0.54423353878E+03  0.54423353878E+03  0.00000000000E+00 0.  1.
          1   -1    0    0  501    0  0.00000000000E+00 -0.00000000000E+00 -0.78918226731E+03  0.78918226731E+03  0.00000000000E+00 0. -1.
        -24    2    1    2    0    0 -0.86627426600E+02  0.32320955173E+03 -0.17668699219E+00  0.34516209783E+03  0.84664734048E+02 0.  0.
        254    2    1    2    0    0  0.86627426600E+02 -0.32320955173E+03 -0.24477204154E+03  0.98825370826E+03  0.89708601271E+03 0.  0.
         23    2    4    4    0    0 -0.94564104836E+02 -0.17645853153E+01 -0.50820473162E+03  0.52518034275E+03  0.92719250843E+02 0.  0.
         23    2    4    4    0    0  0.18119153144E+03 -0.32144496642E+03  0.26343269008E+03  0.46307336551E+03  0.94249255412E+02 0.  0.
          3    1    3    3  502    0 -0.18183934702E+02  0.49720281094E+01  0.53667959619E+01  0.19600485802E+02  0.00000000000E+00 0. -1.
         -4    1    3    3    0  502 -0.68443491898E+02  0.31823752362E+03 -0.55434829541E+01  0.32556161203E+03  0.00000000000E+00 0.  1.
         11    1    5    5    0    0 -0.48243222001E+02  0.12249918090E+02 -0.43233032325E+03  0.43518614106E+03  0.00000000000E+00 0. -1.
        -11    1    5    5    0    0 -0.46320882835E+02 -0.14014503405E+02 -0.75874408369E+02  0.89994201689E+02  0.00000000000E+00 0.  1.
          3    1    6    6  503    0  0.18490651515E+03 -0.31369208752E+03  0.26909860228E+03  0.45277721108E+03  0.00000000000E+00 0. -1.
         -3    1    6    6    0  503 -0.37149837177E+01 -0.77528788951E+01 -0.56659121981E+01  0.10296154438E+02  0.00000000000E+00 0.  1.
<mgrwt>
<rscale>  0 0.13107242E+04</rscale>
<asrwt>0</asrwt>
<pdfrwt beam="1">  1        1 0.12141266E+00 0.13107242E+04</pdfrwt>
<pdfrwt beam="2">  1       -2 0.83728237E-01 0.13107242E+04</pdfrwt>
<totfact> 0.24238893E+01</totfact>
</mgrwt>
</event>
<event>
12    4  0.4424320E-008  0.1698369E+04  0.7818608E-02  0.8762295E-01
         -2   -1    0    0    0  501 -0.00000000000E+00  0.00000000000E+00  0.81231857557E+03  0.81231857557E+03  0.00000000000E+00 0.  1.
          1   -1    0    0  501    0  0.00000000000E+00 -0.00000000000E+00 -0.88772400086E+03  0.88772400086E+03  0.00000000000E+00 0. -1.
        -24    2    1    2    0    0 -0.25027081199E+03 -0.87828874029E+02  0.53524249259E+03  0.60366729914E+03  0.87064870822E+02 0.  0.
        254    2    1    2    0    0  0.25027081199E+03  0.87828874029E+02 -0.61064791788E+03  0.10963752773E+04  0.87109039633E+03 0.  0.
         23    2    4    4    0    0  0.51927917945E+03 -0.12066893288E+03 -0.47782529425E+03  0.72133650463E+03  0.88303360721E+02 0.  0.
         23    2    4    4    0    0 -0.26900836746E+03  0.20849780691E+03 -0.13282262363E+03  0.37503877265E+03  0.84707699745E+02 0.  0.
          3    1    3    3  502    0 -0.22001169511E+03 -0.55072108491E+02  0.38387683854E+03  0.44586938703E+03  0.00000000000E+00 0. -1.
         -4    1    3    3    0  502 -0.30259116887E+02 -0.32756765538E+02  0.15136565405E+03  0.15779791212E+03  0.00000000000E+00 0.  1.
         11    1    5    5    0    0  0.10713721027E+03  0.89475069586E+01 -0.79716052739E+02  0.13383978769E+03  0.00000000000E+00 0.  1.
        -11    1    5    5    0    0  0.41214196918E+03 -0.12961643984E+03 -0.39810924151E+03  0.58749671694E+03  0.00000000000E+00 0. -1.
          3    1    6    6  503    0 -0.16483159759E+03  0.14586943912E+03 -0.43926831763E+02  0.22444802379E+03  0.00000000000E+00 0. -1.
         -3    1    6    6    0  503 -0.10417676986E+03  0.62628367790E+02 -0.88895791865E+02  0.15059074886E+03  0.00000000000E+00 0.  1.
<mgrwt>
<rscale>  0 0.16983694E+04</rscale>
<asrwt>0</asrwt>
<pdfrwt beam="1">  1        1 0.13657292E+00 0.16983694E+04</pdfrwt>
<pdfrwt beam="2">  1       -2 0.12497209E+00 0.16983694E+04</pdfrwt>
<totfact> 0.74513910E+00</totfact>
</mgrwt>
</event>
<event>
12    4  0.4424320E-008  0.1069868E+04  0.7818608E-02  0.9235069E-01
          1   -1    0    0  501    0  0.00000000000E+00  0.00000000000E+00  0.33520637074E+03  0.33520637074E+03  0.00000000000E+00 0. -1.
         -2   -1    0    0    0  501 -0.00000000000E+00 -0.00000000000E+00 -0.85366553001E+03  0.85366553001E+03  0.00000000000E+00 0.  1.
        -24    2    1    2    0    0  0.13985432356E+03 -0.13714412376E+03 -0.99251569828E+01  0.21158755111E+03  0.79391690643E+02 0.  0.
        254    2    1    2    0    0 -0.13985432356E+03  0.13714412376E+03 -0.50853400229E+03  0.97728434964E+03  0.81123986963E+03 0.  0.
         23    2    4    4    0    0  0.12452678471E+03  0.72145103709E+02  0.17051783542E+03  0.24003637098E+03  0.88483281463E+02 0.  0.
         23    2    4    4    0    0 -0.26438110827E+03  0.64999020049E+02 -0.67905183771E+03  0.73724797866E+03  0.91109498537E+02 0.  0.
          3    1    3    3  502    0  0.13159392046E+03 -0.14731847378E+03 -0.13525646156E+02  0.19799655483E+03  0.00000000000E+00 0. -1.
         -4    1    3    3    0  502  0.82604030989E+01  0.10174350020E+02  0.36004891729E+01  0.13590996283E+02  0.00000000000E+00 0.  1.
         11    1    5    5    0    0  0.96573072290E+02  0.25761867051E+02  0.15368001723E+03  0.18332370218E+03  0.00000000000E+00 0.  1.
        -11    1    5    5    0    0  0.27953712417E+02  0.46383236658E+02  0.16837818187E+02  0.56712668797E+02  0.00000000000E+00 0. -1.
          2    1    6    6  503    0 -0.27809066452E+02 -0.14242205735E+02 -0.37008080865E+02  0.48433280402E+02  0.00000000000E+00 0. -1.
         -2    1    6    6    0  503 -0.23657204181E+03  0.79241225784E+02 -0.64204375685E+03  0.68881469826E+03  0.00000000000E+00 0.  1.
<mgrwt>
<rscale>  0 0.10698675E+04</rscale>
<asrwt>0</asrwt>
<pdfrwt beam="1">  1        1 0.51570211E-01 0.10698675E+04</pdfrwt>
<pdfrwt beam="2">  1       -2 0.13133316E+00 0.10698675E+04</pdfrwt>
<totfact> 0.27942474E+01</totfact>
</mgrwt>
</event>
<event>
12    4  0.4424320E-008  0.1321474E+04  0.7818608E-02  0.9012707E-01
          3   -1    0    0  501    0  0.00000000000E+00  0.00000000000E+00  0.11126580232E+04  0.11126580232E+04  0.00000000000E+00 0. -1.
         -4   -1    0    0    0  501 -0.00000000000E+00 -0.00000000000E+00 -0.39236989749E+03  0.39236989749E+03  0.00000000000E+00 0.  1.
        -24    2    1    2    0    0  0.76338662304E+02  0.27483872654E+03 -0.30866867962E+02  0.29788963447E+03  0.80134598128E+02 0.  0.
        254    2    1    2    0    0 -0.76338662304E+02 -0.27483872654E+03  0.75115499366E+03  0.12071382862E+04  0.90088018103E+03 0.  0.
         23    2    4    4    0    0  0.13754621723E+03  0.82905661208E+02  0.75833529163E+03  0.78051983453E+03  0.91359110280E+02 0.  0.
         23    2    4    4    0    0 -0.21388487953E+03 -0.35774438775E+03 -0.71802979738E+01  0.42661845168E+03  0.90686040704E+02 0.  0.
          1    1    3    3  502    0  0.11610051077E+01  0.14216046062E+02  0.17274406343E+02  0.22401986809E+02  0.00000000000E+00 0. -1.
         -2    1    3    3    0  502  0.75177657196E+02  0.26062268048E+03 -0.48141274304E+02  0.27548764766E+03  0.00000000000E+00 0.  1.
         11    1    5    5    0    0  0.69823348366E+02  0.52877766457E+02  0.21497587375E+03  0.23213354876E+03  0.00000000000E+00 0. -1.
        -11    1    5    5    0    0  0.67722868864E+02  0.30027894751E+02  0.54335941788E+03  0.54838628577E+03  0.00000000000E+00 0.  1.
          1    1    6    6  503    0 -0.67618267587E+02 -0.12132925859E+03  0.40214610729E+02  0.14460371371E+03  0.00000000000E+00 0. -1.
         -1    1    6    6    0  503 -0.14626661195E+03 -0.23641512916E+03 -0.47394908702E+02  0.28201473798E+03  0.00000000000E+00 0.  1.
<mgrwt>
<rscale>  0 0.13214742E+04</rscale>
<asrwt>0</asrwt>
<pdfrwt beam="1">  1        3 0.17117816E+00 0.13214742E+04</pdfrwt>
<pdfrwt beam="2">  1       -4 0.60364600E-01 0.13214742E+04</pdfrwt>
<totfact> 0.13226915E+00</totfact>
</mgrwt>
</event>
<event>
12    4  0.4424320E-008  0.2734371E+04  0.7818608E-02  0.8323938E-01
         -2   -1    0    0    0  501 -0.00000000000E+00  0.00000000000E+00  0.13129987356E+04  0.13129987356E+04  0.00000000000E+00 0.  1.
          1   -1    0    0  501    0  0.00000000000E+00 -0.00000000000E+00 -0.14236086475E+04  0.14236086475E+04  0.00000000000E+00 0. -1.
        -24    2    1    2    0    0 -0.76670316486E+03 -0.61283174932E+03  0.66504264012E+03  0.11883030057E+04  0.79911352023E+02 0.  0.
        254    2    1    2    0    0  0.76670316486E+03  0.61283174932E+03 -0.77565255201E+03  0.15483043774E+04  0.91225712811E+03 0.  0.
         23    2    4    4    0    0  0.14732287597E+03  0.68800979278E+03 -0.42443946963E+03  0.82659546153E+03  0.89720058532E+02 0.  0.
         23    2    4    4    0    0  0.61938028889E+03 -0.75178043454E+02 -0.35121308238E+03  0.72170891591E+03  0.90716313769E+02 0.  0.
          3    1    3    3  502    0 -0.17507118099E+03 -0.10890541743E+03  0.11383883880E+03  0.23551982842E+03  0.00000000000E+00 0. -1.
         -4    1    3    3    0  502 -0.59163198387E+03 -0.50392633189E+03  0.55120380132E+03  0.95278317727E+03  0.00000000000E+00 0.  1.
         11    1    5    5    0    0  0.43781551279E+02  0.38290529161E+03 -0.20253241102E+03  0.43537646248E+03  0.00000000000E+00 0. -1.
        -11    1    5    5    0    0  0.10354132469E+03  0.30510450117E+03 -0.22190705862E+03  0.39121899905E+03  0.00000000000E+00 0.  1.
          3    1    6    6  503    0  0.60952046240E+03 -0.84067278619E+02 -0.33441045819E+03  0.70029483503E+03  0.00000000000E+00 0. -1.
         -3    1    6    6    0  503  0.98598264892E+01  0.88892351654E+01 -0.16802624195E+02  0.21414080883E+02  0.00000000000E+00 0.  1.
<mgrwt>
<rscale>  0 0.27343711E+04</rscale>
<asrwt>0</asrwt>
<pdfrwt beam="1">  1        1 0.21901671E+00 0.27343711E+04</pdfrwt>
<pdfrwt beam="2">  1       -2 0.20199981E+00 0.27343711E+04</pdfrwt>
<totfact> 0.72950780E-01</totfact>
</mgrwt>
</event>
<event>
12    4  0.4424320E-008  0.1819268E+04  0.7818608E-02  0.8696120E-01
         -2   -1    0    0    0  501 -0.00000000000E+00  0.00000000000E+00  0.10050447393E+04  0.10050447393E+04  0.00000000000E+00 0.  1.
          1   -1    0    0  501    0  0.00000000000E+00 -0.00000000000E+00 -0.82328068601E+03  0.82328068601E+03  0.00000000000E+00 0. -1.
        -24    2    1    2    0    0  0.38403558302E+03 -0.50136546462E+03 -0.20721034059E+03  0.66946584631E+03  0.79985848701E+02 0.  0.
        254    2    1    2    0    0 -0.38403558302E+03  0.50136546462E+03  0.38897439392E+03  0.11588595790E+04  0.89039529800E+03 0.  0.
         23    2    4    4    0    0 -0.28005217948E+03  0.70354713399E+00 -0.21295659774E+03  0.36379379072E+03  0.92551020730E+02 0.  0.
         23    2    4    4    0    0 -0.10398340354E+03  0.50066191748E+03  0.60193099166E+03  0.79506578833E+03  0.91289567981E+02 0.  0.
          1    1    3    3  502    0  0.32672455368E+03 -0.45941166756E+03 -0.16754701356E+03  0.58811564851E+03  0.00000000000E+00 0. -1.
         -2    1    3    3    0  502  0.57311029338E+02 -0.41953797059E+02 -0.39663327028E+02  0.81350197802E+02  0.00000000000E+00 0.  1.
         11    1    5    5    0    0 -0.17602619093E+03 -0.43901154208E+02 -0.12251126992E+03  0.21890989583E+03  0.00000000000E+00 0. -1.
        -11    1    5    5    0    0 -0.10402598855E+03  0.44604701342E+02 -0.90445327818E+02  0.14488389489E+03  0.00000000000E+00 0.  1.
          3    1    6    6  503    0 -0.68636209001E+01  0.46122877061E+02  0.21173351829E+02  0.51212692840E+02  0.00000000000E+00 0. -1.
         -3    1    6    6    0  503 -0.97119782639E+02  0.45453904042E+03  0.58075763983E+03  0.74385309549E+03  0.00000000000E+00 0.  1.
<mgrwt>
<rscale>  0 0.18192679E+04</rscale>
<asrwt>0</asrwt>
<pdfrwt beam="1">  1        1 0.12665857E+00 0.18192679E+04</pdfrwt>
<pdfrwt beam="2">  1       -2 0.15462227E+00 0.18192679E+04</pdfrwt>
<totfact> 0.48118339E+00</totfact>
</mgrwt>
</event>
<event>
12    4  0.4424320E-008  0.2378357E+04  0.7818608E-02  0.8447651E-01
          1   -1    0    0  501    0  0.00000000000E+00  0.00000000000E+00  0.22910931988E+04  0.22910931988E+04  0.00000000000E+00 0. -1.
         -2   -1    0    0    0  501 -0.00000000000E+00 -0.00000000000E+00 -0.61723636996E+03  0.61723636996E+03  0.00000000000E+00 0.  1.
        -24    2    1    2    0    0  0.92420491908E+03 -0.38845461628E+03  0.58109374921E+03  0.11614122613E+04  0.78465113174E+02 0.  0.
        254    2    1    2    0    0 -0.92420491908E+03  0.38845461628E+03  0.10927630796E+04  0.17469173074E+04  0.92332941548E+03 0.  0.
         23    2    4    4    0    0 -0.15841270240E+02 -0.23598028960E+03  0.25167193424E+03  0.35743191265E+03  0.92093250420E+02 0.  0.
         23    2    4    4    0    0 -0.90836364884E+03  0.62443490587E+03  0.84109114538E+03  0.13894853948E+04  0.90508990180E+02 0.  0.
          3    1    3    3  502    0  0.91659831839E+03 -0.38217287566E+03  0.58270895542E+03  0.11514157854E+04  0.00000000000E+00 0. -1.
         -4    1    3    3    0  502  0.76066006924E+01 -0.62817406125E+01 -0.16152062137E+01  0.99964758955E+01  0.00000000000E+00 0.  1.
         11    1    5    5    0    0 -0.24850040988E+02 -0.75228274232E+02  0.32865086502E+02  0.85772557919E+02  0.00000000000E+00 0.  1.
        -11    1    5    5    0    0  0.90087707479E+01 -0.16075201536E+03  0.21880684774E+03  0.27165935473E+03  0.00000000000E+00 0. -1.
          1    1    6    6  503    0 -0.78074245503E+03  0.49643435302E+03  0.70807280858E+03  0.11650634962E+04  0.00000000000E+00 0. -1.
         -1    1    6    6    0  503 -0.12762119381E+03  0.12800055285E+03  0.13301833680E+03  0.22442189859E+03  0.00000000000E+00 0.  1.
<mgrwt>
<rscale>  0 0.23783575E+04</rscale>
<asrwt>0</asrwt>
<pdfrwt beam="1">  1        1 0.35247587E+00 0.23783575E+04</pdfrwt>
<pdfrwt beam="2">  1       -2 0.94959443E-01 0.23783575E+04</pdfrwt>
<totfact> 0.13892376E+00</totfact>
</mgrwt>
</event>
<event>
12    4  0.4424320E-008  0.1704693E+04  0.7818608E-02  0.8758692E-01
         -2   -1    0    0    0  501 -0.00000000000E+00  0.00000000000E+00  0.46861145782E+03  0.46861145782E+03  0.00000000000E+00 0.  1.
          1   -1    0    0  501    0  0.00000000000E+00 -0.00000000000E+00 -0.15503141040E+04  0.15503141040E+04  0.00000000000E+00 0. -1.
        -24    2    1    2    0    0  0.10871264197E+03 -0.25675042385E+03  0.24519877099E+03  0.38036597306E+03  0.82562809372E+02 0.  0.
        254    2    1    2    0    0 -0.10871264197E+03  0.25675042385E+03 -0.13269014172E+04  0.16385595888E+04  0.92003855155E+03 0.  0.
         23    2    4    4    0    0 -0.30863553091E+03 -0.17148329964E+03 -0.97883403068E+03  0.10444028431E+04  0.89436156433E+02 0.  0.
         23    2    4    4    0    0  0.19992288894E+03  0.42823372349E+03 -0.34806738650E+03  0.59415674566E+03  0.92293279325E+02 0.  0.
          1    1    3    3  502    0  0.71485439391E+01 -0.70840337817E+02  0.26728211962E+02  0.76051643356E+02  0.00000000000E+00 0. -1.
         -2    1    3    3    0  502  0.10156409803E+03 -0.18591008603E+03  0.21847055903E+03  0.30431432970E+03  0.00000000000E+00 0.  1.
         11    1    5    5    0    0 -0.41121028844E+02 -0.49070624818E+02 -0.11200678752E+03  0.12901312214E+03  0.00000000000E+00 0.  1.
        -11    1    5    5    0    0 -0.26751450206E+03 -0.12241267482E+03 -0.86682724316E+03  0.91538972096E+03  0.00000000000E+00 0. -1.
          1    1    6    6  503    0  0.14478713562E+03  0.30239331706E+03 -0.19248174647E+03  0.38659313958E+03  0.00000000000E+00 0. -1.
         -1    1    6    6    0  503  0.55135753311E+02  0.12584040643E+03 -0.15558564004E+03  0.20756360608E+03  0.00000000000E+00 0.  1.
<mgrwt>
<rscale>  0 0.17046935E+04</rscale>
<asrwt>0</asrwt>
<pdfrwt beam="1">  1        1 0.23850987E+00 0.17046935E+04</pdfrwt>
<pdfrwt beam="2">  1       -2 0.72094068E-01 0.17046935E+04</pdfrwt>
<totfact> 0.87824944E+00</totfact>
</mgrwt>
</event>
<event>
12    4  0.4424320E-008  0.1318835E+04  0.7818608E-02  0.9014761E-01
         -2   -1    0    0    0  501 -0.00000000000E+00  0.00000000000E+00  0.46085196814E+03  0.46085196814E+03  0.00000000000E+00 0.  1.
          1   -1    0    0  501    0  0.00000000000E+00 -0.00000000000E+00 -0.94353810355E+03  0.94353810355E+03  0.00000000000E+00 0. -1.
        -24    2    1    2    0    0  0.23686014786E+02  0.20177383554E+03 -0.44391705143E+03  0.49473777951E+03  0.80183626227E+02 0.  0.
        254    2    1    2    0    0 -0.23686014786E+02 -0.20177383554E+03 -0.38769083984E+02  0.90965229218E+03  0.88582760331E+03 0.  0.
         23    2    4    4    0    0  0.41849155344E+03 -0.14987537366E+03  0.42402241009E+01  0.45335050192E+03  0.88943185032E+02 0.  0.
         23    2    4    4    0    0 -0.44217756822E+03 -0.51898461884E+02 -0.43009308085E+02  0.45630179026E+03  0.90261126873E+02 0.  0.
          3    1    3    3  502    0  0.50286014160E+02  0.15055082429E+03 -0.35304338036E+03  0.38708379239E+03  0.00000000000E+00 0. -1.
         -4    1    3    3    0  502 -0.26599999374E+02  0.51223011250E+02 -0.90873671063E+02  0.10765398711E+03  0.00000000000E+00 0.  1.
         11    1    5    5    0    0  0.27919473990E+03 -0.13492671420E+03  0.27620836662E+02  0.31131628871E+03  0.00000000000E+00 0.  1.
        -11    1    5    5    0    0  0.13929681353E+03 -0.14948659459E+02 -0.23380612561E+02  0.14203421322E+03  0.00000000000E+00 0. -1.
          4    1    6    6  503    0 -0.40485367437E+03 -0.61153827172E+02 -0.16849303268E+02  0.40979285896E+03  0.00000000000E+00 0.  1.
         -4    1    6    6    0  503 -0.37323893849E+02  0.92553652874E+01 -0.26160004816E+02  0.46508931299E+02  0.00000000000E+00 0. -1.
<mgrwt>
<rscale>  0 0.13188349E+04</rscale>
<asrwt>0</asrwt>
<pdfrwt beam="1">  1        1 0.14515971E+00 0.13188349E+04</pdfrwt>
<pdfrwt beam="2">  1       -2 0.70900303E-01 0.13188349E+04</pdfrwt>
<totfact> 0.26078746E+01</totfact>
</mgrwt>
</event>
<event>
12    4  0.4424320E-008  0.1366768E+04  0.7818608E-02  0.8978231E-01
         -2   -1    0    0    0  501 -0.00000000000E+00  0.00000000000E+00  0.86933798229E+03  0.86933798229E+03  0.00000000000E+00 0.  1.
          1   -1    0    0  501    0  0.00000000000E+00 -0.00000000000E+00 -0.53720577177E+03  0.53720577177E+03  0.00000000000E+00 0. -1.
        -24    2    1    2    0    0  0.33730917217E+03 -0.16562582292E+03  0.22417067230E+02  0.38582585684E+03  0.84555757066E+02 0.  0.
        254    2    1    2    0    0 -0.33730917217E+03  0.16562582292E+03  0.30971514329E+03  0.10207178972E+04  0.89706865115E+03 0.  0.
         23    2    4    4    0    0  0.19167726719E+03 -0.14147913176E+03  0.30800495229E+03  0.40164322097E+03  0.98456624138E+02 0.  0.
         23    2    4    4    0    0 -0.52898643936E+03  0.30710495467E+03  0.17101910071E+01  0.61907467626E+03  0.95448540164E+02 0.  0.
          3    1    3    3  502    0  0.12612709903E+03 -0.10675329992E+03 -0.18639480465E+01  0.16525067763E+03  0.00000000000E+00 0. -1.
         -4    1    3    3    0  502  0.21118207314E+03 -0.58872522993E+02  0.24281015276E+02  0.22057517921E+03  0.00000000000E+00 0.  1.
         11    1    5    5    0    0  0.15423282968E+03 -0.65380375305E+02  0.24126947847E+03  0.29372320383E+03  0.00000000000E+00 0. -1.
        -11    1    5    5    0    0  0.37444437510E+02 -0.76098756450E+02  0.66735473814E+02  0.10792001714E+03  0.00000000000E+00 0.  1.
          1    1    6    6  503    0 -0.81669944921E+02  0.35196462295E+02  0.32527293708E+02  0.94693166054E+02  0.00000000000E+00 0.  1.
         -1    1    6    6    0  503 -0.44731649444E+03  0.27190849238E+03 -0.30817102701E+02  0.52438151020E+03  0.00000000000E+00 0. -1.
<mgrwt>
<rscale>  0 0.13667675E+04</rscale>
<asrwt>0</asrwt>
<pdfrwt beam="1">  1        1 0.82647042E-01 0.13667675E+04</pdfrwt>
<pdfrwt beam="2">  1       -2 0.13374431E+00 0.13667675E+04</pdfrwt>
<totfact> 0.13847222E+01</totfact>
</mgrwt>
</event>
<event>
12    4  0.4424320E-008  0.1457406E+04  0.7818608E-02  0.8913282E-01
         -2   -1    0    0    0  501 -0.00000000000E+00  0.00000000000E+00  0.80022823611E+03  0.80022823611E+03  0.00000000000E+00 0.  1.
          1   -1    0    0  501    0  0.00000000000E+00 -0.00000000000E+00 -0.66357060492E+03  0.66357060492E+03  0.00000000000E+00 0. -1.
        -24    2    1    2    0    0 -0.87299938858E+01 -0.21790815145E+02 -0.40421926255E+03  0.41267353223E+03  0.79719380108E+02 0.  0.
        254    2    1    2    0    0  0.87299938858E+01  0.21790815145E+02  0.54087689374E+03  0.10511253088E+04  0.90098032620E+03 0.  0.
         23    2    4    4    0    0 -0.25907466846E+03  0.11563382055E+03 -0.12372012844E+03  0.32248020346E+03  0.90531470501E+02 0.  0.
         23    2    4    4    0    0  0.26780466235E+03 -0.93843005400E+02  0.66459702217E+03  0.72864510534E+03  0.93320098657E+02 0.  0.
          3    1    3    3  502    0  0.31829855802E+02  0.55366568189E+01 -0.20551955917E+03  0.20804346539E+03  0.00000000000E+00 0. -1.
         -4    1    3    3    0  502 -0.40559849688E+02 -0.27327471964E+02 -0.19869970338E+03  0.20463006684E+03  0.00000000000E+00 0.  1.
         11    1    5    5    0    0 -0.22284005968E+03  0.13077705816E+03 -0.11083235942E+03  0.28114790241E+03  0.00000000000E+00 0. -1.
        -11    1    5    5    0    0 -0.36234608788E+02 -0.15143237618E+02 -0.12887769016E+02  0.41332301046E+02  0.00000000000E+00 0.  1.
          2    1    6    6  503    0  0.15366964510E+03 -0.53550420148E+02  0.48905599328E+03  0.51541999562E+03  0.00000000000E+00 0. -1.
         -2    1    6    6    0  503  0.11413501725E+03 -0.40292585252E+02  0.17554102890E+03  0.21322510972E+03  0.00000000000E+00 0.  1.
<mgrwt>
<rscale>  0 0.14574058E+04</rscale>
<asrwt>0</asrwt>
<pdfrwt beam="1">  1        1 0.10208779E+00 0.14574058E+04</pdfrwt>
<pdfrwt beam="2">  1       -2 0.12311204E+00 0.14574058E+04</pdfrwt>
<totfact> 0.12497409E+01</totfact>
</mgrwt>
</event>
<event>
12    4  0.4424320E-008  0.3479849E+04  0.7818608E-02  0.8118582E-01
          1   -1    0    0  501    0  0.00000000000E+00  0.00000000000E+00  0.16172714667E+04  0.16172714667E+04  0.00000000000E+00 0. -1.
         -4   -1    0    0    0  501 -0.00000000000E+00 -0.00000000000E+00 -0.18718796918E+04  0.18718796918E+04  0.00000000000E+00 0.  1.
        -24    2    1    2    0    0  0.96342173332E+03 -0.12452253944E+04  0.26604132884E+03  0.15987696151E+04  0.80737688034E+02 0.  0.
        254    2    1    2    0    0 -0.96342173332E+03  0.12452253944E+04 -0.52064955397E+03  0.18903815434E+04  0.90757848277E+03 0.  0.
         23    2    4    4    0    0 -0.19682391673E+02  0.65995075866E+03 -0.15641964555E+02  0.66699579333E+03  0.93361217194E+02 0.  0.
         23    2    4    4    0    0 -0.94373934165E+03  0.58527463575E+03 -0.50500758942E+03  0.12233857500E+04  0.91922161702E+02 0.  0.
          1    1    3    3  502    0  0.80227405913E+03 -0.10134114318E+04  0.19034851289E+03  0.13064757757E+04  0.00000000000E+00 0. -1.
         -2    1    3    3    0  502  0.16114767419E+03 -0.23181396262E+03  0.75692815951E+02  0.29229383939E+03  0.00000000000E+00 0.  1.
         11    1    5    5    0    0 -0.44049196557E+02  0.47995078027E+03  0.17821441047E+02  0.48229730142E+03  0.00000000000E+00 0.  1.
        -11    1    5    5    0    0  0.24366804884E+02  0.17999997839E+03 -0.33463405602E+02  0.18469849191E+03  0.00000000000E+00 0. -1.
          3    1    6    6  503    0 -0.27760203461E+03  0.17379229839E+03 -0.10361692660E+03  0.34351582216E+03  0.00000000000E+00 0. -1.
         -3    1    6    6    0  503 -0.66613730704E+03  0.41148233735E+03 -0.40139066282E+03  0.87986992788E+03  0.00000000000E+00 0.  1.
<mgrwt>
<rscale>  0 0.34798492E+04</rscale>
<asrwt>0</asrwt>
<pdfrwt beam="1">  1        1 0.24881100E+00 0.34798492E+04</pdfrwt>
<pdfrwt beam="2">  1       -4 0.28798149E+00 0.34798492E+04</pdfrwt>
<totfact> 0.78531967E-02</totfact>
</mgrwt>
</event>
<event>
12    4  0.4424320E-008  0.1304552E+04  0.7818608E-02  0.9025963E-01
          1   -1    0    0  501    0  0.00000000000E+00  0.00000000000E+00  0.85913676186E+03  0.85913676186E+03  0.00000000000E+00 0. -1.
         -2   -1    0    0    0  501 -0.00000000000E+00 -0.00000000000E+00 -0.49522292440E+03  0.49522292440E+03  0.00000000000E+00 0.  1.
        -24    2    1    2    0    0 -0.29092090530E+03  0.11104968345E+03 -0.32128751967E+02  0.32316139629E+03  0.80212380669E+02 0.  0.
        254    2    1    2    0    0  0.29092090530E+03 -0.11104968345E+03  0.39604258943E+03  0.10311982900E+04  0.89975172979E+03 0.  0.
         23    2    4    4    0    0 -0.15375504531E+03 -0.36614231550E+03  0.59134411239E+02  0.41150129209E+03  0.90197703076E+02 0.  0.
         23    2    4    4    0    0  0.44467595061E+03  0.25509263205E+03  0.33690817819E+03  0.61969699788E+03  0.87796905845E+02 0.  0.
          3    1    3    3  502    0 -0.26495759128E+03  0.10799198380E+03 -0.51377770873E+02  0.29069652403E+03  0.00000000000E+00 0. -1.
         -4    1    3    3    0  502 -0.25963314023E+02  0.30576996500E+01  0.19249018905E+02  0.32464872263E+02  0.00000000000E+00 0.  1.
         11    1    5    5    0    0  0.11306103934E+02 -0.41375185949E+02  0.46471618141E+01  0.43143135159E+02  0.00000000000E+00 0. -1.
        -11    1    5    5    0    0 -0.16506114924E+03 -0.32476712955E+03  0.54487249425E+02  0.36835815693E+03  0.00000000000E+00 0.  1.
          1    1    6    6  503    0  0.30717789598E+02  0.48530291985E+02  0.34682477929E+02  0.67094307607E+02  0.00000000000E+00 0. -1.
         -1    1    6    6    0  503  0.41395816101E+03  0.20656234007E+03  0.30222570026E+03  0.55260269027E+03  0.00000000000E+00 0.  1.
<mgrwt>
<rscale>  0 0.13045524E+04</rscale>
<asrwt>0</asrwt>
<pdfrwt beam="1">  1        1 0.13217489E+00 0.13045524E+04</pdfrwt>
<pdfrwt beam="2">  1       -2 0.76188142E-01 0.13045524E+04</pdfrwt>
<totfact> 0.26117127E+01</totfact>
</mgrwt>
</event>
<event>
12    4  0.4424320E-008  0.1356844E+04  0.7818608E-02  0.8985664E-01
          1   -1    0    0  501    0  0.00000000000E+00  0.00000000000E+00  0.29450942785E+04  0.29450942785E+04  0.00000000000E+00 0. -1.
         -2   -1    0    0    0  501 -0.00000000000E+00 -0.00000000000E+00 -0.15627889627E+03  0.15627889627E+03  0.00000000000E+00 0.  1.
        -24    2    1    2    0    0  0.27105292295E+03 -0.22329767459E+03  0.43374496618E+03  0.56354999820E+03  0.78245551113E+02 0.  0.
        254    2    1    2    0    0 -0.27105292295E+03  0.22329767459E+03  0.23550704160E+04  0.25378231766E+04  0.87798534867E+03 0.  0.
         23    2    4    4    0    0 -0.10359727154E+03 -0.28384783501E+03  0.40025019793E+03  0.50931672199E+03  0.88889337098E+02 0.  0.
         23    2    4    4    0    0 -0.16745565141E+03  0.50714550960E+03  0.19548202181E+04  0.20285064546E+04  0.90985647179E+02 0.  0.
          1    1    3    3  502    0  0.53555350628E+02 -0.23481764204E+02  0.11493972256E+03  0.12896010489E+03  0.00000000000E+00 0. -1.
         -2    1    3    3    0  502  0.21749757232E+03 -0.19981591038E+03  0.31880524363E+03  0.43458989331E+03  0.00000000000E+00 0.  1.
         11    1    5    5    0    0 -0.30953327868E+02 -0.15588259477E+03  0.14735513642E+03  0.21672800485E+03  0.00000000000E+00 0.  1.
        -11    1    5    5    0    0 -0.72643943672E+02 -0.12796524024E+03  0.25289506151E+03  0.29258871714E+03  0.00000000000E+00 0. -1.
          2    1    6    6  503    0 -0.26676998291E+02  0.17159331171E+03  0.51845476328E+03  0.54676436280E+03  0.00000000000E+00 0. -1.
         -2    1    6    6    0  503 -0.14077865312E+03  0.33555219789E+03  0.14363654548E+04  0.14817420918E+04  0.00000000000E+00 0.  1.
<mgrwt>
<rscale>  0 0.13568435E+04</rscale>
<asrwt>0</asrwt>
<pdfrwt beam="1">  1        1 0.45309139E+00 0.13568435E+04</pdfrwt>
<pdfrwt beam="2">  1       -2 0.24042909E-01 0.13568435E+04</pdfrwt>
<totfact> 0.87389517E+00</totfact>
</mgrwt>
</event>
<event>
12    4  0.4424320E-008  0.1373689E+04  0.7818608E-02  0.8973087E-01
          1   -1    0    0  501    0  0.00000000000E+00  0.00000000000E+00  0.16442320243E+04  0.16442320243E+04  0.00000000000E+00 0. -1.
         -2   -1    0    0    0  501 -0.00000000000E+00 -0.00000000000E+00 -0.28691541525E+03  0.28691541525E+03  0.00000000000E+00 0.  1.
        -24    2    1    2    0    0  0.33090349029E+02 -0.23353775384E+03  0.60250339738E+03  0.65188385230E+03  0.79418885465E+02 0.  0.
        254    2    1    2    0    0 -0.33090349029E+02  0.23353775384E+03  0.75481321171E+03  0.12792635873E+04  0.10055533241E+04 0.  0.
         23    2    4    4    0    0 -0.45997795413E+03 -0.10621204063E+03  0.37156556938E+03  0.60626871492E+03  0.81486603100E+02 0.  0.
         23    2    4    4    0    0  0.42688760510E+03  0.33974979447E+03  0.38324764233E+03  0.67299487237E+03  0.91544484604E+02 0.  0.
          3    1    3    3  502    0  0.27446922036E+02 -0.23919236850E+03  0.57911364423E+03  0.62716739042E+03  0.00000000000E+00 0. -1.
         -4    1    3    3    0  502  0.56434269930E+01  0.56546146636E+01  0.23389753152E+02  0.24716461877E+02  0.00000000000E+00 0.  1.
         11    1    5    5    0    0 -0.32349574664E+03 -0.10022516761E+03  0.22904768934E+03  0.40884890401E+03  0.00000000000E+00 0. -1.
        -11    1    5    5    0    0 -0.13648220749E+03 -0.59868730166E+01  0.14251788004E+03  0.19741981091E+03  0.00000000000E+00 0.  1.
          4    1    6    6  503    0  0.41918282154E+03  0.30826570916E+03  0.36702233870E+03  0.63674750288E+03  0.00000000000E+00 0. -1.
         -4    1    6    6    0  503  0.77047835582E+01  0.31484085307E+02  0.16225303630E+02  0.36247369493E+02  0.00000000000E+00 0.  1.
<mgrwt>
<rscale>  0 0.13736892E+04</rscale>
<asrwt>0</asrwt>
<pdfrwt beam="1">  1        1 0.25295877E+00 0.13736892E+04</pdfrwt>
<pdfrwt beam="2">  1       -2 0.44140834E-01 0.13736892E+04</pdfrwt>
<totfact> 0.21718712E+01</totfact>
</mgrwt>
</event>
<event>
12    4  0.6350749E-008  0.2517546E+04  0.7818608E-02  0.8396761E-01
          1   -1    0    0  501    0  0.00000000000E+00  0.00000000000E+00  0.26238740125E+04  0.26238740125E+04  0.00000000000E+00 0. -1.
         -2   -1    0    0    0  501 -0.00000000000E+00 -0.00000000000E+00 -0.60388174879E+03  0.60388174879E+03  0.00000000000E+00 0.  1.
        -24    2    1    2    0    0 -0.37398898642E+03 -0.19174383945E+02  0.22048560575E+04  0.22378164326E+04  0.78719329456E+02 0.  0.
        254    2    1    2    0    0  0.37398898642E+03  0.19174383945E+02 -0.18486379375E+03  0.98993932872E+03  0.89753542178E+03 0.  0.
         23    2    4    4    0    0  0.41253182469E+03  0.48170324178E+02 -0.50079161328E+03  0.65724113461E+03  0.93117036960E+02 0.  0.
         23    2    4    4    0    0 -0.38542838270E+02 -0.28995940232E+02  0.31592781954E+03  0.33269819412E+03  0.92473705881E+02 0.  0.
          1    1    3    3  502    0 -0.36983115114E+03 -0.15125142596E+02  0.20697818951E+04  0.21026176408E+04  0.00000000000E+00 0. -1.
         -2    1    3    3    0  502 -0.41578352860E+01 -0.40492413490E+01  0.13507416238E+03  0.13519879176E+03  0.00000000000E+00 0.  1.
         11    1    5    5    0    0  0.36825912146E+03  0.56387382847E+02 -0.48008155965E+03  0.60767805736E+03  0.00000000000E+00 0.  1.
        -11    1    5    5    0    0  0.44272703233E+02 -0.82170586692E+01 -0.20710053631E+02  0.49563077247E+02  0.00000000000E+00 0. -1.
          3    1    6    6  503    0 -0.13585162164E+02 -0.76644535556E+01  0.54138989332E+00  0.15607484818E+02  0.00000000000E+00 0. -1.
         -3    1    6    6    0  503 -0.24957676107E+02 -0.21331486677E+02  0.31538642964E+03  0.31709070930E+03  0.00000000000E+00 0.  1.
<mgrwt>
<rscale>  0 0.25175461E+04</rscale>
<asrwt>0</asrwt>
<pdfrwt beam="1">  1        1 0.40367292E+00 0.25175461E+04</pdfrwt>
<pdfrwt beam="2">  1       -2 0.92904886E-01 0.25175461E+04</pdfrwt>
<totfact> 0.84992933E-01</totfact>
</mgrwt>
</event>
<event>
12    4  0.4424320E-008  0.1980613E+04  0.7818608E-02  0.8615739E-01
          1   -1    0    0  501    0  0.00000000000E+00  0.00000000000E+00  0.11716152275E+04  0.11716152275E+04  0.00000000000E+00 0. -1.
         -2   -1    0    0    0  501 -0.00000000000E+00 -0.00000000000E+00 -0.83705571718E+03  0.83705571718E+03  0.00000000000E+00 0.  1.
        -24    2    1    2    0    0 -0.73867651293E+03  0.13532236319E+03 -0.11547888107E+03  0.76399581254E+03  0.79994355202E+02 0.  0.
        254    2    1    2    0    0  0.73867651293E+03 -0.13532236319E+03  0.45003839140E+03  0.12446751321E+04  0.88471831568E+03 0.  0.
         23    2    4    4    0    0  0.16158315272E+03  0.35306148731E+03  0.12533283181E+03  0.41727443592E+03  0.87453456629E+02 0.  0.
         23    2    4    4    0    0  0.57709336021E+03 -0.48838385050E+03  0.32470555959E+03  0.82740069622E+03  0.87193347546E+02 0.  0.
          1    1    3    3  502    0 -0.22586382302E+03  0.73052384748E+02 -0.15979153109E+02  0.23792110205E+03  0.00000000000E+00 0. -1.
         -2    1    3    3    0  502 -0.51281268991E+03  0.62269978444E+02 -0.99499727962E+02  0.52607471048E+03  0.00000000000E+00 0.  1.
         11    1    5    5    0    0  0.67203564236E+02  0.72319267447E+02  0.54389169338E+02  0.11271458305E+03  0.00000000000E+00 0. -1.
        -11    1    5    5    0    0  0.94379588487E+02  0.28074221986E+03  0.70943662472E+02  0.30455985287E+03  0.00000000000E+00 0.  1.
          3    1    6    6  503    0  0.54659502404E+02 -0.59418416414E+02  0.63478346334E+02  0.10270204412E+03  0.00000000000E+00 0. -1.
         -3    1    6    6    0  503  0.52243385780E+03 -0.42896543409E+03  0.26122721325E+03  0.72469865211E+03  0.00000000000E+00 0.  1.
<mgrwt>
<rscale>  0 0.19806133E+04</rscale>
<asrwt>0</asrwt>
<pdfrwt beam="1">  1        1 0.18024850E+00 0.19806133E+04</pdfrwt>
<pdfrwt beam="2">  1       -2 0.12877780E+00 0.19806133E+04</pdfrwt>
<totfact> 0.40645456E+00</totfact>
</mgrwt>
</event>
<event>
12    4  0.4424320E-008  0.1863839E+04  0.7818608E-02  0.8673068E-01
          3   -1    0    0  501    0  0.00000000000E+00  0.00000000000E+00  0.11362037013E+04  0.11362037013E+04  0.00000000000E+00 0. -1.
         -4   -1    0    0    0  501 -0.00000000000E+00 -0.00000000000E+00 -0.76436505698E+03  0.76436505698E+03  0.00000000000E+00 0.  1.
        -24    2    1    2    0    0  0.18328372200E+03  0.39359995719E+03  0.68678446678E+03  0.81653190730E+03  0.80855443681E+02 0.  0.
        254    2    1    2    0    0 -0.18328372200E+03 -0.39359995719E+03 -0.31494582250E+03  0.10840368509E+04  0.94203565433E+03 0.  0.
         23    2    4    4    0    0 -0.24658412120E+03  0.15388847054E+03  0.16540866587E+03  0.34715745113E+03  0.93128292878E+02 0.  0.
         23    2    4    4    0    0  0.63300399198E+02 -0.54748842774E+03 -0.48035448838E+03  0.73687939981E+03  0.92197051587E+02 0.  0.
          1    1    3    3  502    0  0.14802833386E+03  0.23197038847E+03  0.40141458140E+03  0.48667886220E+03  0.00000000000E+00 0. -1.
         -2    1    3    3    0  502  0.35255388143E+02  0.16162956872E+03  0.28536988538E+03  0.32985304510E+03  0.00000000000E+00 0.  1.
         11    1    5    5    0    0 -0.18402145447E+03  0.15119762541E+03  0.10548129783E+03  0.26048209502E+03  0.00000000000E+00 0.  1.
        -11    1    5    5    0    0 -0.62562666733E+02  0.26908451328E+01  0.59927368039E+02  0.86675356108E+02  0.00000000000E+00 0. -1.
          2    1    6    6  503    0  0.15269229559E+02 -0.18299801623E+03 -0.21902945598E+03  0.28582394215E+03  0.00000000000E+00 0. -1.
         -2    1    6    6    0  503  0.48031169638E+02 -0.36449041150E+03 -0.26132503239E+03  0.45105545767E+03  0.00000000000E+00 0.  1.
<mgrwt>
<rscale>  0 0.18638395E+04</rscale>
<asrwt>0</asrwt>
<pdfrwt beam="1">  1        3 0.17480057E+00 0.18638395E+04</pdfrwt>
<pdfrwt beam="2">  1       -4 0.11759462E+00 0.18638395E+04</pdfrwt>
<totfact> 0.25783830E-01</totfact>
</mgrwt>
</event>
<event>
12    4  0.4424320E-008  0.2340534E+04  0.7818608E-02  0.8462108E-01
          1   -1    0    0  501    0  0.00000000000E+00  0.00000000000E+00  0.87846570591E+03  0.87846570591E+03  0.00000000000E+00 0. -1.
         -2   -1    0    0    0  501 -0.00000000000E+00 -0.00000000000E+00 -0.15589965937E+04  0.15589965937E+04  0.00000000000E+00 0.  1.
        -24    2    1    2    0    0  0.45551856023E+03 -0.35866047930E+03  0.55417459568E+03  0.80603317618E+03  0.80283874299E+02 0.  0.
        254    2    1    2    0    0 -0.45551856023E+03  0.35866047930E+03 -0.12347054835E+04  0.16314291234E+04  0.89494628649E+03 0.  0.
         23    2    4    4    0    0 -0.36890946618E+03  0.39147747575E+03 -0.13513694003E+04  0.14573117981E+04  0.90606911933E+02 0.  0.
         23    2    4    4    0    0 -0.86609094041E+02 -0.32816996448E+02  0.11666391682E+03  0.17411732535E+03  0.90156991265E+02 0.  0.
          3    1    3    3  502    0  0.45811299252E+03 -0.35763726355E+03  0.54611450383E+03  0.79750421785E+03  0.00000000000E+00 0. -1.
         -4    1    3    3    0  502 -0.25944322993E+01 -0.10232157589E+01  0.80600918535E+01  0.85289583263E+01  0.00000000000E+00 0.  1.
         11    1    5    5    0    0 -0.10106526974E+03  0.10250974225E+03 -0.26300856652E+03  0.29982651996E+03  0.00000000000E+00 0. -1.
        -11    1    5    5    0    0 -0.26784419644E+03  0.28896773350E+03 -0.10883608337E+04  0.11574852781E+04  0.00000000000E+00 0.  1.
          2    1    6    6  503    0 -0.56159513654E+02 -0.19916508235E+02  0.12631852281E+03  0.13966720259E+03  0.00000000000E+00 0.  1.
         -2    1    6    6    0  503 -0.30449580387E+02 -0.12900488213E+02 -0.96546059873E+01  0.34450122767E+02  0.00000000000E+00 0. -1.
<mgrwt>
<rscale>  0 0.23405342E+04</rscale>
<asrwt>0</asrwt>
<pdfrwt beam="1">  1        1 0.13514857E+00 0.23405342E+04</pdfrwt>
<pdfrwt beam="2">  1       -2 0.23984563E+00 0.23405342E+04</pdfrwt>
<totfact> 0.11111873E+00</totfact>
</mgrwt>
</event>
<event>
12    4  0.4424320E-008  0.1800564E+04  0.7818608E-02  0.8706000E-01
          1   -1    0    0  501    0  0.00000000000E+00  0.00000000000E+00  0.25712264119E+04  0.25712264119E+04  0.00000000000E+00 0. -1.
         -2   -1    0    0    0  501 -0.00000000000E+00 -0.00000000000E+00 -0.31522215801E+03  0.31522215801E+03  0.00000000000E+00 0.  1.
        -24    2    1    2    0    0  0.51837295148E+03 -0.36262371264E+03  0.48270154307E+03  0.79979612223E+03  0.80415071115E+02 0.  0.
        254    2    1    2    0    0 -0.51837295148E+03  0.36262371264E+03  0.17733027108E+04  0.20866524477E+04  0.89961628455E+03 0.  0.
         23    2    4    4    0    0 -0.47058146094E+03  0.36697952037E+03  0.18579116605E+04  0.19536372633E+04  0.93498334998E+02 0.  0.
         23    2    4    4    0    0 -0.47791490545E+02 -0.43558077345E+01 -0.84608949677E+02  0.13301518437E+03  0.90726871863E+02 0.  0.
          3    1    3    3  502    0  0.13107950945E+03 -0.74745285149E+02  0.15602751860E+03  0.21705594212E+03  0.00000000000E+00 0. -1.
         -4    1    3    3    0  502  0.38729344203E+03 -0.28787842749E+03  0.32667402447E+03  0.58274018011E+03  0.00000000000E+00 0.  1.
         11    1    5    5    0    0 -0.48120549962E+02  0.49374853054E+02  0.13665526312E+03  0.15306248522E+03  0.00000000000E+00 0. -1.
        -11    1    5    5    0    0 -0.42246091097E+03  0.31760466732E+03  0.17212563974E+04  0.18005747781E+04  0.00000000000E+00 0.  1.
          2    1    6    6  503    0 -0.18662769724E+02  0.32316317293E+02 -0.11760282154E+01  0.37336662672E+02  0.00000000000E+00 0. -1.
         -2    1    6    6    0  503 -0.29128720822E+02 -0.36672125027E+02 -0.83432921462E+02  0.95678521698E+02  0.00000000000E+00 0.  1.
<mgrwt>
<rscale>  0 0.18005638E+04</rscale>
<asrwt>0</asrwt>
<pdfrwt beam="1">  1        1 0.39557328E+00 0.18005638E+04</pdfrwt>
<pdfrwt beam="2">  1       -2 0.48495718E-01 0.18005638E+04</pdfrwt>
<totfact> 0.40387884E+00</totfact>
</mgrwt>
</event>
<event>
12    4  0.4424320E-008  0.1719245E+04  0.7818608E-02  0.8750464E-01
          1   -1    0    0  501    0  0.00000000000E+00  0.00000000000E+00  0.10578774834E+04  0.10578774834E+04  0.00000000000E+00 0. -1.
         -2   -1    0    0    0  501 -0.00000000000E+00 -0.00000000000E+00 -0.69852243732E+03  0.69852243732E+03  0.00000000000E+00 0.  1.
        -24    2    1    2    0    0  0.17020715764E+03 -0.57829689044E+03 -0.17573353977E+02  0.60826747418E+03  0.79263657325E+02 0.  0.
        254    2    1    2    0    0 -0.17020715764E+03  0.57829689044E+03  0.37692840005E+03  0.11481324465E+04  0.90151834480E+03 0.  0.
         23    2    4    4    0    0  0.20821305153E+03 -0.12063412923E+03 -0.16314268757E+02  0.25653606828E+03  0.87403266515E+02 0.  0.
         23    2    4    4    0    0 -0.37842020918E+03  0.69893101967E+03  0.39324266881E+03  0.89159637825E+03  0.92724754899E+02 0.  0.
          3    1    3    3  502    0  0.16603220315E+03 -0.47799642668E+03  0.18698339063E+01  0.50601459730E+03  0.00000000000E+00 0. -1.
         -4    1    3    3    0  502  0.41749544899E+01 -0.10030046376E+03 -0.19443187883E+02  0.10225287688E+03  0.00000000000E+00 0.  1.
         11    1    5    5    0    0  0.11698813137E+03 -0.73777358158E+02  0.33818566724E+02  0.14238334493E+03  0.00000000000E+00 0.  1.
        -11    1    5    5    0    0  0.91224920169E+02 -0.46856771077E+02 -0.50132835480E+02  0.11415272335E+03  0.00000000000E+00 0. -1.
          4    1    6    6  503    0 -0.31420019447E+03  0.57781447624E+03  0.36289464387E+03  0.75118829444E+03  0.00000000000E+00 0. -1.
         -4    1    6    6    0  503 -0.64220014710E+02  0.12111654343E+03  0.30348024935E+02  0.14040808381E+03  0.00000000000E+00 0.  1.
<mgrwt>
<rscale>  0 0.17192454E+04</rscale>
<asrwt>0</asrwt>
<pdfrwt beam="1">  1        1 0.16275038E+00 0.17192454E+04</pdfrwt>
<pdfrwt beam="2">  1       -2 0.10746499E+00 0.17192454E+04</pdfrwt>
<totfact> 0.79031785E+00</totfact>
</mgrwt>
</event>
<event>
12    4  0.4424320E-008  0.2196384E+04  0.7818608E-02  0.8519935E-01
          1   -1    0    0  501    0  0.00000000000E+00  0.00000000000E+00  0.31660621459E+04  0.31660621459E+04  0.00000000000E+00 0. -1.
         -2   -1    0    0    0  501 -0.00000000000E+00 -0.00000000000E+00 -0.38092292683E+03  0.38092292683E+03  0.00000000000E+00 0.  1.
        -24    2    1    2    0    0  0.15335399222E+02 -0.27940983723E+03  0.25615551046E+04  0.25781233298E+04  0.82766648651E+02 0.  0.
        254    2    1    2    0    0 -0.15335399222E+02  0.27940983723E+03  0.22358411449E+03  0.96886174296E+03  0.90022118899E+03 0.  0.
         23    2    4    4    0    0 -0.98298365420E+02 -0.11080218516E+03 -0.27435191016E+03  0.32447778109E+03  0.89873060081E+02 0.  0.
         23    2    4    4    0    0  0.82962966197E+02  0.39021202239E+03  0.49793602465E+03  0.64438396187E+03  0.90233749188E+02 0.  0.
          3    1    3    3  502    0  0.39153847025E+02 -0.99323614844E+02  0.11454492457E+04  0.11504139162E+04  0.00000000000E+00 0. -1.
         -4    1    3    3    0  502 -0.23818447803E+02 -0.18008622239E+03  0.14161058589E+04  0.14277094136E+04  0.00000000000E+00 0.  1.
         11    1    5    5    0    0 -0.92340261667E+02 -0.10366354232E+03 -0.28074464589E+03  0.31319388583E+03  0.00000000000E+00 0. -1.
        -11    1    5    5    0    0 -0.59581037523E+01 -0.71386428451E+01  0.63927357247E+01  0.11283895251E+02  0.00000000000E+00 0.  1.
          1    1    6    6  503    0  0.95117344306E+02  0.33533943807E+03  0.45744896104E+03  0.57511685758E+03  0.00000000000E+00 0. -1.
         -1    1    6    6    0  503 -0.12154378108E+02  0.54872584321E+02  0.40487063606E+02  0.69267104290E+02  0.00000000000E+00 0.  1.
<mgrwt>
<rscale>  0 0.21963840E+04</rscale>
<asrwt>0</asrwt>
<pdfrwt beam="1">  1        1 0.48708647E+00 0.21963840E+04</pdfrwt>
<pdfrwt beam="2">  1       -2 0.58603529E-01 0.21963840E+04</pdfrwt>
<totfact> 0.98469730E-01</totfact>
</mgrwt>
</event>
<event>
12    4  0.4424320E-008  0.2830609E+04  0.7818608E-02  0.8293828E-01
          1   -1    0    0  501    0  0.00000000000E+00  0.00000000000E+00  0.96159920096E+03  0.96159920096E+03  0.00000000000E+00 0. -1.
         -2   -1    0    0    0  501 -0.00000000000E+00 -0.00000000000E+00 -0.20830783865E+04  0.20830783865E+04  0.00000000000E+00 0.  1.
        -24    2    1    2    0    0  0.60993718853E+03 -0.84753884170E+03 -0.11570848225E+04  0.15604212971E+04  0.75656300486E+02 0.  0.
        254    2    1    2    0    0 -0.60993718853E+03  0.84753884170E+03  0.35605636887E+02  0.14842562904E+04  0.10542312423E+04 0.  0.
         23    2    4    4    0    0 -0.22439138247E+03  0.10185344790E+04  0.83758508774E+02  0.10499985549E+04  0.87849303352E+02 0.  0.
         23    2    4    4    0    0 -0.38554580605E+03 -0.17099563728E+03 -0.48152871887E+02  0.43425773555E+03  0.91520518349E+02 0.  0.
          1    1    3    3  502    0  0.24454013939E+03 -0.32166648905E+03 -0.39567140082E+03  0.56553078376E+03  0.00000000000E+00 0. -1.
         -4    1    3    3    0  502  0.36539704914E+03 -0.52587235264E+03 -0.76141342164E+03  0.99489051330E+03  0.00000000000E+00 0.  1.
         11    1    5    5    0    0 -0.10668983102E+01  0.13745695385E+03  0.32376368460E+01  0.13749921718E+03  0.00000000000E+00 0.  1.
        -11    1    5    5    0    0 -0.22332448416E+03  0.88107752512E+03  0.80520871928E+02  0.91249933771E+03  0.00000000000E+00 0. -1.
          3    1    6    6  503    0 -0.23403098405E+03 -0.13729187754E+03  0.13636958519E+01  0.27133267551E+03  0.00000000000E+00 0. -1.
         -3    1    6    6    0  503 -0.15151482200E+03 -0.33703759738E+02 -0.49516567739E+02  0.16292506004E+03  0.00000000000E+00 0.  1.
<mgrwt>
<rscale>  0 0.28306088E+04</rscale>
<asrwt>0</asrwt>
<pdfrwt beam="1">  1        1 0.14793834E+00 0.28306088E+04</pdfrwt>
<pdfrwt beam="2">  1       -2 0.32047359E+00 0.28306088E+04</pdfrwt>
<totfact> 0.29230726E-01</totfact>
</mgrwt>
</event>
<event>
12    4  0.4424320E-008  0.1364418E+04  0.7818608E-02  0.8979985E-01
         -2   -1    0    0    0  501 -0.00000000000E+00  0.00000000000E+00  0.37198064674E+03  0.37198064674E+03  0.00000000000E+00 0.  1.
          1   -1    0    0  501    0  0.00000000000E+00 -0.00000000000E+00 -0.12511642710E+04  0.12511642710E+04  0.00000000000E+00 0. -1.
        -24    2    1    2    0    0 -0.15302990995E+03 -0.13618921488E+03 -0.69636586722E+03  0.73008432362E+03  0.78307362164E+02 0.  0.
        254    2    1    2    0    0  0.15302990995E+03  0.13618921488E+03 -0.18281775703E+03  0.89306059411E+03  0.84980541118E+03 0.  0.
         23    2    4    4    0    0  0.40539206221E+02 -0.32330328691E+03 -0.22988281417E+03  0.40912255415E+03  0.91469740874E+02 0.  0.
         23    2    4    4    0    0  0.11249070373E+03  0.45949250179E+03  0.47065057145E+02  0.48393803996E+03  0.90517342453E+02 0.  0.
          3    1    3    3  502    0 -0.15304336666E+03 -0.99669380633E+02 -0.59023225309E+03  0.61784332164E+03  0.00000000000E+00 0. -1.
         -4    1    3    3    0  502  0.13456713091E-01 -0.36519834245E+02 -0.10613361414E+03  0.11224100197E+03  0.00000000000E+00 0.  1.
         11    1    5    5    0    0  0.15913172379E+02 -0.25797855506E+03 -0.13581449938E+03  0.29197900981E+03  0.00000000000E+00 0. -1.
        -11    1    5    5    0    0  0.24626033841E+02 -0.65324731852E+02 -0.94068314788E+02  0.11714354434E+03  0.00000000000E+00 0.  1.
          3    1    6    6  503    0  0.97683425218E+02  0.45117059477E+03  0.55543857452E+02  0.46495384421E+03  0.00000000000E+00 0. -1.
         -3    1    6    6    0  503  0.14807278510E+02  0.83219070194E+01 -0.84788003066E+01  0.18984195742E+02  0.00000000000E+00 0.  1.
<mgrwt>
<rscale>  0 0.13644177E+04</rscale>
<asrwt>0</asrwt>
<pdfrwt beam="1">  1        1 0.19248681E+00 0.13644177E+04</pdfrwt>
<pdfrwt beam="2">  1       -2 0.57227791E-01 0.13644177E+04</pdfrwt>
<totfact> 0.24066872E+01</totfact>
</mgrwt>
</event>
<event>
12    4  0.4424320E-008  0.1304282E+04  0.7818608E-02  0.9026177E-01
         -2   -1    0    0    0  501 -0.00000000000E+00  0.00000000000E+00  0.38731755046E+03  0.38731755046E+03  0.00000000000E+00 0.  1.
          1   -1    0    0  501    0  0.00000000000E+00 -0.00000000000E+00 -0.10980336618E+04  0.10980336618E+04  0.00000000000E+00 0. -1.
        -24    2    1    2    0    0  0.90483082597E+02  0.49194425305E+02  0.19806897260E+03  0.23582909401E+03  0.76005025881E+02 0.  0.
        254    2    1    2    0    0 -0.90483082597E+02 -0.49194425305E+02 -0.90878508391E+03  0.12495221182E+04  0.85135651491E+03 0.  0.
         23    2    4    4    0    0  0.28999943001E+03 -0.27081151633E+03 -0.41375334445E+03  0.58068235773E+03  0.92529042712E+02 0.  0.
         23    2    4    4    0    0 -0.38048251261E+03  0.22161709103E+03 -0.49503173946E+03  0.66883976050E+03  0.91701279791E+02 0.  0.
          1    1    3    3  502    0  0.14603705400E+01  0.35425254839E+02  0.36762504791E+02  0.51074094421E+02  0.00000000000E+00 0. -1.
         -2    1    3    3    0  502  0.89022712057E+02  0.13769170467E+02  0.16130646781E+03  0.18475499959E+03  0.00000000000E+00 0.  1.
         11    1    5    5    0    0  0.24982948845E+03 -0.21572851360E+03 -0.28993287103E+03  0.43933430845E+03  0.00000000000E+00 0. -1.
        -11    1    5    5    0    0  0.40169941558E+02 -0.55083002736E+02 -0.12382047343E+03  0.14134804928E+03  0.00000000000E+00 0.  1.
          3    1    6    6  503    0 -0.12512648278E+03  0.11806754124E+03 -0.15883812230E+03  0.23414980266E+03  0.00000000000E+00 0.  1.
         -3    1    6    6    0  503 -0.25535602983E+03  0.10354954978E+03 -0.33619361716E+03  0.43468995784E+03  0.00000000000E+00 0. -1.
<mgrwt>
<rscale>  0 0.13042817E+04</rscale>
<asrwt>0</asrwt>
<pdfrwt beam="1">  1        1 0.16892825E+00 0.13042817E+04</pdfrwt>
<pdfrwt beam="2">  1       -2 0.59587316E-01 0.13042817E+04</pdfrwt>
<totfact> 0.28796004E+01</totfact>
</mgrwt>
</event>
<event>
12    4  0.4424320E-008  0.1604773E+04  0.7818608E-02  0.8817621E-01
          1   -1    0    0  501    0  0.00000000000E+00  0.00000000000E+00  0.34718967129E+03  0.34718967129E+03  0.00000000000E+00 0. -1.
         -2   -1    0    0    0  501 -0.00000000000E+00 -0.00000000000E+00 -0.18543880641E+04  0.18543880641E+04  0.00000000000E+00 0.  1.
        -24    2    1    2    0    0 -0.47104946497E+03 -0.62354044950E+02 -0.85880579745E+03  0.98477784404E+03  0.80401361895E+02 0.  0.
        254    2    1    2    0    0  0.47104946497E+03  0.62354044950E+02 -0.64839259533E+03  0.12167998913E+04  0.91346231038E+03 0.  0.
         23    2    4    4    0    0  0.16977660023E+03  0.18126364556E+03  0.18077464733E+03  0.32188388426E+03  0.96172546177E+02 0.  0.
         23    2    4    4    0    0  0.30127286474E+03 -0.11890960061E+03 -0.82916724266E+03  0.89491600707E+03  0.91932101331E+02 0.  0.
          1    1    3    3  502    0 -0.39283732512E+02  0.20555866718E+01 -0.35930928223E+02  0.53277281084E+02  0.00000000000E+00 0. -1.
         -4    1    3    3    0  502 -0.43176573246E+03 -0.64409631622E+02 -0.82287486923E+03  0.93150056295E+03  0.00000000000E+00 0.  1.
         11    1    5    5    0    0  0.73933855914E+02  0.14476299338E+03  0.95672900638E+02  0.18861559644E+03  0.00000000000E+00 0.  1.
        -11    1    5    5    0    0  0.95842744319E+02  0.36500652180E+02  0.85101746696E+02  0.13326828782E+03  0.00000000000E+00 0. -1.
          1    1    6    6  503    0  0.32236404929E+02  0.44166175236E+01 -0.15920293290E+03  0.16249389575E+03  0.00000000000E+00 0. -1.
         -1    1    6    6    0  503  0.26903645981E+03 -0.12332621814E+03 -0.66996430977E+03  0.73242211132E+03  0.00000000000E+00 0.  1.
<mgrwt>
<rscale>  0 0.16047734E+04</rscale>
<asrwt>0</asrwt>
<pdfrwt beam="1">  1        1 0.53413796E-01 0.16047734E+04</pdfrwt>
<pdfrwt beam="2">  1       -2 0.28529047E+00 0.16047734E+04</pdfrwt>
<totfact> 0.23768374E+00</totfact>
</mgrwt>
</event>
<event>
12    4  0.4424320E-008  0.2403442E+04  0.7818608E-02  0.8438216E-01
          1   -1    0    0  501    0  0.00000000000E+00  0.00000000000E+00  0.57604923661E+03  0.57604923661E+03  0.00000000000E+00 0. -1.
         -2   -1    0    0    0  501 -0.00000000000E+00 -0.00000000000E+00 -0.25069613853E+04  0.25069613853E+04  0.00000000000E+00 0.  1.
        -24    2    1    2    0    0 -0.66776873090E+03 -0.44266580856E+03 -0.16928950551E+04  0.18743788330E+04  0.74392513161E+02 0.  0.
        254    2    1    2    0    0  0.66776873090E+03  0.44266580856E+03 -0.23801709361E+03  0.12086317889E+04  0.87308107774E+03 0.  0.
         23    2    4    4    0    0  0.81072503318E+03  0.17722616584E+03 -0.29833405904E+03  0.88692449356E+03  0.94592035702E+02 0.  0.
         23    2    4    4    0    0 -0.14295630227E+03  0.26543964272E+03  0.60316965431E+02  0.32170729536E+03  0.94671744924E+02 0.  0.
          3    1    3    3  502    0 -0.20290754306E+03 -0.15989626468E+03 -0.61087760493E+03  0.66325691455E+03  0.00000000000E+00 0. -1.
         -4    1    3    3    0  502 -0.46486118785E+03 -0.28276954388E+03 -0.10820174502E+04  0.12111219185E+04  0.00000000000E+00 0.  1.
         11    1    5    5    0    0  0.65033464458E+03  0.17659680747E+03 -0.25758745446E+03  0.72143806321E+03  0.00000000000E+00 0. -1.
        -11    1    5    5    0    0  0.16039038860E+03  0.62935836731E+00 -0.40746604581E+02  0.16548643036E+03  0.00000000000E+00 0.  1.
          4    1    6    6  503    0 -0.79406470657E+02  0.83431963176E+02  0.57889484345E+02  0.12890877573E+03  0.00000000000E+00 0. -1.
         -4    1    6    6    0  503 -0.63549831616E+02  0.18200767954E+03  0.24274810854E+01  0.19279851964E+03  0.00000000000E+00 0.  1.
<mgrwt>
<rscale>  0 0.24034419E+04</rscale>
<asrwt>0</asrwt>
<pdfrwt beam="1">  1        1 0.88622958E-01 0.24034419E+04</pdfrwt>
<pdfrwt beam="2">  1       -2 0.38568637E+00 0.24034419E+04</pdfrwt>
<totfact> 0.26245942E-01</totfact>
</mgrwt>
</event>
<event>
12    4  0.4424320E-008  0.1459074E+04  0.7818608E-02  0.8912134E-01
         -2   -1    0    0    0  501 -0.00000000000E+00  0.00000000000E+00  0.34038090095E+03  0.34038090095E+03  0.00000000000E+00 0.  1.
          1   -1    0    0  501    0  0.00000000000E+00 -0.00000000000E+00 -0.15636135140E+04  0.15636135140E+04  0.00000000000E+00 0. -1.
        -24    2    1    2    0    0 -0.10101667133E+02  0.32755737878E+03  0.13938267033E+02  0.33769455575E+03  0.80296062289E+02 0.  0.
        254    2    1    2    0    0  0.10101667133E+02 -0.32755737878E+03 -0.12371708801E+04  0.15662998592E+04  0.90294384229E+03 0.  0.
         23    2    4    4    0    0 -0.28091053071E+03 -0.16411674416E+03 -0.65544951231E+02  0.34458918283E+03  0.92739054949E+02 0.  0.
         23    2    4    4    0    0  0.29101219784E+03 -0.16344063463E+03 -0.11716259289E+04  0.12217106764E+04  0.92025644543E+02 0.  0.
          3    1    3    3  502    0  0.26428556781E+02  0.82384547967E+02 -0.16089217234E+02  0.88003098061E+02  0.00000000000E+00 0. -1.
         -4    1    3    3    0  502 -0.36530223914E+02  0.24517283082E+03  0.30027484267E+02  0.24969145769E+03  0.00000000000E+00 0.  1.
         11    1    5    5    0    0 -0.15047927916E+03 -0.10353490214E+03  0.84571120081E+01  0.18285243275E+03  0.00000000000E+00 0. -1.
        -11    1    5    5    0    0 -0.13043125155E+03 -0.60581842018E+02 -0.74002063239E+02  0.16173675008E+03  0.00000000000E+00 0.  1.
          4    1    6    6  503    0  0.17484275019E+03 -0.11535104071E+03 -0.87137979661E+03  0.89620232081E+03  0.00000000000E+00 0. -1.
         -4    1    6    6    0  503  0.11616944766E+03 -0.48089593918E+02 -0.30024613225E+03  0.32550835556E+03  0.00000000000E+00 0.  1.
<mgrwt>
<rscale>  0 0.14590739E+04</rscale>
<asrwt>0</asrwt>
<pdfrwt beam="1">  1        1 0.24055592E+00 0.14590739E+04</pdfrwt>
<pdfrwt beam="2">  1       -2 0.52366293E-01 0.14590739E+04</pdfrwt>
<totfact> 0.17327327E+01</totfact>
</mgrwt>
</event>
<event>
12    4  0.4424320E-008  0.1545751E+04  0.7818608E-02  0.8854587E-01
          1   -1    0    0  501    0  0.00000000000E+00  0.00000000000E+00  0.18606274260E+04  0.18606274260E+04  0.00000000000E+00 0. -1.
         -2   -1    0    0    0  501 -0.00000000000E+00 -0.00000000000E+00 -0.32104026565E+03  0.32104026565E+03  0.00000000000E+00 0.  1.
        -24    2    1    2    0    0  0.17979365534E+03  0.31235348641E+03  0.10003999847E+04  0.10661416249E+04  0.77248792293E+02 0.  0.
        254    2    1    2    0    0 -0.17979365534E+03 -0.31235348641E+03  0.53918717568E+03  0.11155260668E+04  0.90762609944E+03 0.  0.
         23    2    4    4    0    0 -0.45981059712E+03 -0.30932689664E+03  0.77087084728E+02  0.56685393190E+03  0.90950795847E+02 0.  0.
         23    2    4    4    0    0  0.28001694178E+03 -0.30265897687E+01  0.46210009096E+03  0.54867213493E+03  0.95320352806E+02 0.  0.
          3    1    3    3  502    0 -0.54099310000E+01  0.50197603710E+01  0.44605663830E+02  0.45212062476E+02  0.00000000000E+00 0. -1.
         -4    1    3    3    0  502  0.18520358634E+03  0.30733372603E+03  0.95579432086E+03  0.10209295624E+04  0.00000000000E+00 0.  1.
         11    1    5    5    0    0 -0.42300298976E+03 -0.30593710301E+03  0.58005319701E+02  0.52525580192E+03  0.00000000000E+00 0. -1.
        -11    1    5    5    0    0 -0.36807607365E+02 -0.33897936311E+01  0.19081765027E+02  0.41598129974E+02  0.00000000000E+00 0.  1.
          2    1    6    6  503    0  0.11166629588E+03 -0.33798173409E+02  0.12735877015E+03  0.17271923603E+03  0.00000000000E+00 0.  1.
         -2    1    6    6    0  503  0.16835064589E+03  0.30771583640E+02  0.33474132081E+03  0.37595289890E+03  0.00000000000E+00 0. -1.
<mgrwt>
<rscale>  0 0.15457507E+04</rscale>
<asrwt>0</asrwt>
<pdfrwt beam="1">  1        1 0.28625037E+00 0.15457507E+04</pdfrwt>
<pdfrwt beam="2">  1       -2 0.49390811E-01 0.15457507E+04</pdfrwt>
<totfact> 0.12166443E+01</totfact>
</mgrwt>
</event>
<event>
12    4  0.4424320E-008  0.2419450E+04  0.7818608E-02  0.8432258E-01
          1   -1    0    0  501    0  0.00000000000E+00  0.00000000000E+00  0.70734377501E+03  0.70734377501E+03  0.00000000000E+00 0. -1.
         -2   -1    0    0    0  501 -0.00000000000E+00 -0.00000000000E+00 -0.20689152659E+04  0.20689152659E+04  0.00000000000E+00 0.  1.
        -24    2    1    2    0    0  0.21998363344E+03  0.55801715792E+03  0.38816270788E+03  0.71875167982E+03  0.78471281050E+02 0.  0.
        254    2    1    2    0    0 -0.21998363344E+03 -0.55801715792E+03 -0.17497341988E+04  0.20575073611E+04  0.90110533628E+03 0.  0.
         23    2    4    4    0    0 -0.50359260305E+02  0.49448051575E+01 -0.13198125759E+04  0.13239970568E+04  0.92208809571E+02 0.  0.
         23    2    4    4    0    0 -0.16962437313E+03 -0.56296196308E+03 -0.42992162285E+03  0.73351030433E+03  0.86638126301E+02 0.  0.
          3    1    3    3  502    0  0.13688750248E+03  0.43435611842E+03  0.30518225332E+03  0.54821495208E+03  0.00000000000E+00 0. -1.
         -4    1    3    3    0  502  0.83096130961E+02  0.12366103950E+03  0.82980454554E+02  0.17053672774E+03  0.00000000000E+00 0.  1.
         11    1    5    5    0    0  0.22213856893E+02  0.15794847501E+02 -0.21004390567E+03  0.21180503996E+03  0.00000000000E+00 0. -1.
        -11    1    5    5    0    0 -0.72573117197E+02 -0.10850042343E+02 -0.11097686702E+04  0.11121920168E+04  0.00000000000E+00 0.  1.
          4    1    6    6  503    0 -0.63923644876E+02 -0.12376635530E+03 -0.13528264377E+03  0.19417965080E+03  0.00000000000E+00 0. -1.
         -4    1    6    6    0  503 -0.10570072826E+03 -0.43919560777E+03 -0.29463897908E+03  0.53933065353E+03  0.00000000000E+00 0.  1.
<mgrwt>
<rscale>  0 0.24194498E+04</rscale>
<asrwt>0</asrwt>
<pdfrwt beam="1">  1        1 0.10882212E+00 0.24194498E+04</pdfrwt>
<pdfrwt beam="2">  1       -2 0.31829466E+00 0.24194498E+04</pdfrwt>
<totfact> 0.51602451E-01</totfact>
</mgrwt>
</event>
<event>
12    4  0.4424320E-008  0.1903736E+04  0.7818608E-02  0.8652999E-01
          1   -1    0    0  501    0  0.00000000000E+00  0.00000000000E+00  0.11205259507E+04  0.11205259507E+04  0.00000000000E+00 0. -1.
         -2   -1    0    0    0  501 -0.00000000000E+00 -0.00000000000E+00 -0.80859609420E+03  0.80859609420E+03  0.00000000000E+00 0.  1.
        -24    2    1    2    0    0  0.53581424471E+03 -0.45376967424E+03 -0.11987122010E+03  0.71678031425E+03  0.80006795864E+02 0.  0.
        254    2    1    2    0    0 -0.53581424471E+03  0.45376967424E+03  0.43180107663E+03  0.12123417307E+04  0.88899745786E+03 0.  0.
         23    2    4    4    0    0  0.95352296546E+02  0.24481607232E+03 -0.15741557433E+03  0.31940937800E+03  0.90640597912E+02 0.  0.
         23    2    4    4    0    0 -0.63116654126E+03  0.20895360192E+03  0.58921665096E+03  0.89293235268E+03  0.90106127074E+02 0.  0.
          3    1    3    3  502    0  0.41479943944E+03 -0.34378428048E+03 -0.12544682285E+03  0.55315740240E+03  0.00000000000E+00 0. -1.
         -2    1    3    3    0  502  0.12101480527E+03 -0.10998539376E+03  0.55756027438E+01  0.16362291185E+03  0.00000000000E+00 0.  1.
         11    1    5    5    0    0  0.26850349626E+02  0.11877701575E+03 -0.12042955218E+03  0.17126645259E+03  0.00000000000E+00 0.  1.
        -11    1    5    5    0    0  0.68501946920E+02  0.12603905658E+03 -0.36986022147E+02  0.14814292541E+03  0.00000000000E+00 0. -1.
          2    1    6    6  503    0 -0.56387764887E+01 -0.65245416674E+01  0.12903618561E+02  0.15519948977E+02  0.00000000000E+00 0. -1.
         -2    1    6    6    0  503 -0.62552776477E+03  0.21547814359E+03  0.57631303240E+03  0.87741240371E+03  0.00000000000E+00 0.  1.
<mgrwt>
<rscale>  0 0.19037362E+04</rscale>
<asrwt>0</asrwt>
<pdfrwt beam="1">  1        1 0.17238861E+00 0.19037362E+04</pdfrwt>
<pdfrwt beam="2">  1       -2 0.12439940E+00 0.19037362E+04</pdfrwt>
<totfact> 0.48709884E+00</totfact>
</mgrwt>
</event>
<event>
12    4  0.4424320E-008  0.1817026E+04  0.7818608E-02  0.8697298E-01
         -2   -1    0    0    0  501 -0.00000000000E+00  0.00000000000E+00  0.29368820609E+03  0.29368820609E+03  0.00000000000E+00 0.  1.
          1   -1    0    0  501    0  0.00000000000E+00 -0.00000000000E+00 -0.28104479529E+04  0.28104479529E+04  0.00000000000E+00 0. -1.
        -24    2    1    2    0    0  0.10800433480E+03 -0.14735765212E+03 -0.20715034098E+04  0.20810483495E+04  0.79098938202E+02 0.  0.
        254    2    1    2    0    0 -0.10800433480E+03  0.14735765212E+03 -0.44525633696E+03  0.10230878095E+04  0.90281573222E+03 0.  0.
         23    2    4    4    0    0  0.15749520095E+03 -0.17199383612E+03 -0.53268761106E+03  0.58863335295E+03  0.91359264704E+02 0.  0.
         23    2    4    4    0    0 -0.26549953575E+03  0.31935148824E+03  0.87431274095E+02  0.43445445653E+03  0.92903555298E+02 0.  0.
          3    1    3    3  502    0  0.70865814949E+02 -0.14556497396E+03 -0.16776232042E+04  0.16854170821E+04  0.00000000000E+00 0. -1.
         -4    1    3    3    0  502  0.37138519852E+02 -0.17926781634E+01 -0.39388020560E+03  0.39563126736E+03  0.00000000000E+00 0.  1.
         11    1    5    5    0    0  0.10752456777E+03 -0.57142566159E+02 -0.21401673758E+03  0.24623153637E+03  0.00000000000E+00 0. -1.
        -11    1    5    5    0    0  0.49970633181E+02 -0.11485126996E+03 -0.31867087348E+03  0.34240181658E+03  0.00000000000E+00 0.  1.
          3    1    6    6  503    0 -0.17151143957E+02  0.50587296831E+01  0.22363407486E+02  0.28633450358E+02  0.00000000000E+00 0. -1.
         -3    1    6    6    0  503 -0.24834839179E+03  0.31429275856E+03  0.65067866609E+02  0.40582100617E+03  0.00000000000E+00 0.  1.
<mgrwt>
<rscale>  0 0.18170255E+04</rscale>
<asrwt>0</asrwt>
<pdfrwt beam="1">  1        1 0.43237660E+00 0.18170255E+04</pdfrwt>
<pdfrwt beam="2">  1       -2 0.45182802E-01 0.18170255E+04</pdfrwt>
<totfact> 0.31561289E+00</totfact>
</mgrwt>
</event>
<event>
12    4  0.4424320E-008  0.1966143E+04  0.7818608E-02  0.8622615E-01
          1   -1    0    0  501    0  0.00000000000E+00  0.00000000000E+00  0.13043733160E+04  0.13043733160E+04  0.00000000000E+00 0. -1.
         -2   -1    0    0    0  501 -0.00000000000E+00 -0.00000000000E+00 -0.74091506403E+03  0.74091506403E+03  0.00000000000E+00 0.  1.
        -24    2    1    2    0    0 -0.21073586984E+03 -0.32893974396E+02  0.99072152272E+03  0.10165678597E+04  0.79934082183E+02 0.  0.
        254    2    1    2    0    0  0.21073586984E+03  0.32893974396E+02 -0.42726327080E+03  0.10287205202E+04  0.91116430231E+03 0.  0.
         23    2    4    4    0    0  0.17245150788E+03  0.21968424252E+02 -0.70654416671E+03  0.73253212291E+03  0.84714327905E+02 0.  0.
         23    2    4    4    0    0  0.38284361960E+02  0.10925550143E+02  0.27928089591E+03  0.29618839733E+03  0.90247924501E+02 0.  0.
          1    1    3    3  502    0 -0.14136126907E+03  0.92303769897E+01  0.72567799931E+03  0.73937593073E+03  0.00000000000E+00 0. -1.
         -2    1    3    3    0  502 -0.69374600769E+02 -0.42124351385E+02  0.26504352341E+03  0.27719192902E+03  0.00000000000E+00 0.  1.
         11    1    5    5    0    0 -0.79447183757E+01  0.95923387055E+01 -0.52015735727E+02  0.53486150312E+02  0.00000000000E+00 0.  1.
        -11    1    5    5    0    0  0.18039622625E+03  0.12376085547E+02 -0.65452843098E+03  0.67904597260E+03  0.00000000000E+00 0. -1.
          1    1    6    6  503    0  0.32815643199E+02  0.42348383198E+02  0.23835454311E+03  0.24430133078E+03  0.00000000000E+00 0. -1.
         -1    1    6    6    0  503  0.54687187608E+01 -0.31422833055E+02  0.40926352798E+02  0.51887066552E+02  0.00000000000E+00 0.  1.
<mgrwt>
<rscale>  0 0.19661433E+04</rscale>
<asrwt>0</asrwt>
<pdfrwt beam="1">  1        1 0.20067282E+00 0.19661433E+04</pdfrwt>
<pdfrwt beam="2">  1       -2 0.11398693E+00 0.19661433E+04</pdfrwt>
<totfact> 0.44171191E+00</totfact>
</mgrwt>
</event>
<event>
12    4  0.4424320E-008  0.1339002E+04  0.7818608E-02  0.8999195E-01
         -2   -1    0    0    0  501 -0.00000000000E+00  0.00000000000E+00  0.72547694398E+03  0.72547694398E+03  0.00000000000E+00 0.  1.
          1   -1    0    0  501    0  0.00000000000E+00 -0.00000000000E+00 -0.61784412634E+03  0.61784412634E+03  0.00000000000E+00 0. -1.
        -24    2    1    2    0    0 -0.28474298187E+03  0.21106028923E+03 -0.27155952153E+02  0.36441250047E+03  0.80212301752E+02 0.  0.
        254    2    1    2    0    0  0.28474298187E+03 -0.21106028923E+03  0.13478876979E+03  0.97890856984E+03  0.90247934283E+03 0.  0.
         23    2    4    4    0    0  0.32460008141E+02  0.32690341969E+03 -0.63021712480E+02  0.34659831112E+03  0.90769791729E+02 0.  0.
         23    2    4    4    0    0  0.25228297373E+03 -0.53796370892E+03  0.19781048228E+03  0.63231025872E+03  0.87382065889E+02 0.  0.
          3    1    3    3  502    0 -0.17857898892E+03  0.15792627331E+03 -0.49838550850E+02  0.24354680091E+03  0.00000000000E+00 0. -1.
         -4    1    3    3    0  502 -0.10616399295E+03  0.53134015923E+02  0.22682598697E+02  0.12086569956E+03  0.00000000000E+00 0.  1.
         11    1    5    5    0    0  0.34005882127E+02  0.10836735361E+03 -0.59072128926E+02  0.12802109109E+03  0.00000000000E+00 0.  1.
        -11    1    5    5    0    0 -0.15458739865E+01  0.21853606608E+03 -0.39495835545E+01  0.21857722003E+03  0.00000000000E+00 0. -1.
          3    1    6    6  503    0  0.55315298330E+02 -0.14939342083E+03  0.15491383068E+02  0.16005673796E+03  0.00000000000E+00 0. -1.
         -3    1    6    6    0  503  0.19696767540E+03 -0.38857028810E+03  0.18231909921E+03  0.47225352077E+03  0.00000000000E+00 0.  1.
<mgrwt>
<rscale>  0 0.13390021E+04</rscale>
<asrwt>0</asrwt>
<pdfrwt beam="1">  1        1 0.95052942E-01 0.13390021E+04</pdfrwt>
<pdfrwt beam="2">  1       -2 0.11161184E+00 0.13390021E+04</pdfrwt>
<totfact> 0.17844704E+01</totfact>
</mgrwt>
</event>
<event>
12    4  0.4424320E-008  0.1966457E+04  0.7818608E-02  0.8622466E-01
         -2   -1    0    0    0  501 -0.00000000000E+00  0.00000000000E+00  0.48164772549E+03  0.48164772549E+03  0.00000000000E+00 0.  1.
          1   -1    0    0  501    0  0.00000000000E+00 -0.00000000000E+00 -0.20071478231E+04  0.20071478231E+04  0.00000000000E+00 0. -1.
        -24    2    1    2    0    0 -0.61748760347E+03 -0.28094000702E+03 -0.10677546327E+04  0.12676695149E+04  0.81656690908E+02 0.  0.
        254    2    1    2    0    0  0.61748760347E+03  0.28094000702E+03 -0.45774546484E+03  0.12211260337E+04  0.90631101264E+03 0.  0.
         23    2    4    4    0    0  0.61521460843E+03 -0.18851335893E+03 -0.21539614906E+03  0.68508806108E+03  0.94466128820E+02 0.  0.
         23    2    4    4    0    0  0.22729950465E+01  0.46945336595E+03 -0.24234931578E+03  0.53603797262E+03  0.90619467717E+02 0.  0.
          1    1    3    3  502    0 -0.33125166423E+03 -0.10874436395E+03 -0.57197515524E+03  0.66985713399E+03  0.00000000000E+00 0. -1.
         -2    1    3    3    0  502 -0.28623593924E+03 -0.17219564306E+03 -0.49577947750E+03  0.59781238087E+03  0.00000000000E+00 0.  1.
         11    1    5    5    0    0  0.67478447282E+02 -0.25092812114E+02 -0.57354837061E+02  0.92046550188E+02  0.00000000000E+00 0.  1.
        -11    1    5    5    0    0  0.54773616115E+03 -0.16342054682E+03 -0.15804131200E+03  0.59304151090E+03  0.00000000000E+00 0. -1.
          4    1    6    6  503    0  0.14343748940E+02  0.42671593234E+03 -0.18981850612E+03  0.46725078418E+03  0.00000000000E+00 0. -1.
         -4    1    6    6    0  503 -0.12070753893E+02  0.42737433604E+02 -0.52530809661E+02  0.68787188445E+02  0.00000000000E+00 0.  1.
<mgrwt>
<rscale>  0 0.19664569E+04</rscale>
<asrwt>0</asrwt>
<pdfrwt beam="1">  1        1 0.30879198E+00 0.19664569E+04</pdfrwt>
<pdfrwt beam="2">  1       -2 0.74099649E-01 0.19664569E+04</pdfrwt>
<totfact> 0.39488426E+00</totfact>
</mgrwt>
</event>
<event>
12    4  0.4424320E-008  0.3108966E+04  0.7818608E-02  0.8213281E-01
         -2   -1    0    0    0  501 -0.00000000000E+00  0.00000000000E+00  0.26291786670E+04  0.26291786670E+04  0.00000000000E+00 0.  1.
          1   -1    0    0  501    0  0.00000000000E+00 -0.00000000000E+00 -0.91907711090E+03  0.91907711090E+03  0.00000000000E+00 0. -1.
        -24    2    1    2    0    0 -0.30904368416E+03  0.34519604525E+02  0.23715774539E+04  0.23932361259E+04  0.80622159956E+02 0.  0.
        254    2    1    2    0    0  0.30904368416E+03 -0.34519604525E+02 -0.66147589779E+03  0.11550196520E+04  0.89432680343E+03 0.  0.
         23    2    4    4    0    0 -0.62882414090E+02  0.40112554287E+02  0.18700583086E+03  0.22120704398E+03  0.91641478140E+02 0.  0.
         23    2    4    4    0    0  0.37192609825E+03 -0.74632158812E+02 -0.84848172865E+03  0.93381260802E+03  0.90475197495E+02 0.  0.
          1    1    3    3  502    0 -0.12455406298E+03 -0.22182645410E+01  0.68851537020E+03  0.69969425488E+03  0.00000000000E+00 0. -1.
         -2    1    3    3    0  502 -0.18448962118E+03  0.36737869066E+02  0.16830620837E+04  0.16935418710E+04  0.00000000000E+00 0.  1.
         11    1    5    5    0    0 -0.65067819900E+02  0.19778625962E+02  0.18880239652E+03  0.20067725373E+03  0.00000000000E+00 0. -1.
        -11    1    5    5    0    0  0.21854058098E+01  0.20333928325E+02 -0.17965656563E+01  0.20529790253E+02  0.00000000000E+00 0.  1.
          4    1    6    6  503    0  0.25570987174E+02 -0.20653524924E+02 -0.34972415746E+02  0.47994930357E+02  0.00000000000E+00 0.  1.
         -4    1    6    6    0  503  0.34635511108E+03 -0.53978633888E+02 -0.81350931290E+03  0.88581767767E+03  0.00000000000E+00 0. -1.
<mgrwt>
<rscale>  0 0.31089663E+04</rscale>
<asrwt>0</asrwt>
<pdfrwt beam="1">  1        1 0.14139648E+00 0.31089663E+04</pdfrwt>
<pdfrwt beam="2">  1       -2 0.40448902E+00 0.31089663E+04</pdfrwt>
<totfact> 0.90007703E-02</totfact>
</mgrwt>
</event>
<event>
12    4  0.4424320E-008  0.1312224E+04  0.7818608E-02  0.9019927E-01
         -2   -1    0    0    0  501 -0.00000000000E+00  0.00000000000E+00  0.10234754637E+04  0.10234754637E+04  0.00000000000E+00 0.  1.
          1   -1    0    0  501    0  0.00000000000E+00 -0.00000000000E+00 -0.42060877337E+03  0.42060877337E+03  0.00000000000E+00 0. -1.
        -24    2    1    2    0    0  0.26971948986E+03 -0.21069125840E+03  0.13011037636E+03  0.37336887058E+03  0.73049256728E+02 0.  0.
        254    2    1    2    0    0 -0.26971948986E+03  0.21069125840E+03  0.47275631398E+03  0.10707153665E+04  0.89765998800E+03 0.  0.
         23    2    4    4    0    0  0.17952015725E+03  0.20808774487E+03 -0.12536611288E+03  0.31674338650E+03  0.95298028357E+02 0.  0.
         23    2    4    4    0    0 -0.44923964711E+03  0.26035135287E+01  0.59812242686E+03  0.75397197998E+03  0.94341243728E+02 0.  0.
          1    1    3    3  502    0  0.15242986917E+03 -0.13361641460E+03  0.40079338379E+02  0.20662663098E+03  0.00000000000E+00 0. -1.
         -2    1    3    3    0  502  0.11728962069E+03 -0.77074843803E+02  0.90031037978E+02  0.16674223961E+03  0.00000000000E+00 0.  1.
         11    1    5    5    0    0  0.11152947295E+03  0.98688172145E+02 -0.11378606099E+03  0.18741783888E+03  0.00000000000E+00 0.  1.
        -11    1    5    5    0    0  0.67990684306E+02  0.10939957273E+03 -0.11580051895E+02  0.12932554762E+03  0.00000000000E+00 0. -1.
          1    1    6    6  503    0 -0.34746730294E+03 -0.14356057602E+02  0.39590353525E+03  0.52695277988E+03  0.00000000000E+00 0. -1.
         -1    1    6    6    0  503 -0.10177234418E+03  0.16959571131E+02  0.20221889161E+03  0.22701920010E+03  0.00000000000E+00 0.  1.
<mgrwt>
<rscale>  0 0.13122237E+04</rscale>
<asrwt>0</asrwt>
<pdfrwt beam="1">  1        1 0.64709042E-01 0.13122237E+04</pdfrwt>
<pdfrwt beam="2">  1       -2 0.15745776E+00 0.13122237E+04</pdfrwt>
<totfact> 0.12647245E+01</totfact>
</mgrwt>
</event>
<event>
12    4  0.4424320E-008  0.4344603E+04  0.7818608E-02  0.7938422E-01
          1   -1    0    0  501    0  0.00000000000E+00  0.00000000000E+00  0.29776176853E+04  0.29776176853E+04  0.00000000000E+00 0. -1.
         -2   -1    0    0    0  501 -0.00000000000E+00 -0.00000000000E+00 -0.15847882340E+04  0.15847882340E+04  0.00000000000E+00 0.  1.
        -24    2    1    2    0    0 -0.23515657051E+03  0.55502707033E+03 -0.14244531032E+04  0.15487003563E+04  0.77797743190E+02 0.  0.
        254    2    1    2    0    0  0.23515657051E+03 -0.55502707033E+03  0.28172825545E+04  0.30137055630E+04  0.88430004356E+03 0.  0.
         23    2    4    4    0    0  0.53868271192E+03 -0.46934860032E+03  0.21947538811E+04  0.23098836738E+04  0.90281865879E+02 0.  0.
         23    2    4    4    0    0 -0.30352614141E+03 -0.85678470004E+02  0.62252867346E+03  0.70382188921E+03  0.91402317834E+02 0.  0.
          1    1    3    3  502    0 -0.10151602637E+03  0.23374690082E+03 -0.50621711847E+03  0.56674411182E+03  0.00000000000E+00 0. -1.
         -2    1    3    3    0  502 -0.13364054414E+03  0.32128016951E+03 -0.91823598478E+03  0.98195624449E+03  0.00000000000E+00 0.  1.
         11    1    5    5    0    0  0.76242577654E+02 -0.10183776718E+03  0.32358204151E+03  0.34769124099E+03  0.00000000000E+00 0. -1.
        -11    1    5    5    0    0  0.46244013426E+03 -0.36751083314E+03  0.18711718396E+04  0.19621924328E+04  0.00000000000E+00 0.  1.
          1    1    6    6  503    0 -0.40842302457E+02 -0.78449360249E+01  0.16832229439E+03  0.17338405774E+03  0.00000000000E+00 0. -1.
         -1    1    6    6    0  503 -0.26268383896E+03 -0.77833533979E+02  0.45420637908E+03  0.53043783147E+03  0.00000000000E+00 0.  1.
<mgrwt>
<rscale>  0 0.43446028E+04</rscale>
<asrwt>0</asrwt>
<pdfrwt beam="1">  1        1 0.45809503E+00 0.43446028E+04</pdfrwt>
<pdfrwt beam="2">  1       -2 0.24381357E+00 0.43446028E+04</pdfrwt>
<totfact> 0.29161324E-02</totfact>
</mgrwt>
</event>
<event>
12    4  0.4424320E-008  0.1397806E+04  0.7818608E-02  0.8955408E-01
         -2   -1    0    0    0  501 -0.00000000000E+00  0.00000000000E+00  0.29311196461E+03  0.29311196461E+03  0.00000000000E+00 0.  1.
          1   -1    0    0  501    0  0.00000000000E+00 -0.00000000000E+00 -0.16664805068E+04  0.16664805068E+04  0.00000000000E+00 0. -1.
        -24    2    1    2    0    0 -0.28300974128E+03 -0.23177541695E+03 -0.16413515926E+03  0.40892437118E+03  0.80401699468E+02 0.  0.
        254    2    1    2    0    0  0.28300974128E+03  0.23177541695E+03 -0.12092333829E+04  0.15506681002E+04  0.89917285608E+03 0.  0.
         23    2    4    4    0    0  0.30928374053E+03  0.44954438663E+03 -0.11892953473E+04  0.13116639905E+04  0.91062687712E+02 0.  0.
         23    2    4    4    0    0 -0.26273999256E+02 -0.21776896967E+03 -0.19938035559E+02  0.23900410969E+03  0.92799741376E+02 0.  0.
          1    1    3    3  502    0 -0.12233813363E+03 -0.77745842481E+02 -0.10389321147E+03  0.17833909934E+03  0.00000000000E+00 0. -1.
         -4    1    3    3    0  502 -0.16067160765E+03 -0.15402957447E+03 -0.60241947789E+02  0.23058527184E+03  0.00000000000E+00 0.  1.
         11    1    5    5    0    0  0.41247254438E+02  0.55929845626E+02 -0.23636706549E+03  0.24637141328E+03  0.00000000000E+00 0. -1.
        -11    1    5    5    0    0  0.26803648610E+03  0.39361454100E+03 -0.95292828183E+03  0.10652925772E+04  0.00000000000E+00 0.  1.
          3    1    6    6  503    0 -0.43033943599E+01 -0.38789061828E+02 -0.42003311927E+02  0.57335754406E+02  0.00000000000E+00 0. -1.
         -3    1    6    6    0  503 -0.21970604896E+02 -0.17897990785E+03  0.22065276368E+02  0.18166835529E+03  0.00000000000E+00 0.  1.
<mgrwt>
<rscale>  0 0.13978060E+04</rscale>
<asrwt>0</asrwt>
<pdfrwt beam="1">  1        1 0.25638161E+00 0.13978060E+04</pdfrwt>
<pdfrwt beam="2">  1       -2 0.45094150E-01 0.13978060E+04</pdfrwt>
<totfact> 0.20056460E+01</totfact>
</mgrwt>
</event>
<event>
12    4  0.4424320E-008  0.1615512E+04  0.7818608E-02  0.8811075E-01
          1   -1    0    0  501    0  0.00000000000E+00  0.00000000000E+00  0.16067135317E+04  0.16067135317E+04  0.00000000000E+00 0. -1.
         -2   -1    0    0    0  501 -0.00000000000E+00 -0.00000000000E+00 -0.40608951463E+03  0.40608951463E+03  0.00000000000E+00 0.  1.
        -24    2    1    2    0    0 -0.39189727508E+03 -0.55405581697E+02 -0.64285486650E+02  0.40985933318E+03  0.84845721770E+02 0.  0.
        254    2    1    2    0    0  0.39189727508E+03  0.55405581697E+02  0.12649095037E+04  0.16029437131E+04  0.90154270125E+03 0.  0.
         23    2    4    4    0    0  0.13306553562E+03  0.27181710548E+03  0.27637370007E+02  0.31725248107E+03  0.91073250327E+02 0.  0.
         23    2    4    4    0    0  0.25883173945E+03 -0.21641152378E+03  0.12372721337E+04  0.12856912320E+04  0.91278663373E+02 0.  0.
          3    1    3    3  502    0 -0.18365699122E+03  0.14026154967E+02 -0.14413350020E+02  0.18475488656E+03  0.00000000000E+00 0. -1.
         -4    1    3    3    0  502 -0.20824028386E+03 -0.69431736664E+02 -0.49872136630E+02  0.22510444662E+03  0.00000000000E+00 0.  1.
         11    1    5    5    0    0 -0.75981755190E+01  0.51191152535E+02 -0.10583429857E+02  0.52823057055E+02  0.00000000000E+00 0. -1.
        -11    1    5    5    0    0  0.14066371114E+03  0.22062595294E+03  0.38220799864E+02  0.26442942402E+03  0.00000000000E+00 0.  1.
          3    1    6    6  503    0  0.23721774482E+02  0.71744222917E+01  0.75388448828E+02  0.79357502080E+02  0.00000000000E+00 0. -1.
         -3    1    6    6    0  503  0.23510996497E+03 -0.22358594607E+03  0.11618836848E+04  0.12063337300E+04  0.00000000000E+00 0.  1.
<mgrwt>
<rscale>  0 0.16155117E+04</rscale>
<asrwt>0</asrwt>
<pdfrwt beam="1">  1        1 0.24718669E+00 0.16155117E+04</pdfrwt>
<pdfrwt beam="2">  1       -2 0.62475311E-01 0.16155117E+04</pdfrwt>
<totfact> 0.11035788E+01</totfact>
</mgrwt>
</event>
<event>
12    4  0.4424320E-008  0.1369993E+04  0.7818608E-02  0.8975830E-01
          1   -1    0    0  501    0  0.00000000000E+00  0.00000000000E+00  0.10943616215E+04  0.10943616215E+04  0.00000000000E+00 0. -1.
         -2   -1    0    0    0  501 -0.00000000000E+00 -0.00000000000E+00 -0.42876162742E+03  0.42876162742E+03  0.00000000000E+00 0.  1.
        -24    2    1    2    0    0  0.49338911434E+02  0.20182622983E+03  0.55013888030E+03  0.59343065291E+03  0.79617818208E+02 0.  0.
        254    2    1    2    0    0 -0.49338911434E+02 -0.20182622983E+03  0.11546111381E+03  0.92969259604E+03  0.89879302350E+03 0.  0.
         23    2    4    4    0    0 -0.40278613941E+03  0.11393996291E+03  0.12379110149E+03  0.44695173484E+03  0.96034510590E+02 0.  0.
         23    2    4    4    0    0  0.35344722798E+03 -0.31576619273E+03 -0.83299876811E+01  0.48274086119E+03  0.91302349007E+02 0.  0.
          3    1    3    3  502    0  0.66607211341E+02  0.11043057231E+03  0.33953856104E+03  0.36320499217E+03  0.00000000000E+00 0. -1.
         -4    1    3    3    0  502 -0.17268299907E+02  0.91395657514E+02  0.21060031926E+03  0.23022566075E+03  0.00000000000E+00 0.  1.
         11    1    5    5    0    0 -0.51768899971E+02  0.30651615687E+02  0.51106624780E+02  0.78939392224E+02  0.00000000000E+00 0. -1.
        -11    1    5    5    0    0 -0.35101723944E+03  0.83288347219E+02  0.72684476714E+02  0.36801234262E+03  0.00000000000E+00 0.  1.
          4    1    6    6  503    0  0.42135201782E+02 -0.23295478818E+02  0.25085024701E+02  0.54289161228E+02  0.00000000000E+00 0.  1.
         -4    1    6    6    0  503  0.31131202619E+03 -0.29247071391E+03 -0.33415012383E+02  0.42845169996E+03  0.00000000000E+00 0. -1.
<mgrwt>
<rscale>  0 0.13699931E+04</rscale>
<asrwt>0</asrwt>
<pdfrwt beam="1">  1        1 0.16836333E+00 0.13699931E+04</pdfrwt>
<pdfrwt beam="2">  1       -2 0.65963328E-01 0.13699931E+04</pdfrwt>
<totfact> 0.23207455E+01</totfact>
</mgrwt>
</event>
<event>
12    4  0.4424320E-008  0.1428426E+04  0.7818608E-02  0.8933496E-01
          1   -1    0    0  501    0  0.00000000000E+00  0.00000000000E+00  0.11088212315E+04  0.11088212315E+04  0.00000000000E+00 0. -1.
         -2   -1    0    0    0  501 -0.00000000000E+00 -0.00000000000E+00 -0.46003821028E+03  0.46003821028E+03  0.00000000000E+00 0.  1.
        -24    2    1    2    0    0  0.79388196815E+02  0.38037878321E+03  0.38433716238E+03  0.55231693778E+03  0.79677103778E+02 0.  0.
        254    2    1    2    0    0 -0.79388196815E+02 -0.38037878321E+03  0.26444585881E+03  0.10165425040E+04  0.90135262001E+03 0.  0.
         23    2    4    4    0    0 -0.16213745623E+03  0.78970369869E+02 -0.24667345078E+03  0.31857075733E+03  0.90081419124E+02 0.  0.
         23    2    4    4    0    0  0.82749259418E+02 -0.45934915308E+03  0.51111930959E+03  0.69797174663E+03  0.89847237512E+02 0.  0.
          1    1    3    3  502    0  0.58136917516E+02  0.36102818507E+03  0.36994491212E+03  0.52017351875E+03  0.00000000000E+00 0. -1.
         -2    1    3    3    0  502  0.21251279299E+02  0.19350598137E+02  0.14392250252E+02  0.32143419037E+02  0.00000000000E+00 0.  1.
         11    1    5    5    0    0 -0.10315766350E+03  0.44500678200E+02 -0.21645027353E+03  0.24386991370E+03  0.00000000000E+00 0.  1.
        -11    1    5    5    0    0 -0.58979792737E+02  0.34469691669E+02 -0.30223177257E+02  0.74700843626E+02  0.00000000000E+00 0. -1.
          2    1    6    6  503    0  0.10244183208E+03 -0.38715338625E+03  0.43001074292E+03  0.58761493554E+03  0.00000000000E+00 0. -1.
         -2    1    6    6    0  503 -0.19692572664E+02 -0.72195766835E+02  0.81108566672E+02  0.11035681109E+03  0.00000000000E+00 0.  1.
<mgrwt>
<rscale>  0 0.14284259E+04</rscale>
<asrwt>0</asrwt>
<pdfrwt beam="1">  1        1 0.17058788E+00 0.14284259E+04</pdfrwt>
<pdfrwt beam="2">  1       -2 0.70775110E-01 0.14284259E+04</pdfrwt>
<totfact> 0.19330710E+01</totfact>
</mgrwt>
</event>
<event>
12    4  0.4424320E-008  0.2417257E+04  0.7818608E-02  0.8433071E-01
          1   -1    0    0  501    0  0.00000000000E+00  0.00000000000E+00  0.18338441524E+04  0.18338441524E+04  0.00000000000E+00 0. -1.
         -2   -1    0    0    0  501 -0.00000000000E+00 -0.00000000000E+00 -0.79656852103E+03  0.79656852103E+03  0.00000000000E+00 0.  1.
        -24    2    1    2    0    0  0.83658118020E+03  0.36064505200E+03 -0.60342704796E+02  0.91638449046E+03  0.78653466115E+02 0.  0.
        254    2    1    2    0    0 -0.83658118020E+03 -0.36064505200E+03  0.10976183362E+04  0.17140281830E+04  0.95036502225E+03 0.  0.
         23    2    4    4    0    0 -0.84025066317E+02 -0.15796827704E+03  0.87606429464E+03  0.89873447447E+03  0.90668731934E+02 0.  0.
         23    2    4    4    0    0 -0.75255611389E+03 -0.20267677497E+03  0.22155404152E+03  0.81529370849E+03  0.90548650626E+02 0.  0.
          1    1    3    3  502    0  0.23502217089E+02  0.16920734481E+01 -0.11592282386E+02  0.26260204332E+02  0.00000000000E+00 0. -1.
         -2    1    3    3    0  502  0.81307896311E+03  0.35895297856E+03 -0.48750422411E+02  0.89012428613E+03  0.00000000000E+00 0.  1.
         11    1    5    5    0    0 -0.49076078403E+02 -0.53000965417E+02  0.54284215288E+03  0.54762684992E+03  0.00000000000E+00 0. -1.
        -11    1    5    5    0    0 -0.34948987913E+02 -0.10496731162E+03  0.33322214175E+03  0.35110762455E+03  0.00000000000E+00 0.  1.
          2    1    6    6  503    0 -0.16033900608E+03 -0.82048801625E+02  0.56951474311E+02  0.18890228464E+03  0.00000000000E+00 0. -1.
         -2    1    6    6    0  503 -0.59221710781E+03 -0.12062797334E+03  0.16460256721E+03  0.62639142385E+03  0.00000000000E+00 0.  1.
<mgrwt>
<rscale>  0 0.24172567E+04</rscale>
<asrwt>0</asrwt>
<pdfrwt beam="1">  1        1 0.28212987E+00 0.24172567E+04</pdfrwt>
<pdfrwt beam="2">  1       -2 0.12254900E+00 0.24172567E+04</pdfrwt>
<totfact> 0.15304029E+00</totfact>
</mgrwt>
</event>
<event>
12    4  0.4424320E-008  0.3943612E+04  0.7818608E-02  0.8016019E-01
         -2   -1    0    0    0  501 -0.00000000000E+00  0.00000000000E+00  0.16722724564E+04  0.16722724564E+04  0.00000000000E+00 0.  1.
          1   -1    0    0  501    0  0.00000000000E+00 -0.00000000000E+00 -0.23249912411E+04  0.23249912411E+04  0.00000000000E+00 0. -1.
        -24    2    1    2    0    0  0.61330123927E+03  0.11778206155E+04  0.10206959156E+04  0.16767672682E+04  0.79551915329E+02 0.  0.
        254    2    1    2    0    0 -0.61330123927E+03 -0.11778206155E+04 -0.16734147003E+04  0.23204964294E+04  0.90608338875E+03 0.  0.
         23    2    4    4    0    0 -0.56624747259E+03 -0.45160406013E+03 -0.35382637017E+03  0.81080281119E+03  0.87325088398E+02 0.  0.
         23    2    4    4    0    0 -0.47053766679E+02 -0.72621655532E+03 -0.13195883301E+04  0.15096936182E+04  0.90867583048E+02 0.  0.
          1    1    3    3  502    0  0.36331757200E+02  0.38856766248E+02  0.48605407742E+02  0.72057827654E+02  0.00000000000E+00 0. -1.
         -2    1    3    3    0  502  0.57696948207E+03  0.11389638492E+04  0.97209050784E+03  0.16047094405E+04  0.00000000000E+00 0.  1.
         11    1    5    5    0    0 -0.15449660541E+02 -0.16777917995E+02  0.38944481808E+01  0.23137788782E+02  0.00000000000E+00 0. -1.
        -11    1    5    5    0    0 -0.55079781205E+03 -0.43482614214E+03 -0.35772081835E+03  0.78766502241E+03  0.00000000000E+00 0.  1.
          3    1    6    6  503    0 -0.39727061241E+01 -0.94349366577E+01 -0.50600897951E+02  0.51626071874E+02  0.00000000000E+00 0. -1.
         -3    1    6    6    0  503 -0.43081060555E+02 -0.71678161867E+03 -0.12689874322E+04  0.14580675463E+04  0.00000000000E+00 0.  1.
<mgrwt>
<rscale>  0 0.39436120E+04</rscale>
<asrwt>0</asrwt>
<pdfrwt beam="1">  1        1 0.35769096E+00 0.39436120E+04</pdfrwt>
<pdfrwt beam="2">  1       -2 0.25727269E+00 0.39436120E+04</pdfrwt>
<totfact> 0.71743663E-02</totfact>
</mgrwt>
</event>
<event>
12    4  0.4424320E-008  0.1123214E+04  0.7818608E-02  0.9182856E-01
         -2   -1    0    0    0  501 -0.00000000000E+00  0.00000000000E+00  0.11723110502E+03  0.11723110502E+03  0.00000000000E+00 0.  1.
          1   -1    0    0  501    0  0.00000000000E+00 -0.00000000000E+00 -0.26904352035E+04  0.26904352035E+04  0.00000000000E+00 0. -1.
        -24    2    1    2    0    0  0.18036083208E+02  0.12829754251E+03 -0.12763203811E+03  0.19891387245E+03  0.80568181002E+02 0.  0.
        254    2    1    2    0    0 -0.18036083208E+02 -0.12829754251E+03 -0.24455720604E+04  0.26087524361E+04  0.89887763936E+03 0.  0.
         23    2    4    4    0    0  0.10037989189E+03 -0.31807777700E+03 -0.32651293058E+03  0.47594588481E+03  0.93081665842E+02 0.  0.
         23    2    4    4    0    0 -0.11841597510E+03  0.18978023450E+03 -0.21190591298E+04  0.21328065513E+04  0.91724091551E+02 0.  0.
          1    1    3    3  502    0  0.15097186633E+02  0.18749457875E+02 -0.72194644234E+02  0.76102127900E+02  0.00000000000E+00 0. -1.
         -2    1    3    3    0  502  0.29388965753E+01  0.10954808463E+03 -0.55437393877E+02  0.12281174455E+03  0.00000000000E+00 0.  1.
         11    1    5    5    0    0  0.40564073761E+02 -0.24399909153E+03 -0.26547811787E+03  0.36284932385E+03  0.00000000000E+00 0. -1.
        -11    1    5    5    0    0  0.59815818130E+02 -0.74078685473E+02 -0.61034812703E+02  0.11309656096E+03  0.00000000000E+00 0.  1.
          1    1    6    6  503    0 -0.13184830832E+03  0.17970504190E+03 -0.20280969976E+04  0.20403076509E+04  0.00000000000E+00 0. -1.
         -1    1    6    6    0  503  0.13432333219E+02  0.10075192599E+02 -0.90962132162E+02  0.92498900367E+02  0.00000000000E+00 0.  1.
<mgrwt>
<rscale>  0 0.11232145E+04</rscale>
<asrwt>0</asrwt>
<pdfrwt beam="1">  1        1 0.41391312E+00 0.11232145E+04</pdfrwt>
<pdfrwt beam="2">  1       -2 0.18035554E-01 0.11232145E+04</pdfrwt>
<totfact> 0.22540040E+01</totfact>
</mgrwt>
</event>
<event>
12    4  0.4424320E-008  0.1254370E+04  0.7818608E-02  0.9066554E-01
         -2   -1    0    0    0  501 -0.00000000000E+00  0.00000000000E+00  0.36726097321E+03  0.36726097321E+03  0.00000000000E+00 0.  1.
          1   -1    0    0  501    0  0.00000000000E+00 -0.00000000000E+00 -0.10710664234E+04  0.10710664234E+04  0.00000000000E+00 0. -1.
        -24    2    1    2    0    0  0.23454893143E+02 -0.14550506164E+03 -0.48992740710E+03  0.51784787126E+03  0.80098055939E+02 0.  0.
        254    2    1    2    0    0 -0.23454893143E+02  0.14550506164E+03 -0.21387804311E+03  0.92047952538E+03  0.88307241172E+03 0.  0.
         23    2    4    4    0    0  0.14595232699E+03  0.14074760224E+03 -0.51678845826E+03  0.56266566089E+03  0.91708047998E+02 0.  0.
         23    2    4    4    0    0 -0.16940722013E+03  0.47574593931E+01  0.30291041515E+03  0.35781386449E+03  0.86917215558E+02 0.  0.
          1    1    3    3  502    0  0.25327152063E+02 -0.14719274649E+03 -0.38596973345E+03  0.41385964334E+03  0.00000000000E+00 0. -1.
         -2    1    3    3    0  502 -0.18722589205E+01  0.16876848538E+01 -0.10395767365E+03  0.10398822792E+03  0.00000000000E+00 0.  1.
         11    1    5    5    0    0 -0.83896223075E+01  0.24436502541E+02 -0.34540866114E+02  0.43134671099E+02  0.00000000000E+00 0. -1.
        -11    1    5    5    0    0  0.15434194930E+03  0.11631109970E+03 -0.48224759214E+03  0.51953098979E+03  0.00000000000E+00 0.  1.
          3    1    6    6  503    0 -0.26890807522E+01  0.18976148929E+02  0.13253567489E+02  0.23301983492E+02  0.00000000000E+00 0. -1.
         -3    1    6    6    0  503 -0.16671813938E+03 -0.14218689536E+02  0.28965684766E+03  0.33451188100E+03  0.00000000000E+00 0.  1.
<mgrwt>
<rscale>  0 0.12543698E+04</rscale>
<asrwt>0</asrwt>
<pdfrwt beam="1">  1        1 0.16477945E+00 0.12543698E+04</pdfrwt>
<pdfrwt beam="2">  1       -2 0.56501688E-01 0.12543698E+04</pdfrwt>
<totfact> 0.33877545E+01</totfact>
</mgrwt>
</event>
<event>
12    4  0.4424320E-008  0.1629813E+04  0.7818608E-02  0.8802439E-01
          1   -1    0    0  501    0  0.00000000000E+00  0.00000000000E+00  0.23435585065E+04  0.23435585065E+04  0.00000000000E+00 0. -1.
         -2   -1    0    0    0  501 -0.00000000000E+00 -0.00000000000E+00 -0.28336071277E+03  0.28336071277E+03  0.00000000000E+00 0.  1.
        -24    2    1    2    0    0 -0.34152725927E+03  0.41651567455E+02  0.34879485404E+00  0.35271629018E+03  0.77671988565E+02 0.  0.
        254    2    1    2    0    0  0.34152725927E+03 -0.41651567455E+02  0.20598489989E+04  0.22742029291E+04  0.90035845228E+03 0.  0.
         23    2    4    4    0    0 -0.13380273952E+02  0.30089785893E+03  0.14499563108E+04  0.14841930446E+04  0.98676933842E+02 0.  0.
         23    2    4    4    0    0  0.35490753322E+03 -0.34254942639E+03  0.60989268810E+03  0.79000988448E+03  0.94058810958E+02 0.  0.
          1    1    3    3  502    0 -0.22062097190E+03  0.36601749655E+02 -0.35657651908E+02  0.22646140832E+03  0.00000000000E+00 0. -1.
         -2    1    3    3    0  502 -0.12090628737E+03  0.50498177996E+01  0.36006446762E+02  0.12625488186E+03  0.00000000000E+00 0.  1.
         11    1    5    5    0    0 -0.20607439128E+02  0.25182721645E+03  0.99657501111E+03  0.10281066901E+04  0.00000000000E+00 0. -1.
        -11    1    5    5    0    0  0.72271651768E+01  0.49070642480E+02  0.45338129964E+03  0.45608635447E+03  0.00000000000E+00 0.  1.
          4    1    6    6  503    0  0.18485563058E+03 -0.18943105682E+03  0.39908505724E+03  0.47887849436E+03  0.00000000000E+00 0. -1.
         -4    1    6    6    0  503  0.17005190264E+03 -0.15311836957E+03  0.21080763087E+03  0.31113139012E+03  0.00000000000E+00 0.  1.
<mgrwt>
<rscale>  0 0.16298128E+04</rscale>
<asrwt>0</asrwt>
<pdfrwt beam="1">  1        1 0.36054745E+00 0.16298128E+04</pdfrwt>
<pdfrwt beam="2">  1       -2 0.43593957E-01 0.16298128E+04</pdfrwt>
<totfact> 0.72954595E+00</totfact>
</mgrwt>
</event>
<event>
12    4  0.4424320E-008  0.1204124E+04  0.7818608E-02  0.9109254E-01
         -2   -1    0    0    0  501 -0.00000000000E+00  0.00000000000E+00  0.71678465561E+03  0.71678465561E+03  0.00000000000E+00 0.  1.
          1   -1    0    0  501    0  0.00000000000E+00 -0.00000000000E+00 -0.50570093954E+03  0.50570093954E+03  0.00000000000E+00 0. -1.
        -24    2    1    2    0    0 -0.12066979002E+02  0.29831887871E+02  0.30095706930E+03  0.31634290841E+03  0.91989807166E+02 0.  0.
        254    2    1    2    0    0  0.12066979002E+02 -0.29831887871E+02 -0.89873353237E+02  0.90614268674E+03  0.90110032493E+03 0.  0.
         23    2    4    4    0    0 -0.29814676847E+03 -0.30547180366E+03  0.89287040796E+02  0.44465669556E+03  0.86849771853E+02 0.  0.
         23    2    4    4    0    0  0.31021374747E+03  0.27563991579E+03 -0.17916039403E+03  0.46148599119E+03  0.93064176654E+02 0.  0.
          3    1    3    3  502    0  0.16033249576E+02  0.43456208628E+02  0.74378173700E+02  0.87622028528E+02  0.00000000000E+00 0. -1.
         -4    1    3    3    0  502 -0.28100228579E+02 -0.13624320757E+02  0.22657889560E+03  0.22872087988E+03  0.00000000000E+00 0.  1.
         11    1    5    5    0    0 -0.28630090511E+03 -0.25814791747E+03  0.90013267035E+02  0.39586733107E+03  0.00000000000E+00 0. -1.
        -11    1    5    5    0    0 -0.11845863351E+02 -0.47323886192E+02 -0.72622623870E+00  0.48789364490E+02  0.00000000000E+00 0.  1.
          1    1    6    6  503    0  0.30513644718E+03  0.27399453305E+03 -0.15770542228E+03  0.43937712247E+03  0.00000000000E+00 0. -1.
         -1    1    6    6    0  503  0.50773002902E+01  0.16453827374E+01 -0.21454971758E+02  0.22108868712E+02  0.00000000000E+00 0.  1.
<mgrwt>
<rscale>  0 0.12041240E+04</rscale>
<asrwt>0</asrwt>
<pdfrwt beam="1">  1        1 0.77800145E-01 0.12041240E+04</pdfrwt>
<pdfrwt beam="2">  1       -2 0.11027456E+00 0.12041240E+04</pdfrwt>
<totfact> 0.24653139E+01</totfact>
</mgrwt>
</event>
<event>
12    4  0.4424320E-008  0.1961199E+04  0.7818608E-02  0.8624979E-01
         -2   -1    0    0    0  501 -0.00000000000E+00  0.00000000000E+00  0.42137469667E+03  0.42137469667E+03  0.00000000000E+00 0.  1.
          1   -1    0    0  501    0  0.00000000000E+00 -0.00000000000E+00 -0.22819954086E+04  0.22819954086E+04  0.00000000000E+00 0. -1.
        -24    2    1    2    0    0  0.24873966184E+03  0.72100734655E+03 -0.10683297762E+04  0.13152507274E+04  0.82661671309E+02 0.  0.
        254    2    1    2    0    0 -0.24873966184E+03 -0.72100734655E+03 -0.79229093569E+03  0.13881193779E+04  0.84701090154E+03 0.  0.
         23    2    4    4    0    0  0.23809330471E+03  0.63984429067E+01 -0.22616869855E+03  0.34168867618E+03  0.94178072870E+02 0.  0.
         23    2    4    4    0    0 -0.48683296655E+03 -0.72740578946E+03 -0.56612223714E+03  0.10464307017E+04  0.91636816967E+02 0.  0.
          1    1    3    3  502    0  0.24657311263E+03  0.64338492093E+03 -0.94513801836E+03  0.11696274322E+04  0.00000000000E+00 0. -1.
         -2    1    3    3    0  502  0.21665492130E+01  0.77622425620E+02 -0.12319175786E+03  0.14562329518E+03  0.00000000000E+00 0.  1.
         11    1    5    5    0    0  0.85071328196E+02 -0.42144829106E+02 -0.95926342015E+02  0.13496362693E+03  0.00000000000E+00 0. -1.
        -11    1    5    5    0    0  0.15302197651E+03  0.48543272013E+02 -0.13024235654E+03  0.20672504925E+03  0.00000000000E+00 0.  1.
          3    1    6    6  503    0 -0.11154613881E+03 -0.14756861479E+03 -0.78470775641E+02  0.20093954261E+03  0.00000000000E+00 0. -1.
         -3    1    6    6    0  503 -0.37528682774E+03 -0.57983717467E+03 -0.48765146150E+03  0.84549115909E+03  0.00000000000E+00 0.  1.
<mgrwt>
<rscale>  0 0.19611987E+04</rscale>
<asrwt>0</asrwt>
<pdfrwt beam="1">  1        1 0.35107621E+00 0.19611987E+04</pdfrwt>
<pdfrwt beam="2">  1       -2 0.64826877E-01 0.19611987E+04</pdfrwt>
<totfact> 0.34379071E+00</totfact>
</mgrwt>
</event>
<event>
12    4  0.4424320E-008  0.1334110E+04  0.7818608E-02  0.9002944E-01
          1   -1    0    0  501    0  0.00000000000E+00  0.00000000000E+00  0.59806326342E+03  0.59806326342E+03  0.00000000000E+00 0. -1.
         -2   -1    0    0    0  501 -0.00000000000E+00 -0.00000000000E+00 -0.74400558884E+03  0.74400558884E+03  0.00000000000E+00 0.  1.
        -24    2    1    2    0    0  0.20397027519E+03  0.18068671081E+03  0.19495432133E+03  0.34425215706E+03  0.79061998518E+02 0.  0.
        254    2    1    2    0    0 -0.20397027519E+03 -0.18068671081E+03 -0.34089664675E+03  0.99781669520E+03  0.89731603843E+03 0.  0.
         23    2    4    4    0    0  0.12348121842E+03 -0.11154687955E+03 -0.55589472878E+03  0.58750361841E+03  0.91930596194E+02 0.  0.
         23    2    4    4    0    0 -0.32745149361E+03 -0.69139831265E+02  0.21499808203E+03  0.41031307679E+03  0.10063721365E+03 0.  0.
          3    1    3    3  502    0  0.17706946965E+03  0.13095779406E+03  0.12139876954E+03  0.25147803513E+03  0.00000000000E+00 0. -1.
         -4    1    3    3    0  502  0.26900805534E+02  0.49728916753E+02  0.73555551794E+02  0.92774121928E+02  0.00000000000E+00 0.  1.
         11    1    5    5    0    0  0.12036972762E+03 -0.53196792795E+02 -0.37723722221E+03  0.39953309239E+03  0.00000000000E+00 0.  1.
        -11    1    5    5    0    0  0.31114908058E+01 -0.58350086755E+02 -0.17865750657E+03  0.18797052602E+03  0.00000000000E+00 0. -1.
          4    1    6    6  503    0 -0.25568059532E+02  0.21611155934E+02  0.29064140930E+02  0.44333869863E+02  0.00000000000E+00 0. -1.
         -4    1    6    6    0  503 -0.30188343408E+03 -0.90750987199E+02  0.18593394110E+03  0.36597920692E+03  0.00000000000E+00 0.  1.
<mgrwt>
<rscale>  0 0.13341101E+04</rscale>
<asrwt>0</asrwt>
<pdfrwt beam="1">  1        1 0.92009733E-01 0.13341101E+04</pdfrwt>
<pdfrwt beam="2">  1       -2 0.11446240E+00 0.13341101E+04</pdfrwt>
<totfact> 0.17597691E+01</totfact>
</mgrwt>
</event>
<event>
12    4  0.4424320E-008  0.2108175E+04  0.7818608E-02  0.8557651E-01
         -2   -1    0    0    0  501 -0.00000000000E+00  0.00000000000E+00  0.12210126215E+04  0.12210126215E+04  0.00000000000E+00 0.  1.
          1   -1    0    0  501    0  0.00000000000E+00 -0.00000000000E+00 -0.90998252810E+03  0.90998252810E+03  0.00000000000E+00 0. -1.
        -24    2    1    2    0    0  0.22854623100E+03  0.79558287246E+03 -0.10609977526E+03  0.83834242573E+03  0.79845937996E+02 0.  0.
        254    2    1    2    0    0 -0.22854623100E+03 -0.79558287246E+03  0.41712986865E+03  0.12926527239E+04  0.90098182587E+03 0.  0.
         23    2    4    4    0    0  0.29133095528E+03 -0.71220476104E+02  0.19583996667E+03  0.36969279633E+03  0.91506225987E+02 0.  0.
         23    2    4    4    0    0 -0.51987718627E+03 -0.72436239635E+03  0.22128990198E+03  0.92295992753E+03  0.88953004778E+02 0.  0.
          1    1    3    3  502    0  0.21607989280E+03  0.71749146195E+03 -0.73900018685E+02  0.75295798742E+03  0.00000000000E+00 0. -1.
         -2    1    3    3    0  502  0.12466338191E+02  0.78091410503E+02 -0.32199756576E+02  0.85384438312E+02  0.00000000000E+00 0.  1.
         11    1    5    5    0    0  0.12137958700E+02 -0.16453445964E+02  0.40900051642E+02  0.45725924264E+02  0.00000000000E+00 0.  1.
        -11    1    5    5    0    0  0.27919299657E+03 -0.54767030140E+02  0.15493991503E+03  0.32396687207E+03  0.00000000000E+00 0. -1.
          1    1    6    6  503    0 -0.37950267661E+03 -0.52672742915E+03  0.11982718743E+03  0.66016863074E+03  0.00000000000E+00 0. -1.
         -1    1    6    6    0  503 -0.14037450966E+03 -0.19763496721E+03  0.10146271455E+03  0.26279129679E+03  0.00000000000E+00 0.  1.
<mgrwt>
<rscale>  0 0.21081747E+04</rscale>
<asrwt>0</asrwt>
<pdfrwt beam="1">  1        1 0.13999731E+00 0.21081747E+04</pdfrwt>
<pdfrwt beam="2">  1       -2 0.18784810E+00 0.21081747E+04</pdfrwt>
<totfact> 0.23046721E+00</totfact>
</mgrwt>
</event>
<event>
12    4  0.4424320E-008  0.2611324E+04  0.7818608E-02  0.8364365E-01
          3   -1    0    0  501    0  0.00000000000E+00  0.00000000000E+00  0.10382494837E+04  0.10382494837E+04  0.00000000000E+00 0. -1.
         -4   -1    0    0    0  501 -0.00000000000E+00 -0.00000000000E+00 -0.16419500685E+04  0.16419500685E+04  0.00000000000E+00 0.  1.
        -24    2    1    2    0    0 -0.62121027670E+03  0.73340867710E+03 -0.90644466826E+03  0.13235077224E+04  0.78995310523E+02 0.  0.
        254    2    1    2    0    0  0.62121027670E+03 -0.73340867710E+03  0.30274408347E+03  0.13566918299E+04  0.90838771769E+03 0.  0.
         23    2    4    4    0    0  0.73801402155E+03 -0.24408083211E+03  0.32046466910E+03  0.84573221782E+03  0.91242706683E+02 0.  0.
         23    2    4    4    0    0 -0.11680374485E+03 -0.48932784498E+03 -0.17720585625E+02  0.51095961204E+03  0.87640466112E+02 0.  0.
          1    1    3    3  502    0 -0.89184353614E+01  0.97695162138E+01 -0.28751315320E+02  0.31648381775E+02  0.00000000000E+00 0. -1.
         -2    1    3    3    0  502 -0.61229184133E+03  0.72363916088E+03 -0.87769335294E+03  0.12918593406E+04  0.00000000000E+00 0.  1.
         11    1    5    5    0    0  0.64877827313E+03 -0.24320238122E+03  0.27352817093E+03  0.74490154128E+03  0.00000000000E+00 0. -1.
        -11    1    5    5    0    0  0.89235748416E+02 -0.87845089641E+00  0.46936498167E+02  0.10083067654E+03  0.00000000000E+00 0.  1.
          2    1    6    6  503    0 -0.10804161143E+03 -0.32411718735E+03 -0.40157507497E+02  0.34400227666E+03  0.00000000000E+00 0. -1.
         -2    1    6    6    0  503 -0.87621334224E+01 -0.16521065763E+03  0.22436921873E+02  0.16695733539E+03  0.00000000000E+00 0.  1.
<mgrwt>
<rscale>  0 0.26113244E+04</rscale>
<asrwt>0</asrwt>
<pdfrwt beam="1">  1        3 0.15973069E+00 0.26113244E+04</pdfrwt>
<pdfrwt beam="2">  1       -4 0.25260770E+00 0.26113244E+04</pdfrwt>
<totfact> 0.33567523E-02</totfact>
</mgrwt>
</event>
<event>
12    4  0.4424320E-008  0.1354284E+04  0.7818608E-02  0.8987591E-01
          1   -1    0    0  501    0  0.00000000000E+00  0.00000000000E+00  0.22510375336E+04  0.22510375336E+04  0.00000000000E+00 0. -1.
         -2   -1    0    0    0  501 -0.00000000000E+00 -0.00000000000E+00 -0.20369335854E+03  0.20369335854E+03  0.00000000000E+00 0.  1.
        -24    2    1    2    0    0 -0.34535074034E+03 -0.94716495636E+02  0.37898455768E+03  0.52780174859E+03  0.81896535053E+02 0.  0.
        254    2    1    2    0    0  0.34535074034E+03  0.94716495636E+02  0.16683596174E+04  0.19269291435E+04  0.89520598913E+03 0.  0.
         23    2    4    4    0    0  0.62504219946E+03  0.39569673168E+01  0.91047254819E+03  0.11081529912E+04  0.91374953999E+02 0.  0.
         23    2    4    4    0    0 -0.27969145912E+03  0.90759528319E+02  0.75788706917E+03  0.81877615233E+03  0.97657430438E+02 0.  0.
          3    1    3    3  502    0 -0.22544758938E+02 -0.86026320624E+01  0.64942251527E+02  0.69280354123E+02  0.00000000000E+00 0. -1.
         -4    1    3    3    0  502 -0.32280598140E+03 -0.86113863573E+02  0.31404230616E+03  0.45852139447E+03  0.00000000000E+00 0.  1.
         11    1    5    5    0    0  0.42243470738E+02 -0.19495389603E+02  0.46933708948E+02  0.66085959714E+02  0.00000000000E+00 0. -1.
        -11    1    5    5    0    0  0.58279872872E+03  0.23452356920E+02  0.86353883924E+03  0.10420670315E+04  0.00000000000E+00 0.  1.
          4    1    6    6  503    0 -0.15859217509E+03  0.68553450288E+02  0.55682017122E+03  0.58300922516E+03  0.00000000000E+00 0. -1.
         -4    1    6    6    0  503 -0.12109928403E+03  0.22206078031E+02  0.20106689796E+03  0.23576692717E+03  0.00000000000E+00 0.  1.
<mgrwt>
<rscale>  0 0.13542842E+04</rscale>
<asrwt>0</asrwt>
<pdfrwt beam="1">  1        1 0.34631345E+00 0.13542842E+04</pdfrwt>
<pdfrwt beam="2">  1       -2 0.31337441E-01 0.13542842E+04</pdfrwt>
<totfact> 0.16358739E+01</totfact>
</mgrwt>
</event>
<event>
12    4  0.4424320E-008  0.2785462E+04  0.7818608E-02  0.8307796E-01
         -4   -1    0    0    0  501 -0.00000000000E+00  0.00000000000E+00  0.12238891129E+04  0.12238891129E+04  0.00000000000E+00 0.  1.
          1   -1    0    0  501    0  0.00000000000E+00 -0.00000000000E+00 -0.15848656384E+04  0.15848656384E+04  0.00000000000E+00 0. -1.
        -24    2    1    2    0    0  0.34016983716E+03  0.10657593969E+04 -0.71340574746E+03  0.13292012066E+04  0.79180029493E+02 0.  0.
        254    2    1    2    0    0 -0.34016983716E+03 -0.10657593969E+04  0.35242922197E+03  0.14795535447E+04  0.90183907930E+03 0.  0.
         23    2    4    4    0    0 -0.31991837912E+03 -0.99444741699E+01 -0.66621918689E+02  0.33974450615E+03  0.92418545426E+02 0.  0.
         23    2    4    4    0    0 -0.20251458033E+02 -0.10558149227E+04  0.41905114066E+03  0.11398090385E+04  0.91681586461E+02 0.  0.
          1    1    3    3  502    0  0.22997729871E+03  0.80096313557E+03 -0.55924037895E+03  0.10035842286E+04  0.00000000000E+00 0. -1.
         -2    1    3    3    0  502  0.11019253845E+03  0.26479626130E+03 -0.15416536851E+03  0.32561697802E+03  0.00000000000E+00 0.  1.
         11    1    5    5    0    0 -0.14478631265E+03 -0.22528555397E+02  0.12694075583E+02  0.14707736636E+03  0.00000000000E+00 0. -1.
        -11    1    5    5    0    0 -0.17513206647E+03  0.12584081227E+02 -0.79315994272E+02  0.19266713979E+03  0.00000000000E+00 0.  1.
          3    1    6    6  503    0  0.35541651550E+02 -0.52064313737E+03  0.21209501626E+03  0.56330877980E+03  0.00000000000E+00 0. -1.
         -3    1    6    6    0  503 -0.55793109583E+02 -0.53517178533E+03  0.20695612440E+03  0.57650025873E+03  0.00000000000E+00 0.  1.
<mgrwt>
<rscale>  0 0.27854621E+04</rscale>
<asrwt>0</asrwt>
<pdfrwt beam="1">  1        1 0.24382548E+00 0.27854621E+04</pdfrwt>
<pdfrwt beam="2">  1       -4 0.18829063E+00 0.27854621E+04</pdfrwt>
<totfact> 0.37995288E-01</totfact>
</mgrwt>
</event>
<event>
12    4  0.4424320E-008  0.3600751E+04  0.7818608E-02  0.8090320E-01
         -2   -1    0    0    0  501 -0.00000000000E+00  0.00000000000E+00  0.15676417538E+04  0.15676417538E+04  0.00000000000E+00 0.  1.
          1   -1    0    0  501    0  0.00000000000E+00 -0.00000000000E+00 -0.20676608240E+04  0.20676608240E+04  0.00000000000E+00 0. -1.
        -24    2    1    2    0    0 -0.76526687502E+03  0.75890146124E+03  0.10752584175E+04  0.15245370007E+04  0.80421291751E+02 0.  0.
        254    2    1    2    0    0  0.76526687502E+03 -0.75890146124E+03 -0.15752774877E+04  0.21107655772E+04  0.90125875354E+03 0.  0.
         23    2    4    4    0    0  0.89066115839E+03 -0.84052490172E+03 -0.14167383035E+04  0.18748329899E+04  0.89955045345E+02 0.  0.
         23    2    4    4    0    0 -0.12539428336E+03  0.81623440480E+02 -0.15853918422E+03  0.23593258727E+03  0.90240791597E+02 0.  0.
          3    1    3    3  502    0 -0.32122837145E+03  0.35548779475E+03  0.52015867575E+03  0.70719465977E+03  0.00000000000E+00 0. -1.
         -4    1    3    3    0  502 -0.44403850357E+03  0.40341366649E+03  0.55509974171E+03  0.81734234089E+03  0.00000000000E+00 0.  1.
         11    1    5    5    0    0  0.83221717578E+03 -0.81048023994E+03 -0.13531530269E+04  0.17833919259E+04  0.00000000000E+00 0.  1.
        -11    1    5    5    0    0  0.58443982605E+02 -0.30044661775E+02 -0.63585276547E+02  0.91441064066E+02  0.00000000000E+00 0. -1.
          3    1    6    6  503    0 -0.22327775160E+02  0.31537003525E+02  0.19983978526E+01  0.38692450541E+02  0.00000000000E+00 0. -1.
         -3    1    6    6    0  503 -0.10306650820E+03  0.50086436955E+02 -0.16053758207E+03  0.19724013673E+03  0.00000000000E+00 0.  1.
<mgrwt>
<rscale>  0 0.36007507E+04</rscale>
<asrwt>0</asrwt>
<pdfrwt beam="1">  1        1 0.31810166E+00 0.36007507E+04</pdfrwt>
<pdfrwt beam="2">  1       -2 0.24117565E+00 0.36007507E+04</pdfrwt>
<totfact> 0.13891881E-01</totfact>
</mgrwt>
</event>
<event>
12    4  0.4424320E-008  0.1713057E+04  0.7818608E-02  0.8753952E-01
         -2   -1    0    0    0  501 -0.00000000000E+00  0.00000000000E+00  0.45243301042E+03  0.45243301042E+03  0.00000000000E+00 0.  1.
          1   -1    0    0  501    0  0.00000000000E+00 -0.00000000000E+00 -0.16215465924E+04  0.16215465924E+04  0.00000000000E+00 0. -1.
        -24    2    1    2    0    0  0.88633344698E+02 -0.50996889967E+03 -0.21738294131E+02  0.52412827959E+03  0.79459119168E+02 0.  0.
        254    2    1    2    0    0 -0.88633344698E+02  0.50996889967E+03 -0.11473752879E+04  0.15498513233E+04  0.90423720590E+03 0.  0.
         23    2    4    4    0    0  0.28183399823E+03  0.41209938269E+03 -0.24040908117E+03  0.56118536730E+03  0.88747881037E+02 0.  0.
         23    2    4    4    0    0 -0.37046734293E+03  0.97869516977E+02 -0.90696620671E+03  0.98866595596E+03  0.89711637075E+02 0.  0.
          1    1    3    3  502    0  0.65798684195E+02 -0.32476094373E+03  0.23241551778E+02  0.33217360995E+03  0.00000000000E+00 0. -1.
         -2    1    3    3    0  502  0.22834660503E+02 -0.18520795593E+03 -0.44979845909E+02  0.19195466965E+03  0.00000000000E+00 0.  1.
         11    1    5    5    0    0  0.15820589853E+03  0.20063375781E+03 -0.16787120454E+03  0.30571842015E+03  0.00000000000E+00 0. -1.
        -11    1    5    5    0    0  0.12362809970E+03  0.21146562488E+03 -0.72537876629E+02  0.25546694715E+03  0.00000000000E+00 0.  1.
          3    1    6    6  503    0 -0.25367511118E+03  0.48559240786E+02 -0.50553942856E+03  0.56769637636E+03  0.00000000000E+00 0. -1.
         -3    1    6    6    0  503 -0.11679223174E+03  0.49310276191E+02 -0.40142677815E+03  0.42096957960E+03  0.00000000000E+00 0.  1.
<mgrwt>
<rscale>  0 0.17130572E+04</rscale>
<asrwt>0</asrwt>
<pdfrwt beam="1">  1        1 0.24946870E+00 0.17130572E+04</pdfrwt>
<pdfrwt beam="2">  1       -2 0.69605080E-01 0.17130572E+04</pdfrwt>
<totfact> 0.84681114E+00</totfact>
</mgrwt>
</event>
<event>
12    4  0.4424320E-008  0.1869812E+04  0.7818608E-02  0.8670030E-01
          1   -1    0    0  501    0  0.00000000000E+00  0.00000000000E+00  0.13963731494E+04  0.13963731494E+04  0.00000000000E+00 0. -1.
         -2   -1    0    0    0  501 -0.00000000000E+00 -0.00000000000E+00 -0.62594266104E+03  0.62594266104E+03  0.00000000000E+00 0.  1.
        -24    2    1    2    0    0  0.16995411178E+03 -0.43276795056E+03  0.88162142094E+03  0.10002436056E+04  0.84014531907E+02 0.  0.
        254    2    1    2    0    0 -0.16995411178E+03  0.43276795056E+03 -0.11119093259E+03  0.10220722048E+04  0.90338013550E+03 0.  0.
         23    2    4    4    0    0  0.11205930872E+03  0.35415265414E+03 -0.43259896731E+03  0.57766836393E+03  0.92614691400E+02 0.  0.
         23    2    4    4    0    0 -0.28201342049E+03  0.78615296418E+02  0.32140803473E+03  0.44440384088E+03  0.92085367110E+02 0.  0.
          3    1    3    3  502    0  0.73739687795E+02 -0.19092870708E+03  0.30148178218E+03  0.36439343810E+03  0.00000000000E+00 0. -1.
         -4    1    3    3    0  502  0.96214423980E+02 -0.24183924348E+03  0.58013963876E+03  0.63585016751E+03  0.00000000000E+00 0.  1.
         11    1    5    5    0    0  0.49820574243E+02  0.28657846168E+03 -0.32353972034E+03  0.43507155154E+03  0.00000000000E+00 0.  1.
        -11    1    5    5    0    0  0.62238734474E+02  0.67574192457E+02 -0.10905924697E+03  0.14259681239E+03  0.00000000000E+00 0. -1.
          2    1    6    6  503    0 -0.12324466150E+03  0.43317137224E+02  0.20980368846E+03  0.24715017430E+03  0.00000000000E+00 0.  1.
         -2    1    6    6    0  503 -0.15876875899E+03  0.35298159194E+02  0.11160434627E+03  0.19725366658E+03  0.00000000000E+00 0. -1.
<mgrwt>
<rscale>  0 0.18698123E+04</rscale>
<asrwt>0</asrwt>
<pdfrwt beam="1">  1        1 0.21482664E+00 0.18698123E+04</pdfrwt>
<pdfrwt beam="2">  1       -2 0.96298871E-01 0.18698123E+04</pdfrwt>
<totfact> 0.57429726E+00</totfact>
</mgrwt>
</event>
<event>
12    4  0.4424320E-008  0.1131089E+04  0.7818608E-02  0.9175409E-01
          1   -1    0    0  501    0  0.00000000000E+00  0.00000000000E+00  0.21631034014E+04  0.21631034014E+04  0.00000000000E+00 0. -1.
         -2   -1    0    0    0  501 -0.00000000000E+00 -0.00000000000E+00 -0.14786196107E+03  0.14786196107E+03  0.00000000000E+00 0.  1.
        -24    2    1    2    0    0  0.41877925984E+02 -0.15731654903E+03  0.54905131748E+03  0.57814361107E+03  0.79312221750E+02 0.  0.
        254    2    1    2    0    0 -0.41877925984E+02  0.15731654903E+03  0.14661901229E+04  0.17328217514E+04  0.90909597321E+03 0.  0.
         23    2    4    4    0    0  0.44195494856E+02  0.45062249605E+03  0.36997318018E+03  0.59132429224E+03  0.88149809005E+02 0.  0.
         23    2    4    4    0    0 -0.86073420840E+02 -0.29330594703E+03  0.10962169427E+04  0.11414974592E+04  0.88813577469E+02 0.  0.
          3    1    3    3  502    0  0.21272241617E+02 -0.15888740884E+03  0.49269411312E+03  0.51811698105E+03  0.00000000000E+00 0. -1.
         -4    1    3    3    0  502  0.20605684368E+02  0.15708598118E+01  0.56357204354E+02  0.60026630018E+02  0.00000000000E+00 0.  1.
         11    1    5    5    0    0  0.22967741375E+02  0.22044316022E+02  0.19966036883E+02  0.37578073947E+02  0.00000000000E+00 0.  1.
        -11    1    5    5    0    0  0.21227753481E+02  0.42857818003E+03  0.35000714330E+03  0.55374621830E+03  0.00000000000E+00 0. -1.
          4    1    6    6  503    0  0.86855345655E+01 -0.77046660768E+02  0.36354731079E+03  0.37172338321E+03  0.00000000000E+00 0. -1.
         -4    1    6    6    0  503 -0.94758955406E+02 -0.21625928626E+03  0.73266963188E+03  0.76977407595E+03  0.00000000000E+00 0.  1.
<mgrwt>
<rscale>  0 0.11310892E+04</rscale>
<asrwt>0</asrwt>
<pdfrwt beam="1">  1        1 0.33278512E+00 0.11310892E+04</pdfrwt>
<pdfrwt beam="2">  1       -2 0.22747996E-01 0.11310892E+04</pdfrwt>
<totfact> 0.34415718E+01</totfact>
</mgrwt>
</event>
<event>
12    4  0.4424320E-008  0.2531758E+04  0.7818608E-02  0.8391758E-01
         -2   -1    0    0    0  501 -0.00000000000E+00  0.00000000000E+00  0.67483572954E+03  0.67483572954E+03  0.00000000000E+00 0.  1.
          1   -1    0    0  501    0  0.00000000000E+00 -0.00000000000E+00 -0.23745766095E+04  0.23745766095E+04  0.00000000000E+00 0. -1.
        -24    2    1    2    0    0 -0.56357592328E+03 -0.91616398248E+03 -0.10416100256E+04  0.14995394851E+04  0.81810499934E+02 0.  0.
        254    2    1    2    0    0  0.56357592328E+03  0.91616398248E+03 -0.65813085432E+03  0.15498728539E+04  0.90110786130E+03 0.  0.
         23    2    4    4    0    0  0.59772863049E+03  0.14101199885E+03 -0.29014303048E+03  0.68631788720E+03  0.98414250086E+02 0.  0.
         23    2    4    4    0    0 -0.34152707212E+02  0.77515198362E+03 -0.36798782384E+03  0.86355496668E+03  0.91022727189E+02 0.  0.
          1    1    3    3  502    0 -0.45653848122E+03 -0.75066983968E+03 -0.80526412022E+03  0.11917981777E+04  0.00000000000E+00 0. -1.
         -2    1    3    3    0  502 -0.10703744206E+03 -0.16549414280E+03 -0.23634590540E+03  0.30774130743E+03  0.00000000000E+00 0.  1.
         11    1    5    5    0    0  0.19459506125E+01 -0.72143350477E+01 -0.52532130510E+00  0.74906152244E+01  0.00000000000E+00 0. -1.
        -11    1    5    5    0    0  0.59578267988E+03  0.14822633390E+03 -0.28961770917E+03  0.67882727197E+03  0.00000000000E+00 0.  1.
          4    1    6    6  503    0 -0.20047340085E+02  0.56027324516E+02 -0.47416712566E+02  0.76087459988E+02  0.00000000000E+00 0. -1.
         -4    1    6    6    0  503 -0.14105367127E+02  0.71912465911E+03 -0.32057111128E+03  0.78746750670E+03  0.00000000000E+00 0.  1.
<mgrwt>
<rscale>  0 0.25317576E+04</rscale>
<asrwt>0</asrwt>
<pdfrwt beam="1">  1        1 0.36531948E+00 0.25317576E+04</pdfrwt>
<pdfrwt beam="2">  1       -2 0.10382088E+00 0.25317576E+04</pdfrwt>
<totfact> 0.97281582E-01</totfact>
</mgrwt>
</event>
<event>
12    4  0.4424320E-008  0.2151348E+04  0.7818608E-02  0.8538955E-01
          1   -1    0    0  501    0  0.00000000000E+00  0.00000000000E+00  0.99745998767E+03  0.99745998767E+03  0.00000000000E+00 0. -1.
         -2   -1    0    0    0  501 -0.00000000000E+00 -0.00000000000E+00 -0.11600213183E+04  0.11600213183E+04  0.00000000000E+00 0.  1.
        -24    2    1    2    0    0  0.62996703463E+03  0.53159196329E+03  0.24199684236E+03  0.86297194807E+03  0.81912339034E+02 0.  0.
        254    2    1    2    0    0 -0.62996703463E+03 -0.53159196329E+03 -0.40455817303E+03  0.12945093580E+04  0.91249037381E+03 0.  0.
         23    2    4    4    0    0 -0.46398092954E+03 -0.29468968905E+03  0.22163937958E+03  0.59842644131E+03  0.82884710676E+02 0.  0.
         23    2    4    4    0    0 -0.16598610509E+03 -0.23690227424E+03 -0.62619755261E+03  0.69608291664E+03  0.93455750638E+02 0.  0.
          1    1    3    3  502    0  0.58402187904E+03  0.51702050621E+03  0.22400808998E+03  0.81152411142E+03  0.00000000000E+00 0. -1.
         -2    1    3    3    0  502  0.45945155585E+02  0.14571457076E+02  0.17988752379E+02  0.51447836642E+02  0.00000000000E+00 0.  1.
         11    1    5    5    0    0 -0.20730857747E+03 -0.83817190553E+02  0.93855505335E+02  0.24250984229E+03  0.00000000000E+00 0.  1.
        -11    1    5    5    0    0 -0.25667235207E+03 -0.21087249850E+03  0.12778387424E+03  0.35591659902E+03  0.00000000000E+00 0. -1.
          1    1    6    6  503    0 -0.76659493391E+02 -0.40506848370E+02 -0.21240334260E+03  0.22941809571E+03  0.00000000000E+00 0. -1.
         -1    1    6    6    0  503 -0.89326611697E+02 -0.19639542587E+03 -0.41379421001E+03  0.46666482093E+03  0.00000000000E+00 0.  1.
<mgrwt>
<rscale>  0 0.21513483E+04</rscale>
<asrwt>0</asrwt>
<pdfrwt beam="1">  1        1 0.15345538E+00 0.21513483E+04</pdfrwt>
<pdfrwt beam="2">  1       -2 0.17846482E+00 0.21513483E+04</pdfrwt>
<totfact> 0.22671133E+00</totfact>
</mgrwt>
</event>
<event>
12    4  0.4424320E-008  0.1741225E+04  0.7818608E-02  0.8738195E-01
          1   -1    0    0  501    0  0.00000000000E+00  0.00000000000E+00  0.15778432710E+04  0.15778432710E+04  0.00000000000E+00 0. -1.
         -2   -1    0    0    0  501 -0.00000000000E+00 -0.00000000000E+00 -0.48038103787E+03  0.48038103787E+03  0.00000000000E+00 0.  1.
        -24    2    1    2    0    0 -0.13165755955E+03  0.32301802571E+03  0.98196783947E+03  0.10450576261E+04  0.78805115823E+02 0.  0.
        254    2    1    2    0    0  0.13165755955E+03 -0.32301802571E+03  0.11549439370E+03  0.10131666828E+04  0.94418928937E+03 0.  0.
         23    2    4    4    0    0  0.25079964468E+03 -0.76059942923E+02 -0.36166962147E+03  0.45638739588E+03  0.93802789585E+02 0.  0.
         23    2    4    4    0    0 -0.11914208512E+03 -0.24695808279E+03  0.47716401517E+03  0.55677928688E+03  0.84466240763E+02 0.  0.
          1    1    3    3  502    0 -0.31315048402E+02  0.12686177501E+03  0.27335961072E+03  0.30298517948E+03  0.00000000000E+00 0. -1.
         -2    1    3    3    0  502 -0.10034251115E+03  0.19615625071E+03  0.70860822875E+03  0.74207244666E+03  0.00000000000E+00 0.  1.
         11    1    5    5    0    0  0.15608081247E+02  0.16583558315E+02 -0.51125164925E+02  0.55967929166E+02  0.00000000000E+00 0.  1.
        -11    1    5    5    0    0  0.23519156343E+03 -0.92643501237E+02 -0.31054445655E+03  0.40041946671E+03  0.00000000000E+00 0. -1.
          4    1    6    6  503    0 -0.95447948841E+02 -0.10087149598E+03  0.23582347708E+03  0.27367513950E+03  0.00000000000E+00 0. -1.
         -4    1    6    6    0  503 -0.23694136284E+02 -0.14608658681E+03  0.24134053808E+03  0.28310414738E+03  0.00000000000E+00 0.  1.
<mgrwt>
<rscale>  0 0.17412248E+04</rscale>
<asrwt>0</asrwt>
<pdfrwt beam="1">  1        1 0.24274512E+00 0.17412248E+04</pdfrwt>
<pdfrwt beam="2">  1       -2 0.73904776E-01 0.17412248E+04</pdfrwt>
<totfact> 0.79352011E+00</totfact>
</mgrwt>
</event>
<event>
12    4  0.4424320E-008  0.1785839E+04  0.7818608E-02  0.8713866E-01
         -2   -1    0    0    0  501 -0.00000000000E+00  0.00000000000E+00  0.10218363830E+04  0.10218363830E+04  0.00000000000E+00 0.  1.
          1   -1    0    0  501    0  0.00000000000E+00 -0.00000000000E+00 -0.78026729128E+03  0.78026729128E+03  0.00000000000E+00 0. -1.
        -24    2    1    2    0    0  0.19624881328E+02  0.65614031714E+03  0.18178824732E+03  0.68611294006E+03  0.82454520219E+02 0.  0.
        254    2    1    2    0    0 -0.19624881328E+02 -0.65614031714E+03  0.59780844402E+02  0.11159907342E+04  0.90053113092E+03 0.  0.
         23    2    4    4    0    0 -0.23258650754E+03 -0.14240893467E+03  0.37351322160E+03  0.47125058342E+03  0.90488659519E+02 0.  0.
         23    2    4    4    0    0  0.21296162621E+03 -0.51373138247E+03 -0.31373237720E+03  0.64474015079E+03  0.89382716259E+02 0.  0.
          3    1    3    3  502    0  0.28405784236E+02  0.41556811592E+03  0.77149344307E+02  0.42362220064E+03  0.00000000000E+00 0. -1.
         -4    1    3    3    0  502 -0.87809029078E+01  0.24057220122E+03  0.10463890301E+03  0.26249073942E+03  0.00000000000E+00 0.  1.
         11    1    5    5    0    0  0.55427768521E+01 -0.17663463771E+02  0.23511777964E+02  0.29925307528E+02  0.00000000000E+00 0.  1.
        -11    1    5    5    0    0 -0.23812928439E+03 -0.12474547090E+03  0.35000144364E+03  0.44132527590E+03  0.00000000000E+00 0. -1.
          1    1    6    6  503    0  0.19528838273E+03 -0.37432451958E+03 -0.24738288060E+03  0.48934107533E+03  0.00000000000E+00 0. -1.
         -1    1    6    6    0  503  0.17673243481E+02 -0.13940686289E+03 -0.66349496600E+02  0.15539907547E+03  0.00000000000E+00 0.  1.
<mgrwt>
<rscale>  0 0.17858393E+04</rscale>
<asrwt>0</asrwt>
<pdfrwt beam="1">  1        1 0.12004112E+00 0.17858393E+04</pdfrwt>
<pdfrwt beam="2">  1       -2 0.15720560E+00 0.17858393E+04</pdfrwt>
<totfact> 0.50297788E+00</totfact>
</mgrwt>
</event>
<event>
12    4  0.4424320E-008  0.1436324E+04  0.7818608E-02  0.8927937E-01
          1   -1    0    0  501    0  0.00000000000E+00  0.00000000000E+00  0.14596711434E+04  0.14596711434E+04  0.00000000000E+00 0. -1.
         -2   -1    0    0    0  501 -0.00000000000E+00 -0.00000000000E+00 -0.35333736656E+03  0.35333736656E+03  0.00000000000E+00 0.  1.
        -24    2    1    2    0    0  0.31155167962E+03  0.14408675006E+03  0.20220558482E+02  0.35403844269E+03  0.84314336285E+02 0.  0.
        254    2    1    2    0    0 -0.31155167962E+03 -0.14408675006E+03  0.10861132184E+04  0.14589700673E+04  0.91166128222E+03 0.  0.
         23    2    4    4    0    0 -0.20450128082E+03 -0.50004077663E+03  0.84450639641E+03  0.10062533542E+04  0.86563313017E+02 0.  0.
         23    2    4    4    0    0 -0.10705039880E+03  0.35595402657E+03  0.24160682197E+03  0.45271671307E+03  0.91736083147E+02 0.  0.
          3    1    3    3  502    0  0.32277088827E+02  0.15765314238E+02  0.29607407896E+02  0.46550555297E+02  0.00000000000E+00 0. -1.
         -4    1    3    3    0  502  0.27927459079E+03  0.12832143582E+03 -0.93868494141E+01  0.30748788740E+03  0.00000000000E+00 0.  1.
         11    1    5    5    0    0 -0.53173735192E+02 -0.23794349968E+03  0.40172448456E+03  0.46992245812E+03  0.00000000000E+00 0.  1.
        -11    1    5    5    0    0 -0.15132754563E+03 -0.26209727696E+03  0.44278191185E+03  0.53633089610E+03  0.00000000000E+00 0. -1.
          4    1    6    6  503    0 -0.91605643327E+01  0.23749028396E+02 -0.69978637079E+01  0.26398908787E+02  0.00000000000E+00 0. -1.
         -4    1    6    6    0  503 -0.97889834465E+02  0.33220499818E+03  0.24860468568E+03  0.42631780428E+03  0.00000000000E+00 0.  1.
<mgrwt>
<rscale>  0 0.14363236E+04</rscale>
<asrwt>0</asrwt>
<pdfrwt beam="1">  1        1 0.22456479E+00 0.14363236E+04</pdfrwt>
<pdfrwt beam="2">  1       -2 0.54359596E-01 0.14363236E+04</pdfrwt>
<totfact> 0.18963460E+01</totfact>
</mgrwt>
</event>
<event>
12    4  0.4424320E-008  0.2072983E+04  0.7818608E-02  0.8573239E-01
          1   -1    0    0  501    0  0.00000000000E+00  0.00000000000E+00  0.91480788264E+03  0.91480788264E+03  0.00000000000E+00 0. -1.
         -2   -1    0    0    0  501 -0.00000000000E+00 -0.00000000000E+00 -0.11743610409E+04  0.11743610409E+04  0.00000000000E+00 0.  1.
        -24    2    1    2    0    0 -0.63613038112E+03 -0.10370285477E+03  0.43241931544E+03  0.78023055300E+03  0.79731471824E+02 0.  0.
        254    2    1    2    0    0  0.63613038112E+03  0.10370285477E+03 -0.69197247371E+03  0.13089383705E+04  0.90502906563E+03 0.  0.
         23    2    4    4    0    0  0.11800395665E+02  0.28032726691E+03 -0.57162659578E+03  0.64285061275E+03  0.88189111579E+02 0.  0.
         23    2    4    4    0    0  0.62432998545E+03 -0.17662441214E+03 -0.12034587794E+03  0.66608775780E+03  0.90585081822E+02 0.  0.
          1    1    3    3  502    0 -0.34281685616E+03 -0.90853620091E+02  0.21295620061E+03  0.41367634756E+03  0.00000000000E+00 0. -1.
         -2    1    3    3    0  502 -0.29331352496E+03 -0.12849234677E+02  0.21946311483E+03  0.36655420544E+03  0.00000000000E+00 0.  1.
         11    1    5    5    0    0  0.45088312358E+01  0.26504535940E+03 -0.46808746869E+03  0.53793610257E+03  0.00000000000E+00 0. -1.
        -11    1    5    5    0    0  0.72915644293E+01  0.15281907507E+02 -0.10353912708E+03  0.10491451018E+03  0.00000000000E+00 0.  1.
          4    1    6    6  503    0  0.48405177067E+03 -0.14808463844E+03 -0.56489149216E+02  0.50933898419E+03  0.00000000000E+00 0. -1.
         -4    1    6    6    0  503  0.14027821478E+03 -0.28539773701E+02 -0.63856728721E+02  0.15674877361E+03  0.00000000000E+00 0.  1.
<mgrwt>
<rscale>  0 0.20729831E+04</rscale>
<asrwt>0</asrwt>
<pdfrwt beam="1">  1        1 0.14073967E+00 0.20729831E+04</pdfrwt>
<pdfrwt beam="2">  1       -2 0.18067093E+00 0.20729831E+04</pdfrwt>
<totfact> 0.25644185E+00</totfact>
</mgrwt>
</event>
<event>
12    4  0.4424320E-008  0.1141971E+04  0.7818608E-02  0.9165223E-01
         -2   -1    0    0    0  501 -0.00000000000E+00  0.00000000000E+00  0.50234105020E+03  0.50234105020E+03  0.00000000000E+00 0.  1.
          1   -1    0    0  501    0  0.00000000000E+00 -0.00000000000E+00 -0.64901029191E+03  0.64901029191E+03  0.00000000000E+00 0. -1.
        -24    2    1    2    0    0 -0.15398910141E+03 -0.13787554614E+03 -0.21680302685E+02  0.22297356910E+03  0.80776651430E+02 0.  0.
        254    2    1    2    0    0  0.15398910141E+03  0.13787554614E+03 -0.12498893902E+03  0.92837777300E+03  0.89640434233E+03 0.  0.
         23    2    4    4    0    0  0.11405469588E+03  0.38509491509E+03  0.23904403974E+03  0.47713697915E+03  0.95974354165E+02 0.  0.
         23    2    4    4    0    0  0.39934405531E+02 -0.24721936894E+03 -0.36403297877E+03  0.45124079385E+03  0.91575494993E+02 0.  0.
          1    1    3    3  502    0 -0.73232331792E+01 -0.66941683618E+01 -0.24231919017E+02  0.26184490324E+02  0.00000000000E+00 0. -1.
         -2    1    3    3    0  502 -0.14666586823E+03 -0.13118137778E+03  0.25516163318E+01  0.19678907878E+03  0.00000000000E+00 0.  1.
         11    1    5    5    0    0  0.88861243986E+02  0.22156710959E+03  0.18837770629E+03  0.30409614427E+03  0.00000000000E+00 0.  1.
        -11    1    5    5    0    0  0.25193451891E+02  0.16352780550E+03  0.50666333452E+02  0.17304083488E+03  0.00000000000E+00 0. -1.
          4    1    6    6  503    0  0.27773761230E+02 -0.20694410445E+03 -0.22943965498E+03  0.31022540106E+03  0.00000000000E+00 0. -1.
         -4    1    6    6    0  503  0.12160644301E+02 -0.40275264489E+02 -0.13459332378E+03  0.14101539280E+03  0.00000000000E+00 0.  1.
<mgrwt>
<rscale>  0 0.11419711E+04</rscale>
<asrwt>0</asrwt>
<pdfrwt beam="1">  1        1 0.99847738E-01 0.11419711E+04</pdfrwt>
<pdfrwt beam="2">  1       -2 0.77283238E-01 0.11419711E+04</pdfrwt>
<totfact> 0.39680937E+01</totfact>
</mgrwt>
</event>
<event>
12    4  0.4424320E-008  0.1651875E+04  0.7818608E-02  0.8789298E-01
         -2   -1    0    0    0  501 -0.00000000000E+00  0.00000000000E+00  0.26584600334E+03  0.26584600334E+03  0.00000000000E+00 0.  1.
          1   -1    0    0  501    0  0.00000000000E+00 -0.00000000000E+00 -0.25660444892E+04  0.25660444892E+04  0.00000000000E+00 0. -1.
        -24    2    1    2    0    0 -0.25895930282E+03 -0.30924609195E+03 -0.11092846335E+03  0.42464057745E+03  0.72948133143E+02 0.  0.
        254    2    1    2    0    0  0.25895930282E+03  0.30924609195E+03 -0.21892700225E+04  0.24072499151E+04  0.91610908542E+03 0.  0.
         23    2    4    4    0    0 -0.32722201738E+03  0.61703411373E+02 -0.95573850022E+03  0.10163070378E+04  0.92532991813E+02 0.  0.
         23    2    4    4    0    0  0.58618132019E+03  0.24754268058E+03 -0.12335315223E+04  0.13909428774E+04  0.90753251608E+02 0.  0.
          1    1    3    3  502    0 -0.12458746385E+03 -0.18303396979E+03 -0.30479432447E+02  0.22350048333E+03  0.00000000000E+00 0. -1.
         -2    1    3    3    0  502 -0.13437183897E+03 -0.12621212216E+03 -0.80449030905E+02  0.20114009412E+03  0.00000000000E+00 0.  1.
         11    1    5    5    0    0 -0.55811465120E+02  0.81334395982E+01 -0.28900972612E+03  0.29446170255E+03  0.00000000000E+00 0. -1.
        -11    1    5    5    0    0 -0.27141055226E+03  0.53569971775E+02 -0.66672877410E+03  0.72184533521E+03  0.00000000000E+00 0.  1.
          4    1    6    6  503    0  0.10056654213E+03  0.76500967150E+01 -0.17979385588E+03  0.20615039168E+03  0.00000000000E+00 0. -1.
         -4    1    6    6    0  503  0.48561477806E+03  0.23989258387E+03 -0.10537376664E+04  0.11847924857E+04  0.00000000000E+00 0.  1.
<mgrwt>
<rscale>  0 0.16518749E+04</rscale>
<asrwt>0</asrwt>
<pdfrwt beam="1">  1        1 0.39477605E+00 0.16518749E+04</pdfrwt>
<pdfrwt beam="2">  1       -2 0.40899388E-01 0.16518749E+04</pdfrwt>
<totfact> 0.58006583E+00</totfact>
</mgrwt>
</event>
<event>
12    4  0.4424320E-008  0.1276304E+04  0.7818608E-02  0.9048570E-01
         -2   -1    0    0    0  501 -0.00000000000E+00  0.00000000000E+00  0.59981054998E+03  0.59981054998E+03  0.00000000000E+00 0.  1.
          1   -1    0    0  501    0  0.00000000000E+00 -0.00000000000E+00 -0.67894406184E+03  0.67894406184E+03  0.00000000000E+00 0. -1.
        -24    2    1    2    0    0  0.24205955091E+03  0.14533255518E+03  0.10628409706E+03  0.31222855111E+03  0.80473480465E+02 0.  0.
        254    2    1    2    0    0 -0.24205955091E+03 -0.14533255518E+03 -0.18541760893E+03  0.96652606070E+03  0.90558188947E+03 0.  0.
         23    2    4    4    0    0  0.93779241125E+02  0.17657973088E+03 -0.39094186687E+03  0.44871043141E+03  0.92361033763E+02 0.  0.
         23    2    4    4    0    0 -0.33583879204E+03 -0.32191228606E+03  0.20552425794E+03  0.51781562930E+03  0.97352920785E+02 0.  0.
          3    1    3    3  502    0  0.55362495453E+02  0.49551052192E+02  0.64251421760E+02  0.98227073021E+02  0.00000000000E+00 0. -1.
         -4    1    3    3    0  502  0.18669705546E+03  0.95781502992E+02  0.42032675301E+02  0.21400147809E+03  0.00000000000E+00 0.  1.
         11    1    5    5    0    0  0.22321323735E+02  0.55715774668E+02 -0.21712265219E+03  0.22526592093E+03  0.00000000000E+00 0. -1.
        -11    1    5    5    0    0  0.71457917390E+02  0.12086395621E+03 -0.17381921468E+03  0.22344451048E+03  0.00000000000E+00 0.  1.
          3    1    6    6  503    0 -0.18723749122E+03 -0.17135939128E+03  0.16414720139E+03  0.30226846151E+03  0.00000000000E+00 0. -1.
         -3    1    6    6    0  503 -0.14860130082E+03 -0.15055289479E+03  0.41377056550E+02  0.21554716779E+03  0.00000000000E+00 0.  1.
<mgrwt>
<rscale>  0 0.12763037E+04</rscale>
<asrwt>0</asrwt>
<pdfrwt beam="1">  1        1 0.10445293E+00 0.12763037E+04</pdfrwt>
<pdfrwt beam="2">  1       -2 0.92278547E-01 0.12763037E+04</pdfrwt>
<totfact> 0.24529620E+01</totfact>
</mgrwt>
</event>
<event>
12    4  0.4424320E-008  0.2518354E+04  0.7818608E-02  0.8396476E-01
         -2   -1    0    0    0  501 -0.00000000000E+00  0.00000000000E+00  0.21397203334E+04  0.21397203334E+04  0.00000000000E+00 0.  1.
          1   -1    0    0  501    0  0.00000000000E+00 -0.00000000000E+00 -0.74099689283E+03  0.74099689283E+03  0.00000000000E+00 0. -1.
        -24    2    1    2    0    0 -0.76420491341E+03  0.28842198998E+03  0.14519351004E+04  0.16678549365E+04  0.80175802918E+02 0.  0.
        254    2    1    2    0    0  0.76420491341E+03 -0.28842198998E+03 -0.53211659828E+02  0.12128622897E+04  0.89498997713E+03 0.  0.
         23    2    4    4    0    0  0.51985228923E+03 -0.33338919558E+03  0.36113844623E+03  0.72102278221E+03  0.89767013823E+02 0.  0.
         23    2    4    4    0    0  0.24435262418E+03  0.44967205605E+02 -0.41435010606E+03  0.49183950754E+03  0.92140307487E+02 0.  0.
          1    1    3    3  502    0 -0.27806875310E+03  0.80718081254E+02  0.57797740519E+03  0.64644839006E+03  0.00000000000E+00 0. -1.
         -2    1    3    3    0  502 -0.48613616031E+03  0.20770390872E+03  0.87395769520E+03  0.10214065464E+04  0.00000000000E+00 0.  1.
         11    1    5    5    0    0  0.43352319463E+02 -0.42461228616E+02  0.65480451243E+02  0.89275243116E+02  0.00000000000E+00 0. -1.
        -11    1    5    5    0    0  0.47649996976E+03 -0.29092796697E+03  0.29565799499E+03  0.63174753909E+03  0.00000000000E+00 0.  1.
          3    1    6    6  503    0  0.49423393212E+02  0.48163725521E+02 -0.90076814469E+02  0.11347355973E+03  0.00000000000E+00 0. -1.
         -3    1    6    6    0  503  0.19492923097E+03 -0.31965199158E+01 -0.32427329159E+03  0.37836594781E+03  0.00000000000E+00 0.  1.
<mgrwt>
<rscale>  0 0.25183535E+04</rscale>
<asrwt>0</asrwt>
<pdfrwt beam="1">  1        1 0.11399952E+00 0.25183535E+04</pdfrwt>
<pdfrwt beam="2">  1       -2 0.32918774E+00 0.25183535E+04</pdfrwt>
<totfact> 0.40774039E-01</totfact>
</mgrwt>
</event>
<event>
12    4  0.4424320E-008  0.3665511E+04  0.7818608E-02  0.8075648E-01
          1   -1    0    0  501    0  0.00000000000E+00  0.00000000000E+00  0.22751503709E+04  0.22751503709E+04  0.00000000000E+00 0. -1.
         -2   -1    0    0    0  501 -0.00000000000E+00 -0.00000000000E+00 -0.14763829113E+04  0.14763829113E+04  0.00000000000E+00 0.  1.
        -24    2    1    2    0    0 -0.13445551619E+04  0.10795579718E+04  0.35228169885E+03  0.17617608344E+04  0.80155128704E+02 0.  0.
        254    2    1    2    0    0  0.13445551619E+04 -0.10795579718E+04  0.44648576080E+03  0.19897724478E+04  0.88688830278E+03 0.  0.
         23    2    4    4    0    0 -0.38465794927E+02 -0.25946622032E+03  0.23585782641E+03  0.36560308723E+03  0.96095609923E+02 0.  0.
         23    2    4    4    0    0  0.13830209568E+04 -0.82009175144E+03  0.21062793438E+03  0.16241693605E+04  0.90909500290E+02 0.  0.
          1    1    3    3  502    0 -0.12385550598E+04  0.10192852458E+04  0.33418843059E+03  0.16384880090E+04  0.00000000000E+00 0. -1.
         -2    1    3    3    0  502 -0.10600010208E+03  0.60272725959E+02  0.18093268263E+02  0.12327282544E+03  0.00000000000E+00 0.  1.
         11    1    5    5    0    0 -0.58423666073E+02 -0.22696745173E+03  0.22736568145E+03  0.32653131856E+03  0.00000000000E+00 0.  1.
        -11    1    5    5    0    0  0.19957871145E+02 -0.32498768595E+02  0.84921449592E+01  0.39071768668E+02  0.00000000000E+00 0. -1.
          1    1    6    6  503    0  0.56918098064E+02 -0.21852798442E+02 -0.60174271538E+01  0.61265194985E+02  0.00000000000E+00 0. -1.
         -1    1    6    6    0  503  0.13261028587E+04 -0.79823895300E+03  0.21664536154E+03  0.15629041656E+04  0.00000000000E+00 0.  1.
<mgrwt>
<rscale>  0 0.36655112E+04</rscale>
<asrwt>0</asrwt>
<pdfrwt beam="1">  1        1 0.35002314E+00 0.36655112E+04</pdfrwt>
<pdfrwt beam="2">  1       -2 0.22713583E+00 0.36655112E+04</pdfrwt>
<totfact> 0.12207415E-01</totfact>
</mgrwt>
</event>
<event>
12    4  0.4424320E-008  0.2264563E+04  0.7818608E-02  0.8492026E-01
          1   -1    0    0  501    0  0.00000000000E+00  0.00000000000E+00  0.36648444464E+04  0.36648444464E+04  0.00000000000E+00 0. -1.
         -4   -1    0    0    0  501 -0.00000000000E+00 -0.00000000000E+00 -0.34982709371E+03  0.34982709371E+03  0.00000000000E+00 0.  1.
        -24    2    1    2    0    0 -0.20336999332E+03  0.65860321900E+03  0.26171861903E+04  0.27076029395E+04  0.79577443219E+02 0.  0.
        254    2    1    2    0    0  0.20336999332E+03 -0.65860321900E+03  0.69783116239E+03  0.13070686005E+04  0.86391113029E+03 0.  0.
         23    2    4    4    0    0 -0.18533001959E+03 -0.63764675484E+03  0.27841354673E+03  0.72596687146E+03  0.92591551091E+02 0.  0.
         23    2    4    4    0    0  0.38870001290E+03 -0.20956464159E+02  0.41941761566E+03  0.58110172908E+03  0.10119886258E+03 0.  0.
          1    1    3    3  502    0 -0.20447690095E+03  0.61373597887E+03  0.24926797209E+04  0.25752543264E+04  0.00000000000E+00 0. -1.
         -2    1    3    3    0  502  0.11069076361E+01  0.44867240133E+02  0.12450646935E+03  0.13234861311E+03  0.00000000000E+00 0.  1.
         11    1    5    5    0    0 -0.33579711442E+02 -0.60677159136E+02  0.44902238089E+01  0.69494436980E+02  0.00000000000E+00 0.  1.
        -11    1    5    5    0    0 -0.15175030814E+03 -0.57696959571E+03  0.27392332292E+03  0.65647243448E+03  0.00000000000E+00 0. -1.
          3    1    6    6  503    0  0.33784223925E+03 -0.23462834647E+01  0.30779167310E+03  0.45703238145E+03  0.00000000000E+00 0. -1.
         -3    1    6    6    0  503  0.50857773651E+02 -0.18610180695E+02  0.11162594256E+03  0.12406934762E+03  0.00000000000E+00 0.  1.
<mgrwt>
<rscale>  0 0.22645634E+04</rscale>
<asrwt>0</asrwt>
<pdfrwt beam="1">  1        1 0.56382220E+00 0.22645634E+04</pdfrwt>
<pdfrwt beam="2">  1       -4 0.53819555E-01 0.22645634E+04</pdfrwt>
<totfact> 0.27653341E-01</totfact>
</mgrwt>
</event>
<event>
12    4  0.4424320E-008  0.1328199E+04  0.7818608E-02  0.9007497E-01
         -2   -1    0    0    0  501 -0.00000000000E+00  0.00000000000E+00  0.61371825153E+03  0.61371825153E+03  0.00000000000E+00 0.  1.
          1   -1    0    0  501    0  0.00000000000E+00 -0.00000000000E+00 -0.71861642902E+03  0.71861642902E+03  0.00000000000E+00 0. -1.
        -24    2    1    2    0    0 -0.18930650475E+03 -0.17725949261E+03  0.20678703702E+03  0.34104717690E+03  0.79337366555E+02 0.  0.
        254    2    1    2    0    0  0.18930650475E+03  0.17725949261E+03 -0.31168521451E+03  0.99128750365E+03  0.90456915793E+03 0.  0.
         23    2    4    4    0    0  0.10216182557E+03  0.45576916899E+03 -0.45176194887E+03  0.65551849996E+03  0.86331172467E+02 0.  0.
         23    2    4    4    0    0  0.87144679174E+02 -0.27850967637E+03  0.14007673436E+03  0.33576900369E+03  0.89204805852E+02 0.  0.
          1    1    3    3  502    0 -0.91238486386E+02 -0.55895356331E+02  0.44401399167E+02  0.11584574444E+03  0.00000000000E+00 0. -1.
         -2    1    3    3    0  502 -0.98068018361E+02 -0.12136413628E+03  0.16238563785E+03  0.22520143246E+03  0.00000000000E+00 0.  1.
         11    1    5    5    0    0  0.98931159805E+02  0.40350884038E+03 -0.35936871937E+03  0.54932015720E+03  0.00000000000E+00 0.  1.
        -11    1    5    5    0    0  0.32306657687E+01  0.52260328606E+02 -0.92393229500E+02  0.10619834276E+03  0.00000000000E+00 0. -1.
          1    1    6    6  503    0  0.25345951722E+02 -0.10609981919E+02  0.26893504595E+02  0.38448011319E+02  0.00000000000E+00 0. -1.
         -1    1    6    6    0  503  0.61798727452E+02 -0.26789969445E+03  0.11318322976E+03  0.29732099237E+03  0.00000000000E+00 0.  1.
<mgrwt>
<rscale>  0 0.13281988E+04</rscale>
<asrwt>0</asrwt>
<pdfrwt beam="1">  1        1 0.11055637E+00 0.13281988E+04</pdfrwt>
<pdfrwt beam="2">  1       -2 0.94418192E-01 0.13281988E+04</pdfrwt>
<totfact> 0.21248625E+01</totfact>
</mgrwt>
</event>
<event>
12    4  0.4424320E-008  0.2015983E+04  0.7818608E-02  0.8599184E-01
          3   -1    0    0  501    0  0.00000000000E+00  0.00000000000E+00  0.86450149551E+03  0.86450149551E+03  0.00000000000E+00 0. -1.
         -4   -1    0    0    0  501 -0.00000000000E+00 -0.00000000000E+00 -0.11752982626E+04  0.11752982626E+04  0.00000000000E+00 0.  1.
        -24    2    1    2    0    0 -0.56233982031E+03 -0.54446231039E+03  0.67399990228E+02  0.78938472843E+03  0.76942899982E+02 0.  0.
        254    2    1    2    0    0  0.56233982031E+03  0.54446231039E+03 -0.37819675729E+03  0.12504150297E+04  0.89879901992E+03 0.  0.
         23    2    4    4    0    0  0.25126658957E+03  0.40515408567E+03  0.23694110927E+03  0.54008257355E+03  0.90903051775E+02 0.  0.
         23    2    4    4    0    0  0.31107323074E+03  0.13930822472E+03 -0.61513786655E+03  0.71033245610E+03  0.10002133255E+03 0.  0.
          3    1    3    3  502    0 -0.47434218054E+03 -0.44483531776E+03  0.82918876095E+02  0.65555663690E+03  0.00000000000E+00 0. -1.
         -4    1    3    3    0  502 -0.87997639771E+02 -0.99626992631E+02 -0.15518885866E+02  0.13382809154E+03  0.00000000000E+00 0.  1.
         11    1    5    5    0    0 -0.59440759000E+01  0.27000714336E+02  0.18415118981E+02  0.33218778124E+02  0.00000000000E+00 0.  1.
        -11    1    5    5    0    0  0.25721066547E+03  0.37815337134E+03  0.21852599029E+03  0.50686379543E+03  0.00000000000E+00 0. -1.
          3    1    6    6  503    0  0.21819933780E+03  0.93954367888E+02 -0.51143868598E+03  0.56392189510E+03  0.00000000000E+00 0. -1.
         -3    1    6    6    0  503  0.92873892941E+02  0.45353856832E+02 -0.10369918057E+03  0.14641056099E+03  0.00000000000E+00 0.  1.
<mgrwt>
<rscale>  0 0.20159832E+04</rscale>
<asrwt>0</asrwt>
<pdfrwt beam="1">  1        3 0.13300023E+00 0.20159832E+04</pdfrwt>
<pdfrwt beam="2">  1       -4 0.18081512E+00 0.20159832E+04</pdfrwt>
<totfact> 0.16535948E-01</totfact>
</mgrwt>
</event>
<event>
12    4  0.4424320E-008  0.2089257E+04  0.7818608E-02  0.8565991E-01
          1   -1    0    0  501    0  0.00000000000E+00  0.00000000000E+00  0.13320686495E+04  0.13320686495E+04  0.00000000000E+00 0. -1.
         -2   -1    0    0    0  501 -0.00000000000E+00 -0.00000000000E+00 -0.81921329564E+03  0.81921329564E+03  0.00000000000E+00 0.  1.
        -24    2    1    2    0    0  0.48278404792E+03  0.63255140983E+03 -0.93499507879E+02  0.80509817294E+03  0.78988525041E+02 0.  0.
        254    2    1    2    0    0 -0.48278404792E+03 -0.63255140983E+03  0.60635486172E+03  0.13461837722E+04  0.90074569506E+03 0.  0.
         23    2    4    4    0    0 -0.36766167455E+03 -0.44206859725E+03  0.83251013728E+03  0.10159904858E+04  0.92540731174E+02 0.  0.
         23    2    4    4    0    0 -0.11512237337E+03 -0.19048281258E+03 -0.22615527556E+03  0.33019328640E+03  0.91348426261E+02 0.  0.
          1    1    3    3  502    0  0.26353252787E+03  0.32030557315E+03 -0.12003443582E+02  0.41495678823E+03  0.00000000000E+00 0. -1.
         -2    1    3    3    0  502  0.21925152005E+03  0.31224583668E+03 -0.81496064298E+02  0.39014138471E+03  0.00000000000E+00 0.  1.
         11    1    5    5    0    0 -0.34761204191E+03 -0.37146655102E+03  0.71763530009E+03  0.87967150354E+03  0.00000000000E+00 0.  1.
        -11    1    5    5    0    0 -0.20049632639E+02 -0.70602046227E+02  0.11487483719E+03  0.13631898224E+03  0.00000000000E+00 0. -1.
          1    1    6    6  503    0 -0.55199722581E+02 -0.27923658050E+02 -0.30878238220E+02  0.69139031289E+02  0.00000000000E+00 0. -1.
         -1    1    6    6    0  503 -0.59922650791E+02 -0.16255915453E+03 -0.19527703734E+03  0.26105425511E+03  0.00000000000E+00 0.  1.
<mgrwt>
<rscale>  0 0.20892567E+04</rscale>
<asrwt>0</asrwt>
<pdfrwt beam="1">  1        1 0.20493364E+00 0.20892567E+04</pdfrwt>
<pdfrwt beam="2">  1       -2 0.12603281E+00 0.20892567E+04</pdfrwt>
<totfact> 0.32557612E+00</totfact>
</mgrwt>
</event>
<event>
12    4  0.4424320E-008  0.1081674E+04  0.7818608E-02  0.9223240E-01
          1   -1    0    0  501    0  0.00000000000E+00  0.00000000000E+00  0.12648912465E+04  0.12648912465E+04  0.00000000000E+00 0. -1.
         -2   -1    0    0    0  501 -0.00000000000E+00 -0.00000000000E+00 -0.23124903816E+03  0.23124903816E+03  0.00000000000E+00 0.  1.
        -24    2    1    2    0    0 -0.11812295663E+03 -0.25525709316E+02  0.30096217365E+03  0.33064363904E+03  0.64361411955E+02 0.  0.
        254    2    1    2    0    0  0.11812295663E+03  0.25525709316E+02  0.73268003472E+03  0.11654966457E+04  0.89830830066E+03 0.  0.
         23    2    4    4    0    0  0.31796792121E+03  0.72218584165E+01  0.85268159348E+03  0.91464251537E+03  0.91374377733E+02 0.  0.
         23    2    4    4    0    0 -0.19984496458E+03  0.18303850900E+02 -0.12000155876E+03  0.25085413028E+03  0.90853617143E+02 0.  0.
          3    1    3    3  502    0 -0.39929440760E+02 -0.37234212581E+02  0.15950210748E+03  0.16858727448E+03  0.00000000000E+00 0. -1.
         -4    1    3    3    0  502 -0.78193515875E+02  0.11708503265E+02  0.14146006618E+03  0.16205636456E+03  0.00000000000E+00 0.  1.
         11    1    5    5    0    0  0.25312644045E+03  0.39262438041E+01  0.55571574626E+03  0.61066226417E+03  0.00000000000E+00 0.  1.
        -11    1    5    5    0    0  0.64841480768E+02  0.32956146124E+01  0.29696584722E+03  0.30398025120E+03  0.00000000000E+00 0. -1.
          1    1    6    6  503    0 -0.17225034751E+03 -0.83903617642E+01 -0.12377572926E+03  0.21227579123E+03  0.00000000000E+00 0. -1.
         -1    1    6    6    0  503 -0.27594617071E+02  0.26694212664E+02  0.37741704999E+01  0.38578339052E+02  0.00000000000E+00 0.  1.
<mgrwt>
<rscale>  0 0.10816744E+04</rscale>
<asrwt>0</asrwt>
<pdfrwt beam="1">  1        1 0.19459865E+00 0.10816744E+04</pdfrwt>
<pdfrwt beam="2">  1       -2 0.35576776E-01 0.10816744E+04</pdfrwt>
<totfact> 0.62253694E+01</totfact>
</mgrwt>
</event>
<event>
12    4  0.4424320E-008  0.1387277E+04  0.7818608E-02  0.8963080E-01
          1   -1    0    0  501    0  0.00000000000E+00  0.00000000000E+00  0.10913602786E+04  0.10913602786E+04  0.00000000000E+00 0. -1.
         -2   -1    0    0    0  501 -0.00000000000E+00 -0.00000000000E+00 -0.44085739213E+03  0.44085739213E+03  0.00000000000E+00 0.  1.
        -24    2    1    2    0    0 -0.16368416665E+03 -0.20237530978E+03  0.52423307242E+03  0.59068365034E+03  0.79615250674E+02 0.  0.
        254    2    1    2    0    0  0.16368416665E+03  0.20237530978E+03  0.12626981403E+03  0.94153402037E+03  0.89598770815E+03 0.  0.
         23    2    4    4    0    0 -0.24623515754E+03  0.27915071100E+03  0.29405655727E+03  0.48313353090E+03  0.91607191604E+02 0.  0.
         23    2    4    4    0    0  0.40991932419E+03 -0.76775401218E+02 -0.16778674324E+03  0.45840048947E+03  0.89723480538E+02 0.  0.
          1    1    3    3  502    0 -0.12632383325E+03 -0.17248667331E+03  0.48026970960E+03  0.52570748262E+03  0.00000000000E+00 0. -1.
         -2    1    3    3    0  502 -0.37360333404E+02 -0.29888636469E+02  0.43963362816E+02  0.64976167724E+02  0.00000000000E+00 0.  1.
         11    1    5    5    0    0 -0.82025402271E+02  0.13575465852E+03  0.16913681985E+03  0.23187228759E+03  0.00000000000E+00 0.  1.
        -11    1    5    5    0    0 -0.16420975527E+03  0.14339605248E+03  0.12491973742E+03  0.25126124331E+03  0.00000000000E+00 0. -1.
          2    1    6    6  503    0  0.15290318328E+02 -0.81692253216E+00  0.10693773639E+02  0.18676669714E+02  0.00000000000E+00 0. -1.
         -2    1    6    6    0  503  0.39462900586E+03 -0.75958478685E+02 -0.17848051688E+03  0.43972381975E+03  0.00000000000E+00 0.  1.
<mgrwt>
<rscale>  0 0.13872768E+04</rscale>
<asrwt>0</asrwt>
<pdfrwt beam="1">  1        1 0.16790158E+00 0.13872768E+04</pdfrwt>
<pdfrwt beam="2">  1       -2 0.67824215E-01 0.13872768E+04</pdfrwt>
<totfact> 0.21935693E+01</totfact>
</mgrwt>
</event>
<event>
12    4  0.4424320E-008  0.1817356E+04  0.7818608E-02  0.8697124E-01
         -2   -1    0    0    0  501 -0.00000000000E+00  0.00000000000E+00  0.59565641939E+03  0.59565641939E+03  0.00000000000E+00 0.  1.
          1   -1    0    0  501    0  0.00000000000E+00 -0.00000000000E+00 -0.13861949727E+04  0.13861949727E+04  0.00000000000E+00 0. -1.
        -24    2    1    2    0    0 -0.58757570072E+03  0.28821404508E+03 -0.51878914483E+03  0.83904316166E+03  0.80862293378E+02 0.  0.
        254    2    1    2    0    0  0.58757570072E+03 -0.28821404508E+03 -0.27174940845E+03  0.11428082304E+04  0.89657702995E+03 0.  0.
         23    2    4    4    0    0  0.19946655041E+03 -0.47699251424E+03 -0.42492635656E+03  0.67573723295E+03  0.93539489655E+02 0.  0.
         23    2    4    4    0    0  0.38810915031E+03  0.18877846917E+03  0.15317694811E+03  0.46707099745E+03  0.91793879201E+02 0.  0.
          1    1    3    3  502    0 -0.35054812417E+03  0.18699994092E+03 -0.36117618181E+03  0.53693686740E+03  0.00000000000E+00 0. -1.
         -2    1    3    3    0  502 -0.23702757655E+03  0.10121410416E+03 -0.15761296302E+03  0.30210629427E+03  0.00000000000E+00 0.  1.
         11    1    5    5    0    0  0.55501368169E+02 -0.12137370478E+03 -0.60299314659E+02  0.14645130736E+03  0.00000000000E+00 0. -1.
        -11    1    5    5    0    0  0.14396518224E+03 -0.35561880946E+03 -0.36462704190E+03  0.52928592559E+03  0.00000000000E+00 0.  1.
          4    1    6    6  503    0  0.16419018396E+03  0.12895894900E+03  0.59581966870E+02  0.21711480330E+03  0.00000000000E+00 0. -1.
         -4    1    6    6    0  503  0.22391896635E+03  0.59819520165E+02  0.93594981236E+02  0.24995619415E+03  0.00000000000E+00 0.  1.
<mgrwt>
<rscale>  0 0.18173562E+04</rscale>
<asrwt>0</asrwt>
<pdfrwt beam="1">  1        1 0.21326076E+00 0.18173562E+04</pdfrwt>
<pdfrwt beam="2">  1       -2 0.91639451E-01 0.18173562E+04</pdfrwt>
<totfact> 0.65836443E+00</totfact>
</mgrwt>
</event>
<event>
12    4  0.4424320E-008  0.1538879E+04  0.7818608E-02  0.8859003E-01
         -2   -1    0    0    0  501 -0.00000000000E+00  0.00000000000E+00  0.75769439753E+03  0.75769439753E+03  0.00000000000E+00 0.  1.
          1   -1    0    0  501    0  0.00000000000E+00 -0.00000000000E+00 -0.78136632066E+03  0.78136632066E+03  0.00000000000E+00 0. -1.
        -24    2    1    2    0    0 -0.79929336732E+02 -0.28484611563E+03  0.43549316915E+03  0.53234063060E+03  0.78779681047E+02 0.  0.
        254    2    1    2    0    0  0.79929336732E+02  0.28484611563E+03 -0.45916509229E+03  0.10067200876E+04  0.84565166844E+03 0.  0.
         23    2    4    4    0    0 -0.17320459934E+03  0.42723033928E+03 -0.17566225040E+02  0.47014658089E+03  0.90573943445E+02 0.  0.
         23    2    4    4    0    0  0.25313393607E+03 -0.14238422364E+03 -0.44159886725E+03  0.53657350670E+03  0.92474384591E+02 0.  0.
          3    1    3    3  502    0 -0.60745007546E+02 -0.10128481703E+03  0.13188870074E+03  0.17704010699E+03  0.00000000000E+00 0. -1.
         -4    1    3    3    0  502 -0.19184329186E+02 -0.18356129860E+03  0.30360446842E+03  0.35530052361E+03  0.00000000000E+00 0.  1.
         11    1    5    5    0    0 -0.18055119580E+03  0.42329335214E+03 -0.21978403564E+02  0.46071579797E+03  0.00000000000E+00 0. -1.
        -11    1    5    5    0    0  0.73465964619E+01  0.39369871374E+01  0.44121785241E+01  0.94307829273E+01  0.00000000000E+00 0.  1.
          2    1    6    6  503    0  0.11115564044E+03 -0.81788921396E+02 -0.28514005137E+03  0.31678044915E+03  0.00000000000E+00 0.  1.
         -2    1    6    6    0  503  0.14197829563E+03 -0.60595302248E+02 -0.15645881588E+03  0.21979305756E+03  0.00000000000E+00 0. -1.
<mgrwt>
<rscale>  0 0.15388787E+04</rscale>
<asrwt>0</asrwt>
<pdfrwt beam="1">  1        1 0.12021020E+00 0.15388787E+04</pdfrwt>
<pdfrwt beam="2">  1       -2 0.11656837E+00 0.15388787E+04</pdfrwt>
<totfact> 0.11061020E+01</totfact>
</mgrwt>
</event>
<event>
12    4  0.4424320E-008  0.3666007E+04  0.7818608E-02  0.8075537E-01
          1   -1    0    0  501    0  0.00000000000E+00  0.00000000000E+00  0.21584036292E+04  0.21584036292E+04  0.00000000000E+00 0. -1.
         -2   -1    0    0    0  501 -0.00000000000E+00 -0.00000000000E+00 -0.15566606949E+04  0.15566606949E+04  0.00000000000E+00 0.  1.
        -24    2    1    2    0    0  0.69132779567E+02  0.13210575785E+04  0.14053462444E+04  0.19316864510E+04  0.80262143700E+02 0.  0.
        254    2    1    2    0    0 -0.69132779567E+02 -0.13210575785E+04 -0.80360331003E+03  0.17833778731E+04  0.88582497789E+03 0.  0.
         23    2    4    4    0    0  0.53609668559E+02 -0.11498374949E+03  0.16690525775E+03  0.22792962893E+03  0.89438758213E+02 0.  0.
         23    2    4    4    0    0 -0.12274244813E+03 -0.12060738290E+04 -0.97050856778E+03  0.15554482441E+04  0.88614731146E+02 0.  0.
          3    1    3    3  502    0  0.55089999106E+01  0.29979119769E+03  0.36647699016E+03  0.47350870700E+03  0.00000000000E+00 0. -1.
         -2    1    3    3    0  502  0.63623779656E+02  0.10212663808E+04  0.10388692542E+04  0.14581777440E+04  0.00000000000E+00 0.  1.
         11    1    5    5    0    0 -0.82105972547E+01 -0.10574552266E+02 -0.75928578491E+01  0.15391119297E+02  0.00000000000E+00 0. -1.
        -11    1    5    5    0    0  0.61820265814E+02 -0.10440919722E+03  0.17449811560E+03  0.21253850963E+03  0.00000000000E+00 0.  1.
          3    1    6    6  503    0 -0.51721011834E+02 -0.59810095071E+03 -0.53605170450E+03  0.80482994489E+03  0.00000000000E+00 0. -1.
         -3    1    6    6    0  503 -0.71021436292E+02 -0.60797287826E+03 -0.43445686328E+03  0.75061829925E+03  0.00000000000E+00 0.  1.
<mgrwt>
<rscale>  0 0.36660071E+04</rscale>
<asrwt>0</asrwt>
<pdfrwt beam="1">  1        1 0.33206210E+00 0.36660071E+04</pdfrwt>
<pdfrwt beam="2">  1       -2 0.23948626E+00 0.36660071E+04</pdfrwt>
<totfact> 0.12279662E-01</totfact>
</mgrwt>
</event>
<event>
12    4  0.4424320E-008  0.1328106E+04  0.7818608E-02  0.9007569E-01
          1   -1    0    0  501    0  0.00000000000E+00  0.00000000000E+00  0.25568257405E+04  0.25568257405E+04  0.00000000000E+00 0. -1.
         -2   -1    0    0    0  501 -0.00000000000E+00 -0.00000000000E+00 -0.17246635509E+03  0.17246635509E+03  0.00000000000E+00 0.  1.
        -24    2    1    2    0    0 -0.88392506496E+02 -0.34409538259E+03  0.70157032216E+03  0.79054652415E+03  0.80919851669E+02 0.  0.
        254    2    1    2    0    0  0.88392506496E+02  0.34409538259E+03  0.16827890633E+04  0.19387455714E+04  0.89484104279E+03 0.  0.
         23    2    4    4    0    0 -0.11532066372E+03  0.14679979882E+03 -0.20794527687E+02  0.20934357975E+03  0.92429895523E+02 0.  0.
         23    2    4    4    0    0  0.20371317021E+03  0.19729558376E+03  0.17035835909E+04  0.17294019917E+04  0.90606812421E+02 0.  0.
          1    1    3    3  502    0 -0.89151714071E+02 -0.24399071691E+03  0.44698900917E+03  0.51699001187E+03  0.00000000000E+00 0. -1.
         -2    1    3    3    0  502  0.75920757537E+00 -0.10010466568E+03  0.25458131299E+03  0.27355651228E+03  0.00000000000E+00 0.  1.
         11    1    5    5    0    0 -0.31711702540E+02  0.48083537436E+02 -0.50510578321E+02  0.76609249916E+02  0.00000000000E+00 0. -1.
        -11    1    5    5    0    0 -0.83608961176E+02  0.98716261386E+02  0.29716050634E+02  0.13273432983E+03  0.00000000000E+00 0.  1.
          4    1    6    6  503    0  0.13482801647E+03  0.16703984214E+03  0.14141271515E+04  0.14303274113E+04  0.00000000000E+00 0.  1.
         -4    1    6    6    0  503  0.68885153742E+02  0.30255741621E+02  0.28945643944E+03  0.29907458040E+03  0.00000000000E+00 0. -1.
<mgrwt>
<rscale>  0 0.13281060E+04</rscale>
<asrwt>0</asrwt>
<pdfrwt beam="1">  1        1 0.39335778E+00 0.13281060E+04</pdfrwt>
<pdfrwt beam="2">  1       -2 0.26533287E-01 0.13281060E+04</pdfrwt>
<totfact> 0.13769001E+01</totfact>
</mgrwt>
</event>
<event>
12    4  0.4424320E-008  0.1445785E+04  0.7818608E-02  0.8921328E-01
         -4   -1    0    0    0  501 -0.00000000000E+00  0.00000000000E+00  0.32731859193E+03  0.32731859193E+03  0.00000000000E+00 0.  1.
          1   -1    0    0  501    0  0.00000000000E+00 -0.00000000000E+00 -0.15965287202E+04  0.15965287202E+04  0.00000000000E+00 0. -1.
        -24    2    1    2    0    0  0.13782090757E+03  0.34712203476E+03 -0.70983547014E+03  0.80606292726E+03  0.79892042520E+02 0.  0.
        254    2    1    2    0    0 -0.13782090757E+03 -0.34712203476E+03 -0.55937465810E+03  0.11177843848E+04  0.89277859141E+03 0.  0.
         23    2    4    4    0    0 -0.31287191508E+03 -0.27938670031E+03  0.87336501401E+02  0.43798966354E+03  0.90892889314E+02 0.  0.
         23    2    4    4    0    0  0.17505100752E+03 -0.67735334452E+02 -0.64671115950E+03  0.67979472130E+03  0.93030148444E+02 0.  0.
          1    1    3    3  502    0  0.93912177431E+02  0.25434471824E+03 -0.43378000856E+03  0.51154259704E+03  0.00000000000E+00 0. -1.
         -2    1    3    3    0  502  0.43908730135E+02  0.92777316528E+02 -0.27605546158E+03  0.29452033022E+03  0.00000000000E+00 0.  1.
         11    1    5    5    0    0 -0.20937674484E+03 -0.14461952916E+03  0.20136869100E+02  0.25526245903E+03  0.00000000000E+00 0. -1.
        -11    1    5    5    0    0 -0.10349517025E+03 -0.13476717115E+03  0.67199632302E+02  0.18272720451E+03  0.00000000000E+00 0.  1.
          3    1    6    6  503    0  0.11666047512E+03 -0.60914453478E+02 -0.55844731826E+03  0.57374527830E+03  0.00000000000E+00 0. -1.
         -3    1    6    6    0  503  0.58390532395E+02 -0.68208809740E+01 -0.88263841245E+02  0.10604944301E+03  0.00000000000E+00 0.  1.
<mgrwt>
<rscale>  0 0.14457850E+04</rscale>
<asrwt>0</asrwt>
<pdfrwt beam="1">  1        1 0.24561981E+00 0.14457850E+04</pdfrwt>
<pdfrwt beam="2">  1       -4 0.50356706E-01 0.14457850E+04</pdfrwt>
<totfact> 0.10200361E+01</totfact>
</mgrwt>
</event>
<event>
12    4  0.5080876E-008  0.2144076E+04  0.7818608E-02  0.8542072E-01
          1   -1    0    0  501    0  0.00000000000E+00  0.00000000000E+00  0.20102440067E+04  0.20102440067E+04  0.00000000000E+00 0. -1.
         -4   -1    0    0    0  501 -0.00000000000E+00 -0.00000000000E+00 -0.57170458172E+03  0.57170458172E+03  0.00000000000E+00 0.  1.
        -24    2    1    2    0    0 -0.18667748957E+02 -0.81824485200E+03  0.20212137351E+03  0.84571716580E+03  0.67166600450E+02 0.  0.
        254    2    1    2    0    0  0.18667748957E+02  0.81824485200E+03  0.12364180514E+04  0.17362314226E+04  0.90327007711E+03 0.  0.
         23    2    4    4    0    0  0.12789579567E+03  0.66094149281E+03  0.13387466797E+04  0.15011965257E+04  0.90262643581E+02 0.  0.
         23    2    4    4    0    0 -0.10922804672E+03  0.15730335919E+03 -0.10232862829E+03  0.23503489689E+03  0.89973004751E+02 0.  0.
          1    1    3    3  502    0 -0.49442010386E+01 -0.24491861626E+02 -0.45220448795E+01  0.25391835296E+02  0.00000000000E+00 0. -1.
         -2    1    3    3    0  502 -0.13723547918E+02 -0.79375299037E+03  0.20664341839E+03  0.82032533050E+03  0.00000000000E+00 0.  1.
         11    1    5    5    0    0  0.11467963871E+03  0.63941876576E+03  0.12473547449E+04  0.14063789095E+04  0.00000000000E+00 0. -1.
        -11    1    5    5    0    0  0.13216156967E+02  0.21522727048E+02  0.91391934866E+02  0.94817616206E+02  0.00000000000E+00 0.  1.
          1    1    6    6  503    0 -0.76464647093E+02  0.49637613244E+02 -0.77809789266E+02  0.11985448765E+03  0.00000000000E+00 0. -1.
         -1    1    6    6    0  503 -0.32763399624E+02  0.10766574595E+03 -0.24518839027E+02  0.11518040924E+03  0.00000000000E+00 0.  1.
<mgrwt>
<rscale>  0 0.21440762E+04</rscale>
<asrwt>0</asrwt>
<pdfrwt beam="1">  1        1 0.30926831E+00 0.21440762E+04</pdfrwt>
<pdfrwt beam="2">  1       -4 0.87954552E-01 0.21440762E+04</pdfrwt>
<totfact> 0.14764455E+00</totfact>
</mgrwt>
</event>
<event>
12    4  0.4424320E-008  0.2459111E+04  0.7818608E-02  0.8417699E-01
         -2   -1    0    0    0  501 -0.00000000000E+00  0.00000000000E+00  0.11066854072E+04  0.11066854072E+04  0.00000000000E+00 0.  1.
          1   -1    0    0  501    0  0.00000000000E+00 -0.00000000000E+00 -0.13660671039E+04  0.13660671039E+04  0.00000000000E+00 0. -1.
        -24    2    1    2    0    0 -0.13138221389E+03  0.64611021603E+03 -0.95889362533E+03  0.11663857223E+04  0.79113659886E+02 0.  0.
        254    2    1    2    0    0  0.13138221389E+03 -0.64611021603E+03  0.69951192871E+03  0.13063667888E+04  0.88462282978E+03 0.  0.
         23    2    4    4    0    0 -0.19091957507E+03 -0.71239985497E+03  0.36004607362E+03  0.82572335842E+03  0.90675531530E+02 0.  0.
         23    2    4    4    0    0  0.32230178896E+03  0.66289638938E+02  0.33946585509E+03  0.48064343033E+03  0.86650337264E+02 0.  0.
          3    1    3    3  502    0 -0.42977030302E+02  0.34128134161E+03 -0.55102028923E+03  0.64957165764E+03  0.00000000000E+00 0. -1.
         -4    1    3    3    0  502 -0.88405183589E+02  0.30482887442E+03 -0.40787333610E+03  0.51681406470E+03  0.00000000000E+00 0.  1.
         11    1    5    5    0    0 -0.38719884990E+02 -0.26139021717E+03  0.16355418035E+03  0.31076364819E+03  0.00000000000E+00 0.  1.
        -11    1    5    5    0    0 -0.15219969008E+03 -0.45100963780E+03  0.19649189327E+03  0.51495971023E+03  0.00000000000E+00 0. -1.
          3    1    6    6  503    0  0.26164843424E+03  0.32822587538E+02  0.22402304386E+03  0.34601090961E+03  0.00000000000E+00 0. -1.
         -3    1    6    6    0  503  0.60653354719E+02  0.33467051401E+02  0.11544281124E+03  0.13463252072E+03  0.00000000000E+00 0.  1.
<mgrwt>
<rscale>  0 0.24591108E+04</rscale>
<asrwt>0</asrwt>
<pdfrwt beam="1">  1        1 0.21016417E+00 0.24591108E+04</pdfrwt>
<pdfrwt beam="2">  1       -2 0.17025929E+00 0.24591108E+04</pdfrwt>
<totfact> 0.13483503E+00</totfact>
</mgrwt>
</event>
<event>
12    4  0.4424320E-008  0.2343816E+04  0.7818608E-02  0.8460843E-01
          1   -1    0    0  501    0  0.00000000000E+00  0.00000000000E+00  0.28923520560E+04  0.28923520560E+04  0.00000000000E+00 0. -1.
         -2   -1    0    0    0  501 -0.00000000000E+00 -0.00000000000E+00 -0.47482733331E+03  0.47482733331E+03  0.00000000000E+00 0.  1.
        -24    2    1    2    0    0 -0.38591823930E+03  0.72557139766E+03  0.18401322229E+04  0.20168131753E+04  0.77859140848E+02 0.  0.
        254    2    1    2    0    0  0.38591823930E+03 -0.72557139766E+03  0.57739249977E+03  0.13503662140E+04  0.90261845348E+03 0.  0.
         23    2    4    4    0    0  0.49645128635E+03 -0.82648621391E+03  0.28681678127E+03  0.10097680273E+04  0.88454855371E+02 0.  0.
         23    2    4    4    0    0 -0.11053304706E+03  0.10091481626E+03  0.29057571850E+03  0.34059818668E+03  0.95768063334E+02 0.  0.
          3    1    3    3  502    0 -0.29372119021E+03  0.58416859934E+03  0.15264511600E+04  0.16605957467E+04  0.00000000000E+00 0. -1.
         -4    1    3    3    0  502 -0.92197049090E+02  0.14140279831E+03  0.31368106285E+03  0.35621742858E+03  0.00000000000E+00 0.  1.
         11    1    5    5    0    0  0.27168148968E+03 -0.37098059965E+03  0.15096583477E+03  0.48397119792E+03  0.00000000000E+00 0.  1.
        -11    1    5    5    0    0  0.22476979667E+03 -0.45550561427E+03  0.13585094650E+03  0.52579682938E+03  0.00000000000E+00 0. -1.
          2    1    6    6  503    0 -0.47785570098E+01 -0.16893456399E+02  0.46209281647E+02  0.49431985460E+02  0.00000000000E+00 0.  1.
         -2    1    6    6    0  503 -0.10575449005E+03  0.11780827266E+03  0.24436643686E+03  0.29116620122E+03  0.00000000000E+00 0. -1.
<mgrwt>
<rscale>  0 0.23438155E+04</rscale>
<asrwt>0</asrwt>
<pdfrwt beam="1">  1        1 0.44497723E+00 0.23438155E+04</pdfrwt>
<pdfrwt beam="2">  1       -2 0.73050361E-01 0.23438155E+04</pdfrwt>
<totfact> 0.95890596E-01</totfact>
</mgrwt>
</event>
<event>
12    4  0.4424320E-008  0.1202828E+04  0.7818608E-02  0.9110384E-01
         -2   -1    0    0    0  501 -0.00000000000E+00  0.00000000000E+00  0.95070057986E+03  0.95070057986E+03  0.00000000000E+00 0.  1.
          1   -1    0    0  501    0  0.00000000000E+00 -0.00000000000E+00 -0.38045523897E+03  0.38045523897E+03  0.00000000000E+00 0. -1.
        -24    2    1    2    0    0  0.14528392795E+03 -0.13152842188E+02 -0.12156591701E+03  0.20636458361E+03  0.80793887213E+02 0.  0.
        254    2    1    2    0    0 -0.14528392795E+03  0.13152842188E+02  0.69181125789E+03  0.11247912352E+04  0.87479831351E+03 0.  0.
         23    2    4    4    0    0  0.19535947868E+03 -0.32538382332E+03  0.23937145291E+03  0.45809217231E+03  0.92248509333E+02 0.  0.
         23    2    4    4    0    0 -0.34064340663E+03  0.33853666551E+03  0.45243980499E+03  0.66669906292E+03  0.95607839571E+02 0.  0.
          1    1    3    3  502    0  0.14657681182E+03  0.52723014316E+01 -0.11622199312E+03  0.18713660949E+03  0.00000000000E+00 0. -1.
         -2    1    3    3    0  502 -0.12928838741E+01 -0.18425143620E+02 -0.53439238903E+01  0.19227974118E+02  0.00000000000E+00 0.  1.
         11    1    5    5    0    0  0.29024737059E+02 -0.13054086377E+03  0.69566620769E+02  0.15074106010E+03  0.00000000000E+00 0. -1.
        -11    1    5    5    0    0  0.16633474162E+03 -0.19484295954E+03  0.16980483214E+03  0.30735111220E+03  0.00000000000E+00 0.  1.
          4    1    6    6  503    0 -0.69889731700E+02  0.12080760155E+03  0.16220901182E+03  0.21398788448E+03  0.00000000000E+00 0. -1.
         -4    1    6    6    0  503 -0.27075367493E+03  0.21772906396E+03  0.29023079317E+03  0.45271117844E+03  0.00000000000E+00 0.  1.
<mgrwt>
<rscale>  0 0.12028284E+04</rscale>
<asrwt>0</asrwt>
<pdfrwt beam="1">  1        1 0.58531575E-01 0.12028284E+04</pdfrwt>
<pdfrwt beam="2">  1       -2 0.14626163E+00 0.12028284E+04</pdfrwt>
<totfact> 0.17738156E+01</totfact>
</mgrwt>
</event>
<event>
12    4  0.4424320E-008  0.1441118E+04  0.7818608E-02  0.8924581E-01
          1   -1    0    0  501    0  0.00000000000E+00  0.00000000000E+00  0.32624318229E+03  0.32624318229E+03  0.00000000000E+00 0. -1.
         -2   -1    0    0    0  501 -0.00000000000E+00 -0.00000000000E+00 -0.15914675353E+04  0.15914675353E+04  0.00000000000E+00 0.  1.
        -24    2    1    2    0    0  0.17744910385E+03 -0.20247353259E+03 -0.84114567406E+03  0.88628286368E+03  0.74078023725E+02 0.  0.
        254    2    1    2    0    0 -0.17744910385E+03  0.20247353259E+03 -0.42407867896E+03  0.10314278539E+04  0.90084237025E+03 0.  0.
         23    2    4    4    0    0  0.27083208975E+03 -0.18513556552E+03 -0.14419837664E+03  0.36970238154E+03  0.90892687464E+02 0.  0.
         23    2    4    4    0    0 -0.44828119360E+03  0.38760909811E+03 -0.27988030232E+03  0.66172547238E+03  0.91382578782E+02 0.  0.
          1    1    3    3  502    0 -0.20083769806E+01  0.29491028729E+01 -0.24059840490E+01  0.43034341049E+01  0.00000000000E+00 0. -1.
         -2    1    3    3    0  502  0.17945748083E+03 -0.20542263546E+03 -0.83873969001E+03  0.88197942957E+03  0.00000000000E+00 0.  1.
         11    1    5    5    0    0  0.42315750133E+02 -0.37256976853E+02 -0.65374574156E+02  0.86328094961E+02  0.00000000000E+00 0.  1.
        -11    1    5    5    0    0  0.22851633961E+03 -0.14787858866E+03 -0.78823802484E+02  0.28337428658E+03  0.00000000000E+00 0. -1.
          2    1    6    6  503    0 -0.28194033434E+03  0.25755763574E+03 -0.22629089742E+03  0.44388496045E+03  0.00000000000E+00 0. -1.
         -2    1    6    6    0  503 -0.16634085926E+03  0.13005146236E+03 -0.53589404893E+02  0.21784051193E+03  0.00000000000E+00 0.  1.
<mgrwt>
<rscale>  0 0.14411182E+04</rscale>
<asrwt>0</asrwt>
<pdfrwt beam="1">  1        1 0.50191257E-01 0.14411182E+04</pdfrwt>
<pdfrwt beam="2">  1       -2 0.24484117E+00 0.14411182E+04</pdfrwt>
<totfact> 0.46136633E+00</totfact>
</mgrwt>
</event>
<event>
12    4  0.4424320E-008  0.1116642E+04  0.7818608E-02  0.9189121E-01
         -2   -1    0    0    0  501 -0.00000000000E+00  0.00000000000E+00  0.23528216531E+03  0.23528216531E+03  0.00000000000E+00 0.  1.
          1   -1    0    0  501    0  0.00000000000E+00 -0.00000000000E+00 -0.13248882821E+04  0.13248882821E+04  0.00000000000E+00 0. -1.
        -24    2    1    2    0    0 -0.51918719783E+02 -0.15418146976E+03 -0.25846683763E+03  0.31593631851E+03  0.80889876478E+02 0.  0.
        254    2    1    2    0    0  0.51918719783E+02  0.15418146976E+03 -0.83113927920E+03  0.12442341289E+04  0.91151444702E+03 0.  0.
         23    2    4    4    0    0  0.17695141466E+03 -0.17422738257E+03 -0.84002448790E+03  0.88067906035E+03  0.91035614379E+02 0.  0.
         23    2    4    4    0    0 -0.12503269488E+03  0.32840885232E+03  0.88852086977E+01  0.36355506860E+03  0.92778186529E+02 0.  0.
          3    1    3    3  502    0 -0.40624229532E+02 -0.14223278725E+03 -0.16737126310E+03  0.22336882841E+03  0.00000000000E+00 0. -1.
         -4    1    3    3    0  502 -0.11294490251E+02 -0.11948682505E+02 -0.91095574526E+02  0.92567490092E+02  0.00000000000E+00 0.  1.
         11    1    5    5    0    0  0.15944695241E+02 -0.20494331883E+02 -0.25929748551E+02  0.36696087061E+02  0.00000000000E+00 0. -1.
        -11    1    5    5    0    0  0.16100671942E+03 -0.15373305068E+03 -0.81409473935E+03  0.84398297329E+03  0.00000000000E+00 0.  1.
          1    1    6    6  503    0  0.91257619125E+01  0.75618930616E+02 -0.96241449234E+01  0.76773213841E+02  0.00000000000E+00 0. -1.
         -1    1    6    6    0  503 -0.13415845679E+03  0.25278992171E+03  0.18509353621E+02  0.28678185475E+03  0.00000000000E+00 0.  1.
<mgrwt>
<rscale>  0 0.11166424E+04</rscale>
<asrwt>0</asrwt>
<pdfrwt beam="1">  1        1 0.20382896E+00 0.11166424E+04</pdfrwt>
<pdfrwt beam="2">  1       -2 0.36197257E-01 0.11166424E+04</pdfrwt>
<totfact> 0.54429028E+01</totfact>
</mgrwt>
</event>
<event>
12    4  0.4424320E-008  0.1208621E+04  0.7818608E-02  0.9105344E-01
          1   -1    0    0  501    0  0.00000000000E+00  0.00000000000E+00  0.84560940473E+03  0.84560940473E+03  0.00000000000E+00 0. -1.
         -2   -1    0    0    0  501 -0.00000000000E+00 -0.00000000000E+00 -0.43186732597E+03  0.43186732597E+03  0.00000000000E+00 0.  1.
        -24    2    1    2    0    0 -0.80605392169E+02  0.13081259233E+02 -0.16609800902E+03  0.20048717115E+03  0.77059772933E+02 0.  0.
        254    2    1    2    0    0  0.80605392169E+02 -0.13081259233E+02  0.57984008778E+03  0.10769895596E+04  0.90389359739E+03 0.  0.
         23    2    4    4    0    0 -0.70195436273E+02  0.59783596746E+02  0.78503485853E+03  0.79557320917E+03  0.90307941638E+02 0.  0.
         23    2    4    4    0    0  0.15080082844E+03 -0.72864855978E+02 -0.20519477076E+03  0.28141635038E+03  0.95079394314E+02 0.  0.
          3    1    3    3  502    0  0.12935422974E+02 -0.88765423597E+01 -0.30496591875E+02  0.34295193363E+02  0.00000000000E+00 0. -1.
         -4    1    3    3    0  502 -0.93540815142E+02  0.21957801592E+02 -0.13560141714E+03  0.16619197778E+03  0.00000000000E+00 0.  1.
         11    1    5    5    0    0  0.49865595179E+01 -0.14662366506E+02  0.23148352613E+03  0.23200102077E+03  0.00000000000E+00 0.  1.
        -11    1    5    5    0    0 -0.75181995791E+02  0.74445963251E+02  0.55355133240E+03  0.56357218840E+03  0.00000000000E+00 0. -1.
          3    1    6    6  503    0  0.74787911431E+02 -0.50013212435E+02 -0.40648101848E+02  0.98725990996E+02  0.00000000000E+00 0. -1.
         -3    1    6    6    0  503  0.76012917011E+02 -0.22851643543E+02 -0.16454666891E+03  0.18269035939E+03  0.00000000000E+00 0.  1.
<mgrwt>
<rscale>  0 0.12086208E+04</rscale>
<asrwt>0</asrwt>
<pdfrwt beam="1">  1        1 0.13009375E+00 0.12086208E+04</pdfrwt>
<pdfrwt beam="2">  1       -2 0.66441127E-01 0.12086208E+04</pdfrwt>
<totfact> 0.36462980E+01</totfact>
</mgrwt>
</event>
<event>
12    4  0.4424320E-008  0.4944071E+04  0.7818608E-02  0.7837193E-01
          1   -1    0    0  501    0  0.00000000000E+00  0.00000000000E+00  0.28965154783E+04  0.28965154783E+04  0.00000000000E+00 0. -1.
         -2   -1    0    0    0  501 -0.00000000000E+00 -0.00000000000E+00 -0.21097623411E+04  0.21097623411E+04  0.00000000000E+00 0.  1.
        -24    2    1    2    0    0 -0.14049856056E+04 -0.18263859825E+04 -0.26532171224E+03  0.23209017342E+04  0.80739951085E+02 0.  0.
        254    2    1    2    0    0  0.14049856056E+04  0.18263859825E+04  0.10520748494E+04  0.26853760852E+04  0.89146672454E+03 0.  0.
         23    2    4    4    0    0  0.47059893016E+03  0.40268926604E+03  0.70947952984E+03  0.94597144196E+03  0.88762422730E+02 0.  0.
         23    2    4    4    0    0  0.93438667541E+03  0.14236967165E+04  0.34259531959E+03  0.17394046432E+04  0.90366808631E+02 0.  0.
          3    1    3    3  502    0 -0.95321760256E+03 -0.12674263432E+04 -0.14912705000E+03  0.15928691755E+04  0.00000000000E+00 0. -1.
         -4    1    3    3    0  502 -0.45176800300E+03 -0.55895963931E+03 -0.11619466224E+03  0.72803255864E+03  0.00000000000E+00 0.  1.
         11    1    5    5    0    0  0.70815728721E+02  0.23301832017E+02  0.83480755759E+02  0.11192354262E+03  0.00000000000E+00 0. -1.
        -11    1    5    5    0    0  0.39978320144E+03  0.37938743403E+03  0.62599877408E+03  0.83404789934E+03  0.00000000000E+00 0.  1.
          3    1    6    6  503    0  0.29069242768E+02  0.50483286231E+02  0.28682391239E+02  0.64932754685E+02  0.00000000000E+00 0. -1.
         -3    1    6    6    0  503  0.90531743264E+03  0.13732134302E+04  0.31391292835E+03  0.16744718885E+04  0.00000000000E+00 0.  1.
<mgrwt>
<rscale>  0 0.49440709E+04</rscale>
<asrwt>0</asrwt>
<pdfrwt beam="1">  1        1 0.44561777E+00 0.49440709E+04</pdfrwt>
<pdfrwt beam="2">  1       -2 0.32457882E+00 0.49440709E+04</pdfrwt>
<totfact> 0.10167400E-02</totfact>
</mgrwt>
</event>
<event>
12    4  0.4424320E-008  0.2187699E+04  0.7818608E-02  0.8523566E-01
         -2   -1    0    0    0  501 -0.00000000000E+00  0.00000000000E+00  0.44028603632E+03  0.44028603632E+03  0.00000000000E+00 0.  1.
          1   -1    0    0  501    0  0.00000000000E+00 -0.00000000000E+00 -0.27175659465E+04  0.27175659465E+04  0.00000000000E+00 0. -1.
        -24    2    1    2    0    0  0.53603943139E+03  0.20894918044E+03  0.61773503001E+02  0.58441723220E+03  0.82033551714E+02 0.  0.
        254    2    1    2    0    0 -0.53603943139E+03 -0.20894918044E+03 -0.23390534132E+04  0.25734347507E+04  0.90575797764E+03 0.  0.
         23    2    4    4    0    0 -0.10182184170E+03  0.14127347206E+02 -0.19168557532E+04  0.19218101861E+04  0.91930099585E+02 0.  0.
         23    2    4    4    0    0 -0.43421758969E+03 -0.22307652765E+03 -0.42219765999E+03  0.65162456460E+03  0.89753310308E+02 0.  0.
          3    1    3    3  502    0  0.76014540054E+02  0.34912695943E+00  0.95977226307E+01  0.76618851916E+02  0.00000000000E+00 0. -1.
         -4    1    3    3    0  502  0.46002489133E+03  0.20860005348E+03  0.52175780370E+02  0.50779838028E+03  0.00000000000E+00 0.  1.
         11    1    5    5    0    0  0.26075862444E+01  0.31695137944E+02 -0.48878275615E+03  0.48981625533E+03  0.00000000000E+00 0.  1.
        -11    1    5    5    0    0 -0.10442942795E+03 -0.17567790738E+02 -0.14280729971E+04  0.14319939307E+04  0.00000000000E+00 0. -1.
          3    1    6    6  503    0 -0.40342224828E+03 -0.21529598087E+03 -0.36072106167E+03  0.58242729513E+03  0.00000000000E+00 0. -1.
         -3    1    6    6    0  503 -0.30795341403E+02 -0.77805467804E+01 -0.61476598324E+02  0.69197269468E+02  0.00000000000E+00 0.  1.
<mgrwt>
<rscale>  0 0.21876986E+04</rscale>
<asrwt>0</asrwt>
<pdfrwt beam="1">  1        1 0.41808707E+00 0.21876986E+04</pdfrwt>
<pdfrwt beam="2">  1       -2 0.67736313E-01 0.21876986E+04</pdfrwt>
<totfact> 0.15281038E+00</totfact>
</mgrwt>
</event>
<event>
12    4  0.4424320E-008  0.1195014E+04  0.7818608E-02  0.9117232E-01
          1   -1    0    0  501    0  0.00000000000E+00  0.00000000000E+00  0.83711201833E+03  0.83711201833E+03  0.00000000000E+00 0. -1.
         -2   -1    0    0    0  501 -0.00000000000E+00 -0.00000000000E+00 -0.42648371633E+03  0.42648371633E+03  0.00000000000E+00 0.  1.
        -24    2    1    2    0    0  0.11068063738E+03  0.87230449821E+02  0.35061119151E+03  0.38652824367E+03  0.81341998225E+02 0.  0.
        254    2    1    2    0    0 -0.11068063738E+03 -0.87230449821E+02  0.60017110486E+02  0.87706749099E+03  0.86358900834E+03 0.  0.
         23    2    4    4    0    0  0.37832885809E+02 -0.40071717559E+03 -0.17494043548E+03  0.44827855617E+03  0.91345092337E+02 0.  0.
         23    2    4    4    0    0 -0.14851352319E+03  0.31348672577E+03  0.23495754597E+03  0.42878893482E+03  0.91239840036E+02 0.  0.
          1    1    3    3  502    0  0.10318561747E+03  0.10155592308E+03  0.29496043084E+03  0.32857652522E+03  0.00000000000E+00 0. -1.
         -2    1    3    3    0  502  0.74950199081E+01 -0.14325473264E+02  0.55650760675E+02  0.57951718451E+02  0.00000000000E+00 0.  1.
         11    1    5    5    0    0  0.52102077266E+02 -0.36778007535E+03 -0.17867215140E+03  0.41218994162E+03  0.00000000000E+00 0. -1.
        -11    1    5    5    0    0 -0.14269191456E+02 -0.32937100233E+02  0.37317159191E+01  0.36088614552E+02  0.00000000000E+00 0.  1.
          2    1    6    6  503    0 -0.14296961066E+03  0.31577461438E+03  0.23944967520E+03  0.42129569617E+03  0.00000000000E+00 0. -1.
         -2    1    6    6    0  503 -0.55439125254E+01 -0.22878886141E+01 -0.44921292259E+01  0.74932386444E+01  0.00000000000E+00 0.  1.
<mgrwt>
<rscale>  0 0.11950140E+04</rscale>
<asrwt>0</asrwt>
<pdfrwt beam="1">  1        1 0.12878646E+00 0.11950140E+04</pdfrwt>
<pdfrwt beam="2">  1       -2 0.65612879E-01 0.11950140E+04</pdfrwt>
<totfact> 0.38128330E+01</totfact>
</mgrwt>
</event>
<event>
12    4  0.4424320E-008  0.1177331E+04  0.7818608E-02  0.9132933E-01
         -2   -1    0    0    0  501 -0.00000000000E+00  0.00000000000E+00  0.49026725938E+03  0.49026725938E+03  0.00000000000E+00 0.  1.
          1   -1    0    0  501    0  0.00000000000E+00 -0.00000000000E+00 -0.70681310416E+03  0.70681310416E+03  0.00000000000E+00 0. -1.
        -24    2    1    2    0    0 -0.10464410876E+03  0.43404844163E+02 -0.24034737223E+03  0.27822942451E+03  0.82525046680E+02 0.  0.
        254    2    1    2    0    0  0.10464410876E+03 -0.43404844163E+02  0.23801527455E+02  0.91885093904E+03  0.91152957465E+03 0.  0.
         23    2    4    4    0    0 -0.38736042895E+03  0.34804273991E+02 -0.66367008894E+02  0.40448411531E+03  0.89125643169E+02 0.  0.
         23    2    4    4    0    0  0.49200453771E+03 -0.78209118155E+02  0.90168536349E+02  0.51436682372E+03  0.90872070024E+02 0.  0.
          1    1    3    3  502    0 -0.81313382150E+02  0.31524898549E+02 -0.23611780851E+03  0.25170876990E+03  0.00000000000E+00 0. -1.
         -2    1    3    3    0  502 -0.23330726612E+02  0.11879945614E+02 -0.42295637199E+01  0.26520654616E+02  0.00000000000E+00 0.  1.
         11    1    5    5    0    0 -0.34291337006E+03  0.98988199228E+01 -0.78907726133E+02  0.35201419751E+03  0.00000000000E+00 0.  1.
        -11    1    5    5    0    0 -0.44447058886E+02  0.24905454069E+02  0.12540717238E+02  0.52469917809E+02  0.00000000000E+00 0. -1.
          4    1    6    6  503    0  0.22180459707E+02 -0.20004987150E+02  0.19586800771E+02  0.35718553555E+02  0.00000000000E+00 0. -1.
         -4    1    6    6    0  503  0.46982407800E+03 -0.58204131005E+02  0.70581735578E+02  0.47864827017E+03  0.00000000000E+00 0.  1.
<mgrwt>
<rscale>  0 0.11773314E+04</rscale>
<asrwt>0</asrwt>
<pdfrwt beam="1">  1        1 0.10874048E+00 0.11773314E+04</pdfrwt>
<pdfrwt beam="2">  1       -2 0.75425732E-01 0.11773314E+04</pdfrwt>
<totfact> 0.36759377E+01</totfact>
</mgrwt>
</event>
<event>
12    4  0.4424320E-008  0.1404817E+04  0.7818608E-02  0.8950339E-01
         -2   -1    0    0    0  501 -0.00000000000E+00  0.00000000000E+00  0.10944159398E+04  0.10944159398E+04  0.00000000000E+00 0.  1.
          1   -1    0    0  501    0  0.00000000000E+00 -0.00000000000E+00 -0.45081389884E+03  0.45081389884E+03  0.00000000000E+00 0. -1.
        -24    2    1    2    0    0  0.24841381624E+03 -0.28857404760E+03  0.47392020771E+02  0.39184843780E+03  0.79465649990E+02 0.  0.
        254    2    1    2    0    0 -0.24841381624E+03  0.28857404760E+03  0.59621002020E+03  0.11533814009E+04  0.91095436911E+03 0.  0.
         23    2    4    4    0    0  0.12114887038E+02 -0.21123095652E+03 -0.10164523005E+03  0.25166969344E+03  0.90777719304E+02 0.  0.
         23    2    4    4    0    0 -0.26052870328E+03  0.49980500412E+03  0.69785525025E+03  0.90171170741E+03  0.91661363779E+02 0.  0.
          1    1    3    3  502    0  0.94606167953E+02 -0.11665786532E+03  0.57802719141E+02  0.16093644365E+03  0.00000000000E+00 0. -1.
         -2    1    3    3    0  502  0.15380764829E+03 -0.17191618228E+03 -0.10410698370E+02  0.23091199415E+03  0.00000000000E+00 0.  1.
         11    1    5    5    0    0  0.39303321744E+02 -0.11419918572E+03 -0.20959878276E+02  0.12257863442E+03  0.00000000000E+00 0. -1.
        -11    1    5    5    0    0 -0.27188434706E+02 -0.97031770797E+02 -0.80685351778E+02  0.12909105901E+03  0.00000000000E+00 0.  1.
          3    1    6    6  503    0 -0.23359200782E+03  0.44661151154E+03  0.57151305122E+03  0.76200671656E+03  0.00000000000E+00 0. -1.
         -3    1    6    6    0  503 -0.26936695455E+02  0.53193492572E+02  0.12634219903E+03  0.13970499085E+03  0.00000000000E+00 0.  1.
<mgrwt>
<rscale>  0 0.14048173E+04</rscale>
<asrwt>0</asrwt>
<pdfrwt beam="1">  1        1 0.69355985E-01 0.14048173E+04</pdfrwt>
<pdfrwt beam="2">  1       -2 0.16837168E+00 0.14048173E+04</pdfrwt>
<totfact> 0.95179552E+00</totfact>
</mgrwt>
</event>
<event>
12    4  0.4424320E-008  0.1379969E+04  0.7818608E-02  0.8968447E-01
          3   -1    0    0  501    0  0.00000000000E+00  0.00000000000E+00  0.24268982783E+03  0.24268982783E+03  0.00000000000E+00 0. -1.
         -4   -1    0    0    0  501 -0.00000000000E+00 -0.00000000000E+00 -0.19616762523E+04  0.19616762523E+04  0.00000000000E+00 0.  1.
        -24    2    1    2    0    0  0.33792290595E+03  0.18173140563E+03 -0.42361866921E+03  0.57927907738E+03  0.94304180312E+02 0.  0.
        254    2    1    2    0    0 -0.33792290595E+03 -0.18173140563E+03 -0.12953677553E+04  0.16250870028E+04  0.90316773139E+03 0.  0.
         23    2    4    4    0    0 -0.11373281444E+03  0.42559737029E+02 -0.12860379973E+04  0.12950525333E+04  0.92308446813E+02 0.  0.
         23    2    4    4    0    0 -0.22419009152E+03 -0.22429114266E+03 -0.93297579748E+01  0.33003446942E+03  0.90928503857E+02 0.  0.
          1    1    3    3  502    0  0.23611008490E+03  0.11036178345E+03 -0.34420430417E+03  0.43174564091E+03  0.00000000000E+00 0. -1.
         -2    1    3    3    0  502  0.10181282105E+03  0.71369622178E+02 -0.79414365043E+02  0.14753343647E+03  0.00000000000E+00 0.  1.
         11    1    5    5    0    0 -0.12993035463E+03  0.39620994983E+02 -0.11679377505E+04  0.11758104904E+04  0.00000000000E+00 0.  1.
        -11    1    5    5    0    0  0.16197540193E+02  0.29387420460E+01 -0.11810024679E+03  0.11924204294E+03  0.00000000000E+00 0. -1.
          4    1    6    6  503    0 -0.20717643240E+02 -0.14371883420E+02 -0.27265342737E+02  0.37137187414E+02  0.00000000000E+00 0. -1.
         -4    1    6    6    0  503 -0.20347244828E+03 -0.20991925924E+03  0.17935584762E+02  0.29289728201E+03  0.00000000000E+00 0.  1.
<mgrwt>
<rscale>  0 0.13799694E+04</rscale>
<asrwt>0</asrwt>
<pdfrwt beam="1">  1        3 0.37336896E-01 0.13799694E+04</pdfrwt>
<pdfrwt beam="2">  1       -4 0.30179635E+00 0.13799694E+04</pdfrwt>
<totfact> 0.48133005E-01</totfact>
</mgrwt>
</event>
<event>
12    4  0.4424320E-008  0.1413270E+04  0.7818608E-02  0.8944269E-01
         -2   -1    0    0    0  501 -0.00000000000E+00  0.00000000000E+00  0.21356960108E+03  0.21356960108E+03  0.00000000000E+00 0.  1.
          1   -1    0    0  501    0  0.00000000000E+00 -0.00000000000E+00 -0.23380341465E+04  0.23380341465E+04  0.00000000000E+00 0. -1.
        -24    2    1    2    0    0 -0.21115495691E+03 -0.27354578019E+03 -0.80740941008E+03  0.88176586565E+03  0.78659879555E+02 0.  0.
        254    2    1    2    0    0  0.21115495691E+03  0.27354578019E+03 -0.13170551354E+04  0.16698378820E+04  0.96659744089E+03 0.  0.
         23    2    4    4    0    0  0.18078818188E+03  0.62257051885E+03 -0.95486512901E+03  0.11577414097E+04  0.91210413681E+02 0.  0.
         23    2    4    4    0    0  0.30366775029E+02 -0.34902473865E+03 -0.36219000638E+03  0.51209647224E+03  0.91218347647E+02 0.  0.
          1    1    3    3  502    0 -0.21719045271E+03 -0.25743725267E+03 -0.75852976718E+03  0.82994761251E+03  0.00000000000E+00 0. -1.
         -2    1    3    3    0  502  0.60354958032E+01 -0.16108527522E+02 -0.48879642904E+02  0.51818253144E+02  0.00000000000E+00 0.  1.
         11    1    5    5    0    0  0.38487174654E+02  0.25002378841E+03 -0.42466880124E+03  0.49430430721E+03  0.00000000000E+00 0. -1.
        -11    1    5    5    0    0  0.14230100723E+03  0.37254673043E+03 -0.53019632777E+03  0.66343710252E+03  0.00000000000E+00 0.  1.
          1    1    6    6  503    0  0.66944749398E+01  0.33901202100E+01 -0.15251457751E+02  0.16997525505E+02  0.00000000000E+00 0. -1.
         -1    1    6    6    0  503  0.23672300089E+02 -0.35241485886E+03 -0.34693854863E+03  0.49509894674E+03  0.00000000000E+00 0.  1.
<mgrwt>
<rscale>  0 0.14132700E+04</rscale>
<asrwt>0</asrwt>
<pdfrwt beam="1">  1        1 0.35969759E+00 0.14132700E+04</pdfrwt>
<pdfrwt beam="2">  1       -2 0.32856859E-01 0.14132700E+04</pdfrwt>
<totfact> 0.12982842E+01</totfact>
</mgrwt>
</event>
<event>
12    4  0.4424320E-008  0.1024664E+04  0.7818608E-02  0.9281900E-01
         -2   -1    0    0    0  501 -0.00000000000E+00  0.00000000000E+00  0.20157862758E+03  0.20157862758E+03  0.00000000000E+00 0.  1.
          1   -1    0    0  501    0  0.00000000000E+00 -0.00000000000E+00 -0.13021412890E+04  0.13021412890E+04  0.00000000000E+00 0. -1.
        -24    2    1    2    0    0  0.83763422008E+02  0.25899355846E+02 -0.30922584533E+03  0.33121378581E+03  0.79967874752E+02 0.  0.
        254    2    1    2    0    0 -0.83763422008E+02 -0.25899355846E+02 -0.79133681605E+03  0.11725061307E+04  0.86073781295E+03 0.  0.
         23    2    4    4    0    0 -0.38042782087E+03  0.22865529070E+03 -0.32397411557E+03  0.55668204536E+03  0.89034281112E+02 0.  0.
         23    2    4    4    0    0  0.29666439886E+03 -0.25455464654E+03 -0.46736270047E+03  0.61582408536E+03  0.89462711142E+02 0.  0.
          3    1    3    3  502    0  0.70664563517E+02  0.37936375259E+02 -0.30120364931E+03  0.31169903346E+03  0.00000000000E+00 0. -1.
         -4    1    3    3    0  502  0.13098858492E+02 -0.12037019413E+02 -0.80221960156E+01  0.19514752344E+02  0.00000000000E+00 0.  1.
         11    1    5    5    0    0 -0.32534383310E+03  0.21376650257E+03 -0.31075582122E+03  0.49811033696E+03  0.00000000000E+00 0. -1.
        -11    1    5    5    0    0 -0.55083987765E+02  0.14888788130E+02 -0.13218294348E+02  0.58571708406E+02  0.00000000000E+00 0.  1.
          3    1    6    6  503    0  0.30210247242E+03 -0.25096060812E+03 -0.46549685414E+03  0.60904388338E+03  0.00000000000E+00 0. -1.
         -3    1    6    6    0  503 -0.54380735645E+01 -0.35940384275E+01 -0.18658463370E+01  0.67802019781E+01  0.00000000000E+00 0.  1.
<mgrwt>
<rscale>  0 0.10246636E+04</rscale>
<asrwt>0</asrwt>
<pdfrwt beam="1">  1        1 0.20032943E+00 0.10246636E+04</pdfrwt>
<pdfrwt beam="2">  1       -2 0.31012096E-01 0.10246636E+04</pdfrwt>
<totfact> 0.76245608E+01</totfact>
</mgrwt>
</event>
<event>
12    4  0.4424320E-008  0.2029664E+04  0.7818608E-02  0.8592876E-01
         -2   -1    0    0    0  501 -0.00000000000E+00  0.00000000000E+00  0.91405415422E+03  0.91405415422E+03  0.00000000000E+00 0.  1.
          1   -1    0    0  501    0  0.00000000000E+00 -0.00000000000E+00 -0.11267212648E+04  0.11267212648E+04  0.00000000000E+00 0. -1.
        -24    2    1    2    0    0 -0.11560706501E+03  0.42184248785E+03 -0.76638335586E+03  0.88605463197E+03  0.80207759313E+02 0.  0.
        254    2    1    2    0    0  0.11560706501E+03 -0.42184248785E+03  0.55371624532E+03  0.11547207870E+04  0.91403628898E+03 0.  0.
         23    2    4    4    0    0 -0.35158087317E+03 -0.75792961864E+02  0.40027899087E+03  0.54648523268E+03  0.95232114108E+02 0.  0.
         23    2    4    4    0    0  0.46718793818E+03 -0.34604952599E+03  0.15343725445E+03  0.60823555432E+03  0.91611432035E+02 0.  0.
          3    1    3    3  502    0 -0.83481259389E+02  0.22490429553E+03 -0.48515740982E+03  0.54122894889E+03  0.00000000000E+00 0. -1.
         -4    1    3    3    0  502 -0.32125805622E+02  0.19693819232E+03 -0.28122594605E+03  0.34482568308E+03  0.00000000000E+00 0.  1.
         11    1    5    5    0    0 -0.13186364595E+03 -0.62062400112E+02  0.20932269536E+03  0.25506029370E+03  0.00000000000E+00 0. -1.
        -11    1    5    5    0    0 -0.21971722721E+03 -0.13730561752E+02  0.19095629551E+03  0.29142493898E+03  0.00000000000E+00 0.  1.
          2    1    6    6  503    0  0.23713931632E+03 -0.12610836798E+03  0.47198614722E+02  0.27270145774E+03  0.00000000000E+00 0. -1.
         -2    1    6    6    0  503  0.23004862186E+03 -0.21994115801E+03  0.10623863973E+03  0.33553409659E+03  0.00000000000E+00 0.  1.
<mgrwt>
<rscale>  0 0.20296643E+04</rscale>
<asrwt>0</asrwt>
<pdfrwt beam="1">  1        1 0.17334173E+00 0.20296643E+04</pdfrwt>
<pdfrwt beam="2">  1       -2 0.14062372E+00 0.20296643E+04</pdfrwt>
<totfact> 0.34878048E+00</totfact>
</mgrwt>
</event>
<event>
12    4  0.4424320E-008  0.1737642E+04  0.7818608E-02  0.8740182E-01
         -2   -1    0    0    0  501 -0.00000000000E+00  0.00000000000E+00  0.20740315033E+04  0.20740315033E+04  0.00000000000E+00 0.  1.
          1   -1    0    0  501    0  0.00000000000E+00 -0.00000000000E+00 -0.36395316499E+03  0.36395316499E+03  0.00000000000E+00 0. -1.
        -24    2    1    2    0    0  0.48232802264E+03  0.38869716053E+02  0.51458683514E+02  0.49299660352E+03  0.79034667822E+02 0.  0.
        254    2    1    2    0    0 -0.48232802264E+03 -0.38869716053E+02  0.16586196548E+04  0.19449880648E+04  0.89320111766E+03 0.  0.
         23    2    4    4    0    0 -0.11813107802E+03 -0.26013563958E+02  0.15475952071E+04  0.15548843633E+04  0.89346522709E+02 0.  0.
         23    2    4    4    0    0 -0.36419694463E+03 -0.12856152095E+02  0.11102444770E+03  0.39010370146E+03  0.83962936986E+02 0.  0.
          3    1    3    3  502    0  0.29328413880E+03  0.12266887302E+02  0.68194704871E+02  0.30135789415E+03  0.00000000000E+00 0. -1.
         -4    1    3    3    0  502  0.18904388385E+03  0.26602828751E+02 -0.16736021357E+02  0.19163870937E+03  0.00000000000E+00 0.  1.
         11    1    5    5    0    0  0.14912884277E+02 -0.46892631000E+01  0.16525431217E+03  0.16599208112E+03  0.00000000000E+00 0. -1.
        -11    1    5    5    0    0 -0.13304396230E+03 -0.21324300858E+02  0.13823408950E+04  0.13888922822E+04  0.00000000000E+00 0.  1.
          4    1    6    6  503    0 -0.26921115684E+02  0.18374733816E+02 -0.29408465534E+01  0.32726531912E+02  0.00000000000E+00 0. -1.
         -4    1    6    6    0  503 -0.33727582894E+03 -0.31230885911E+02  0.11396529425E+03  0.35737716955E+03  0.00000000000E+00 0.  1.
<mgrwt>
<rscale>  0 0.17376425E+04</rscale>
<asrwt>0</asrwt>
<pdfrwt beam="1">  1        1 0.55992796E-01 0.17376425E+04</pdfrwt>
<pdfrwt beam="2">  1       -2 0.31908176E+00 0.17376425E+04</pdfrwt>
<totfact> 0.13724102E+00</totfact>
</mgrwt>
</event>
<event>
12    4  0.4424320E-008  0.1303226E+04  0.7818608E-02  0.9027011E-01
         -2   -1    0    0    0  501 -0.00000000000E+00  0.00000000000E+00  0.55755529642E+03  0.55755529642E+03  0.00000000000E+00 0.  1.
          1   -1    0    0  501    0  0.00000000000E+00 -0.00000000000E+00 -0.76153830460E+03  0.76153830460E+03  0.00000000000E+00 0. -1.
        -24    2    1    2    0    0  0.22304901895E+03 -0.11432124546E+03  0.17086232012E+03  0.31366583900E+03  0.79825522879E+02 0.  0.
        254    2    1    2    0    0 -0.22304901895E+03  0.11432124546E+03 -0.37484532831E+03  0.10054277620E+04  0.89864105874E+03 0.  0.
         23    2    4    4    0    0 -0.51400167345E+03  0.26981977904E+03 -0.26966280285E+03  0.64690911765E+03  0.93664004778E+02 0.  0.
         23    2    4    4    0    0  0.29095265450E+03 -0.15549853358E+03 -0.10518252546E+03  0.35851864436E+03  0.92946294090E+02 0.  0.
          3    1    3    3  502    0  0.53677653044E+02  0.50021399906E+01  0.20524789968E+02  0.57685170052E+02  0.00000000000E+00 0. -1.
         -4    1    3    3    0  502  0.16937136591E+03 -0.11932338545E+03  0.15033753016E+03  0.25598066895E+03  0.00000000000E+00 0.  1.
         11    1    5    5    0    0 -0.31782289670E+03  0.14503018645E+03 -0.20714557880E+03  0.40614583522E+03  0.00000000000E+00 0. -1.
        -11    1    5    5    0    0 -0.19617877675E+03  0.12478959259E+03 -0.62517224048E+02  0.24076328243E+03  0.00000000000E+00 0.  1.
          1    1    6    6  503    0  0.24441809140E+03 -0.16089913198E+03 -0.72722612129E+02  0.30152497805E+03  0.00000000000E+00 0. -1.
         -1    1    6    6    0  503  0.46534563103E+02  0.54005983940E+01 -0.32459913327E+02  0.56993666309E+02  0.00000000000E+00 0.  1.
<mgrwt>
<rscale>  0 0.13032263E+04</rscale>
<asrwt>0</asrwt>
<pdfrwt beam="1">  1        1 0.11715974E+00 0.13032263E+04</pdfrwt>
<pdfrwt beam="2">  1       -2 0.85777737E-01 0.13032263E+04</pdfrwt>
<totfact> 0.24285739E+01</totfact>
</mgrwt>
</event>
<event>
12    4  0.4424320E-008  0.1384465E+04  0.7818608E-02  0.8965141E-01
         -2   -1    0    0    0  501 -0.00000000000E+00  0.00000000000E+00  0.31002147029E+03  0.31002147029E+03  0.00000000000E+00 0.  1.
          1   -1    0    0  501    0  0.00000000000E+00 -0.00000000000E+00 -0.15456544604E+04  0.15456544604E+04  0.00000000000E+00 0. -1.
        -24    2    1    2    0    0 -0.12827580276E+03 -0.35956365510E+03 -0.47639609660E+03  0.61664522486E+03  0.86933243606E+02 0.  0.
        254    2    1    2    0    0  0.12827580276E+03  0.35956365510E+03 -0.75923689349E+03  0.12390307058E+04  0.90167384672E+03 0.  0.
         23    2    4    4    0    0  0.87768026529E+01 -0.19657352220E+03  0.71438029988E+02  0.22794441272E+03  0.90205771807E+02 0.  0.
         23    2    4    4    0    0  0.11949900011E+03  0.55613717731E+03 -0.83067492348E+03  0.10110862931E+04  0.93306444359E+02 0.  0.
          1    1    3    3  502    0 -0.13957186247E+03 -0.34814689489E+03 -0.45090793765E+03  0.58651899666E+03  0.00000000000E+00 0. -1.
         -2    1    3    3    0  502  0.11296059706E+02 -0.11416760215E+02 -0.25488158951E+02  0.30126228198E+02  0.00000000000E+00 0.  1.
         11    1    5    5    0    0 -0.21335133551E+02 -0.11869280938E+03  0.40813022726E+01  0.12066411211E+03  0.00000000000E+00 0. -1.
        -11    1    5    5    0    0  0.30111936204E+02 -0.77880712817E+02  0.67356727716E+02  0.10728030061E+03  0.00000000000E+00 0.  1.
          4    1    6    6  503    0 -0.20937949854E+01  0.79252301424E+02 -0.74028058728E+02  0.10846872700E+03  0.00000000000E+00 0. -1.
         -4    1    6    6    0  503  0.12159279510E+03  0.47688487588E+03 -0.75664686476E+03  0.90261756609E+03  0.00000000000E+00 0.  1.
<mgrwt>
<rscale>  0 0.13844653E+04</rscale>
<asrwt>0</asrwt>
<pdfrwt beam="1">  1        1 0.23779299E+00 0.13844653E+04</pdfrwt>
<pdfrwt beam="2">  1       -2 0.47695611E-01 0.13844653E+04</pdfrwt>
<totfact> 0.21704449E+01</totfact>
</mgrwt>
</event>
<event>
12    4  0.4424320E-008  0.1555450E+04  0.7818608E-02  0.8848394E-01
          1   -1    0    0  501    0  0.00000000000E+00  0.00000000000E+00  0.21764593559E+03  0.21764593559E+03  0.00000000000E+00 0. -1.
         -2   -1    0    0    0  501 -0.00000000000E+00 -0.00000000000E+00 -0.27790829011E+04  0.27790829011E+04  0.00000000000E+00 0.  1.
        -24    2    1    2    0    0  0.12295911578E+03  0.41600965167E+03 -0.32638765393E+03  0.54877384852E+03  0.80254979523E+02 0.  0.
        254    2    1    2    0    0 -0.12295911578E+03 -0.41600965167E+03 -0.22350493116E+04  0.24479549882E+04  0.89936378877E+03 0.  0.
         23    2    4    4    0    0  0.26706276460E+03 -0.30163295551E+03 -0.43285853757E+03  0.59810305524E+03  0.89754058681E+02 0.  0.
         23    2    4    4    0    0 -0.39002188037E+03 -0.11437669616E+03 -0.18021907740E+04  0.18498519330E+04  0.94135498689E+02 0.  0.
          1    1    3    3  502    0  0.30463991552E+02  0.43590557649E+02 -0.16937961551E+02  0.55812955834E+02  0.00000000000E+00 0. -1.
         -2    1    3    3    0  502  0.92495124223E+02  0.37241909402E+03 -0.30944969238E+03  0.49296089268E+03  0.00000000000E+00 0.  1.
         11    1    5    5    0    0  0.26091463118E+03 -0.25224745888E+03 -0.37704290707E+03  0.52332263380E+03  0.00000000000E+00 0. -1.
        -11    1    5    5    0    0  0.61481334178E+01 -0.49385496631E+02 -0.55815630497E+02  0.74780421434E+02  0.00000000000E+00 0.  1.
          2    1    6    6  503    0 -0.66997919969E+02  0.15299775388E+02 -0.32845482352E+03  0.33556724438E+03  0.00000000000E+00 0. -1.
         -2    1    6    6    0  503 -0.32302396040E+03 -0.12967647154E+03 -0.14737359505E+04  0.15142846886E+04  0.00000000000E+00 0.  1.
<mgrwt>
<rscale>  0 0.15554499E+04</rscale>
<asrwt>0</asrwt>
<pdfrwt beam="1">  1        1 0.33483991E-01 0.15554499E+04</pdfrwt>
<pdfrwt beam="2">  1       -2 0.42755121E+00 0.15554499E+04</pdfrwt>
<totfact> 0.55185425E-01</totfact>
</mgrwt>
</event>
<event>
12    4  0.4424320E-008  0.2552081E+04  0.7818608E-02  0.8384663E-01
          1   -1    0    0  501    0  0.00000000000E+00  0.00000000000E+00  0.16286748794E+04  0.16286748794E+04  0.00000000000E+00 0. -1.
         -2   -1    0    0    0  501 -0.00000000000E+00 -0.00000000000E+00 -0.99975733926E+03  0.99975733926E+03  0.00000000000E+00 0.  1.
        -24    2    1    2    0    0  0.95797686853E+03 -0.16370710886E+03 -0.28751147061E+03  0.10175332549E+04  0.90506248191E+02 0.  0.
        254    2    1    2    0    0 -0.95797686853E+03  0.16370710886E+03  0.91642901072E+03  0.16108989637E+04  0.90035195427E+03 0.  0.
         23    2    4    4    0    0  0.69462691067E+02  0.26472614985E+03  0.17652483297E+03  0.33752340373E+03  0.88634257172E+02 0.  0.
         23    2    4    4    0    0 -0.10274395596E+04 -0.10101904099E+03  0.73990417775E+03  0.12733755600E+04  0.90499885706E+02 0.  0.
          3    1    3    3  502    0  0.77673877479E+03 -0.13561571854E+03 -0.26938935124E+03  0.83323788316E+03  0.00000000000E+00 0. -1.
         -4    1    3    3    0  502  0.18123809374E+03 -0.28091390324E+02 -0.18122119373E+02  0.18429537173E+03  0.00000000000E+00 0.  1.
         11    1    5    5    0    0  0.35936543202E+02  0.77909484707E+02  0.12571286434E+02  0.86714244431E+02  0.00000000000E+00 0.  1.
        -11    1    5    5    0    0  0.33526147865E+02  0.18681666514E+03  0.16395354653E+03  0.25080915930E+03  0.00000000000E+00 0. -1.
          2    1    6    6  503    0 -0.28335872126E+03 -0.14472346189E+02  0.15749460600E+03  0.32450911333E+03  0.00000000000E+00 0. -1.
         -2    1    6    6    0  503 -0.74408083834E+03 -0.86546694801E+02  0.58240957175E+03  0.94886644668E+03  0.00000000000E+00 0.  1.
<mgrwt>
<rscale>  0 0.25520812E+04</rscale>
<asrwt>0</asrwt>
<pdfrwt beam="1">  1        1 0.25056537E+00 0.25520812E+04</pdfrwt>
<pdfrwt beam="2">  1       -2 0.15380882E+00 0.25520812E+04</pdfrwt>
<totfact> 0.11610198E+00</totfact>
</mgrwt>
</event>
<event>
12    4  0.4424320E-008  0.1828659E+04  0.7818608E-02  0.8691206E-01
          1   -1    0    0  501    0  0.00000000000E+00  0.00000000000E+00  0.44974174462E+03  0.44974174462E+03  0.00000000000E+00 0. -1.
         -2   -1    0    0    0  501 -0.00000000000E+00 -0.00000000000E+00 -0.18588405726E+04  0.18588405726E+04  0.00000000000E+00 0.  1.
        -24    2    1    2    0    0 -0.44938640279E+03 -0.18553836070E+03  0.79863836835E+02  0.49915932787E+03  0.80057353565E+02 0.  0.
        254    2    1    2    0    0  0.44938640279E+03  0.18553836070E+03 -0.14889626648E+04  0.18094229894E+04  0.90588581782E+03 0.  0.
         23    2    4    4    0    0  0.29288690679E+03  0.53486506274E+03 -0.10706320315E+04  0.12350719689E+04  0.85360681749E+02 0.  0.
         23    2    4    4    0    0  0.15649949600E+03 -0.34932670204E+03 -0.41833063334E+03  0.57435102048E+03  0.91418482411E+02 0.  0.
          3    1    3    3  502    0 -0.42701124987E+03 -0.19168215316E+03  0.84146273519E+02  0.47556413942E+03  0.00000000000E+00 0. -1.
         -4    1    3    3    0  502 -0.22375152915E+02  0.61437924585E+01 -0.42824366838E+01  0.23595188443E+02  0.00000000000E+00 0.  1.
         11    1    5    5    0    0  0.86537916140E+01  0.72297591248E+01 -0.47197950362E+01  0.12224319674E+02  0.00000000000E+00 0. -1.
        -11    1    5    5    0    0  0.28423311517E+03  0.52763530362E+03 -0.10659122365E+04  0.12228476492E+04  0.00000000000E+00 0.  1.
          2    1    6    6  503    0  0.90854818306E+01  0.45654165757E+01 -0.11493793367E+02  0.15345888523E+02  0.00000000000E+00 0. -1.
         -2    1    6    6    0  503  0.14741401417E+03 -0.35389211862E+03 -0.40683683997E+03  0.55900513196E+03  0.00000000000E+00 0.  1.
<mgrwt>
<rscale>  0 0.18286587E+04</rscale>
<asrwt>0</asrwt>
<pdfrwt beam="1">  1        1 0.69191036E-01 0.18286587E+04</pdfrwt>
<pdfrwt beam="2">  1       -2 0.28597548E+00 0.18286587E+04</pdfrwt>
<totfact> 0.16357964E+00</totfact>
</mgrwt>
</event>
<event>
12    4  0.4424320E-008  0.1585931E+04  0.7818608E-02  0.8829238E-01
         -4   -1    0    0    0  501 -0.00000000000E+00  0.00000000000E+00  0.69796514144E+03  0.69796514144E+03  0.00000000000E+00 0.  1.
          3   -1    0    0  501    0  0.00000000000E+00 -0.00000000000E+00 -0.90089688161E+03  0.90089688161E+03  0.00000000000E+00 0. -1.
        -24    2    1    2    0    0  0.53075043532E+03 -0.36683052325E+02  0.53929957785E+02  0.54071738655E+03  0.80157225778E+02 0.  0.
        254    2    1    2    0    0 -0.53075043532E+03  0.36683052325E+02 -0.25686169796E+03  0.10581446365E+04  0.87786699959E+03 0.  0.
         23    2    4    4    0    0  0.18467274180E+03 -0.17667706590E+03 -0.10382388813E+03  0.29065561343E+03  0.91555877440E+02 0.  0.
         23    2    4    4    0    0 -0.71542317712E+03  0.21336011823E+03 -0.15303780983E+03  0.76748902308E+03  0.90917363017E+02 0.  0.
          3    1    3    3  502    0 -0.22241652081E+01  0.13600899498E+01  0.29856495114E+01  0.39636925397E+01  0.00000000000E+00 0. -1.
         -4    1    3    3    0  502  0.53297460053E+03 -0.38043142275E+02  0.50944308274E+02  0.53675369401E+03  0.00000000000E+00 0.  1.
         11    1    5    5    0    0  0.18073420778E+03 -0.18101934076E+03 -0.82854783809E+02  0.26888244790E+03  0.00000000000E+00 0. -1.
        -11    1    5    5    0    0  0.39385340187E+01  0.43422748588E+01 -0.20969104316E+02  0.21773165525E+02  0.00000000000E+00 0.  1.
          1    1    6    6  503    0 -0.62120265229E+03  0.21106392774E+03 -0.15093179561E+03  0.67321699602E+03  0.00000000000E+00 0. -1.
         -1    1    6    6    0  503 -0.94220524825E+02  0.22961904874E+01 -0.21060142265E+01  0.94272027055E+02  0.00000000000E+00 0.  1.
<mgrwt>
<rscale>  0 0.15859314E+04</rscale>
<asrwt>0</asrwt>
<pdfrwt beam="1">  1        3 0.13859952E+00 0.15859314E+04</pdfrwt>
<pdfrwt beam="2">  1       -4 0.10737925E+00 0.15859314E+04</pdfrwt>
<totfact> 0.60573827E-01</totfact>
</mgrwt>
</event>
<event>
12    4  0.4424320E-008  0.1482683E+04  0.7818608E-02  0.8896051E-01
          1   -1    0    0  501    0  0.00000000000E+00  0.00000000000E+00  0.12650735364E+04  0.12650735364E+04  0.00000000000E+00 0. -1.
         -2   -1    0    0    0  501 -0.00000000000E+00 -0.00000000000E+00 -0.43443099758E+03  0.43443099758E+03  0.00000000000E+00 0.  1.
        -24    2    1    2    0    0  0.22949985770E+03  0.34959695022E+03  0.28012637898E+02  0.42613362446E+03  0.76921685671E+02 0.  0.
        254    2    1    2    0    0 -0.22949985770E+03 -0.34959695022E+03  0.80262990096E+03  0.12733709096E+04  0.89575136233E+03 0.  0.
         23    2    4    4    0    0 -0.48810152205E+03 -0.36531517980E+03  0.26864810001E+03  0.67258294777E+03  0.92183206586E+02 0.  0.
         23    2    4    4    0    0  0.25860166434E+03  0.15718229582E+02  0.53398180095E+03  0.60078796179E+03  0.93207981107E+02 0.  0.
          3    1    3    3  502    0  0.76033375474E+02  0.13543752610E+03  0.46175306132E+02  0.16203875018E+03  0.00000000000E+00 0. -1.
         -4    1    3    3    0  502  0.15346648223E+03  0.21415942412E+03 -0.18162668233E+02  0.26409487428E+03  0.00000000000E+00 0.  1.
         11    1    5    5    0    0 -0.24476725127E+03 -0.13599386246E+03  0.94087178008E+02  0.29539420269E+03  0.00000000000E+00 0. -1.
        -11    1    5    5    0    0 -0.24333427078E+03 -0.22932131734E+03  0.17456092200E+03  0.37718874508E+03  0.00000000000E+00 0.  1.
          3    1    6    6  503    0  0.18504995562E+03 -0.46195964978E+01  0.45377621146E+03  0.49007925567E+03  0.00000000000E+00 0. -1.
         -3    1    6    6    0  503  0.73551708723E+02  0.20337826080E+02  0.80205589484E+02  0.11070870612E+03  0.00000000000E+00 0.  1.
<mgrwt>
<rscale>  0 0.14826829E+04</rscale>
<asrwt>0</asrwt>
<pdfrwt beam="1">  1        1 0.19462670E+00 0.14826829E+04</pdfrwt>
<pdfrwt beam="2">  1       -2 0.66835539E-01 0.14826829E+04</pdfrwt>
<totfact> 0.16740338E+01</totfact>
</mgrwt>
</event>
<event>
12    4  0.4424320E-008  0.1140156E+04  0.7818608E-02  0.9166913E-01
          1   -1    0    0  501    0  0.00000000000E+00  0.00000000000E+00  0.19927648987E+04  0.19927648987E+04  0.00000000000E+00 0. -1.
         -2   -1    0    0    0  501 -0.00000000000E+00 -0.00000000000E+00 -0.16308455050E+03  0.16308455050E+03  0.00000000000E+00 0.  1.
        -24    2    1    2    0    0  0.10493156947E+03  0.97813221010E+02  0.12851227049E+03  0.20871384688E+03  0.80423912717E+02 0.  0.
        254    2    1    2    0    0 -0.10493156947E+03 -0.97813221010E+02  0.17011680777E+04  0.19471356023E+04  0.93636860517E+03 0.  0.
         23    2    4    4    0    0  0.27694725049E+03  0.27746571000E+03  0.78862396621E+03  0.88542247742E+03  0.91423211907E+02 0.  0.
         23    2    4    4    0    0 -0.38187881995E+03 -0.37527893101E+03  0.91254411152E+03  0.10617131249E+04  0.88500254016E+02 0.  0.
          1    1    3    3  502    0  0.83433535693E+01 -0.13473219731E+02  0.20984932197E+02  0.26296512659E+02  0.00000000000E+00 0. -1.
         -2    1    3    3    0  502  0.96588215896E+02  0.11128644074E+03  0.10752733829E+03  0.18241733422E+03  0.00000000000E+00 0.  1.
         11    1    5    5    0    0  0.10840267312E+02  0.52554107277E+02  0.91418728124E+02  0.10600391238E+03  0.00000000000E+00 0.  1.
        -11    1    5    5    0    0  0.26610698317E+03  0.22491160272E+03  0.69720523808E+03  0.77941856505E+03  0.00000000000E+00 0. -1.
          1    1    6    6  503    0 -0.37536136365E+03 -0.36764854513E+03  0.91086291767E+03  0.10515383307E+04  0.00000000000E+00 0. -1.
         -1    1    6    6    0  503 -0.65174562995E+01 -0.76303858821E+01  0.16811938434E+01  0.10174794252E+02  0.00000000000E+00 0.  1.
<mgrwt>
<rscale>  0 0.11401564E+04</rscale>
<asrwt>0</asrwt>
<pdfrwt beam="1">  1        1 0.30657920E+00 0.11401564E+04</pdfrwt>
<pdfrwt beam="2">  1       -2 0.25089932E-01 0.11401564E+04</pdfrwt>
<totfact> 0.37566220E+01</totfact>
</mgrwt>
</event>
<event>
12    4  0.4424320E-008  0.1341610E+04  0.7818608E-02  0.8997204E-01
          1   -1    0    0  501    0  0.00000000000E+00  0.00000000000E+00  0.42764578717E+03  0.42764578717E+03  0.00000000000E+00 0. -1.
         -2   -1    0    0    0  501 -0.00000000000E+00 -0.00000000000E+00 -0.10522238856E+04  0.10522238856E+04  0.00000000000E+00 0.  1.
        -24    2    1    2    0    0  0.26451535486E+03 -0.38525838696E+02 -0.43405623157E+03  0.51590638496E+03  0.79384965030E+02 0.  0.
        254    2    1    2    0    0 -0.26451535486E+03  0.38525838696E+02 -0.19052186685E+03  0.96396328780E+03  0.90635204268E+03 0.  0.
         23    2    4    4    0    0  0.95792188070E+02  0.29440932531E+03  0.18833018196E+03  0.37351860873E+03  0.90525684237E+02 0.  0.
         23    2    4    4    0    0 -0.36030754293E+03 -0.25588348662E+03 -0.37885204881E+03  0.59044467907E+03  0.98985655233E+02 0.  0.
          1    1    3    3  502    0  0.12121357408E+03 -0.36215923114E+02 -0.13941850033E+03  0.18826003788E+03  0.00000000000E+00 0. -1.
         -2    1    3    3    0  502  0.14330178079E+03 -0.23099155818E+01 -0.29463773124E+03  0.32764634708E+03  0.00000000000E+00 0.  1.
         11    1    5    5    0    0  0.58302223407E+02  0.79067021599E+02  0.27102367071E+02  0.10190820114E+03  0.00000000000E+00 0. -1.
        -11    1    5    5    0    0  0.37489964663E+02  0.21534230371E+03  0.16122781489E+03  0.27161040759E+03  0.00000000000E+00 0.  1.
          4    1    6    6  503    0 -0.58675212997E+02 -0.21240840644E+02 -0.18243569437E+02  0.65013704381E+02  0.00000000000E+00 0. -1.
         -4    1    6    6    0  503 -0.30163232993E+03 -0.23464264597E+03 -0.36060847937E+03  0.52543097469E+03  0.00000000000E+00 0.  1.
<mgrwt>
<rscale>  0 0.13416096E+04</rscale>
<asrwt>0</asrwt>
<pdfrwt beam="1">  1        1 0.65791661E-01 0.13416096E+04</pdfrwt>
<pdfrwt beam="2">  1       -2 0.16188059E+00 0.13416096E+04</pdfrwt>
<totfact> 0.11444616E+01</totfact>
</mgrwt>
</event>
<event>
12    4  0.4424320E-008  0.1574677E+04  0.7818608E-02  0.8836258E-01
          1   -1    0    0  501    0  0.00000000000E+00  0.00000000000E+00  0.10777044731E+04  0.10777044731E+04  0.00000000000E+00 0. -1.
         -2   -1    0    0    0  501 -0.00000000000E+00 -0.00000000000E+00 -0.57520566528E+03  0.57520566528E+03  0.00000000000E+00 0.  1.
        -24    2    1    2    0    0  0.12050278469E+03  0.42481552291E+03  0.46598412722E+03  0.64693917879E+03  0.79999653762E+02 0.  0.
        254    2    1    2    0    0 -0.12050278469E+03 -0.42481552291E+03  0.36514680578E+02  0.10059709596E+04  0.90313625770E+03 0.  0.
         23    2    4    4    0    0  0.15966260248E+03 -0.59529360886E+03  0.16105253603E+03  0.64363652109E+03  0.91996872417E+02 0.  0.
         23    2    4    4    0    0 -0.28016538718E+03  0.17047808595E+03 -0.12453785545E+03  0.36233443848E+03  0.90670534930E+02 0.  0.
          3    1    3    3  502    0  0.81179359046E+02  0.38059912172E+03  0.41375581901E+03  0.56801378289E+03  0.00000000000E+00 0. -1.
         -4    1    3    3    0  502  0.39323425644E+02  0.44216401190E+02  0.52228308215E+02  0.78925395898E+02  0.00000000000E+00 0.  1.
         11    1    5    5    0    0  0.10793881586E+03 -0.43839380548E+03  0.76054052720E+02  0.45784728413E+03  0.00000000000E+00 0. -1.
        -11    1    5    5    0    0  0.51723786621E+02 -0.15689980339E+03  0.84998483313E+02  0.18578923696E+03  0.00000000000E+00 0.  1.
          4    1    6    6  503    0 -0.16262522275E+03  0.10461545106E+03 -0.25341586005E+02  0.19502192610E+03  0.00000000000E+00 0. -1.
         -4    1    6    6    0  503 -0.11754016442E+03  0.65862634892E+02 -0.99196269450E+02  0.16731251238E+03  0.00000000000E+00 0.  1.
<mgrwt>
<rscale>  0 0.15746768E+04</rscale>
<asrwt>0</asrwt>
<pdfrwt beam="1">  1        1 0.16580069E+00 0.15746768E+04</pdfrwt>
<pdfrwt beam="2">  1       -2 0.88493179E-01 0.15746768E+04</pdfrwt>
<totfact> 0.12210750E+01</totfact>
</mgrwt>
</event>
<event>
12    4  0.4424320E-008  0.1854509E+04  0.7818608E-02  0.8677837E-01
         -2   -1    0    0    0  501 -0.00000000000E+00  0.00000000000E+00  0.56417804358E+03  0.56417804358E+03  0.00000000000E+00 0.  1.
          1   -1    0    0  501    0  0.00000000000E+00 -0.00000000000E+00 -0.15239887659E+04  0.15239887659E+04  0.00000000000E+00 0. -1.
        -24    2    1    2    0    0  0.27727090805E+03 -0.20209781984E+03 -0.10594924502E+04  0.11165722467E+04  0.80539709667E+02 0.  0.
        254    2    1    2    0    0 -0.27727090805E+03  0.20209781984E+03  0.99681727927E+02  0.97159456273E+03  0.90351362037E+03 0.  0.
         23    2    4    4    0    0  0.31241560834E+03  0.15818448073E+03 -0.16298800456E+02  0.36227969526E+03  0.91406150913E+02 0.  0.
         23    2    4    4    0    0 -0.58968651639E+03  0.43913339115E+02  0.11598052838E+03  0.60931486747E+03  0.90302579103E+02 0.  0.
          3    1    3    3  502    0  0.64978782169E+01 -0.42186712568E+01 -0.97297755218E+02  0.97605700546E+02  0.00000000000E+00 0. -1.
         -4    1    3    3    0  502  0.27077302984E+03 -0.19787914858E+03 -0.96219469499E+03  0.10189665462E+04  0.00000000000E+00 0.  1.
         11    1    5    5    0    0  0.29360850680E+03  0.12378807320E+03 -0.31593806766E+02  0.32019933004E+03  0.00000000000E+00 0. -1.
        -11    1    5    5    0    0  0.18807101537E+02  0.34396407525E+02  0.15295006310E+02  0.42080365217E+02  0.00000000000E+00 0.  1.
          3    1    6    6  503    0 -0.52161695028E+03  0.62563546421E+02  0.84798782195E+02  0.53215530968E+03  0.00000000000E+00 0. -1.
         -3    1    6    6    0  503 -0.68069566107E+02 -0.18650207306E+02  0.31181746188E+02  0.77159557787E+02  0.00000000000E+00 0.  1.
<mgrwt>
<rscale>  0 0.18545091E+04</rscale>
<asrwt>0</asrwt>
<pdfrwt beam="1">  1        1 0.23445981E+00 0.18545091E+04</pdfrwt>
<pdfrwt beam="2">  1       -2 0.86796623E-01 0.18545091E+04</pdfrwt>
<totfact> 0.59614355E+00</totfact>
</mgrwt>
</event>
<event>
12    4  0.4424320E-008  0.1480128E+04  0.7818608E-02  0.8897776E-01
         -4   -1    0    0    0  501 -0.00000000000E+00  0.00000000000E+00  0.11481253062E+04  0.11481253062E+04  0.00000000000E+00 0.  1.
          3   -1    0    0  501    0  0.00000000000E+00 -0.00000000000E+00 -0.47703374144E+03  0.47703374144E+03  0.00000000000E+00 0. -1.
        -24    2    1    2    0    0 -0.19328834215E+03 -0.31167798449E+03  0.51459732334E+03  0.63704409146E+03  0.80692131329E+02 0.  0.
        254    2    1    2    0    0  0.19328834215E+03  0.31167798449E+03  0.15649424141E+03  0.98811495616E+03  0.90408913818E+03 0.  0.
         23    2    4    4    0    0  0.23035893149E+03 -0.17176728048E+03  0.34686094562E+03  0.45983050304E+03  0.92532912899E+02 0.  0.
         23    2    4    4    0    0 -0.37070589345E+02  0.48344526496E+03 -0.19036670421E+03  0.52828445312E+03  0.88042197422E+02 0.  0.
          1    1    3    3  502    0  0.65267765261E+01 -0.54811947423E+01  0.21919491296E+02  0.23518214352E+02  0.00000000000E+00 0. -1.
         -2    1    3    3    0  502 -0.19981511867E+03 -0.30619678974E+03  0.49267783204E+03  0.61352587711E+03  0.00000000000E+00 0.  1.
         11    1    5    5    0    0  0.17771395871E+03 -0.85643724948E+02  0.19424582522E+03  0.27685472609E+03  0.00000000000E+00 0.  1.
        -11    1    5    5    0    0  0.52644972784E+02 -0.86123555529E+02  0.15261512039E+03  0.18297577695E+03  0.00000000000E+00 0. -1.
          3    1    6    6  503    0  0.35959464990E-01  0.41410625989E+03 -0.16253812270E+03  0.44486249235E+03  0.00000000000E+00 0. -1.
         -3    1    6    6    0  503 -0.37106548810E+02  0.69339005074E+02 -0.27828581515E+02  0.83421960768E+02  0.00000000000E+00 0.  1.
<mgrwt>
<rscale>  0 0.14801277E+04</rscale>
<asrwt>0</asrwt>
<pdfrwt beam="1">  1        3 0.73389807E-01 0.14801277E+04</pdfrwt>
<pdfrwt beam="2">  1       -4 0.17663466E+00 0.14801277E+04</pdfrwt>
<totfact> 0.73948961E-01</totfact>
</mgrwt>
</event>
<event>
12    4  0.4424320E-008  0.1742843E+04  0.7818608E-02  0.8737300E-01
         -2   -1    0    0    0  501 -0.00000000000E+00  0.00000000000E+00  0.94712940128E+03  0.94712940128E+03  0.00000000000E+00 0.  1.
          1   -1    0    0  501    0  0.00000000000E+00 -0.00000000000E+00 -0.80176540725E+03  0.80176540725E+03  0.00000000000E+00 0. -1.
        -24    2    1    2    0    0  0.78490593643E+02 -0.44320174486E+03 -0.40676553843E+03  0.61200667380E+03  0.80656094494E+02 0.  0.
        254    2    1    2    0    0 -0.78490593643E+02  0.44320174486E+03  0.55212953245E+03  0.11368881347E+04  0.88604686690E+03 0.  0.
         23    2    4    4    0    0  0.26025853433E+03  0.19192572757E+02 -0.90510019874E+02  0.29096860463E+03  0.91475710672E+02 0.  0.
         23    2    4    4    0    0 -0.33874912797E+03  0.42400917211E+03  0.64263955233E+03  0.84591953010E+03  0.89774759574E+02 0.  0.
          3    1    3    3  502    0  0.83360321862E+02 -0.43277544646E+03 -0.37658472252E+03  0.57970646327E+03  0.00000000000E+00 0. -1.
         -4    1    3    3    0  502 -0.48697282185E+01 -0.10426298405E+02 -0.30180815911E+02  0.32300210532E+02  0.00000000000E+00 0.  1.
         11    1    5    5    0    0  0.24356475248E+03  0.10353406676E+02 -0.53750799832E+02  0.24964000113E+03  0.00000000000E+00 0.  1.
        -11    1    5    5    0    0  0.16693781850E+02  0.88391660812E+01 -0.36759220042E+02  0.41328603504E+02  0.00000000000E+00 0. -1.
          1    1    6    6  503    0 -0.36124201209E+02  0.11520777513E+02  0.54749286893E+02  0.66597076833E+02  0.00000000000E+00 0. -1.
         -1    1    6    6    0  503 -0.30262492676E+03  0.41248839459E+03  0.58789026543E+03  0.77932245327E+03  0.00000000000E+00 0.  1.
<mgrwt>
<rscale>  0 0.17428432E+04</rscale>
<asrwt>0</asrwt>
<pdfrwt beam="1">  1        1 0.12334852E+00 0.17428432E+04</pdfrwt>
<pdfrwt beam="2">  1       -2 0.14571222E+00 0.17428432E+04</pdfrwt>
<totfact> 0.59175925E+00</totfact>
</mgrwt>
</event>
<event>
12    4  0.4424320E-008  0.1421793E+04  0.7818608E-02  0.8938193E-01
         -2   -1    0    0    0  501 -0.00000000000E+00  0.00000000000E+00  0.94890234333E+03  0.94890234333E+03  0.00000000000E+00 0.  1.
          1   -1    0    0  501    0  0.00000000000E+00 -0.00000000000E+00 -0.53258781201E+03  0.53258781201E+03  0.00000000000E+00 0. -1.
        -24    2    1    2    0    0  0.19000507870E+03 -0.22786549985E+03  0.43781583134E+03  0.53441293827E+03  0.76745491497E+02 0.  0.
        254    2    1    2    0    0 -0.19000507870E+03  0.22786549985E+03 -0.21501300017E+02  0.94707721707E+03  0.89914867137E+03 0.  0.
         23    2    4    4    0    0 -0.21415522680E+03 -0.50769074742E+02  0.38064550927E+03  0.44935352333E+03  0.92669439865E+02 0.  0.
         23    2    4    4    0    0  0.24150148101E+02  0.27863457459E+03 -0.40214680929E+03  0.49772369373E+03  0.88240372110E+02 0.  0.
          1    1    3    3  502    0  0.12783826430E+03 -0.14000199121E+03  0.21295216785E+03  0.28511717794E+03  0.00000000000E+00 0. -1.
         -4    1    3    3    0  502  0.62166814402E+02 -0.87863508641E+02  0.22486366348E+03  0.24929576033E+03  0.00000000000E+00 0.  1.
         11    1    5    5    0    0 -0.15664589069E+03 -0.38806785858E+02  0.34438666302E+03  0.38032364555E+03  0.00000000000E+00 0. -1.
        -11    1    5    5    0    0 -0.57509336110E+02 -0.11962288884E+02  0.36258846258E+02  0.69029877786E+02  0.00000000000E+00 0.  1.
          4    1    6    6  503    0  0.19547601587E+02  0.28335704196E+03 -0.37876817681E+03  0.47343283972E+03  0.00000000000E+00 0. -1.
         -4    1    6    6    0  503  0.46025465140E+01 -0.47224673656E+01 -0.23378632477E+02  0.24290854018E+02  0.00000000000E+00 0.  1.
<mgrwt>
<rscale>  0 0.14217930E+04</rscale>
<asrwt>0</asrwt>
<pdfrwt beam="1">  1        1 0.81936586E-01 0.14217930E+04</pdfrwt>
<pdfrwt beam="2">  1       -2 0.14598498E+00 0.14217930E+04</pdfrwt>
<totfact> 0.11116532E+01</totfact>
</mgrwt>
</event>
<event>
12    4  0.4424320E-008  0.9955728E+03  0.7818608E-02  0.9313414E-01
          1   -1    0    0  501    0  0.00000000000E+00  0.00000000000E+00  0.28440518816E+04  0.28440518816E+04  0.00000000000E+00 0. -1.
         -2   -1    0    0    0  501 -0.00000000000E+00 -0.00000000000E+00 -0.87126146041E+02  0.87126146041E+02  0.00000000000E+00 0.  1.
        -24    2    1    2    0    0  0.55287825968E+02 -0.52392448709E+02  0.50011150402E+03  0.51205894583E+03  0.79316676488E+02 0.  0.
        254    2    1    2    0    0 -0.55287825968E+02  0.52392448709E+02  0.22568142316E+04  0.24191190818E+04  0.86782771558E+03 0.  0.
         23    2    4    4    0    0  0.32748160739E+03 -0.19865374315E+03  0.12274967551E+04  0.12891306908E+04  0.91663195264E+02 0.  0.
         23    2    4    4    0    0 -0.38276943335E+03  0.25104619186E+03  0.10293174764E+04  0.11299883910E+04  0.88558833203E+02 0.  0.
          3    1    3    3  502    0  0.44367825386E+02  0.41550212843E+01  0.31664781560E+03  0.31976805228E+03  0.00000000000E+00 0. -1.
         -4    1    3    3    0  502  0.10920000581E+02 -0.56547469994E+02  0.18346368842E+03  0.19229089355E+03  0.00000000000E+00 0.  1.
         11    1    5    5    0    0  0.23947367285E+01 -0.25018960476E+02  0.69949321500E+02  0.74327590609E+02  0.00000000000E+00 0.  1.
        -11    1    5    5    0    0  0.32508687066E+03 -0.17363478267E+03  0.11575474336E+04  0.12148031002E+04  0.00000000000E+00 0. -1.
          1    1    6    6  503    0 -0.36619638835E+03  0.21519831082E+03  0.90866234329E+03  0.10030340781E+04  0.00000000000E+00 0. -1.
         -1    1    6    6    0  503 -0.16573045000E+02  0.35847881039E+02  0.12065513315E+03  0.12695431285E+03  0.00000000000E+00 0.  1.
<mgrwt>
<rscale>  0 0.99557276E+03</rscale>
<asrwt>0</asrwt>
<pdfrwt beam="1">  1        1 0.43754637E+00 0.99557276E+03</pdfrwt>
<pdfrwt beam="2">  1       -2 0.13404025E-01 0.99557276E+03</pdfrwt>
<totfact> 0.29538243E+01</totfact>
</mgrwt>
</event>
<event>
12    4  0.4424320E-008  0.1657299E+04  0.7818608E-02  0.8786100E-01
          1   -1    0    0  501    0  0.00000000000E+00  0.00000000000E+00  0.99434516991E+03  0.99434516991E+03  0.00000000000E+00 0. -1.
         -2   -1    0    0    0  501 -0.00000000000E+00 -0.00000000000E+00 -0.69056513490E+03  0.69056513490E+03  0.00000000000E+00 0.  1.
        -24    2    1    2    0    0 -0.20954361033E+03 -0.40554790452E+03  0.47503733682E+03  0.66344709269E+03  0.78255644742E+02 0.  0.
        254    2    1    2    0    0  0.20954361033E+03  0.40554790452E+03 -0.17125730181E+03  0.10214632121E+04  0.89759701581E+03 0.  0.
         23    2    4    4    0    0  0.24453765289E+03  0.21555199709E+03 -0.51524591352E+03  0.61652896346E+03  0.91478326695E+02 0.  0.
         23    2    4    4    0    0 -0.34994042558E+02  0.18999590743E+03  0.34398861171E+03  0.40493424866E+03  0.91217064708E+02 0.  0.
          1    1    3    3  502    0 -0.20967985414E+03 -0.39908578119E+03  0.44767978617E+03  0.63533636204E+03  0.00000000000E+00 0. -1.
         -2    1    3    3    0  502  0.13624381124E+00 -0.64621233313E+01  0.27357550648E+02  0.28110730652E+02  0.00000000000E+00 0.  1.
         11    1    5    5    0    0  0.79740844319E+02  0.55827768758E+02 -0.86489363714E+02  0.13021425442E+03  0.00000000000E+00 0. -1.
        -11    1    5    5    0    0  0.16479680857E+03  0.15972422834E+03 -0.42875654980E+03  0.48631470904E+03  0.00000000000E+00 0.  1.
          4    1    6    6  503    0  0.19813910974E+02  0.65117156303E+02  0.63673329431E+02  0.93204763794E+02  0.00000000000E+00 0. -1.
         -4    1    6    6    0  503 -0.54807953532E+02  0.12487875113E+03  0.28031528228E+03  0.31172948486E+03  0.00000000000E+00 0.  1.
<mgrwt>
<rscale>  0 0.16572991E+04</rscale>
<asrwt>0</asrwt>
<pdfrwt beam="1">  1        1 0.15297618E+00 0.16572991E+04</pdfrwt>
<pdfrwt beam="2">  1       -2 0.10624079E+00 0.16572991E+04</pdfrwt>
<totfact> 0.91450245E+00</totfact>
</mgrwt>
</event>
<event>
12    4  0.4424320E-008  0.2093195E+04  0.7818608E-02  0.8564247E-01
         -2   -1    0    0    0  501 -0.00000000000E+00  0.00000000000E+00  0.14291601371E+04  0.14291601371E+04  0.00000000000E+00 0.  1.
          1   -1    0    0  501    0  0.00000000000E+00 -0.00000000000E+00 -0.76644049285E+03  0.76644049285E+03  0.00000000000E+00 0. -1.
        -24    2    1    2    0    0 -0.43855276783E+03 -0.31007342376E+03  0.95288248828E+03  0.10966672606E+04  0.78866885733E+02 0.  0.
        254    2    1    2    0    0  0.43855276783E+03  0.31007342376E+03 -0.29016284406E+03  0.10989333693E+04  0.91377569231E+03 0.  0.
         23    2    4    4    0    0  0.29235855409E+03 -0.29732943269E+03 -0.13398221477E+03  0.44850247788E+03  0.96565641398E+02 0.  0.
         23    2    4    4    0    0  0.14619421374E+03  0.60740285645E+03 -0.15618062929E+03  0.65043089145E+03  0.91416505224E+02 0.  0.
          1    1    3    3  502    0 -0.15399505570E+03 -0.69984472256E+02  0.26217605705E+03  0.31200735316E+03  0.00000000000E+00 0. -1.
         -2    1    3    3    0  502 -0.28455771213E+03 -0.24008895151E+03  0.69070643123E+03  0.78465990742E+03  0.00000000000E+00 0.  1.
         11    1    5    5    0    0  0.28796451898E+03 -0.26165856490E+03 -0.13683957794E+03  0.41244858936E+03  0.00000000000E+00 0.  1.
        -11    1    5    5    0    0  0.43940351142E+01 -0.35670867785E+02  0.28573631671E+01  0.36053888520E+02  0.00000000000E+00 0. -1.
          1    1    6    6  503    0  0.53227727076E+02  0.81934699762E+02 -0.20760039960E+02  0.99887262521E+02  0.00000000000E+00 0. -1.
         -1    1    6    6    0  503  0.92966486662E+02  0.52546815669E+03 -0.13542058933E+03  0.55054362892E+03  0.00000000000E+00 0.  1.
<mgrwt>
<rscale>  0 0.20931949E+04</rscale>
<asrwt>0</asrwt>
<pdfrwt beam="1">  1        1 0.11791392E+00 0.20931949E+04</pdfrwt>
<pdfrwt beam="2">  1       -2 0.21987079E+00 0.20931949E+04</pdfrwt>
<totfact> 0.18892684E+00</totfact>
</mgrwt>
</event>
<event>
12    4  0.4424320E-008  0.1382430E+04  0.7818608E-02  0.8966636E-01
          1   -1    0    0  501    0  0.00000000000E+00  0.00000000000E+00  0.71137469920E+03  0.71137469920E+03  0.00000000000E+00 0. -1.
         -2   -1    0    0    0  501 -0.00000000000E+00 -0.00000000000E+00 -0.67162660093E+03  0.67162660093E+03  0.00000000000E+00 0.  1.
        -24    2    1    2    0    0  0.27096150249E+03  0.17817436654E+03 -0.21263066628E+03  0.39500519016E+03  0.75173527860E+02 0.  0.
        254    2    1    2    0    0 -0.27096150249E+03 -0.17817436654E+03  0.25237876454E+03  0.98799610997E+03  0.89848485340E+03 0.  0.
         23    2    4    4    0    0  0.25918954408E+03  0.15390872853E+02  0.30852642804E+03  0.41371757115E+03  0.92507151906E+02 0.  0.
         23    2    4    4    0    0 -0.53015104656E+03 -0.19356523939E+03 -0.56147663492E+02  0.57427853882E+03  0.90086880066E+02 0.  0.
          3    1    3    3  502    0  0.20250982666E+02  0.25206843716E+02 -0.49284574027E+02  0.58944520578E+02  0.00000000000E+00 0. -1.
         -4    1    3    3    0  502  0.25071051982E+03  0.15296752282E+03 -0.16334609225E+03  0.33606066958E+03  0.00000000000E+00 0.  1.
         11    1    5    5    0    0 -0.52197722786E+01  0.57471717574E+01  0.68063681298E+00  0.77935404227E+01  0.00000000000E+00 0. -1.
        -11    1    5    5    0    0  0.26440931635E+03  0.96437010958E+01  0.30784579122E+03  0.40592403072E+03  0.00000000000E+00 0.  1.
          2    1    6    6  503    0 -0.97730122717E+02 -0.28098204115E+02 -0.44855751793E+02  0.11114281097E+03  0.00000000000E+00 0. -1.
         -2    1    6    6    0  503 -0.43242092385E+03 -0.16546703528E+03 -0.11291911699E+02  0.46313572785E+03  0.00000000000E+00 0.  1.
<mgrwt>
<rscale>  0 0.13824300E+04</rscale>
<asrwt>0</asrwt>
<pdfrwt beam="1">  1        1 0.10944226E+00 0.13824300E+04</pdfrwt>
<pdfrwt beam="2">  1       -2 0.10332717E+00 0.13824300E+04</pdfrwt>
<totfact> 0.17362855E+01</totfact>
</mgrwt>
</event>
<event>
12    4  0.4424320E-008  0.2655458E+04  0.7818608E-02  0.8349604E-01
          1   -1    0    0  501    0  0.00000000000E+00  0.00000000000E+00  0.12869007038E+04  0.12869007038E+04  0.00000000000E+00 0. -1.
         -2   -1    0    0    0  501 -0.00000000000E+00 -0.00000000000E+00 -0.13698526407E+04  0.13698526407E+04  0.00000000000E+00 0.  1.
        -24    2    1    2    0    0 -0.14404740335E+03 -0.64929561182E+03 -0.99757680105E+03  0.12015863736E+04  0.79472593900E+02 0.  0.
        254    2    1    2    0    0  0.14404740335E+03  0.64929561182E+03  0.91462486412E+03  0.14551669710E+04  0.91577171034E+03 0.  0.
         23    2    4    4    0    0  0.43564917652E+03  0.49823716384E+02  0.46432150213E+03  0.64548473875E+03  0.93720237440E+02 0.  0.
         23    2    4    4    0    0 -0.29160177317E+03  0.59947189543E+03  0.45030336199E+03  0.80968223224E+03  0.91728140992E+02 0.  0.
          3    1    3    3  502    0 -0.99884408115E+01 -0.24366473689E+02 -0.72940610236E+02  0.77548865958E+02  0.00000000000E+00 0. -1.
         -4    1    3    3    0  502 -0.13405896254E+03 -0.62492913813E+03 -0.92463619082E+03  0.11240375076E+04  0.00000000000E+00 0.  1.
         11    1    5    5    0    0  0.17826118556E+02 -0.16957741866E+02  0.34166513681E+02  0.42103279790E+02  0.00000000000E+00 0. -1.
        -11    1    5    5    0    0  0.41782305796E+03  0.66781458251E+02  0.43015498845E+03  0.60338145896E+03  0.00000000000E+00 0.  1.
          3    1    6    6  503    0 -0.18731484800E+02  0.48173652526E+02  0.86159061913E+01  0.52400411831E+02  0.00000000000E+00 0. -1.
         -3    1    6    6    0  503 -0.27287028837E+03  0.55129824291E+03  0.44168745579E+03  0.75728182040E+03  0.00000000000E+00 0.  1.
<mgrwt>
<rscale>  0 0.26554580E+04</rscale>
<asrwt>0</asrwt>
<pdfrwt beam="1">  1        1 0.19798472E+00 0.26554580E+04</pdfrwt>
<pdfrwt beam="2">  1       -2 0.21074656E+00 0.26554580E+04</pdfrwt>
<totfact> 0.80533844E-01</totfact>
</mgrwt>
</event>
<event>
12    4  0.4424320E-008  0.2110042E+04  0.7818608E-02  0.8556832E-01
         -2   -1    0    0    0  501 -0.00000000000E+00  0.00000000000E+00  0.19366156943E+04  0.19366156943E+04  0.00000000000E+00 0.  1.
          1   -1    0    0  501    0  0.00000000000E+00 -0.00000000000E+00 -0.57474995913E+03  0.57474995913E+03  0.00000000000E+00 0. -1.
        -24    2    1    2    0    0 -0.85965935269E+03 -0.24931092870E+02  0.55609531116E+03  0.10271905591E+04  0.79010679367E+02 0.  0.
        254    2    1    2    0    0  0.85965935269E+03  0.24931092870E+02  0.80577042397E+03  0.14841750943E+04  0.90214963973E+03 0.  0.
         23    2    4    4    0    0  0.75008805902E+03 -0.35108319756E+03  0.63372385948E+03  0.10467163644E+04  0.90098332911E+02 0.  0.
         23    2    4    4    0    0  0.10957129367E+03  0.37601429043E+03  0.17204656449E+03  0.43745872992E+03  0.91528711469E+02 0.  0.
          3    1    3    3  502    0 -0.83524791812E+03 -0.36372980701E+02  0.53140273149E+03  0.99063158716E+03  0.00000000000E+00 0. -1.
         -4    1    3    3    0  502 -0.24411434573E+02  0.11441887831E+02  0.24692579675E+02  0.36558971895E+02  0.00000000000E+00 0.  1.
         11    1    5    5    0    0  0.16662192277E+03 -0.92691155713E+02  0.19224823435E+03  0.27076539496E+03  0.00000000000E+00 0.  1.
        -11    1    5    5    0    0  0.58346613625E+03 -0.25839204185E+03  0.44147562513E+03  0.77595096947E+03  0.00000000000E+00 0. -1.
          2    1    6    6  503    0  0.55145565219E+02  0.20572422794E+03  0.14249103618E+03  0.25625609596E+03  0.00000000000E+00 0.  1.
         -2    1    6    6    0  503  0.54425728449E+02  0.17029006248E+03  0.29555528317E+02  0.18120263395E+03  0.00000000000E+00 0. -1.
<mgrwt>
<rscale>  0 0.21100425E+04</rscale>
<asrwt>0</asrwt>
<pdfrwt beam="1">  1        1 0.88423072E-01 0.21100425E+04</pdfrwt>
<pdfrwt beam="2">  1       -2 0.29794087E+00 0.21100425E+04</pdfrwt>
<totfact> 0.96004307E-01</totfact>
</mgrwt>
</event>
<event>
12    4  0.4424320E-008  0.2348495E+04  0.7818608E-02  0.8459042E-01
          1   -1    0    0  501    0  0.00000000000E+00  0.00000000000E+00  0.20080723938E+04  0.20080723938E+04  0.00000000000E+00 0. -1.
         -2   -1    0    0    0  501 -0.00000000000E+00 -0.00000000000E+00 -0.68665723626E+03  0.68665723626E+03  0.00000000000E+00 0.  1.
        -24    2    1    2    0    0  0.14896826266E+03 -0.76047945714E+03  0.12869604272E+04  0.15042432338E+04  0.77201148179E+02 0.  0.
        254    2    1    2    0    0 -0.14896826266E+03  0.76047945714E+03  0.34454730306E+02  0.11904863962E+04  0.90307817111E+03 0.  0.
         23    2    4    4    0    0  0.23862789007E+03  0.74907697300E+03  0.38890380403E+02  0.79244560625E+03  0.91640579266E+02 0.  0.
         23    2    4    4    0    0 -0.38759615273E+03  0.11402484140E+02 -0.44356500976E+01  0.39804078997E+03  0.89755229551E+02 0.  0.
          1    1    3    3  502    0  0.14846775689E+03 -0.71976294457E+03  0.11842264645E+04  0.13937337229E+04  0.00000000000E+00 0. -1.
         -2    1    3    3    0  502  0.50050576806E+00 -0.40716512569E+02  0.10273396278E+03  0.11050951095E+03  0.00000000000E+00 0.  1.
         11    1    5    5    0    0  0.18132931257E+03  0.43138231670E+03  0.63175707043E+01  0.46798604088E+03  0.00000000000E+00 0.  1.
        -11    1    5    5    0    0  0.57298577509E+02  0.31769465631E+03  0.32572809699E+02  0.32445956537E+03  0.00000000000E+00 0. -1.
          2    1    6    6  503    0 -0.27130648902E+02 -0.20608029328E+02 -0.11875373924E+02  0.36080292245E+02  0.00000000000E+00 0. -1.
         -2    1    6    6    0  503 -0.36046550383E+03  0.32010513467E+02  0.74397238265E+01  0.36196049773E+03  0.00000000000E+00 0.  1.
<mgrwt>
<rscale>  0 0.23484952E+04</rscale>
<asrwt>0</asrwt>
<pdfrwt beam="1">  1        1 0.30893421E+00 0.23484952E+04</pdfrwt>
<pdfrwt beam="2">  1       -2 0.10563958E+00 0.23484952E+04</pdfrwt>
<totfact> 0.16857592E+00</totfact>
</mgrwt>
</event>
<event>
12    4  0.4424320E-008  0.2225856E+04  0.7818608E-02  0.8507743E-01
         -2   -1    0    0    0  501 -0.00000000000E+00  0.00000000000E+00  0.96562788386E+03  0.96562788386E+03  0.00000000000E+00 0.  1.
          1   -1    0    0  501    0  0.00000000000E+00 -0.00000000000E+00 -0.12826974105E+04  0.12826974105E+04  0.00000000000E+00 0. -1.
        -24    2    1    2    0    0 -0.11375443683E+03  0.79492370116E+03 -0.61298173424E+03  0.10133753100E+04  0.79618777695E+02 0.  0.
        254    2    1    2    0    0  0.11375443683E+03 -0.79492370116E+03  0.29591220764E+03  0.12349499844E+04  0.89033345813E+03 0.  0.
         23    2    4    4    0    0 -0.34453912990E+03 -0.24844369456E+03  0.27943936316E+03  0.51596577808E+03  0.87765853661E+02 0.  0.
         23    2    4    4    0    0  0.45829356672E+03 -0.54648000660E+03  0.16472844485E+02  0.71898420627E+03  0.89406618074E+02 0.  0.
          3    1    3    3  502    0 -0.75506276997E+02  0.41236172078E+03 -0.27409355763E+03  0.50086990822E+03  0.00000000000E+00 0. -1.
         -4    1    3    3    0  502 -0.38248159830E+02  0.38256198038E+03 -0.33888817661E+03  0.51250540174E+03  0.00000000000E+00 0.  1.
         11    1    5    5    0    0 -0.33203385946E+03 -0.25151260392E+03  0.25514804066E+03  0.48847271819E+03  0.00000000000E+00 0. -1.
        -11    1    5    5    0    0 -0.12505270433E+02  0.30689093646E+01  0.24291322498E+02  0.27493059888E+02  0.00000000000E+00 0.  1.
          2    1    6    6  503    0  0.69874944624E+02 -0.13293026684E+03  0.20814044404E+02  0.15161196580E+03  0.00000000000E+00 0.  1.
         -2    1    6    6    0  503  0.38841862210E+03 -0.41354973976E+03 -0.43411999187E+01  0.56737224048E+03  0.00000000000E+00 0. -1.
<mgrwt>
<rscale>  0 0.22258557E+04</rscale>
<asrwt>0</asrwt>
<pdfrwt beam="1">  1        1 0.19733806E+00 0.22258557E+04</pdfrwt>
<pdfrwt beam="2">  1       -2 0.14855814E+00 0.22258557E+04</pdfrwt>
<totfact> 0.22838537E+00</totfact>
</mgrwt>
</event>
<event>
12    4  0.4424320E-008  0.1259768E+04  0.7818608E-02  0.9062092E-01
          3   -1    0    0  501    0  0.00000000000E+00  0.00000000000E+00  0.82638449515E+03  0.82638449515E+03  0.00000000000E+00 0. -1.
         -4   -1    0    0    0  501 -0.00000000000E+00 -0.00000000000E+00 -0.48010793751E+03  0.48010793751E+03  0.00000000000E+00 0.  1.
        -24    2    1    2    0    0 -0.12155508431E+03 -0.17423056078E+03  0.28335081237E+03  0.36329193029E+03  0.81002573504E+02 0.  0.
        254    2    1    2    0    0  0.12155508431E+03  0.17423056078E+03  0.62925745266E+02  0.94320050236E+03  0.91680729241E+03 0.  0.
         23    2    4    4    0    0  0.13305413644E+02  0.19591180011E+03 -0.40162594312E+03  0.45699165731E+03  0.94760272271E+02 0.  0.
         23    2    4    4    0    0  0.10824967066E+03 -0.21681239333E+02  0.46455168839E+03  0.48620884506E+03  0.91666255997E+02 0.  0.
          3    1    3    3  502    0 -0.11530701115E+03 -0.99310079672E+02  0.19052618644E+03  0.24384098603E+03  0.00000000000E+00 0. -1.
         -4    1    3    3    0  502 -0.62480731530E+01 -0.74920481109E+02  0.92824625926E+02  0.11945094427E+03  0.00000000000E+00 0.  1.
         11    1    5    5    0    0  0.50406815076E+02  0.66857055295E+02 -0.15123903389E+03  0.17286977243E+03  0.00000000000E+00 0. -1.
        -11    1    5    5    0    0 -0.37101401431E+02  0.12905474482E+03 -0.25038690924E+03  0.28412188488E+03  0.00000000000E+00 0.  1.
          3    1    6    6  503    0  0.37736379571E+02 -0.53807671649E+02  0.19796650149E+03  0.20859059323E+03  0.00000000000E+00 0. -1.
         -3    1    6    6    0  503  0.70513291091E+02  0.32126432316E+02  0.26658518690E+03  0.27761825183E+03  0.00000000000E+00 0.  1.
<mgrwt>
<rscale>  0 0.12597678E+04</rscale>
<asrwt>0</asrwt>
<pdfrwt beam="1">  1        3 0.12713608E+00 0.12597678E+04</pdfrwt>
<pdfrwt beam="2">  1       -4 0.73862760E-01 0.12597678E+04</pdfrwt>
<totfact> 0.18370976E+00</totfact>
</mgrwt>
</event>
<event>
12    4  0.4424320E-008  0.1504530E+04  0.7818608E-02  0.8881446E-01
         -2   -1    0    0    0  501 -0.00000000000E+00  0.00000000000E+00  0.65811122557E+03  0.65811122557E+03  0.00000000000E+00 0.  1.
          1   -1    0    0  501    0  0.00000000000E+00 -0.00000000000E+00 -0.85988906205E+03  0.85988906205E+03  0.00000000000E+00 0. -1.
        -24    2    1    2    0    0 -0.27612319872E+03  0.33785502316E+03 -0.27073691064E+03  0.51968917272E+03  0.79926991165E+02 0.  0.
        254    2    1    2    0    0  0.27612319872E+03 -0.33785502316E+03  0.68959074163E+02  0.99831111490E+03  0.89525398111E+03 0.  0.
         23    2    4    4    0    0  0.20207527996E+03 -0.63272875735E+03 -0.15144935096E+02  0.67066907437E+03  0.91583508958E+02 0.  0.
         23    2    4    4    0    0  0.74047918752E+02  0.29487373419E+03  0.84104009260E+02  0.32764204053E+03  0.88556247438E+02 0.  0.
          3    1    3    3  502    0 -0.17140810824E+03  0.20395762251E+03 -0.20981791733E+03  0.33912093681E+03  0.00000000000E+00 0. -1.
         -4    1    3    3    0  502 -0.10471509047E+03  0.13389740065E+03 -0.60918993312E+02  0.18056823591E+03  0.00000000000E+00 0.  1.
         11    1    5    5    0    0  0.14931049805E+03 -0.53387682134E+03  0.15231194130E+02  0.55457197411E+03  0.00000000000E+00 0. -1.
        -11    1    5    5    0    0  0.52764781914E+02 -0.98851936007E+02 -0.30376129226E+02  0.11609710026E+03  0.00000000000E+00 0.  1.
          1    1    6    6  503    0  0.87532760774E+02  0.28858668530E+03  0.77531809901E+02  0.31137668617E+03  0.00000000000E+00 0. -1.
         -1    1    6    6    0  503 -0.13484842021E+02  0.62870488901E+01  0.65721993585E+01  0.16265354361E+02  0.00000000000E+00 0.  1.
<mgrwt>
<rscale>  0 0.15045300E+04</rscale>
<asrwt>0</asrwt>
<pdfrwt beam="1">  1        1 0.13229062E+00 0.15045300E+04</pdfrwt>
<pdfrwt beam="2">  1       -2 0.10124788E+00 0.15045300E+04</pdfrwt>
<totfact> 0.13351290E+01</totfact>
</mgrwt>
</event>
<event>
12    4  0.4424320E-008  0.1916131E+04  0.7818608E-02  0.8646869E-01
          1   -1    0    0  501    0  0.00000000000E+00  0.00000000000E+00  0.15784458699E+04  0.15784458699E+04  0.00000000000E+00 0. -1.
         -2   -1    0    0    0  501 -0.00000000000E+00 -0.00000000000E+00 -0.58151453507E+03  0.58151453507E+03  0.00000000000E+00 0.  1.
        -24    2    1    2    0    0  0.11181509931E+03 -0.56543766989E+03 -0.13036938165E+03  0.59781731383E+03  0.90371400743E+02 0.  0.
        254    2    1    2    0    0 -0.11181509931E+03  0.56543766989E+03  0.11273007164E+04  0.15621430911E+04  0.91502008547E+03 0.  0.
         23    2    4    4    0    0  0.31837939095E+03  0.11322876380E+03  0.74864434294E+03  0.82646296350E+03  0.91577771735E+02 0.  0.
         23    2    4    4    0    0 -0.43019449026E+03  0.45220890610E+03  0.37865637350E+03  0.73568012761E+03  0.91018716527E+02 0.  0.
          3    1    3    3  502    0  0.69239636339E+02 -0.24044770295E+03 -0.16225521565E+02  0.25074387857E+03  0.00000000000E+00 0. -1.
         -4    1    3    3    0  502  0.42575462975E+02 -0.32498996695E+03 -0.11414386009E+03  0.34707343526E+03  0.00000000000E+00 0.  1.
         11    1    5    5    0    0  0.22241743635E+03  0.41165172557E+02  0.54520941767E+03  0.59026891884E+03  0.00000000000E+00 0.  1.
        -11    1    5    5    0    0  0.95961954600E+02  0.72063591238E+02  0.20343492527E+03  0.23619404466E+03  0.00000000000E+00 0. -1.
          2    1    6    6  503    0 -0.57132075611E+02  0.75367762323E+02  0.96086038034E+02  0.13482173551E+03  0.00000000000E+00 0. -1.
         -2    1    6    6    0  503 -0.37306241465E+03  0.37684114378E+03  0.28257033546E+03  0.60085839210E+03  0.00000000000E+00 0.  1.
<mgrwt>
<rscale>  0 0.19161307E+04</rscale>
<asrwt>0</asrwt>
<pdfrwt beam="1">  1        1 0.24283782E+00 0.19161307E+04</pdfrwt>
<pdfrwt beam="2">  1       -2 0.89463775E-01 0.19161307E+04</pdfrwt>
<totfact> 0.50737352E+00</totfact>
</mgrwt>
</event>
<event>
12    4  0.4424320E-008  0.1365336E+04  0.7818608E-02  0.8979299E-01
         -2   -1    0    0    0  501 -0.00000000000E+00  0.00000000000E+00  0.64569360673E+03  0.64569360673E+03  0.00000000000E+00 0.  1.
          1   -1    0    0  501    0  0.00000000000E+00 -0.00000000000E+00 -0.72175994871E+03  0.72175994871E+03  0.00000000000E+00 0. -1.
        -24    2    1    2    0    0 -0.25066860521E+03 -0.91349521504E+01  0.26859061689E+03  0.37645500409E+03  0.81604250082E+02 0.  0.
        254    2    1    2    0    0  0.25066860521E+03  0.91349521504E+01 -0.34465695888E+03  0.99099855135E+03  0.89463484869E+03 0.  0.
         23    2    4    4    0    0 -0.16111946754E+03  0.32101828553E+03 -0.13473586063E+02  0.37072264144E+03  0.90782800608E+02 0.  0.
         23    2    4    4    0    0  0.41178807275E+03 -0.31188333338E+03 -0.33118337282E+03  0.62027590991E+03  0.90659514040E+02 0.  0.
          1    1    3    3  502    0 -0.10680594457E+02 -0.19399339380E+02  0.12887691662E+02  0.25622296203E+02  0.00000000000E+00 0. -1.
         -2    1    3    3    0  502 -0.23998801075E+03  0.10264387230E+02  0.25570292523E+03  0.35083270788E+03  0.00000000000E+00 0.  1.
         11    1    5    5    0    0 -0.18550751415E+02  0.11604478948E+02 -0.20480541108E+02  0.29970766987E+02  0.00000000000E+00 0. -1.
        -11    1    5    5    0    0 -0.14256871613E+03  0.30941380659E+03  0.70069550446E+01  0.34075187445E+03  0.00000000000E+00 0.  1.
          4    1    6    6  503    0  0.14434337600E+03 -0.11927825722E+03 -0.70570061063E+02  0.20010608776E+03  0.00000000000E+00 0. -1.
         -4    1    6    6    0  503  0.26744469675E+03 -0.19260507616E+03 -0.26061331175E+03  0.42016982215E+03  0.00000000000E+00 0.  1.
<mgrwt>
<rscale>  0 0.13653363E+04</rscale>
<asrwt>0</asrwt>
<pdfrwt beam="1">  1        1 0.11103999E+00 0.13653363E+04</pdfrwt>
<pdfrwt beam="2">  1       -2 0.99337478E-01 0.13653363E+04</pdfrwt>
<totfact> 0.18677602E+01</totfact>
</mgrwt>
</event>
<event>
12    4  0.4424320E-008  0.3246401E+04  0.7818608E-02  0.8176669E-01
         -2   -1    0    0    0  501 -0.00000000000E+00  0.00000000000E+00  0.88177657352E+03  0.88177657352E+03  0.00000000000E+00 0.  1.
          1   -1    0    0  501    0  0.00000000000E+00 -0.00000000000E+00 -0.29880363219E+04  0.29880363219E+04  0.00000000000E+00 0. -1.
        -24    2    1    2    0    0  0.32245344594E+02 -0.15534950460E+03 -0.27477840210E+04  0.27535326457E+04  0.80322932969E+02 0.  0.
        254    2    1    2    0    0 -0.32245344594E+02  0.15534950460E+03  0.64152427262E+03  0.11162802498E+04  0.89964158026E+03 0.  0.
         23    2    4    4    0    0 -0.80758754721E+02  0.45431028874E+03  0.84952847539E+02  0.47682283161E+03  0.84989478896E+02 0.  0.
         23    2    4    4    0    0  0.48513410128E+02 -0.29896078414E+03  0.55657142508E+03  0.63945741819E+03  0.86040322225E+02 0.  0.
          1    1    3    3  502    0  0.11359518616E+02 -0.13394497071E+03 -0.25458096316E+04  0.25493561882E+04  0.00000000000E+00 0. -1.
         -2    1    3    3    0  502  0.20885825977E+02 -0.21404533890E+02 -0.20197438940E+03  0.20417645744E+03  0.00000000000E+00 0.  1.
         11    1    5    5    0    0 -0.48434522735E+02  0.31304428848E+03  0.18257527118E+02  0.31729476333E+03  0.00000000000E+00 0. -1.
        -11    1    5    5    0    0 -0.32324231986E+02  0.14126600027E+03  0.66695320421E+02  0.15952806828E+03  0.00000000000E+00 0.  1.
          3    1    6    6  503    0  0.64232823988E+02 -0.22331033455E+03  0.36261714523E+03  0.43067917898E+03  0.00000000000E+00 0. -1.
         -3    1    6    6    0  503 -0.15719413861E+02 -0.75650449596E+02  0.19395427985E+03  0.20877823921E+03  0.00000000000E+00 0.  1.
<mgrwt>
<rscale>  0 0.32464013E+04</rscale>
<asrwt>0</asrwt>
<pdfrwt beam="1">  1        1 0.45969790E+00 0.32464013E+04</pdfrwt>
<pdfrwt beam="2">  1       -2 0.13565793E+00 0.32464013E+04</pdfrwt>
<totfact> 0.17420667E-01</totfact>
</mgrwt>
</event>
<event>
12    4  0.4424320E-008  0.1921479E+04  0.7818608E-02  0.8644238E-01
          1   -1    0    0  501    0  0.00000000000E+00  0.00000000000E+00  0.11418510888E+04  0.11418510888E+04  0.00000000000E+00 0. -1.
         -2   -1    0    0    0  501 -0.00000000000E+00 -0.00000000000E+00 -0.80835478149E+03  0.80835478149E+03  0.00000000000E+00 0.  1.
        -24    2    1    2    0    0  0.16055550557E+02  0.64855844412E+03 -0.24293290022E+03  0.69719465112E+03  0.78601217558E+02 0.  0.
        254    2    1    2    0    0 -0.16055550557E+02 -0.64855844412E+03  0.57642920756E+03  0.12530112192E+04  0.90381449864E+03 0.  0.
         23    2    4    4    0    0 -0.30502988423E+03  0.81381569313E+00 -0.19629651303E+02  0.32131891029E+03  0.99078889429E+02 0.  0.
         23    2    4    4    0    0  0.28897433367E+03 -0.64937225981E+03  0.59605885886E+03  0.93169230891E+03  0.87028144401E+02 0.  0.
          1    1    3    3  502    0 -0.17831618500E+02  0.10740677419E+03 -0.18817939967E+02  0.11049116084E+03  0.00000000000E+00 0. -1.
         -2    1    3    3    0  502  0.33887169058E+02  0.54115166993E+03 -0.22411496026E+03  0.58670349028E+03  0.00000000000E+00 0.  1.
         11    1    5    5    0    0 -0.12516170009E+03  0.46250996794E+02 -0.24844646502E+02  0.13572716137E+03  0.00000000000E+00 0. -1.
        -11    1    5    5    0    0 -0.17986818414E+03 -0.45437181101E+02  0.52149951993E+01  0.18559174892E+03  0.00000000000E+00 0.  1.
          1    1    6    6  503    0  0.10496173071E+03 -0.25386591205E+03  0.28562194525E+03  0.39628873542E+03  0.00000000000E+00 0. -1.
         -1    1    6    6    0  503  0.18401260296E+03 -0.39550634776E+03  0.31043691361E+03  0.53540357348E+03  0.00000000000E+00 0.  1.
<mgrwt>
<rscale>  0 0.19214794E+04</rscale>
<asrwt>0</asrwt>
<pdfrwt beam="1">  1        1 0.17566940E+00 0.19214794E+04</pdfrwt>
<pdfrwt beam="2">  1       -2 0.12436227E+00 0.19214794E+04</pdfrwt>
<totfact> 0.46923697E+00</totfact>
</mgrwt>
</event>
<event>
12    4  0.4424320E-008  0.3596771E+04  0.7818608E-02  0.8091232E-01
         -2   -1    0    0    0  501 -0.00000000000E+00  0.00000000000E+00  0.11114557610E+04  0.11114557610E+04  0.00000000000E+00 0.  1.
          1   -1    0    0  501    0  0.00000000000E+00 -0.00000000000E+00 -0.29098684130E+04  0.29098684130E+04  0.00000000000E+00 0. -1.
        -24    2    1    2    0    0 -0.12018625609E+04 -0.11795803094E+04 -0.77218043386E+03  0.18543026181E+04  0.79323738122E+02 0.  0.
        254    2    1    2    0    0  0.12018625609E+04  0.11795803094E+04 -0.10262322181E+04  0.21670215559E+04  0.89830202979E+03 0.  0.
         23    2    4    4    0    0  0.21042861939E+03  0.16769593021E+03  0.15214034903E+03  0.32228649694E+03  0.91212781147E+02 0.  0.
         23    2    4    4    0    0  0.99143394156E+03  0.10118843792E+04 -0.11783725671E+04  0.18447350590E+04  0.87374330324E+02 0.  0.
          3    1    3    3  502    0 -0.11283645985E+04 -0.10789901911E+04 -0.71947167559E+03  0.17190305383E+04  0.00000000000E+00 0. -1.
         -4    1    3    3    0  502 -0.73497962434E+02 -0.10059011824E+03 -0.52708758271E+02  0.13527207978E+03  0.00000000000E+00 0.  1.
         11    1    5    5    0    0  0.11945188612E+03  0.62794953131E+02  0.11807152855E+03  0.17931214429E+03  0.00000000000E+00 0.  1.
        -11    1    5    5    0    0  0.90976733275E+02  0.10490097708E+03  0.34068820477E+02  0.14297435266E+03  0.00000000000E+00 0. -1.
          3    1    6    6  503    0  0.91319980244E+02  0.60527919144E+02 -0.96216956872E+02  0.14581039256E+03  0.00000000000E+00 0. -1.
         -3    1    6    6    0  503  0.90011396131E+03  0.95135646002E+03 -0.10821556103E+04  0.16989246664E+04  0.00000000000E+00 0.  1.
<mgrwt>
<rscale>  0 0.35967708E+04</rscale>
<asrwt>0</asrwt>
<pdfrwt beam="1">  1        1 0.44767206E+00 0.35967708E+04</pdfrwt>
<pdfrwt beam="2">  1       -2 0.17099319E+00 0.35967708E+04</pdfrwt>
<totfact> 0.10378555E-01</totfact>
</mgrwt>
</event>
<event>
12    4  0.4424320E-008  0.1563967E+04  0.7818608E-02  0.8842996E-01
          1   -1    0    0  501    0  0.00000000000E+00  0.00000000000E+00  0.18202765406E+04  0.18202765406E+04  0.00000000000E+00 0. -1.
         -2   -1    0    0    0  501 -0.00000000000E+00 -0.00000000000E+00 -0.33593692419E+03  0.33593692419E+03  0.00000000000E+00 0.  1.
        -24    2    1    2    0    0 -0.51930282210E+03  0.56168575422E+00  0.51630046001E+03  0.73660238504E+03  0.79631476946E+02 0.  0.
        254    2    1    2    0    0  0.51930282210E+03 -0.56168575422E+00  0.96803915636E+03  0.14196110797E+04  0.89917744235E+03 0.  0.
         23    2    4    4    0    0  0.60078763712E+03 -0.64327052386E+02  0.20528656540E+03  0.64467471223E+03  0.91537730290E+02 0.  0.
         23    2    4    4    0    0 -0.81484815026E+02  0.63765366632E+02  0.76275259096E+03  0.77493636747E+03  0.89605030821E+02 0.  0.
          3    1    3    3  502    0 -0.49714539762E+03  0.10332041814E+02  0.46935645194E+03  0.68378050312E+03  0.00000000000E+00 0. -1.
         -4    1    3    3    0  502 -0.22157424473E+02 -0.97703560593E+01  0.46944008068E+02  0.52821881927E+02  0.00000000000E+00 0.  1.
         11    1    5    5    0    0  0.24475907569E+03 -0.71037814430E+02  0.93026699717E+02  0.27130673245E+03  0.00000000000E+00 0.  1.
        -11    1    5    5    0    0  0.35602856143E+03  0.67107620438E+01  0.11225986568E+03  0.37336797978E+03  0.00000000000E+00 0. -1.
          2    1    6    6  503    0 -0.62544937162E+02  0.64852920420E+02  0.73930675423E+03  0.74477664255E+03  0.00000000000E+00 0. -1.
         -2    1    6    6    0  503 -0.18939877864E+02 -0.10875537877E+01  0.23445836737E+02  0.30159724916E+02  0.00000000000E+00 0.  1.
<mgrwt>
<rscale>  0 0.15639669E+04</rscale>
<asrwt>0</asrwt>
<pdfrwt beam="1">  1        1 0.28004254E+00 0.15639669E+04</pdfrwt>
<pdfrwt beam="2">  1       -2 0.51682604E-01 0.15639669E+04</pdfrwt>
<totfact> 0.11791364E+01</totfact>
</mgrwt>
</event>
<event>
12    4  0.4424320E-008  0.1397526E+04  0.7818608E-02  0.8955612E-01
         -2   -1    0    0    0  501 -0.00000000000E+00  0.00000000000E+00  0.36474309829E+03  0.36474309829E+03  0.00000000000E+00 0.  1.
          1   -1    0    0  501    0  0.00000000000E+00 -0.00000000000E+00 -0.13386666372E+04  0.13386666372E+04  0.00000000000E+00 0. -1.
        -24    2    1    2    0    0  0.10792863914E+03 -0.28665628815E+03 -0.62485957043E+03  0.69845179758E+03  0.59707722289E+02 0.  0.
        254    2    1    2    0    0 -0.10792863914E+03  0.28665628815E+03 -0.34906396852E+03  0.10049579380E+04  0.89122072701E+03 0.  0.
         23    2    4    4    0    0 -0.19784980735E+03  0.27098786949E+03 -0.61694659539E+03  0.70820400228E+03  0.91382906568E+02 0.  0.
         23    2    4    4    0    0  0.89921168215E+02  0.15668418663E+02  0.26788262687E+03  0.29675393567E+03  0.89277548804E+02 0.  0.
          1    1    3    3  502    0  0.66328563529E+02 -0.11184785284E+03 -0.30523340275E+03  0.33177831557E+03  0.00000000000E+00 0. -1.
         -2    1    3    3    0  502  0.41600075608E+02 -0.17480843531E+03 -0.31962616768E+03  0.36667348201E+03  0.00000000000E+00 0.  1.
         11    1    5    5    0    0 -0.25515231604E+02  0.54009983794E+02 -0.52980064613E+02  0.79843551021E+02  0.00000000000E+00 0. -1.
        -11    1    5    5    0    0 -0.17233457575E+03  0.21697788570E+03 -0.56396653077E+03  0.62836045126E+03  0.00000000000E+00 0.  1.
          3    1    6    6  503    0  0.26580609094E+02 -0.24898713673E+02  0.29758212519E+02  0.47032179779E+02  0.00000000000E+00 0. -1.
         -3    1    6    6    0  503  0.63340559121E+02  0.40567132336E+02  0.23812441435E+03  0.24972175589E+03  0.00000000000E+00 0.  1.
<mgrwt>
<rscale>  0 0.13975256E+04</rscale>
<asrwt>0</asrwt>
<pdfrwt beam="1">  1        1 0.20594871E+00 0.13975256E+04</pdfrwt>
<pdfrwt beam="2">  1       -2 0.56114324E-01 0.13975256E+04</pdfrwt>
<totfact> 0.21653854E+01</totfact>
</mgrwt>
</event>
<event>
12    4  0.4424320E-008  0.1282317E+04  0.7818608E-02  0.9043707E-01
          1   -1    0    0  501    0  0.00000000000E+00  0.00000000000E+00  0.13435344573E+04  0.13435344573E+04  0.00000000000E+00 0. -1.
         -2   -1    0    0    0  501 -0.00000000000E+00 -0.00000000000E+00 -0.30597217539E+03  0.30597217539E+03  0.00000000000E+00 0.  1.
        -24    2    1    2    0    0  0.57175140826E+02  0.22589080684E+02 -0.14260431804E+03  0.17098054902E+03  0.71547839415E+02 0.  0.
        254    2    1    2    0    0 -0.57175140826E+02 -0.22589080684E+02  0.11801665999E+04  0.14785260837E+04  0.88851950635E+03 0.  0.
         23    2    4    4    0    0  0.39942614210E+03 -0.23017175563E+01  0.68657864593E+03  0.79928113245E+03  0.88958140507E+02 0.  0.
         23    2    4    4    0    0 -0.45660128292E+03 -0.20287363128E+02  0.49358795400E+03  0.67924495120E+03  0.94065544829E+02 0.  0.
          3    1    3    3  502    0  0.23463363381E+01  0.32647280536E+02 -0.26231582692E+02  0.41945752480E+02  0.00000000000E+00 0. -1.
         -4    1    3    3    0  502  0.54828804488E+02 -0.10058199851E+02 -0.11637273535E+03  0.12903479654E+03  0.00000000000E+00 0.  1.
         11    1    5    5    0    0  0.23908854827E+03 -0.26080563516E+02  0.47827774893E+03  0.53534394069E+03  0.00000000000E+00 0.  1.
        -11    1    5    5    0    0  0.16033759383E+03  0.23778845960E+02  0.20830089699E+03  0.26393719177E+03  0.00000000000E+00 0. -1.
          3    1    6    6  503    0 -0.51115370253E+02 -0.25339386465E+02  0.34360159243E+02  0.66599445386E+02  0.00000000000E+00 0. -1.
         -3    1    6    6    0  503 -0.40548591267E+03  0.50520233375E+01  0.45922779476E+03  0.61264550581E+03  0.00000000000E+00 0.  1.
<mgrwt>
<rscale>  0 0.12823169E+04</rscale>
<asrwt>0</asrwt>
<pdfrwt beam="1">  1        1 0.20669761E+00 0.12823169E+04</pdfrwt>
<pdfrwt beam="2">  1       -2 0.47072643E-01 0.12823169E+04</pdfrwt>
<totfact> 0.31088485E+01</totfact>
</mgrwt>
</event>
<event>
12    4  0.4424320E-008  0.2158309E+04  0.7818608E-02  0.8535984E-01
          1   -1    0    0  501    0  0.00000000000E+00  0.00000000000E+00  0.17894228513E+04  0.17894228513E+04  0.00000000000E+00 0. -1.
         -2   -1    0    0    0  501 -0.00000000000E+00 -0.00000000000E+00 -0.65081027959E+03  0.65081027959E+03  0.00000000000E+00 0.  1.
        -24    2    1    2    0    0  0.51812215678E+03  0.32092984662E+03  0.12005972718E+04  0.13488846466E+04  0.81298493674E+02 0.  0.
        254    2    1    2    0    0 -0.51812215678E+03 -0.32092984662E+03 -0.61984700079E+02  0.10913484843E+04  0.90319038706E+03 0.  0.
         23    2    4    4    0    0 -0.55310287764E+03  0.15364134163E+03  0.80573136963E+02  0.58648844116E+03  0.89152712257E+02 0.  0.
         23    2    4    4    0    0  0.34980720860E+02 -0.47457118826E+03 -0.14255783704E+03  0.50486004311E+03  0.90108061059E+02 0.  0.
          3    1    3    3  502    0  0.36615917977E+03  0.19779126533E+03  0.87775735174E+03  0.97141746850E+03  0.00000000000E+00 0. -1.
         -4    1    3    3    0  502  0.15196297701E+03  0.12313858129E+03  0.32283992002E+03  0.37746717810E+03  0.00000000000E+00 0.  1.
         11    1    5    5    0    0 -0.69279757873E+02  0.34016025729E+02  0.38702285970E+02  0.86340267527E+02  0.00000000000E+00 0. -1.
        -11    1    5    5    0    0 -0.48382311977E+03  0.11962531590E+03  0.41870850993E+02  0.50014817364E+03  0.00000000000E+00 0.  1.
          1    1    6    6  503    0 -0.19727395586E+02 -0.28135758932E+03 -0.63910616084E+02  0.28919859968E+03  0.00000000000E+00 0. -1.
         -1    1    6    6    0  503  0.54708116446E+02 -0.19321359893E+03 -0.78647220958E+02  0.21566144343E+03  0.00000000000E+00 0.  1.
<mgrwt>
<rscale>  0 0.21583093E+04</rscale>
<asrwt>0</asrwt>
<pdfrwt beam="1">  1        1 0.27529582E+00 0.21583093E+04</pdfrwt>
<pdfrwt beam="2">  1       -2 0.10012466E+00 0.21583093E+04</pdfrwt>
<totfact> 0.27412250E+00</totfact>
</mgrwt>
</event>
<event>
12    4  0.4424320E-008  0.1896903E+04  0.7818608E-02  0.8656399E-01
         -2   -1    0    0    0  501 -0.00000000000E+00  0.00000000000E+00  0.69867846116E+03  0.69867846116E+03  0.00000000000E+00 0.  1.
          1   -1    0    0  501    0  0.00000000000E+00 -0.00000000000E+00 -0.12875169984E+04  0.12875169984E+04  0.00000000000E+00 0. -1.
        -24    2    1    2    0    0  0.56553981999E+03 -0.58545848558E+02 -0.71174876749E+03  0.91449905980E+03  0.80369882194E+02 0.  0.
        254    2    1    2    0    0 -0.56553981999E+03  0.58545848558E+02  0.12291023025E+03  0.10716963998E+04  0.90009074220E+03 0.  0.
         23    2    4    4    0    0 -0.24078334036E+03  0.46731953787E+03  0.85765991861E+02  0.54084166124E+03  0.93753558394E+02 0.  0.
         23    2    4    4    0    0 -0.32475647963E+03 -0.40877368931E+03  0.37144238385E+02  0.53085473853E+03  0.88681220313E+02 0.  0.
          1    1    3    3  502    0  0.26747686951E+03  0.12599189413E+02 -0.33378003688E+03  0.42791556213E+03  0.00000000000E+00 0. -1.
         -2    1    3    3    0  502  0.29806295048E+03 -0.71145037971E+02 -0.37796873062E+03  0.48658349767E+03  0.00000000000E+00 0.  1.
         11    1    5    5    0    0 -0.43285760135E+02  0.73500956317E+02  0.49887813423E+02  0.98817212762E+02  0.00000000000E+00 0. -1.
        -11    1    5    5    0    0 -0.19749758022E+03  0.39381858155E+03  0.35878178439E+02  0.44202444848E+03  0.00000000000E+00 0.  1.
          3    1    6    6  503    0 -0.42746956427E+02 -0.10001725034E+03 -0.13634017756E+02  0.10962043190E+03  0.00000000000E+00 0. -1.
         -3    1    6    6    0  503 -0.28200952321E+03 -0.30875643896E+03  0.50778256141E+02  0.42123430663E+03  0.00000000000E+00 0.  1.
<mgrwt>
<rscale>  0 0.18969032E+04</rscale>
<asrwt>0</asrwt>
<pdfrwt beam="1">  1        1 0.19807954E+00 0.18969032E+04</pdfrwt>
<pdfrwt beam="2">  1       -2 0.10748900E+00 0.18969032E+04</pdfrwt>
<totfact> 0.52675272E+00</totfact>
</mgrwt>
</event>
<event>
12    4  0.4424320E-008  0.1624618E+04  0.7818608E-02  0.8805565E-01
          1   -1    0    0  501    0  0.00000000000E+00  0.00000000000E+00  0.53038142309E+03  0.53038142309E+03  0.00000000000E+00 0. -1.
         -2   -1    0    0    0  501 -0.00000000000E+00 -0.00000000000E+00 -0.12440968703E+04  0.12440968703E+04  0.00000000000E+00 0.  1.
        -24    2    1    2    0    0 -0.93410095187E+02  0.32494274157E+03 -0.74887106128E+03  0.82518419311E+03  0.76209283896E+02 0.  0.
        254    2    1    2    0    0  0.93410095187E+02 -0.32494274157E+03  0.35155614042E+02  0.94929410030E+03  0.88634651265E+03 0.  0.
         23    2    4    4    0    0  0.17342495358E+03 -0.85223056166E+02 -0.39075313133E+03  0.44584610247E+03  0.93549738727E+02 0.  0.
         23    2    4    4    0    0 -0.80014858395E+02 -0.23971968541E+03  0.42590874537E+03  0.50344799783E+03  0.90519180277E+02 0.  0.
          3    1    3    3  502    0 -0.23034682739E+02  0.20930216054E+03 -0.43091228385E+03  0.47960753475E+03  0.00000000000E+00 0. -1.
         -4    1    3    3    0  502 -0.70375412447E+02  0.11564058103E+03 -0.31795877742E+03  0.34557665835E+03  0.00000000000E+00 0.  1.
         11    1    5    5    0    0  0.14385028609E+03 -0.54463548343E+02 -0.21109537466E+03  0.26119042883E+03  0.00000000000E+00 0. -1.
        -11    1    5    5    0    0  0.29574667496E+02 -0.30759507823E+02 -0.17965775667E+03  0.18465567364E+03  0.00000000000E+00 0.  1.
          3    1    6    6  503    0 -0.53331655801E+02 -0.58868103219E+02  0.18248012185E+03  0.19901938086E+03  0.00000000000E+00 0. -1.
         -3    1    6    6    0  503 -0.26683202594E+02 -0.18085158219E+03  0.24342862352E+03  0.30442861697E+03  0.00000000000E+00 0.  1.
<mgrwt>
<rscale>  0 0.16246179E+04</rscale>
<asrwt>0</asrwt>
<pdfrwt beam="1">  1        1 0.81597142E-01 0.16246179E+04</pdfrwt>
<pdfrwt beam="2">  1       -2 0.19139952E+00 0.16246179E+04</pdfrwt>
<totfact> 0.51835880E+00</totfact>
</mgrwt>
</event>
<event>
12    4  0.4424320E-008  0.1139732E+04  0.7818608E-02  0.9167308E-01
          1   -1    0    0  501    0  0.00000000000E+00  0.00000000000E+00  0.99012048833E+03  0.99012048833E+03  0.00000000000E+00 0. -1.
         -2   -1    0    0    0  501 -0.00000000000E+00 -0.00000000000E+00 -0.32798788695E+03  0.32798788695E+03  0.00000000000E+00 0.  1.
        -24    2    1    2    0    0 -0.25750435443E+02  0.28195138354E+03  0.10651190034E+03  0.31238856279E+03  0.77988214794E+02 0.  0.
        254    2    1    2    0    0  0.25750435443E+02 -0.28195138354E+03  0.55562070104E+03  0.10057198125E+04  0.78904899100E+03 0.  0.
         23    2    4    4    0    0 -0.33996745166E+03 -0.29761462786E+03  0.30881675691E+03  0.55550426763E+03  0.95209595616E+02 0.  0.
         23    2    4    4    0    0  0.36571788710E+03  0.15663244323E+02  0.24680394412E+03  0.45021554486E+03  0.88243639043E+02 0.  0.
          3    1    3    3  502    0 -0.14958553607E+02  0.27139421299E+03  0.11492696524E+03  0.29510470093E+03  0.00000000000E+00 0. -1.
         -4    1    3    3    0  502 -0.10791881835E+02  0.10557170547E+02 -0.84150649080E+01  0.17283861863E+02  0.00000000000E+00 0.  1.
         11    1    5    5    0    0 -0.20167635947E+03 -0.16221815431E+03  0.23098333950E+03  0.34690256080E+03  0.00000000000E+00 0. -1.
        -11    1    5    5    0    0 -0.13829109219E+03 -0.13539647355E+03  0.77833417412E+02  0.20860170683E+03  0.00000000000E+00 0.  1.
          1    1    6    6  503    0  0.24138427134E+03  0.51677578881E+02  0.16950231603E+03  0.29944611159E+03  0.00000000000E+00 0. -1.
         -1    1    6    6    0  503  0.12433361576E+03 -0.36014334558E+02  0.77301628095E+02  0.15076943327E+03  0.00000000000E+00 0.  1.
<mgrwt>
<rscale>  0 0.11397325E+04</rscale>
<asrwt>0</asrwt>
<pdfrwt beam="1">  1        1 0.15232623E+00 0.11397325E+04</pdfrwt>
<pdfrwt beam="2">  1       -2 0.50459675E-01 0.11397325E+04</pdfrwt>
<totfact> 0.49840341E+01</totfact>
</mgrwt>
</event>
<event>
12    4  0.4424320E-008  0.1273057E+04  0.7818608E-02  0.9051209E-01
         -2   -1    0    0    0  501 -0.00000000000E+00  0.00000000000E+00  0.10417051471E+04  0.10417051471E+04  0.00000000000E+00 0.  1.
          1   -1    0    0  501    0  0.00000000000E+00 -0.00000000000E+00 -0.38894727958E+03  0.38894727958E+03  0.00000000000E+00 0. -1.
        -24    2    1    2    0    0  0.84616657537E+02  0.40955875798E+02 -0.17428160711E+03  0.21345282231E+03  0.79691067753E+02 0.  0.
        254    2    1    2    0    0 -0.84616657537E+02 -0.40955875798E+02  0.82703947465E+03  0.12171996044E+04  0.88811216736E+03 0.  0.
         23    2    4    4    0    0  0.15111243249E+03 -0.20505033452E+03  0.87195830163E+03  0.91317416454E+03  0.93247885055E+02 0.  0.
         23    2    4    4    0    0 -0.23572909002E+03  0.16409445872E+03 -0.44918826976E+02  0.30402543985E+03  0.88986357352E+02 0.  0.
          1    1    3    3  502    0  0.86648009349E+02  0.50482852865E+01 -0.13151258793E+03  0.15757196290E+03  0.00000000000E+00 0. -1.
         -2    1    3    3    0  502 -0.20313518126E+01  0.35907590511E+02 -0.42769019184E+02  0.55880859411E+02  0.00000000000E+00 0.  1.
         11    1    5    5    0    0  0.74763819700E+02 -0.31787169280E+02  0.29205156552E+03  0.30314051163E+03  0.00000000000E+00 0.  1.
        -11    1    5    5    0    0  0.76348612788E+02 -0.17326316524E+03  0.57990673611E+03  0.61003365291E+03  0.00000000000E+00 0. -1.
          4    1    6    6  503    0 -0.24261698957E+03  0.16443463658E+03 -0.46971714747E+02  0.29683007820E+03  0.00000000000E+00 0.  1.
         -4    1    6    6    0  503  0.68878995483E+01 -0.34017785977E+00  0.20528877703E+01  0.71953616560E+01  0.00000000000E+00 0. -1.
<mgrwt>
<rscale>  0 0.12730568E+04</rscale>
<asrwt>0</asrwt>
<pdfrwt beam="1">  1        1 0.59838043E-01 0.12730568E+04</pdfrwt>
<pdfrwt beam="2">  1       -2 0.16026233E+00 0.12730568E+04</pdfrwt>
<totfact> 0.13417980E+01</totfact>
</mgrwt>
</event>
<event>
12    4  0.4424320E-008  0.1596595E+04  0.7818608E-02  0.8822643E-01
          3   -1    0    0  501    0  0.00000000000E+00  0.00000000000E+00  0.46513332312E+03  0.46513332312E+03  0.00000000000E+00 0. -1.
         -4   -1    0    0    0  501 -0.00000000000E+00 -0.00000000000E+00 -0.13700995486E+04  0.13700995486E+04  0.00000000000E+00 0.  1.
        -24    2    1    2    0    0  0.16814727584E+03 -0.15062781055E+03 -0.88556218576E+03  0.91700664556E+03  0.75621157503E+02 0.  0.
        254    2    1    2    0    0 -0.16814727584E+03  0.15062781055E+03 -0.19404039731E+02  0.91822622617E+03  0.88983180545E+03 0.  0.
         23    2    4    4    0    0 -0.11464840965E+03 -0.34272361996E+03  0.12646915274E+03  0.39319423401E+03  0.89462403029E+02 0.  0.
         23    2    4    4    0    0 -0.53498866196E+02  0.49335143051E+03 -0.14587319247E+03  0.52503199216E+03  0.90121261831E+02 0.  0.
          3    1    3    3  502    0  0.52342677388E+02 -0.39626115123E+02 -0.40736703183E+03  0.41262317373E+03  0.00000000000E+00 0. -1.
         -4    1    3    3    0  502  0.11580459845E+03 -0.11100169543E+03 -0.47819515393E+03  0.50438347183E+03  0.00000000000E+00 0.  1.
         11    1    5    5    0    0  0.90426305717E+01 -0.21014351401E+02  0.25027227066E+02  0.33907731081E+02  0.00000000000E+00 0.  1.
        -11    1    5    5    0    0 -0.12369104022E+03 -0.32170926856E+03  0.10144192568E+03  0.35928650293E+03  0.00000000000E+00 0. -1.
          3    1    6    6  503    0 -0.29811772725E+02  0.18479826504E+03 -0.11157025505E+02  0.18751965170E+03  0.00000000000E+00 0. -1.
         -3    1    6    6    0  503 -0.23687093470E+02  0.30855316547E+03 -0.13471616697E+03  0.33751234046E+03  0.00000000000E+00 0.  1.
<mgrwt>
<rscale>  0 0.15965951E+04</rscale>
<asrwt>0</asrwt>
<pdfrwt beam="1">  1        3 0.71558973E-01 0.15965951E+04</pdfrwt>
<pdfrwt beam="2">  1       -4 0.21078455E+00 0.15965951E+04</pdfrwt>
<totfact> 0.45655743E-01</totfact>
</mgrwt>
</event>
<event>
12    4  0.4424320E-008  0.1743390E+04  0.7818608E-02  0.8736997E-01
          1   -1    0    0  501    0  0.00000000000E+00  0.00000000000E+00  0.20046450638E+04  0.20046450638E+04  0.00000000000E+00 0. -1.
         -2   -1    0    0    0  501 -0.00000000000E+00 -0.00000000000E+00 -0.37904565903E+03  0.37904565903E+03  0.00000000000E+00 0.  1.
        -24    2    1    2    0    0 -0.49087405318E+03 -0.35449690209E+03  0.38854191749E+03  0.72379564802E+03  0.79309071175E+02 0.  0.
        254    2    1    2    0    0  0.49087405318E+03  0.35449690209E+03  0.12370574873E+04  0.16598950748E+04  0.92645293615E+03 0.  0.
         23    2    4    4    0    0 -0.26072115464E+03  0.28646190030E+02  0.24660538518E+03  0.37147310836E+03  0.91552878461E+02 0.  0.
         23    2    4    4    0    0  0.75159520782E+03  0.32585071206E+03  0.99045210209E+03  0.12884219665E+04  0.89228662124E+02 0.  0.
          1    1    3    3  502    0 -0.35849023046E+03 -0.22464468127E+03  0.24152049117E+03  0.48714743745E+03  0.00000000000E+00 0. -1.
         -2    1    3    3    0  502 -0.13238382272E+03 -0.12985222083E+03  0.14702142632E+03  0.23664821057E+03  0.00000000000E+00 0.  1.
         11    1    5    5    0    0 -0.44592180774E+02 -0.59212849959E+01  0.46742749809E+01  0.45225800698E+02  0.00000000000E+00 0.  1.
        -11    1    5    5    0    0 -0.21612897386E+03  0.34567475026E+02  0.24193111020E+03  0.32624730766E+03  0.00000000000E+00 0. -1.
          1    1    6    6  503    0  0.48632677698E+03  0.16641983151E+03  0.59566017231E+03  0.78677845370E+03  0.00000000000E+00 0. -1.
         -1    1    6    6    0  503  0.26526843084E+03  0.15943088055E+03  0.39479192978E+03  0.50164351275E+03  0.00000000000E+00 0.  1.
<mgrwt>
<rscale>  0 0.17433898E+04</rscale>
<asrwt>0</asrwt>
<pdfrwt beam="1">  1        1 0.30840693E+00 0.17433898E+04</pdfrwt>
<pdfrwt beam="2">  1       -2 0.58314718E-01 0.17433898E+04</pdfrwt>
<totfact> 0.67755796E+00</totfact>
</mgrwt>
</event>
<event>
12    4  0.4424320E-008  0.3201265E+04  0.7818608E-02  0.8188483E-01
          1   -1    0    0  501    0  0.00000000000E+00  0.00000000000E+00  0.25875032902E+04  0.25875032902E+04  0.00000000000E+00 0. -1.
         -2   -1    0    0    0  501 -0.00000000000E+00 -0.00000000000E+00 -0.99015295705E+03  0.99015295705E+03  0.00000000000E+00 0.  1.
        -24    2    1    2    0    0  0.23582644030E+03  0.13896959657E+04  0.25807772970E+03  0.14351675180E+04  0.78947469692E+02 0.  0.
        254    2    1    2    0    0 -0.23582644030E+03 -0.13896959657E+04  0.13392726035E+04  0.21424887293E+04  0.89985435573E+03 0.  0.
         23    2    4    4    0    0 -0.46053139587E+03 -0.13420422195E+04  0.10926315672E+04  0.17931683509E+04  0.91883118062E+02 0.  0.
         23    2    4    4    0    0  0.22470495556E+03 -0.47653746274E+02  0.24664103627E+03  0.34932037844E+03  0.91813557989E+02 0.  0.
          3    1    3    3  502    0  0.82267869085E+02  0.29132833459E+03  0.56140133620E+02  0.30788295735E+03  0.00000000000E+00 0. -1.
         -4    1    3    3    0  502  0.15355857122E+03  0.10983676312E+04  0.20193759607E+03  0.11272845606E+04  0.00000000000E+00 0.  1.
         11    1    5    5    0    0 -0.21852133289E+03 -0.58846872154E+03  0.53756128691E+03  0.82644972403E+03  0.00000000000E+00 0.  1.
        -11    1    5    5    0    0 -0.24201006298E+03 -0.75357349793E+03  0.55507028031E+03  0.96671862683E+03  0.00000000000E+00 0. -1.
          4    1    6    6  503    0  0.45179988703E+02 -0.42709381566E+02  0.98656173302E+02  0.11661201989E+03  0.00000000000E+00 0. -1.
         -4    1    6    6    0  503  0.17952496686E+03 -0.49443647085E+01  0.14798486296E+03  0.23270835854E+03  0.00000000000E+00 0.  1.
<mgrwt>
<rscale>  0 0.32012648E+04</rscale>
<asrwt>0</asrwt>
<pdfrwt beam="1">  1        1 0.39807743E+00 0.32012648E+04</pdfrwt>
<pdfrwt beam="2">  1       -2 0.15233123E+00 0.32012648E+04</pdfrwt>
<totfact> 0.24914914E-01</totfact>
</mgrwt>
</event>
<event>
12    4  0.4424320E-008  0.3140682E+04  0.7818608E-02  0.8204661E-01
         -2   -1    0    0    0  501 -0.00000000000E+00  0.00000000000E+00  0.30088676622E+04  0.30088676622E+04  0.00000000000E+00 0.  1.
          1   -1    0    0  501    0  0.00000000000E+00 -0.00000000000E+00 -0.81956756898E+03  0.81956756898E+03  0.00000000000E+00 0. -1.
        -24    2    1    2    0    0 -0.90708546824E+03  0.39120526482E+03  0.22656011377E+04  0.24729734287E+04  0.82483079376E+02 0.  0.
        254    2    1    2    0    0  0.90708546824E+03 -0.39120526482E+03 -0.76301044407E+02  0.13554618025E+04  0.92499148247E+03 0.  0.
         23    2    4    4    0    0  0.51841651936E+03 -0.30334934541E+03  0.40020994955E+03  0.72702783279E+03  0.87320977013E+02 0.  0.
         23    2    4    4    0    0  0.38866894888E+03 -0.87855919409E+02 -0.47651099395E+03  0.62843396968E+03  0.95311659761E+02 0.  0.
          3    1    3    3  502    0 -0.22766275592E+02 -0.15890219477E+01  0.38668621808E+02  0.44900897626E+02  0.00000000000E+00 0. -1.
         -4    1    3    3    0  502 -0.88431919265E+03  0.39279428676E+03  0.22269325158E+04  0.24280725311E+04  0.00000000000E+00 0.  1.
         11    1    5    5    0    0  0.19102040433E+02 -0.22601035384E+02  0.25565285776E+01  0.29702366698E+02  0.00000000000E+00 0.  1.
        -11    1    5    5    0    0  0.49931447893E+03 -0.28074831002E+03  0.39765342097E+03  0.69732546609E+03  0.00000000000E+00 0. -1.
          2    1    6    6  503    0  0.34862136676E+03 -0.10747316537E+03 -0.41670732611E+03  0.55383421190E+03  0.00000000000E+00 0. -1.
         -2    1    6    6    0  503  0.40047582122E+02  0.19617245963E+02 -0.59803667847E+02  0.74599757780E+02  0.00000000000E+00 0.  1.
<mgrwt>
<rscale>  0 0.31406817E+04</rscale>
<asrwt>0</asrwt>
<pdfrwt beam="1">  1        1 0.12608732E+00 0.31406817E+04</pdfrwt>
<pdfrwt beam="2">  1       -2 0.46290271E+00 0.31406817E+04</pdfrwt>
<totfact> 0.44682259E-02</totfact>
</mgrwt>
</event>
<event>
12    4  0.4424320E-008  0.1408251E+04  0.7818608E-02  0.8947868E-01
         -2   -1    0    0    0  501 -0.00000000000E+00  0.00000000000E+00  0.79326872810E+03  0.79326872810E+03  0.00000000000E+00 0.  1.
          1   -1    0    0  501    0  0.00000000000E+00 -0.00000000000E+00 -0.62499973712E+03  0.62499973712E+03  0.00000000000E+00 0. -1.
        -24    2    1    2    0    0  0.11346231493E+03 -0.36283518029E+03  0.20808568911E+03  0.44079392846E+03  0.80477129561E+02 0.  0.
        254    2    1    2    0    0 -0.11346231493E+03  0.36283518029E+03 -0.39816698135E+02  0.97747453677E+03  0.89963772465E+03 0.  0.
         23    2    4    4    0    0 -0.46027691968E+03  0.24724897944E+03  0.15795315586E+03  0.55309244250E+03  0.89303694658E+02 0.  0.
         23    2    4    4    0    0  0.34681460475E+03  0.11558620085E+03 -0.19776985400E+03  0.42438209427E+03  0.85712933068E+02 0.  0.
          3    1    3    3  502    0  0.74954637912E+02 -0.25407311333E+03  0.10137451074E+03  0.28363380632E+03  0.00000000000E+00 0. -1.
         -4    1    3    3    0  502  0.38507677017E+02 -0.10876206696E+03  0.10671117837E+03  0.15716012213E+03  0.00000000000E+00 0.  1.
         11    1    5    5    0    0 -0.27168237570E+03  0.18011525861E+03  0.65020545760E+02  0.33238605720E+03  0.00000000000E+00 0. -1.
        -11    1    5    5    0    0 -0.18859454398E+03  0.67133720829E+02  0.92932610101E+02  0.22070638530E+03  0.00000000000E+00 0.  1.
          2    1    6    6  503    0  0.25543250737E+03  0.43857563332E+02 -0.13114547389E+03  0.29046236762E+03  0.00000000000E+00 0. -1.
         -2    1    6    6    0  503  0.91382097378E+02  0.71728637518E+02 -0.66624380102E+02  0.13391972665E+03  0.00000000000E+00 0.  1.
<mgrwt>
<rscale>  0 0.14082510E+04</rscale>
<asrwt>0</asrwt>
<pdfrwt beam="1">  1        1 0.96153805E-01 0.14082510E+04</pdfrwt>
<pdfrwt beam="2">  1       -2 0.12204134E+00 0.14082510E+04</pdfrwt>
<totfact> 0.14008513E+01</totfact>
</mgrwt>
</event>
<event>
12    4  0.4424320E-008  0.1272592E+04  0.7818608E-02  0.9051587E-01
          1   -1    0    0  501    0  0.00000000000E+00  0.00000000000E+00  0.19300872531E+04  0.19300872531E+04  0.00000000000E+00 0. -1.
         -2   -1    0    0    0  501 -0.00000000000E+00 -0.00000000000E+00 -0.20976891443E+03  0.20976891443E+03  0.00000000000E+00 0.  1.
        -24    2    1    2    0    0 -0.75928139804E+02 -0.15390193411E+03 -0.46573147826E+01  0.18959121690E+03  0.80450302716E+02 0.  0.
        254    2    1    2    0    0  0.75928139804E+02  0.15390193411E+03  0.17249756535E+04  0.19502649507E+04  0.89361148435E+03 0.  0.
         23    2    4    4    0    0 -0.50220450083E+02 -0.25451632571E+03  0.14528362152E+03  0.31116844000E+03  0.91748644221E+02 0.  0.
         23    2    4    4    0    0  0.12614858989E+03  0.40841825982E+03  0.15796920320E+04  0.16390965107E+04  0.92149409792E+02 0.  0.
          3    1    3    3  502    0 -0.24509792262E+02 -0.56893257725E+02 -0.40597074891E+02  0.74065479011E+02  0.00000000000E+00 0. -1.
         -4    1    3    3    0  502 -0.51418347541E+02 -0.97008676387E+02  0.35939760109E+02  0.11552573789E+03  0.00000000000E+00 0.  1.
         11    1    5    5    0    0  0.57992016947E+00  0.40589560335E+01  0.18109463155E+02  0.18567823977E+02  0.00000000000E+00 0. -1.
        -11    1    5    5    0    0 -0.50800370253E+02 -0.25857528174E+03  0.12717415836E+03  0.29260061603E+03  0.00000000000E+00 0.  1.
          2    1    6    6  503    0  0.75002825038E+02  0.24909578476E+03  0.11223622548E+04  0.11521159511E+04  0.00000000000E+00 0.  1.
         -2    1    6    6    0  503  0.51145764848E+02  0.15932247506E+03  0.45732977714E+03  0.48698055955E+03  0.00000000000E+00 0. -1.
<mgrwt>
<rscale>  0 0.12725915E+04</rscale>
<asrwt>0</asrwt>
<pdfrwt beam="1">  1        1 0.29693649E+00 0.12725915E+04</pdfrwt>
<pdfrwt beam="2">  1       -2 0.32272142E-01 0.12725915E+04</pdfrwt>
<totfact> 0.25709949E+01</totfact>
</mgrwt>
</event>
<event>
12    4  0.4424320E-008  0.1804965E+04  0.7818608E-02  0.8703664E-01
          1   -1    0    0  501    0  0.00000000000E+00  0.00000000000E+00  0.39565531598E+03  0.39565531598E+03  0.00000000000E+00 0. -1.
         -2   -1    0    0    0  501 -0.00000000000E+00 -0.00000000000E+00 -0.20585457260E+04  0.20585457260E+04  0.00000000000E+00 0.  1.
        -24    2    1    2    0    0  0.50571143758E+02 -0.64113308754E+03 -0.85613179429E+03  0.10738222123E+04  0.80767678556E+02 0.  0.
        254    2    1    2    0    0 -0.50571143758E+02  0.64113308754E+03 -0.80675861573E+03  0.13803788297E+04  0.91704807554E+03 0.  0.
         23    2    4    4    0    0  0.40099481654E+02  0.35958965869E+03  0.12901750369E+03  0.39483886670E+03  0.91320990635E+02 0.  0.
         23    2    4    4    0    0 -0.90670625413E+02  0.28154342885E+03 -0.93577611942E+03  0.98553996298E+03  0.90134390346E+02 0.  0.
          1    1    3    3  502    0  0.13121406791E+02 -0.10200264501E+03 -0.92633893072E+02  0.13841152066E+03  0.00000000000E+00 0. -1.
         -2    1    3    3    0  502  0.37449736967E+02 -0.53913044254E+03 -0.76349790121E+03  0.93541069163E+03  0.00000000000E+00 0.  1.
         11    1    5    5    0    0 -0.18698531759E+02  0.23085458181E+03  0.82401898380E+02  0.24583235321E+03  0.00000000000E+00 0. -1.
        -11    1    5    5    0    0  0.58798013413E+02  0.12873507689E+03  0.46615605310E+02  0.14900651348E+03  0.00000000000E+00 0.  1.
          2    1    6    6  503    0 -0.85363599801E+02  0.17818750909E+03 -0.49951203811E+03  0.53716851060E+03  0.00000000000E+00 0.  1.
         -2    1    6    6    0  503 -0.53070256113E+01  0.10335591976E+03 -0.43626408131E+03  0.44837145238E+03  0.00000000000E+00 0. -1.
<mgrwt>
<rscale>  0 0.18049649E+04</rscale>
<asrwt>0</asrwt>
<pdfrwt beam="1">  1        1 0.60870049E-01 0.18049649E+04</pdfrwt>
<pdfrwt beam="2">  1       -2 0.31669934E+00 0.18049649E+04</pdfrwt>
<totfact> 0.12632112E+00</totfact>
</mgrwt>
</event>
<event>
12    4  0.4424320E-008  0.1301918E+04  0.7818608E-02  0.9028046E-01
          1   -1    0    0  501    0  0.00000000000E+00  0.00000000000E+00  0.14962939055E+04  0.14962939055E+04  0.00000000000E+00 0. -1.
         -2   -1    0    0    0  501 -0.00000000000E+00 -0.00000000000E+00 -0.28319798937E+03  0.28319798937E+03  0.00000000000E+00 0.  1.
        -24    2    1    2    0    0  0.10708572178E+03 -0.19317517290E+03 -0.21353968187E+02  0.24068772126E+03  0.93223323120E+02 0.  0.
        254    2    1    2    0    0 -0.10708572178E+03  0.19317517290E+03  0.12344498843E+04  0.15388041736E+04  0.89177786951E+03 0.  0.
         23    2    4    4    0    0  0.33964927779E+03 -0.56217026709E+02  0.28696629494E+03  0.45808868622E+03  0.94729108596E+02 0.  0.
         23    2    4    4    0    0 -0.44673499958E+03  0.24939219961E+03  0.94748358934E+03  0.10807154873E+04  0.91935757153E+02 0.  0.
          3    1    3    3  502    0  0.77861387089E+00 -0.38334881695E+02  0.26814167559E+02  0.46788556037E+02  0.00000000000E+00 0. -1.
         -4    1    3    3    0  502  0.10630710791E+03 -0.15484029120E+03 -0.48168135746E+02  0.19389916522E+03  0.00000000000E+00 0.  1.
         11    1    5    5    0    0  0.33563639102E+03 -0.68537369306E+02  0.28354440154E+03  0.44468706481E+03  0.00000000000E+00 0.  1.
        -11    1    5    5    0    0  0.40128867774E+01  0.12320342597E+02  0.34218934008E+01  0.13401621411E+02  0.00000000000E+00 0. -1.
          3    1    6    6  503    0 -0.35661974013E+03  0.18163928897E+03  0.65930622803E+03  0.77126854769E+03  0.00000000000E+00 0. -1.
         -3    1    6    6    0  503 -0.90115259451E+02  0.67752910637E+02  0.28817736131E+03  0.30944693965E+03  0.00000000000E+00 0.  1.
<mgrwt>
<rscale>  0 0.13019177E+04</rscale>
<asrwt>0</asrwt>
<pdfrwt beam="1">  1        1 0.23019906E+00 0.13019177E+04</pdfrwt>
<pdfrwt beam="2">  1       -2 0.43568922E-01 0.13019177E+04</pdfrwt>
<totfact> 0.28333906E+01</totfact>
</mgrwt>
</event>
<event>
12    4  0.4424320E-008  0.1449555E+04  0.7818608E-02  0.8918709E-01
          1   -1    0    0  501    0  0.00000000000E+00  0.00000000000E+00  0.11208799217E+04  0.11208799217E+04  0.00000000000E+00 0. -1.
         -2   -1    0    0    0  501 -0.00000000000E+00 -0.00000000000E+00 -0.46865207764E+03  0.46865207764E+03  0.00000000000E+00 0.  1.
        -24    2    1    2    0    0 -0.11886428061E+03  0.10658630868E+03  0.66096381235E+03  0.68471868408E+03  0.80480784656E+02 0.  0.
        254    2    1    2    0    0  0.11886428061E+03 -0.10658630868E+03 -0.87359683182E+01  0.90481331523E+03  0.89057366897E+03 0.  0.
         23    2    4    4    0    0  0.83309596501E+02  0.13886338986E+03 -0.39528630389E+03  0.43647590285E+03  0.89646092003E+02 0.  0.
         23    2    4    4    0    0  0.35554684110E+02 -0.24544969854E+03  0.38655033558E+03  0.46833741237E+03  0.91701034988E+02 0.  0.
          1    1    3    3  502    0 -0.17344283363E+02  0.23854584530E+02  0.28651342342E+03  0.28802744170E+03  0.00000000000E+00 0. -1.
         -2    1    3    3    0  502 -0.10151999725E+03  0.82731724150E+02  0.37445038892E+03  0.39669124238E+03  0.00000000000E+00 0.  1.
         11    1    5    5    0    0  0.86794666644E+00 -0.10795801117E+02 -0.89785298389E+01  0.14068285299E+02  0.00000000000E+00 0. -1.
        -11    1    5    5    0    0  0.82441649834E+02  0.14965919098E+03 -0.38630777405E+03  0.42240761755E+03  0.00000000000E+00 0.  1.
          1    1    6    6  503    0 -0.18238890302E+02 -0.42114263599E+02  0.31502965500E+02  0.55666014346E+02  0.00000000000E+00 0. -1.
         -1    1    6    6    0  503  0.53793574412E+02 -0.20333543494E+03  0.35504737008E+03  0.41267139803E+03  0.00000000000E+00 0.  1.
<mgrwt>
<rscale>  0 0.14495554E+04</rscale>
<asrwt>0</asrwt>
<pdfrwt beam="1">  1        1 0.17244306E+00 0.14495554E+04</pdfrwt>
<pdfrwt beam="2">  1       -2 0.72100320E-01 0.14495554E+04</pdfrwt>
<totfact> 0.18146320E+01</totfact>
</mgrwt>
</event>
<event>
12    4  0.4424320E-008  0.1579886E+04  0.7818608E-02  0.8833001E-01
          1   -1    0    0  501    0  0.00000000000E+00  0.00000000000E+00  0.14771502491E+04  0.14771502491E+04  0.00000000000E+00 0. -1.
         -2   -1    0    0    0  501 -0.00000000000E+00 -0.00000000000E+00 -0.42244179077E+03  0.42244179077E+03  0.00000000000E+00 0.  1.
        -24    2    1    2    0    0  0.44774930951E+02 -0.18526413364E+03 -0.23542934188E+03  0.31356663709E+03  0.81052249960E+02 0.  0.
        254    2    1    2    0    0 -0.44774930951E+02  0.18526413364E+03  0.12901378002E+04  0.15860254027E+04  0.90260370101E+03 0.  0.
         23    2    4    4    0    0  0.15807679890E+03  0.49220055883E+03  0.58726156410E+03  0.78703404036E+03  0.85421142329E+02 0.  0.
         23    2    4    4    0    0 -0.20285172985E+03 -0.30693642519E+03  0.70287623607E+03  0.79899136239E+03  0.94833541168E+02 0.  0.
          3    1    3    3  502    0  0.27109675771E+01 -0.81620197154E+02 -0.46410524028E+02  0.93931585045E+02  0.00000000000E+00 0. -1.
         -4    1    3    3    0  502  0.42063963374E+02 -0.10364393649E+03 -0.18901881785E+03  0.21963505205E+03  0.00000000000E+00 0.  1.
         11    1    5    5    0    0  0.77130610267E+02  0.36597002074E+03  0.41729657747E+03  0.56037453609E+03  0.00000000000E+00 0. -1.
        -11    1    5    5    0    0  0.80946188629E+02  0.12623053809E+03  0.16996498663E+03  0.22665950428E+03  0.00000000000E+00 0.  1.
          1    1    6    6  503    0 -0.59304690016E+02 -0.16291653180E+03  0.37570582539E+03  0.41377978421E+03  0.00000000000E+00 0. -1.
         -1    1    6    6    0  503 -0.14354703983E+03 -0.14401989338E+03  0.32717041068E+03  0.38521157817E+03  0.00000000000E+00 0.  1.
<mgrwt>
<rscale>  0 0.15798861E+04</rscale>
<asrwt>0</asrwt>
<pdfrwt beam="1">  1        1 0.22725388E+00 0.15798861E+04</pdfrwt>
<pdfrwt beam="2">  1       -2 0.64991046E-01 0.15798861E+04</pdfrwt>
<totfact> 0.12495902E+01</totfact>
</mgrwt>
</event>
<event>
12    4  0.4424320E-008  0.2458169E+04  0.7818608E-02  0.8418041E-01
         -2   -1    0    0    0  501 -0.00000000000E+00  0.00000000000E+00  0.13071734007E+04  0.13071734007E+04  0.00000000000E+00 0.  1.
          1   -1    0    0  501    0  0.00000000000E+00 -0.00000000000E+00 -0.11556608638E+04  0.11556608638E+04  0.00000000000E+00 0. -1.
        -24    2    1    2    0    0  0.10419971652E+04 -0.12469604777E+03  0.21292577211E+03  0.10740199179E+04  0.82910813787E+02 0.  0.
        254    2    1    2    0    0 -0.10419971652E+04  0.12469604777E+03 -0.61413235275E+02  0.13888143466E+04  0.90759380073E+03 0.  0.
         23    2    4    4    0    0 -0.31849217482E+03 -0.29120376921E+03  0.23301852647E+03  0.49868757600E+03  0.90303732785E+02 0.  0.
         23    2    4    4    0    0 -0.72350499041E+03  0.41589981698E+03 -0.29443176175E+03  0.89012677058E+03  0.95934751134E+02 0.  0.
          1    1    3    3  502    0  0.33740419147E+02  0.70032097472E+01 -0.27760806080E+01  0.34571193999E+02  0.00000000000E+00 0. -1.
         -2    1    3    3    0  502  0.10082567461E+04 -0.13169925752E+03  0.21570185272E+03  0.10394487239E+04  0.00000000000E+00 0.  1.
         11    1    5    5    0    0 -0.28521970754E+03 -0.28486686856E+03  0.23133670883E+03  0.46477530832E+03  0.00000000000E+00 0.  1.
        -11    1    5    5    0    0 -0.33272467276E+02 -0.63369006467E+01  0.16818176455E+01  0.33912267678E+02  0.00000000000E+00 0. -1.
          2    1    6    6  503    0 -0.68772078676E+03  0.41436396266E+03 -0.27136063497E+03  0.84752225240E+03  0.00000000000E+00 0.  1.
         -2    1    6    6    0  503 -0.35784203646E+02  0.15358543142E+01 -0.23071126773E+02  0.42604518183E+02  0.00000000000E+00 0. -1.
<mgrwt>
<rscale>  0 0.24581694E+04</rscale>
<asrwt>0</asrwt>
<pdfrwt beam="1">  1        1 0.17779398E+00 0.24581694E+04</pdfrwt>
<pdfrwt beam="2">  1       -2 0.20110360E+00 0.24581694E+04</pdfrwt>
<totfact> 0.11786788E+00</totfact>
</mgrwt>
</event>
<event>
12    4  0.4424320E-008  0.1587081E+04  0.7818608E-02  0.8828524E-01
          1   -1    0    0  501    0  0.00000000000E+00  0.00000000000E+00  0.16274039773E+04  0.16274039773E+04  0.00000000000E+00 0. -1.
         -2   -1    0    0    0  501 -0.00000000000E+00 -0.00000000000E+00 -0.38693925200E+03  0.38693925200E+03  0.00000000000E+00 0.  1.
        -24    2    1    2    0    0 -0.17977244631E+03  0.13012426406E+03  0.10416680440E+04  0.10687219099E+04  0.88564949300E+02 0.  0.
        254    2    1    2    0    0  0.17977244631E+03 -0.13012426406E+03  0.19879668125E+03  0.94562131937E+03  0.89745701993E+03 0.  0.
         23    2    4    4    0    0  0.18856649171E+03  0.34299993423E+03 -0.47373896012E+02  0.40477168285E+03  0.91594500556E+02 0.  0.
         23    2    4    4    0    0 -0.87940454046E+01 -0.47312419829E+03  0.24617057727E+03  0.54084963652E+03  0.89412157795E+02 0.  0.
          3    1    3    3  502    0 -0.15459531438E+03  0.78205419865E+02  0.88423168938E+03  0.90104466007E+03  0.00000000000E+00 0. -1.
         -4    1    3    3    0  502 -0.25177131930E+02  0.51918844195E+02  0.15743635465E+03  0.16767724986E+03  0.00000000000E+00 0.  1.
         11    1    5    5    0    0 -0.46610740672E+01  0.30705800065E+01  0.81095770811E+01  0.98447607117E+01  0.00000000000E+00 0. -1.
        -11    1    5    5    0    0  0.19322756578E+03  0.33992935423E+03 -0.55483473093E+02  0.39492692214E+03  0.00000000000E+00 0.  1.
          3    1    6    6  503    0 -0.13846978036E+02 -0.57637214635E+02  0.63753700180E+02  0.87053555920E+02  0.00000000000E+00 0. -1.
         -3    1    6    6    0  503  0.50529326313E+01 -0.41548698366E+03  0.18241687709E+03  0.45379608060E+03  0.00000000000E+00 0.  1.
<mgrwt>
<rscale>  0 0.15870809E+04</rscale>
<asrwt>0</asrwt>
<pdfrwt beam="1">  1        1 0.25036984E+00 0.15870809E+04</pdfrwt>
<pdfrwt beam="2">  1       -2 0.59529116E-01 0.15870809E+04</pdfrwt>
<totfact> 0.11862879E+01</totfact>
</mgrwt>
</event>
<event>
12    4  0.4424320E-008  0.1329513E+04  0.7818608E-02  0.9006483E-01
         -2   -1    0    0    0  501 -0.00000000000E+00  0.00000000000E+00  0.26374078186E+03  0.26374078186E+03  0.00000000000E+00 0.  1.
          1   -1    0    0  501    0  0.00000000000E+00 -0.00000000000E+00 -0.16755125787E+04  0.16755125787E+04  0.00000000000E+00 0. -1.
        -24    2    1    2    0    0  0.30755024891E+03 -0.11690363446E+03 -0.19622591421E+03  0.39142975824E+03  0.80368096138E+02 0.  0.
        254    2    1    2    0    0 -0.30755024891E+03  0.11690363446E+03 -0.12155458827E+04  0.15478236023E+04  0.89997360837E+03 0.  0.
         23    2    4    4    0    0 -0.15508258587E+03  0.48602917051E+03 -0.86577642730E+03  0.10090180769E+04  0.90959850116E+02 0.  0.
         23    2    4    4    0    0 -0.15246766304E+03 -0.36912553605E+03 -0.34976945536E+03  0.53880552548E+03  0.92047122427E+02 0.  0.
          1    1    3    3  502    0  0.51300826270E+02 -0.44153687327E+02 -0.67463151338E+02  0.95564636080E+02  0.00000000000E+00 0. -1.
         -2    1    3    3    0  502  0.25624942264E+03 -0.72749947133E+02 -0.12876276287E+03  0.29586512216E+03  0.00000000000E+00 0.  1.
         11    1    5    5    0    0 -0.24285530933E+02  0.95018072732E+02 -0.24386807251E+03  0.26284949676E+03  0.00000000000E+00 0. -1.
        -11    1    5    5    0    0 -0.13079705494E+03  0.39101109778E+03 -0.62190835479E+03  0.74616858010E+03  0.00000000000E+00 0.  1.
          2    1    6    6  503    0 -0.12064896167E+03 -0.18107580410E+03 -0.16306936912E+03  0.27191218790E+03  0.00000000000E+00 0. -1.
         -2    1    6    6    0  503 -0.31818701370E+02 -0.18804973195E+03 -0.18670008624E+03  0.26689333758E+03  0.00000000000E+00 0.  1.
<mgrwt>
<rscale>  0 0.13295127E+04</rscale>
<asrwt>0</asrwt>
<pdfrwt beam="1">  1        1 0.25777117E+00 0.13295127E+04</pdfrwt>
<pdfrwt beam="2">  1       -2 0.40575505E-01 0.13295127E+04</pdfrwt>
<totfact> 0.24511944E+01</totfact>
</mgrwt>
</event>
<event>
12    4  0.4424320E-008  0.3073997E+04  0.7818608E-02  0.8222911E-01
         -4   -1    0    0    0  501 -0.00000000000E+00  0.00000000000E+00  0.15003039348E+04  0.15003039348E+04  0.00000000000E+00 0.  1.
          1   -1    0    0  501    0  0.00000000000E+00 -0.00000000000E+00 -0.15745902711E+04  0.15745902711E+04  0.00000000000E+00 0. -1.
        -24    2    1    2    0    0 -0.37515750979E+02 -0.12515519786E+04  0.61796325727E+03  0.13986142128E+04  0.80332697789E+02 0.  0.
        254    2    1    2    0    0  0.37515750979E+02  0.12515519786E+04 -0.69224959366E+03  0.16762799931E+04  0.87345024399E+03 0.  0.
         23    2    4    4    0    0  0.19861579846E+03  0.54270362096E+03  0.10374893171E+03  0.59427977767E+03  0.91810444468E+02 0.  0.
         23    2    4    4    0    0 -0.16110004748E+03  0.70884835760E+03 -0.79599852537E+03  0.10820002154E+04  0.93228721011E+02 0.  0.
          1    1    3    3  502    0  0.15905978864E+02 -0.49763478187E+03  0.27272534318E+03  0.56769048706E+03  0.00000000000E+00 0. -1.
         -2    1    3    3    0  502 -0.53421729843E+02 -0.75391719669E+03  0.34523791408E+03  0.83092372574E+03  0.00000000000E+00 0.  1.
         11    1    5    5    0    0  0.68270964530E+02  0.87988773905E+02  0.31733236224E+02  0.11580132647E+03  0.00000000000E+00 0.  1.
        -11    1    5    5    0    0  0.13034483393E+03  0.45471484705E+03  0.72015695487E+02  0.47847845120E+03  0.00000000000E+00 0. -1.
          2    1    6    6  503    0 -0.84516588513E+02  0.21891434560E+03 -0.21629651900E+03  0.31914060941E+03  0.00000000000E+00 0.  1.
         -2    1    6    6    0  503 -0.76583458972E+02  0.48993401199E+03 -0.57970200637E+03  0.76285960601E+03  0.00000000000E+00 0. -1.
<mgrwt>
<rscale>  0 0.30739967E+04</rscale>
<asrwt>0</asrwt>
<pdfrwt beam="1">  1        1 0.24224466E+00 0.30739967E+04</pdfrwt>
<pdfrwt beam="2">  1       -4 0.23081599E+00 0.30739967E+04</pdfrwt>
<totfact> 0.19827220E-01</totfact>
</mgrwt>
</event>
<event>
12    4  0.4424320E-008  0.2003358E+04  0.7818608E-02  0.8605052E-01
         -2   -1    0    0    0  501 -0.00000000000E+00  0.00000000000E+00  0.14367219929E+04  0.14367219929E+04  0.00000000000E+00 0.  1.
          1   -1    0    0  501    0  0.00000000000E+00 -0.00000000000E+00 -0.69836790537E+03  0.69836790537E+03  0.00000000000E+00 0. -1.
        -24    2    1    2    0    0  0.39604218357E+03  0.68328912552E+03  0.15542761395E+03  0.80892782925E+03  0.80455264246E+02 0.  0.
        254    2    1    2    0    0 -0.39604218357E+03 -0.68328912552E+03  0.58292647360E+03  0.13261620690E+04  0.89172255748E+03 0.  0.
         23    2    4    4    0    0  0.50801976704E+02  0.26948099415E+02 -0.16601869043E+03  0.19810276877E+03  0.91517542156E+02 0.  0.
         23    2    4    4    0    0 -0.44684416027E+03 -0.71023722493E+03  0.74894516403E+03  0.11280593003E+04  0.86558113263E+02 0.  0.
          1    1    3    3  502    0  0.21399168646E+02  0.52668729390E+02 -0.80574222577E+01  0.57418128911E+02  0.00000000000E+00 0. -1.
         -2    1    3    3    0  502  0.37464301492E+03  0.63062039613E+03  0.16348503621E+03  0.75150970034E+03  0.00000000000E+00 0.  1.
         11    1    5    5    0    0  0.21592612723E+02  0.78102040234E+01 -0.16122829520E+03  0.16285516075E+03  0.00000000000E+00 0. -1.
        -11    1    5    5    0    0  0.29209363981E+02  0.19137895392E+02 -0.47903952285E+01  0.35247608013E+02  0.00000000000E+00 0.  1.
          4    1    6    6  503    0 -0.36666841987E+02 -0.27147880211E+02  0.54944143609E+02  0.71416550030E+02  0.00000000000E+00 0. -1.
         -4    1    6    6    0  503 -0.41017731828E+03 -0.68308934472E+03  0.69400102042E+03  0.10566427502E+04  0.00000000000E+00 0.  1.
<mgrwt>
<rscale>  0 0.20033577E+04</rscale>
<asrwt>0</asrwt>
<pdfrwt beam="1">  1        1 0.10744122E+00 0.20033577E+04</pdfrwt>
<pdfrwt beam="2">  1       -2 0.22103415E+00 0.20033577E+04</pdfrwt>
<totfact> 0.21612070E+00</totfact>
</mgrwt>
</event>
<event>
12    4  0.4424320E-008  0.1873141E+04  0.7818608E-02  0.8668343E-01
          1   -1    0    0  501    0  0.00000000000E+00  0.00000000000E+00  0.94510770188E+03  0.94510770188E+03  0.00000000000E+00 0. -1.
         -2   -1    0    0    0  501 -0.00000000000E+00 -0.00000000000E+00 -0.92811027743E+03  0.92811027743E+03  0.00000000000E+00 0.  1.
        -24    2    1    2    0    0  0.49971598482E+03 -0.20093265906E+03 -0.46516442637E+03  0.71591185490E+03  0.77857828489E+02 0.  0.
        254    2    1    2    0    0 -0.49971598482E+03  0.20093265906E+03  0.48216185082E+03  0.11573061244E+04  0.90376292037E+03 0.  0.
         23    2    4    4    0    0 -0.67911794765E+03 -0.60346067375E+02  0.18315011592E+03  0.71221511799E+03  0.94146559445E+02 0.  0.
         23    2    4    4    0    0  0.17940196283E+03  0.26127872643E+03  0.29901173490E+03  0.44509100642E+03  0.90809411579E+02 0.  0.
          1    1    3    3  502    0  0.41422556062E+02 -0.29753784145E+02 -0.21046772315E+02  0.55173204063E+02  0.00000000000E+00 0. -1.
         -2    1    3    3    0  502  0.45829342876E+03 -0.17117887491E+03 -0.44411765406E+03  0.66073865083E+03  0.00000000000E+00 0.  1.
         11    1    5    5    0    0 -0.15153286414E+03  0.75678606417E+01  0.70507124313E+01  0.15188546334E+03  0.00000000000E+00 0.  1.
        -11    1    5    5    0    0 -0.52758508351E+03 -0.67913928017E+02  0.17609940349E+03  0.56032965464E+03  0.00000000000E+00 0. -1.
          3    1    6    6  503    0  0.10497571699E+03  0.18258792265E+03  0.24800819444E+03  0.32537104229E+03  0.00000000000E+00 0. -1.
         -3    1    6    6    0  503  0.74426245844E+02  0.78690803783E+02  0.51003540466E+02  0.11971996413E+03  0.00000000000E+00 0.  1.
<mgrwt>
<rscale>  0 0.18731409E+04</rscale>
<asrwt>0</asrwt>
<pdfrwt beam="1">  1        1 0.14540119E+00 0.18731409E+04</pdfrwt>
<pdfrwt beam="2">  1       -2 0.14278620E+00 0.18731409E+04</pdfrwt>
<totfact> 0.46892530E+00</totfact>
</mgrwt>
</event>
<event>
12    4  0.4424320E-008  0.3079372E+04  0.7818608E-02  0.8221422E-01
         -2   -1    0    0    0  501 -0.00000000000E+00  0.00000000000E+00  0.16529468664E+04  0.16529468664E+04  0.00000000000E+00 0.  1.
          1   -1    0    0  501    0  0.00000000000E+00 -0.00000000000E+00 -0.14341854828E+04  0.14341854828E+04  0.00000000000E+00 0. -1.
        -24    2    1    2    0    0  0.13107887785E+04 -0.44946891026E+03  0.34445509901E+03  0.14300209553E+04  0.78237422478E+02 0.  0.
        254    2    1    2    0    0 -0.13107887785E+04  0.44946891026E+03 -0.12569371542E+03  0.16571113939E+04  0.90001652122E+03 0.  0.
         23    2    4    4    0    0 -0.11395562619E+04  0.53876818885E+03  0.18721874367E+03  0.12778641005E+04  0.95006137327E+02 0.  0.
         23    2    4    4    0    0 -0.17123251659E+03 -0.89299278593E+02 -0.31291245909E+03  0.37924729332E+03  0.92840543633E+02 0.  0.
          3    1    3    3  502    0  0.62150428057E+03 -0.21594439765E+03  0.12341781281E+03  0.66942625446E+03  0.00000000000E+00 0. -1.
         -4    1    3    3    0  502  0.68928449790E+03 -0.23352451261E+03  0.22103728620E+03  0.76059470083E+03  0.00000000000E+00 0.  1.
         11    1    5    5    0    0 -0.38147814596E+03  0.21828543488E+03  0.95102041890E+02  0.44968711934E+03  0.00000000000E+00 0. -1.
        -11    1    5    5    0    0 -0.75807811592E+03  0.32048275398E+03  0.92116701784E+02  0.82817698120E+03  0.00000000000E+00 0.  1.
          1    1    6    6  503    0 -0.11401025319E+03 -0.84247117895E+02 -0.14946642372E+03  0.20600030710E+03  0.00000000000E+00 0. -1.
         -1    1    6    6    0  503 -0.57222263404E+02 -0.50521606978E+01 -0.16344603537E+03  0.17324698622E+03  0.00000000000E+00 0.  1.
<mgrwt>
<rscale>  0 0.30793716E+04</rscale>
<asrwt>0</asrwt>
<pdfrwt beam="1">  1        1 0.22064392E+00 0.30793716E+04</pdfrwt>
<pdfrwt beam="2">  1       -2 0.25429952E+00 0.30793716E+04</pdfrwt>
<totfact> 0.32633623E-01</totfact>
</mgrwt>
</event>
<event>
12    4  0.4424320E-008  0.1653952E+04  0.7818608E-02  0.8788072E-01
          1   -1    0    0  501    0  0.00000000000E+00  0.00000000000E+00  0.74278237253E+03  0.74278237253E+03  0.00000000000E+00 0. -1.
         -2   -1    0    0    0  501 -0.00000000000E+00 -0.00000000000E+00 -0.92071265027E+03  0.92071265027E+03  0.00000000000E+00 0.  1.
        -24    2    1    2    0    0  0.28695074921E+03  0.29869541386E+03 -0.46362011111E+03  0.62684309607E+03  0.80180901278E+02 0.  0.
        254    2    1    2    0    0 -0.28695074921E+03 -0.29869541386E+03  0.28568983337E+03  0.10366519267E+04  0.90634918964E+03 0.  0.
         23    2    4    4    0    0  0.26014198408E+03  0.89416900239E+02 -0.25485722693E+02  0.29151393562E+03  0.93067817575E+02 0.  0.
         23    2    4    4    0    0 -0.54709273329E+03 -0.38811231410E+03  0.31117555607E+03  0.74513799111E+03  0.91971582223E+02 0.  0.
          1    1    3    3  502    0  0.10078934522E+03  0.63467884617E+02 -0.10052360585E+03  0.15585781925E+03  0.00000000000E+00 0. -1.
         -2    1    3    3    0  502  0.18616140399E+03  0.23522752924E+03 -0.36309650527E+03  0.47098527682E+03  0.00000000000E+00 0.  1.
         11    1    5    5    0    0  0.14885343576E+03  0.14494990596E+02  0.17640873721E+02  0.15059432431E+03  0.00000000000E+00 0. -1.
        -11    1    5    5    0    0  0.11128854832E+03  0.74921909644E+02 -0.43126596413E+02  0.14091961131E+03  0.00000000000E+00 0.  1.
          1    1    6    6  503    0 -0.47566523292E+03 -0.30369425272E+03  0.23765117748E+03  0.61234442522E+03  0.00000000000E+00 0. -1.
         -1    1    6    6    0  503 -0.71427500371E+02 -0.84418061383E+02  0.73524378582E+02  0.13279356589E+03  0.00000000000E+00 0.  1.
<mgrwt>
<rscale>  0 0.16539518E+04</rscale>
<asrwt>0</asrwt>
<pdfrwt beam="1">  1        1 0.11427421E+00 0.16539518E+04</pdfrwt>
<pdfrwt beam="2">  1       -2 0.14164810E+00 0.16539518E+04</pdfrwt>
<totfact> 0.72440578E+00</totfact>
</mgrwt>
</event>
<event>
12    4  0.4424320E-008  0.1547650E+04  0.7818608E-02  0.8853370E-01
          1   -1    0    0  501    0  0.00000000000E+00  0.00000000000E+00  0.97262536414E+03  0.97262536414E+03  0.00000000000E+00 0. -1.
         -2   -1    0    0    0  501 -0.00000000000E+00 -0.00000000000E+00 -0.61565867117E+03  0.61565867117E+03  0.00000000000E+00 0.  1.
        -24    2    1    2    0    0  0.80966987437E+02 -0.18763013610E+03  0.59940683028E+03  0.63809409880E+03  0.78197248769E+02 0.  0.
        254    2    1    2    0    0 -0.80966987437E+02  0.18763013610E+03 -0.24244013731E+03  0.95018993651E+03  0.89572483176E+03 0.  0.
         23    2    4    4    0    0 -0.20262431938E+03 -0.89771474224E+02 -0.49178509999E+03  0.54715476370E+03  0.91707243343E+02 0.  0.
         23    2    4    4    0    0  0.12165733194E+03  0.27740161032E+03  0.24934496268E+03  0.40303517281E+03  0.92262019722E+02 0.  0.
          1    1    3    3  502    0  0.86216354800E+02 -0.19041807692E+03  0.55086529171E+03  0.58919001474E+03  0.00000000000E+00 0. -1.
         -2    1    3    3    0  502 -0.52493673636E+01  0.27879408244E+01  0.48541538570E+02  0.48904084068E+02  0.00000000000E+00 0.  1.
         11    1    5    5    0    0  0.39131359416E+01  0.97598508955E+01 -0.19144181508E+02  0.21841863657E+02  0.00000000000E+00 0. -1.
        -11    1    5    5    0    0 -0.20653745532E+03 -0.99531325119E+02 -0.47264091848E+03  0.52531290004E+03  0.00000000000E+00 0.  1.
          3    1    6    6  503    0  0.21555035639E+02  0.10187028468E+03  0.38553800229E+02  0.11103409374E+03  0.00000000000E+00 0. -1.
         -3    1    6    6    0  503  0.10010229630E+03  0.17553132564E+03  0.21079116245E+03  0.29200107906E+03  0.00000000000E+00 0.  1.
<mgrwt>
<rscale>  0 0.15476501E+04</rscale>
<asrwt>0</asrwt>
<pdfrwt beam="1">  1        1 0.14963467E+00 0.15476501E+04</pdfrwt>
<pdfrwt beam="2">  1       -2 0.94716718E-01 0.15476501E+04</pdfrwt>
<totfact> 0.12606556E+01</totfact>
</mgrwt>
</event>
<event>
12    4  0.4424320E-008  0.3183642E+04  0.7818608E-02  0.8193151E-01
         -2   -1    0    0    0  501 -0.00000000000E+00  0.00000000000E+00  0.15596584631E+04  0.15596584631E+04  0.00000000000E+00 0.  1.
          1   -1    0    0  501    0  0.00000000000E+00 -0.00000000000E+00 -0.16246465829E+04  0.16246465829E+04  0.00000000000E+00 0. -1.
        -24    2    1    2    0    0 -0.10593531211E+03 -0.11115305926E+04 -0.97634862399E+03  0.14854044621E+04  0.80294655472E+02 0.  0.
        254    2    1    2    0    0  0.10593531211E+03  0.11115305926E+04  0.91136050418E+03  0.16989005839E+04  0.89942352462E+03 0.  0.
         23    2    4    4    0    0 -0.71594341212E+02 -0.43595809364E+02  0.40246330973E+03  0.42092210090E+03  0.90401078846E+02 0.  0.
         23    2    4    4    0    0  0.17752965332E+03  0.11551264020E+04  0.50889719445E+03  0.12779784830E+04  0.91754379084E+02 0.  0.
          1    1    3    3  502    0 -0.11103875991E+03 -0.10368360532E+04 -0.93082585659E+03  0.13977823088E+04  0.00000000000E+00 0. -1.
         -2    1    3    3    0  502  0.51034477926E+01 -0.74694539374E+02 -0.45522767404E+02  0.87622153271E+02  0.00000000000E+00 0.  1.
         11    1    5    5    0    0 -0.81710269752E+02 -0.70515988816E+01  0.22574254134E+03  0.24017907528E+03  0.00000000000E+00 0. -1.
        -11    1    5    5    0    0  0.10115928541E+02 -0.36544210483E+02  0.17672076839E+03  0.18074302562E+03  0.00000000000E+00 0.  1.
          1    1    6    6  503    0  0.92064154323E+02  0.34669930156E+03  0.17535062130E+03  0.39927941921E+03  0.00000000000E+00 0. -1.
         -1    1    6    6    0  503  0.85465499001E+02  0.80842710041E+03  0.33354657315E+03  0.87869906376E+03  0.00000000000E+00 0.  1.
<mgrwt>
<rscale>  0 0.31836418E+04</rscale>
<asrwt>0</asrwt>
<pdfrwt beam="1">  1        1 0.24994563E+00 0.31836418E+04</pdfrwt>
<pdfrwt beam="2">  1       -2 0.23994746E+00 0.31836418E+04</pdfrwt>
<totfact> 0.29285363E-01</totfact>
</mgrwt>
</event>
<event>
12    4  0.4424320E-008  0.1564124E+04  0.7818608E-02  0.8842896E-01
         -2   -1    0    0    0  501 -0.00000000000E+00  0.00000000000E+00  0.26099694128E+03  0.26099694128E+03  0.00000000000E+00 0.  1.
          1   -1    0    0  501    0  0.00000000000E+00 -0.00000000000E+00 -0.23434018701E+04  0.23434018701E+04  0.00000000000E+00 0. -1.
        -24    2    1    2    0    0  0.40652102123E+03 -0.10018855665E+03 -0.17965126653E+03  0.46236684199E+03  0.78812634863E+02 0.  0.
        254    2    1    2    0    0 -0.40652102123E+03  0.10018855665E+03 -0.19027536622E+04  0.21420319694E+04  0.89024287191E+03 0.  0.
         23    2    4    4    0    0  0.31228929079E+02  0.95028277226E+02 -0.15911132426E+04  0.15968786049E+04  0.91511247474E+02 0.  0.
         23    2    4    4    0    0 -0.43774995031E+03  0.51602794250E+01 -0.31164041959E+03  0.54515336444E+03  0.91764874315E+02 0.  0.
          1    1    3    3  502    0  0.25248463990E+01  0.94286225090E+00  0.58643329022E+01  0.64540095251E+01  0.00000000000E+00 0. -1.
         -2    1    3    3    0  502  0.40399617483E+03 -0.10113141890E+03 -0.18551559944E+03  0.45591283246E+03  0.00000000000E+00 0.  1.
         11    1    5    5    0    0  0.12978617550E+02  0.96481508253E+02 -0.85281441737E+03  0.85835281582E+03  0.00000000000E+00 0.  1.
        -11    1    5    5    0    0  0.18250311529E+02 -0.14532310275E+01 -0.73829882528E+03  0.73852578909E+03  0.00000000000E+00 0. -1.
          2    1    6    6  503    0 -0.47106004626E+02  0.29692303880E+02 -0.33558028745E+02  0.65013459182E+02  0.00000000000E+00 0. -1.
         -2    1    6    6    0  503 -0.39064394568E+03 -0.24532024455E+02 -0.27808239084E+03  0.48013990526E+03  0.00000000000E+00 0.  1.
<mgrwt>
<rscale>  0 0.15641237E+04</rscale>
<asrwt>0</asrwt>
<pdfrwt beam="1">  1        1 0.36052335E+00 0.15641237E+04</pdfrwt>
<pdfrwt beam="2">  1       -2 0.40153377E-01 0.15641237E+04</pdfrwt>
<totfact> 0.86329865E+00</totfact>
</mgrwt>
</event>
<event>
12    4  0.4424320E-008  0.1416718E+04  0.7818608E-02  0.8941805E-01
         -2   -1    0    0    0  501 -0.00000000000E+00  0.00000000000E+00  0.10529423044E+04  0.10529423044E+04  0.00000000000E+00 0.  1.
          1   -1    0    0  501    0  0.00000000000E+00 -0.00000000000E+00 -0.47654351312E+03  0.47654351312E+03  0.00000000000E+00 0. -1.
        -24    2    1    2    0    0 -0.26852568594E+03 -0.35595485040E+02  0.51789207248E+03  0.58983679314E+03  0.79512019502E+02 0.  0.
        254    2    1    2    0    0  0.26852568594E+03  0.35595485040E+02  0.58506718783E+02  0.93964902436E+03  0.89785531700E+03 0.  0.
         23    2    4    4    0    0  0.89598041715E+01 -0.39976580185E+03  0.10066740771E+03  0.42240719734E+03  0.91656636272E+02 0.  0.
         23    2    4    4    0    0  0.25956588176E+03  0.43536128689E+03 -0.42160688926E+02  0.51724182701E+03  0.94062143407E+02 0.  0.
          3    1    3    3  502    0 -0.27745831424E+02 -0.16804588692E+02  0.24994447224E+02  0.40950552555E+02  0.00000000000E+00 0. -1.
         -4    1    3    3    0  502 -0.24077985451E+03 -0.18790896348E+02  0.49289762525E+03  0.54888624058E+03  0.00000000000E+00 0.  1.
         11    1    5    5    0    0 -0.21022312141E+02 -0.35906666739E+03  0.88907509173E+02  0.37050688850E+03  0.00000000000E+00 0. -1.
        -11    1    5    5    0    0  0.29982116313E+02 -0.40699134457E+02  0.11759898535E+02  0.51900308840E+02  0.00000000000E+00 0.  1.
          3    1    6    6  503    0  0.24810401667E+03  0.38917096353E+03 -0.13582762827E+02  0.46172950240E+03  0.00000000000E+00 0. -1.
         -3    1    6    6    0  503  0.11461865094E+02  0.46190323358E+02 -0.28577926099E+02  0.55512324609E+02  0.00000000000E+00 0.  1.
<mgrwt>
<rscale>  0 0.14167185E+04</rscale>
<asrwt>0</asrwt>
<pdfrwt beam="1">  1        1 0.73314387E-01 0.14167185E+04</pdfrwt>
<pdfrwt beam="2">  1       -2 0.16199112E+00 0.14167185E+04</pdfrwt>
<totfact> 0.98092625E+00</totfact>
</mgrwt>
</event>
<event>
12    4  0.4424320E-008  0.2115799E+04  0.7818608E-02  0.8554316E-01
         -2   -1    0    0    0  501 -0.00000000000E+00  0.00000000000E+00  0.91753216285E+03  0.91753216285E+03  0.00000000000E+00 0.  1.
          1   -1    0    0  501    0  0.00000000000E+00 -0.00000000000E+00 -0.12197408638E+04  0.12197408638E+04  0.00000000000E+00 0. -1.
        -24    2    1    2    0    0  0.39396412186E+03 -0.77684201412E+03 -0.20018000326E+03  0.89707865805E+03  0.77374678064E+02 0.  0.
        254    2    1    2    0    0 -0.39396412186E+03  0.77684201412E+03 -0.10202869770E+03  0.12401943686E+04  0.87691560173E+03 0.  0.
         23    2    4    4    0    0 -0.43005774430E+03  0.84515399925E+03 -0.30931731901E+03  0.10017590923E+04  0.92785393595E+02 0.  0.
         23    2    4    4    0    0  0.36093622443E+02 -0.68311985133E+02  0.20728862131E+03  0.23843527631E+03  0.88958032644E+02 0.  0.
          3    1    3    3  502    0  0.36287574049E+03 -0.65656741838E+03 -0.16811603572E+03  0.76877992910E+03  0.00000000000E+00 0. -1.
         -4    1    3    3    0  502  0.31088381373E+02 -0.12027459574E+03 -0.32063967540E+02  0.12829872895E+03  0.00000000000E+00 0.  1.
         11    1    5    5    0    0 -0.61470488141E+02  0.69069038708E+02 -0.45170256978E+02  0.10290532122E+03  0.00000000000E+00 0.  1.
        -11    1    5    5    0    0 -0.36858725616E+03  0.77608496055E+03 -0.26414706203E+03  0.89885377107E+03  0.00000000000E+00 0. -1.
          1    1    6    6  503    0  0.16644956196E+02 -0.88343400882E+02  0.15933151958E+03  0.18294300800E+03  0.00000000000E+00 0. -1.
         -1    1    6    6    0  503  0.19448666247E+02  0.20031415748E+02  0.47957101733E+02  0.55492268311E+02  0.00000000000E+00 0.  1.
<mgrwt>
<rscale>  0 0.21157991E+04</rscale>
<asrwt>0</asrwt>
<pdfrwt beam="1">  1        1 0.18765244E+00 0.21157991E+04</pdfrwt>
<pdfrwt beam="2">  1       -2 0.14115879E+00 0.21157991E+04</pdfrwt>
<totfact> 0.29277626E+00</totfact>
</mgrwt>
</event>
<event>
12    4  0.4424320E-008  0.2016638E+04  0.7818608E-02  0.8598881E-01
          1   -1    0    0  501    0  0.00000000000E+00  0.00000000000E+00  0.65741887552E+03  0.65741887552E+03  0.00000000000E+00 0. -1.
         -2   -1    0    0    0  501 -0.00000000000E+00 -0.00000000000E+00 -0.15465131510E+04  0.15465131510E+04  0.00000000000E+00 0.  1.
        -24    2    1    2    0    0  0.58894005672E+03  0.41853598453E+03 -0.73686386684E+03  0.10351419611E+04  0.80794557692E+02 0.  0.
        254    2    1    2    0    0 -0.58894005672E+03 -0.41853598453E+03 -0.15223040869E+03  0.11687900655E+04  0.90602061738E+03 0.  0.
         23    2    4    4    0    0  0.80564985711E+02 -0.12790796072E+03  0.26887517453E+03  0.32122193653E+03  0.89657736386E+02 0.  0.
         23    2    4    4    0    0 -0.66950504243E+03 -0.29062802382E+03 -0.42110558322E+03  0.84756812897E+03  0.91324536430E+02 0.  0.
          3    1    3    3  502    0  0.79166017665E+02  0.91594788860E+02 -0.13482925587E+03  0.18120648978E+03  0.00000000000E+00 0. -1.
         -4    1    3    3    0  502  0.50977403906E+03  0.32694119567E+03 -0.60203461097E+03  0.85393547129E+03  0.00000000000E+00 0.  1.
         11    1    5    5    0    0 -0.15780955338E+02 -0.32449822639E+02  0.88276480662E+02  0.95366485616E+02  0.00000000000E+00 0. -1.
        -11    1    5    5    0    0  0.96345941049E+02 -0.95458138078E+02  0.18059869387E+03  0.22585545092E+03  0.00000000000E+00 0.  1.
          2    1    6    6  503    0 -0.64825586990E+02 -0.52485445348E+02 -0.27712263373E+02  0.87892253602E+02  0.00000000000E+00 0. -1.
         -2    1    6    6    0  503 -0.60467945544E+03 -0.23814257847E+03 -0.39339331984E+03  0.75967587537E+03  0.00000000000E+00 0.  1.
<mgrwt>
<rscale>  0 0.20166377E+04</rscale>
<asrwt>0</asrwt>
<pdfrwt beam="1">  1        1 0.10114137E+00 0.20166377E+04</pdfrwt>
<pdfrwt beam="2">  1       -2 0.23792510E+00 0.20166377E+04</pdfrwt>
<totfact> 0.18532597E+00</totfact>
</mgrwt>
</event>
<event>
12    4  0.4424320E-008  0.1887871E+04  0.7818608E-02  0.8660917E-01
         -2   -1    0    0    0  501 -0.00000000000E+00  0.00000000000E+00  0.71961106010E+03  0.71961106010E+03  0.00000000000E+00 0.  1.
          1   -1    0    0  501    0  0.00000000000E+00 -0.00000000000E+00 -0.12381889405E+04  0.12381889405E+04  0.00000000000E+00 0. -1.
        -24    2    1    2    0    0  0.21985045820E+03 -0.17742303106E+03  0.49287833981E+03  0.57623241527E+03  0.96444712827E+02 0.  0.
        254    2    1    2    0    0 -0.21985045820E+03  0.17742303106E+03 -0.10114562202E+04  0.13815675853E+04  0.89770382171E+03 0.  0.
         23    2    4    4    0    0 -0.25353732001E+03 -0.23641491484E+03 -0.85641142956E+03  0.92865805597E+03  0.93766004774E+02 0.  0.
         23    2    4    4    0    0  0.33686861806E+02  0.41383794590E+03 -0.15504479060E+03  0.45290952932E+03  0.93228238899E+02 0.  0.
          1    1    3    3  502    0  0.96739994965E+02 -0.39477607353E+02  0.11394575174E+03  0.15459864957E+03  0.00000000000E+00 0. -1.
         -2    1    3    3    0  502  0.12311046323E+03 -0.13794542371E+03  0.37893258807E+03  0.42163376570E+03  0.00000000000E+00 0.  1.
         11    1    5    5    0    0 -0.79000929847E+02 -0.10975041389E+03 -0.23814326849E+03  0.27385857042E+03  0.00000000000E+00 0.  1.
        -11    1    5    5    0    0 -0.17453639016E+03 -0.12666450096E+03 -0.61826816107E+03  0.65479948555E+03  0.00000000000E+00 0. -1.
          3    1    6    6  503    0  0.30367174265E+02  0.33628624719E+03 -0.84610647748E+02  0.34809419276E+03  0.00000000000E+00 0. -1.
         -3    1    6    6    0  503  0.33196875414E+01  0.77551698716E+02 -0.70434142850E+02  0.10481533656E+03  0.00000000000E+00 0.  1.
<mgrwt>
<rscale>  0 0.18878712E+04</rscale>
<asrwt>0</asrwt>
<pdfrwt beam="1">  1        1 0.19049060E+00 0.18878712E+04</pdfrwt>
<pdfrwt beam="2">  1       -2 0.11070940E+00 0.18878712E+04</pdfrwt>
<totfact> 0.53265909E+00</totfact>
</mgrwt>
</event>
<event>
12    4  0.4424320E-008  0.1920644E+04  0.7818608E-02  0.8644648E-01
         -2   -1    0    0    0  501 -0.00000000000E+00  0.00000000000E+00  0.13302162971E+04  0.13302162971E+04  0.00000000000E+00 0.  1.
          1   -1    0    0  501    0  0.00000000000E+00 -0.00000000000E+00 -0.69328445408E+03  0.69328445408E+03  0.00000000000E+00 0. -1.
        -24    2    1    2    0    0 -0.60888050245E+03  0.24781790392E+03 -0.12400195238E+03  0.67373735230E+03  0.79977221320E+02 0.  0.
        254    2    1    2    0    0  0.60888050245E+03 -0.24781790392E+03  0.76093379538E+03  0.13497633989E+04  0.90038425807E+03 0.  0.
         23    2    4    4    0    0  0.70186080783E+02  0.16476350723E+03  0.61951645861E+03  0.65122272042E+03  0.90649268381E+02 0.  0.
         23    2    4    4    0    0  0.53869442167E+03 -0.41258141115E+03  0.14141733677E+03  0.69854067843E+03  0.86862624448E+02 0.  0.
          1    1    3    3  502    0 -0.59827926640E+03  0.24966441240E+03 -0.11247348569E+03  0.65796708459E+03  0.00000000000E+00 0. -1.
         -2    1    3    3    0  502 -0.10601236049E+02 -0.18465084877E+01 -0.11528466693E+02  0.15770267710E+02  0.00000000000E+00 0.  1.
         11    1    5    5    0    0  0.47356660445E+02  0.35769360348E+02  0.10836498306E+03  0.12355189186E+03  0.00000000000E+00 0. -1.
        -11    1    5    5    0    0  0.22829420337E+02  0.12899414688E+03  0.51115147554E+03  0.52767082856E+03  0.00000000000E+00 0.  1.
          4    1    6    6  503    0  0.23980776659E+03 -0.23543200808E+03  0.55207568202E+02  0.34056404821E+03  0.00000000000E+00 0. -1.
         -4    1    6    6    0  503  0.29888665507E+03 -0.17714940307E+03  0.86209768568E+02  0.35797663022E+03  0.00000000000E+00 0.  1.
<mgrwt>
<rscale>  0 0.19206439E+04</rscale>
<asrwt>0</asrwt>
<pdfrwt beam="1">  1        1 0.10665915E+00 0.19206439E+04</pdfrwt>
<pdfrwt beam="2">  1       -2 0.20464866E+00 0.19206439E+04</pdfrwt>
<totfact> 0.28027411E+00</totfact>
</mgrwt>
</event>
<event>
12    4  0.4424320E-008  0.1982720E+04  0.7818608E-02  0.8614743E-01
          1   -1    0    0  501    0  0.00000000000E+00  0.00000000000E+00  0.55870389237E+03  0.55870389237E+03  0.00000000000E+00 0. -1.
         -2   -1    0    0    0  501 -0.00000000000E+00 -0.00000000000E+00 -0.17590612627E+04  0.17590612627E+04  0.00000000000E+00 0.  1.
        -24    2    1    2    0    0  0.46106664213E+02  0.64734210888E+03 -0.98613520163E+03  0.11832014859E+04  0.79532947971E+02 0.  0.
        254    2    1    2    0    0 -0.46106664213E+02 -0.64734210888E+03 -0.21422216873E+03  0.11345636692E+04  0.90563014061E+03 0.  0.
         23    2    4    4    0    0 -0.15619519031E+03 -0.13437563843E+03 -0.48627547752E+03  0.53595851457E+03  0.91290413628E+02 0.  0.
         23    2    4    4    0    0  0.11008852610E+03 -0.51296647045E+03  0.27205330880E+03  0.59860515467E+03  0.95189521403E+02 0.  0.
          1    1    3    3  502    0  0.18384111823E+02  0.17997176479E+03 -0.34184845832E+03  0.38676631205E+03  0.00000000000E+00 0. -1.
         -2    1    3    3    0  502  0.27722552389E+02  0.46737034409E+03 -0.64428674331E+03  0.79643517380E+03  0.00000000000E+00 0.  1.
         11    1    5    5    0    0 -0.14969627755E+03 -0.11955338264E+03 -0.48277841106E+03  0.51940059780E+03  0.00000000000E+00 0. -1.
        -11    1    5    5    0    0 -0.64989127693E+01 -0.14822255794E+02 -0.34970664671E+01  0.16557916774E+02  0.00000000000E+00 0.  1.
          2    1    6    6  503    0  0.10371921413E+03 -0.28795627312E+03  0.18249077221E+03  0.35634165144E+03  0.00000000000E+00 0. -1.
         -2    1    6    6    0  503  0.63693119723E+01 -0.22501019733E+03  0.89562536586E+02  0.24226350323E+03  0.00000000000E+00 0.  1.
<mgrwt>
<rscale>  0 0.19827197E+04</rscale>
<asrwt>0</asrwt>
<pdfrwt beam="1">  1        1 0.85954448E-01 0.19827197E+04</pdfrwt>
<pdfrwt beam="2">  1       -2 0.27062480E+00 0.19827197E+04</pdfrwt>
<totfact> 0.14828941E+00</totfact>
</mgrwt>
</event>
<event>
12    4  0.4424320E-008  0.1456552E+04  0.7818608E-02  0.8913870E-01
         -2   -1    0    0    0  501 -0.00000000000E+00  0.00000000000E+00  0.35165656411E+03  0.35165656411E+03  0.00000000000E+00 0.  1.
          1   -1    0    0  501    0  0.00000000000E+00 -0.00000000000E+00 -0.15082505375E+04  0.15082505375E+04  0.00000000000E+00 0. -1.
        -24    2    1    2    0    0 -0.35072708867E+03  0.25563840270E+01 -0.72524324022E+03  0.80965065174E+03  0.80872705894E+02 0.  0.
        254    2    1    2    0    0  0.35072708867E+03 -0.25563840270E+01 -0.43135073319E+03  0.10502564499E+04  0.89104384275E+03 0.  0.
         23    2    4    4    0    0  0.29611748396E+03  0.18247240093E+03 -0.65103677221E+03  0.74387203806E+03  0.92276697126E+02 0.  0.
         23    2    4    4    0    0  0.54609604716E+02 -0.18502878495E+03  0.21968603902E+03  0.30638441184E+03  0.91605632414E+02 0.  0.
          3    1    3    3  502    0 -0.27263807067E+03 -0.18957047819E+00 -0.62995701979E+03  0.68642363034E+03  0.00000000000E+00 0. -1.
         -4    1    3    3    0  502 -0.78089018005E+02  0.27459545052E+01 -0.95286220429E+02  0.12322702140E+03  0.00000000000E+00 0.  1.
         11    1    5    5    0    0  0.13888719433E+03  0.33266504992E+02 -0.24423927767E+03  0.28292956343E+03  0.00000000000E+00 0.  1.
        -11    1    5    5    0    0  0.15723028963E+03  0.14920589594E+03 -0.40679749454E+03  0.46094247463E+03  0.00000000000E+00 0. -1.
          4    1    6    6  503    0  0.12184442402E+02 -0.15346325414E+03  0.19381543204E+03  0.24751535852E+03  0.00000000000E+00 0. -1.
         -4    1    6    6    0  503  0.42425162313E+02 -0.31565530812E+02  0.25870606977E+02  0.58869053315E+02  0.00000000000E+00 0.  1.
<mgrwt>
<rscale>  0 0.14565524E+04</rscale>
<asrwt>0</asrwt>
<pdfrwt beam="1">  1        1 0.23203854E+00 0.14565524E+04</pdfrwt>
<pdfrwt beam="2">  1       -2 0.54101010E-01 0.14565524E+04</pdfrwt>
<totfact> 0.17692087E+01</totfact>
</mgrwt>
</event>
<event>
12    4  0.4424320E-008  0.1193814E+04  0.7818608E-02  0.9118288E-01
         -2   -1    0    0    0  501 -0.00000000000E+00  0.00000000000E+00  0.12710782873E+04  0.12710782873E+04  0.00000000000E+00 0.  1.
          1   -1    0    0  501    0  0.00000000000E+00 -0.00000000000E+00 -0.28031158021E+03  0.28031158021E+03  0.00000000000E+00 0. -1.
        -24    2    1    2    0    0 -0.23058185379E+03 -0.57281201754E+02  0.15148750631E+03  0.29162000335E+03  0.75130782088E+02 0.  0.
        254    2    1    2    0    0  0.23058185379E+03  0.57281201754E+02  0.83927920075E+03  0.12597698641E+04  0.90894521638E+03 0.  0.
         23    2    4    4    0    0 -0.22084750679E+01  0.37602585602E+03  0.73902306646E+02  0.39370662388E+03  0.90238755568E+02 0.  0.
         23    2    4    4    0    0  0.23279032885E+03 -0.31874465427E+03  0.76537689411E+03  0.86606324024E+03  0.92055712705E+02 0.  0.
          1    1    3    3  502    0 -0.53120666696E+02 -0.18313649378E+02  0.18108002647E+01  0.56218093007E+02  0.00000000000E+00 0. -1.
         -2    1    3    3    0  502 -0.17746118709E+03 -0.38967552376E+02  0.14967670604E+03  0.23540191034E+03  0.00000000000E+00 0.  1.
         11    1    5    5    0    0 -0.20165092729E+02  0.19989138725E+02 -0.43636982600E+01  0.28726964584E+02  0.00000000000E+00 0.  1.
        -11    1    5    5    0    0  0.17956617661E+02  0.35603671729E+03  0.78266004906E+02  0.36497965930E+03  0.00000000000E+00 0. -1.
          4    1    6    6  503    0  0.22372495614E+03 -0.25301865395E+03  0.61343617975E+03  0.70026797862E+03  0.00000000000E+00 0. -1.
         -4    1    6    6    0  503  0.90653727101E+01 -0.65726000313E+02  0.15194071435E+03  0.16579526162E+03  0.00000000000E+00 0.  1.
<mgrwt>
<rscale>  0 0.11938140E+04</rscale>
<asrwt>0</asrwt>
<pdfrwt beam="1">  1        1 0.43124859E-01 0.11938140E+04</pdfrwt>
<pdfrwt beam="2">  1       -2 0.19555050E+00 0.11938140E+04</pdfrwt>
<totfact> 0.11770274E+01</totfact>
</mgrwt>
</event>
<event>
12    4  0.4424320E-008  0.1595029E+04  0.7818608E-02  0.8823608E-01
          1   -1    0    0  501    0  0.00000000000E+00  0.00000000000E+00  0.14734671493E+04  0.14734671493E+04  0.00000000000E+00 0. -1.
         -2   -1    0    0    0  501 -0.00000000000E+00 -0.00000000000E+00 -0.43165484568E+03  0.43165484568E+03  0.00000000000E+00 0.  1.
        -24    2    1    2    0    0 -0.29095571352E+03  0.24534210114E+03  0.81145852005E+03  0.89986059274E+03  0.80225823660E+02 0.  0.
        254    2    1    2    0    0  0.29095571352E+03 -0.24534210114E+03  0.23035378357E+03  0.10052614022E+04  0.90146527797E+03 0.  0.
         23    2    4    4    0    0  0.47172962399E+03  0.17605256171E+03  0.14204394641E+03  0.52948535423E+03  0.81577662337E+02 0.  0.
         23    2    4    4    0    0 -0.18077391047E+03 -0.42139466285E+03  0.88309837156E+02  0.47577604800E+03  0.91167713191E+02 0.  0.
          3    1    3    3  502    0 -0.28712346047E+03  0.22038459054E+03  0.73402651425E+03  0.81841564802E+03  0.00000000000E+00 0. -1.
         -4    1    3    3    0  502 -0.38322530572E+01  0.24957510595E+02  0.77432005793E+02  0.81444944716E+02  0.00000000000E+00 0.  1.
         11    1    5    5    0    0  0.45468850127E+03  0.17261160243E+03  0.15187651122E+03  0.50951238762E+03  0.00000000000E+00 0.  1.
        -11    1    5    5    0    0  0.17041122721E+02  0.34409592808E+01 -0.98325648044E+01  0.19972966605E+02  0.00000000000E+00 0. -1.
          1    1    6    6  503    0 -0.11291406259E+02 -0.31036619924E+02  0.32906493855E+02  0.46621936569E+02  0.00000000000E+00 0. -1.
         -1    1    6    6    0  503 -0.16948250421E+03 -0.39035804293E+03  0.55403343301E+02  0.42915411143E+03  0.00000000000E+00 0.  1.
<mgrwt>
<rscale>  0 0.15950288E+04</rscale>
<asrwt>0</asrwt>
<pdfrwt beam="1">  1        1 0.22668725E+00 0.15950288E+04</pdfrwt>
<pdfrwt beam="2">  1       -2 0.66408439E-01 0.15950288E+04</pdfrwt>
<totfact> 0.11983407E+01</totfact>
</mgrwt>
</event>
<event>
12    4  0.4424320E-008  0.1573232E+04  0.7818608E-02  0.8837164E-01
         -2   -1    0    0    0  501 -0.00000000000E+00  0.00000000000E+00  0.56915410862E+03  0.56915410862E+03  0.00000000000E+00 0.  1.
          1   -1    0    0  501    0  0.00000000000E+00 -0.00000000000E+00 -0.10871653720E+04  0.10871653720E+04  0.00000000000E+00 0. -1.
        -24    2    1    2    0    0  0.11112782493E+03 -0.11440314669E+03 -0.70491131063E+03  0.72701057399E+03  0.78784169599E+02 0.  0.
        254    2    1    2    0    0 -0.11112782493E+03  0.11440314669E+03  0.18690004727E+03  0.92930890661E+03  0.89623989131E+03 0.  0.
         23    2    4    4    0    0  0.21377944188E+03 -0.17140521781E+03  0.35367759513E+03  0.45664104959E+03  0.91388229049E+02 0.  0.
         23    2    4    4    0    0 -0.32490726681E+03  0.28580836449E+03 -0.16677754786E+03  0.47266785702E+03  0.91372858935E+02 0.  0.
          3    1    3    3  502    0  0.11878809693E+03 -0.11911360246E+03 -0.68084090894E+03  0.70131519700E+03  0.00000000000E+00 0. -1.
         -4    1    3    3    0  502 -0.76602719927E+01  0.47104557663E+01 -0.24070401695E+02  0.25695376982E+02  0.00000000000E+00 0.  1.
         11    1    5    5    0    0  0.20380549876E+03 -0.12432637850E+03  0.27262385412E+03  0.36237755939E+03  0.00000000000E+00 0.  1.
        -11    1    5    5    0    0  0.99739431176E+01 -0.47078839305E+02  0.81053741011E+02  0.94263490194E+02  0.00000000000E+00 0. -1.
          4    1    6    6  503    0 -0.58346752694E+02  0.14949218141E+02 -0.78181166201E+01  0.60736690891E+02  0.00000000000E+00 0. -1.
         -4    1    6    6    0  503 -0.26656051412E+03  0.27085914635E+03 -0.15895943124E+03  0.41193116613E+03  0.00000000000E+00 0.  1.
<mgrwt>
<rscale>  0 0.15732319E+04</rscale>
<asrwt>0</asrwt>
<pdfrwt beam="1">  1        1 0.16725621E+00 0.15732319E+04</pdfrwt>
<pdfrwt beam="2">  1       -2 0.87562171E-01 0.15732319E+04</pdfrwt>
<totfact> 0.12307789E+01</totfact>
</mgrwt>
</event>
<event>
12    4  0.4424320E-008  0.2354282E+04  0.7818608E-02  0.8456821E-01
          1   -1    0    0  501    0  0.00000000000E+00  0.00000000000E+00  0.11134049350E+04  0.11134049350E+04  0.00000000000E+00 0. -1.
         -2   -1    0    0    0  501 -0.00000000000E+00 -0.00000000000E+00 -0.12445255844E+04  0.12445255844E+04  0.00000000000E+00 0.  1.
        -24    2    1    2    0    0  0.33126368458E+03 -0.44693395438E+03  0.77831356074E+03  0.95993554678E+03  0.78858524163E+02 0.  0.
        254    2    1    2    0    0 -0.33126368458E+03  0.44693395438E+03 -0.90943421019E+03  0.13979949727E+04  0.90434162386E+03 0.  0.
         23    2    4    4    0    0  0.62928310935E+02  0.52684099985E+03 -0.19119291119E+03  0.57008409523E+03  0.83184943951E+02 0.  0.
         23    2    4    4    0    0 -0.39419199552E+03 -0.79907045475E+02 -0.71824129900E+03  0.82791087744E+03  0.88280191160E+02 0.  0.
          1    1    3    3  502    0  0.18707875608E+03 -0.31310877055E+03  0.52306313049E+03  0.63767593781E+03  0.00000000000E+00 0. -1.
         -2    1    3    3    0  502  0.14418492850E+03 -0.13382518382E+03  0.25525043025E+03  0.32225960897E+03  0.00000000000E+00 0.  1.
         11    1    5    5    0    0  0.99552166452E+01  0.85838240436E+02  0.24177871663E+00  0.86413935893E+02  0.00000000000E+00 0.  1.
        -11    1    5    5    0    0  0.52973094290E+02  0.44100275941E+03 -0.19143468991E+03  0.48367015933E+03  0.00000000000E+00 0. -1.
          1    1    6    6  503    0 -0.27334970329E+03 -0.84232119432E+02 -0.44351268208E+03  0.52774862330E+03  0.00000000000E+00 0. -1.
         -1    1    6    6    0  503 -0.12084229223E+03  0.43250739578E+01 -0.27472861691E+03  0.30016225414E+03  0.00000000000E+00 0.  1.
<mgrwt>
<rscale>  0 0.23542820E+04</rscale>
<asrwt>0</asrwt>
<pdfrwt beam="1">  1        1 0.17129307E+00 0.23542820E+04</pdfrwt>
<pdfrwt beam="2">  1       -2 0.19146547E+00 0.23542820E+04</pdfrwt>
<totfact> 0.14812526E+00</totfact>
</mgrwt>
</event>
<event>
12    4  0.4424320E-008  0.1208566E+04  0.7818608E-02  0.9105392E-01
          1   -1    0    0  501    0  0.00000000000E+00  0.00000000000E+00  0.97766294476E+03  0.97766294476E+03  0.00000000000E+00 0. -1.
         -2   -1    0    0    0  501 -0.00000000000E+00 -0.00000000000E+00 -0.37350080847E+03  0.37350080847E+03  0.00000000000E+00 0.  1.
        -24    2    1    2    0    0  0.87277361354E+02 -0.24186954926E+03  0.19254414073E+03  0.33117519306E+03  0.80532885880E+02 0.  0.
        254    2    1    2    0    0 -0.87277361354E+02  0.24186954926E+03  0.41161799556E+03  0.10199885602E+04  0.89712266271E+03 0.  0.
         23    2    4    4    0    0 -0.28776185610E+03  0.50576269805E+03  0.26070217344E+03  0.64423518583E+03  0.92035639103E+02 0.  0.
         23    2    4    4    0    0  0.20048449474E+03 -0.26389314879E+03  0.15091582213E+03  0.37575337435E+03  0.92635772545E+02 0.  0.
          3    1    3    3  502    0  0.48064575473E+02 -0.89106585218E+02  0.12162248997E+03  0.15824732861E+03  0.00000000000E+00 0. -1.
         -4    1    3    3    0  502  0.39212785882E+02 -0.15276296404E+03  0.70921650754E+02  0.17292786445E+03  0.00000000000E+00 0.  1.
         11    1    5    5    0    0 -0.16670681626E+03  0.20156563385E+03  0.12320989048E+03  0.28913758740E+03  0.00000000000E+00 0. -1.
        -11    1    5    5    0    0 -0.12105503984E+03  0.30419706419E+03  0.13749228296E+03  0.35509759843E+03  0.00000000000E+00 0.  1.
          3    1    6    6  503    0  0.20487179952E+03 -0.26749771202E+03  0.14303881181E+03  0.36604314207E+03  0.00000000000E+00 0. -1.
         -3    1    6    6    0  503 -0.43873047776E+01  0.36045632299E+01  0.78770103182E+01  0.97102322754E+01  0.00000000000E+00 0.  1.
<mgrwt>
<rscale>  0 0.12085659E+04</rscale>
<asrwt>0</asrwt>
<pdfrwt beam="1">  1        1 0.15040968E+00 0.12085659E+04</pdfrwt>
<pdfrwt beam="2">  1       -2 0.57461663E-01 0.12085659E+04</pdfrwt>
<totfact> 0.38759333E+01</totfact>
</mgrwt>
</event>
<event>
12    4  0.4424320E-008  0.2553436E+04  0.7818608E-02  0.8384192E-01
         -2   -1    0    0    0  501 -0.00000000000E+00  0.00000000000E+00  0.10683480730E+04  0.10683480730E+04  0.00000000000E+00 0.  1.
          1   -1    0    0  501    0  0.00000000000E+00 -0.00000000000E+00 -0.15257282244E+04  0.15257282244E+04  0.00000000000E+00 0. -1.
        -24    2    1    2    0    0  0.36158467221E+03  0.89415557231E+03 -0.76822414327E+03  0.12356027094E+04  0.79297279270E+02 0.  0.
        254    2    1    2    0    0 -0.36158467221E+03 -0.89415557231E+03  0.31084399187E+03  0.13584735881E+04  0.90474794257E+03 0.  0.
         23    2    4    4    0    0 -0.30632129769E+03 -0.19598599548E+01  0.33030097621E+03  0.45974407553E+03  0.91811228239E+02 0.  0.
         23    2    4    4    0    0 -0.55263374513E+02 -0.89219571236E+03 -0.19456984338E+02  0.89872951256E+03  0.90933672505E+02 0.  0.
          3    1    3    3  502    0  0.28298566651E+03  0.75294375636E+03 -0.61080714523E+03  0.10099953249E+04  0.00000000000E+00 0. -1.
         -4    1    3    3    0  502  0.78599005691E+02  0.14121181595E+03 -0.15741699804E+03  0.22560738448E+03  0.00000000000E+00 0.  1.
         11    1    5    5    0    0 -0.64381353922E+02  0.25713854714E+02  0.11710836585E+03  0.13609015545E+03  0.00000000000E+00 0. -1.
        -11    1    5    5    0    0 -0.24193994377E+03 -0.27673714669E+02  0.21319261035E+03  0.32365392008E+03  0.00000000000E+00 0.  1.
          1    1    6    6  503    0 -0.24743715826E+02 -0.11126162308E+03 -0.27119516604E+02  0.11716171911E+03  0.00000000000E+00 0. -1.
         -1    1    6    6    0  503 -0.30519658686E+02 -0.78093408928E+03  0.76625322660E+01  0.78156779345E+03  0.00000000000E+00 0.  1.
<mgrwt>
<rscale>  0 0.25534360E+04</rscale>
<asrwt>0</asrwt>
<pdfrwt beam="1">  1        1 0.23472742E+00 0.25534360E+04</pdfrwt>
<pdfrwt beam="2">  1       -2 0.16436124E+00 0.25534360E+04</pdfrwt>
<totfact> 0.11409682E+00</totfact>
</mgrwt>
</event>
<event>
12    4  0.4424320E-008  0.1019241E+04  0.7818608E-02  0.9287690E-01
          1   -1    0    0  501    0  0.00000000000E+00  0.00000000000E+00  0.12502472156E+04  0.12502472156E+04  0.00000000000E+00 0. -1.
         -2   -1    0    0    0  501 -0.00000000000E+00 -0.00000000000E+00 -0.20772931055E+03  0.20772931055E+03  0.00000000000E+00 0.  1.
        -24    2    1    2    0    0  0.13830913525E+02 -0.55472345266E+02  0.29129429863E+03  0.30698790427E+03  0.78235092453E+02 0.  0.
        254    2    1    2    0    0 -0.13830913525E+02  0.55472345266E+02  0.75122360643E+03  0.11509886219E+04  0.87015482854E+03 0.  0.
         23    2    4    4    0    0  0.13052071413E+02  0.31442422954E+03 -0.23463182593E+02  0.32875334532E+03  0.92169888979E+02 0.  0.
         23    2    4    4    0    0 -0.26882984937E+02 -0.25895188427E+03  0.77468678902E+03  0.82223527658E+03  0.90290950411E+02 0.  0.
          3    1    3    3  502    0 -0.32545596538E+02 -0.19386537885E+02  0.12518764524E+03  0.13079373160E+03  0.00000000000E+00 0. -1.
         -4    1    3    3    0  502  0.46376510062E+02 -0.36085807382E+02  0.16610665340E+03  0.17619417267E+03  0.00000000000E+00 0.  1.
         11    1    5    5    0    0 -0.25580907439E+02  0.11539813401E+03  0.23810554214E+02  0.12057385558E+03  0.00000000000E+00 0.  1.
        -11    1    5    5    0    0  0.38632978851E+02  0.19902609553E+03 -0.47273736807E+02  0.20817948974E+03  0.00000000000E+00 0. -1.
          1    1    6    6  503    0  0.15399709867E+02 -0.98665369446E+02  0.19185456253E+03  0.21628726119E+03  0.00000000000E+00 0. -1.
         -1    1    6    6    0  503 -0.42282694805E+02 -0.16028651482E+03  0.58283222649E+03  0.60594801538E+03  0.00000000000E+00 0.  1.
<mgrwt>
<rscale>  0 0.10192409E+04</rscale>
<asrwt>0</asrwt>
<pdfrwt beam="1">  1        1 0.19234572E+00 0.10192409E+04</pdfrwt>
<pdfrwt beam="2">  1       -2 0.31958356E-01 0.10192409E+04</pdfrwt>
<totfact> 0.78530027E+01</totfact>
</mgrwt>
</event>
<event>
12    4  0.4424320E-008  0.1687344E+04  0.7818608E-02  0.8768615E-01
          1   -1    0    0  501    0  0.00000000000E+00  0.00000000000E+00  0.50313684114E+03  0.50313684114E+03  0.00000000000E+00 0. -1.
         -2   -1    0    0    0  501 -0.00000000000E+00 -0.00000000000E+00 -0.14146899586E+04  0.14146899586E+04  0.00000000000E+00 0.  1.
        -24    2    1    2    0    0  0.18321487828E+03  0.33649689969E+03  0.19776285535E+03  0.43827571490E+03  0.78597711093E+02 0.  0.
        254    2    1    2    0    0 -0.18321487828E+03 -0.33649689969E+03 -0.11093159728E+04  0.14795510848E+04  0.90093930425E+03 0.  0.
         23    2    4    4    0    0 -0.29384218911E+03  0.95101202359E+02 -0.48385663750E+02  0.32524704494E+03  0.89760776502E+02 0.  0.
         23    2    4    4    0    0  0.11062731082E+03 -0.43159810205E+03 -0.10609303090E+04  0.11543040399E+04  0.91265394428E+02 0.  0.
          3    1    3    3  502    0  0.15670731589E+02  0.23955220991E+02  0.42305769118E+02  0.51080353776E+02  0.00000000000E+00 0. -1.
         -4    1    3    3    0  502  0.16754414669E+03  0.31254167870E+03  0.15545708623E+03  0.38719536112E+03  0.00000000000E+00 0.  1.
         11    1    5    5    0    0 -0.73979169742E+02 -0.11303763900E+02  0.57633056946E+01  0.75059365348E+02  0.00000000000E+00 0. -1.
        -11    1    5    5    0    0 -0.21986301937E+03  0.10640496626E+03 -0.54148969444E+02  0.25018767960E+03  0.00000000000E+00 0.  1.
          1    1    6    6  503    0  0.26382331009E+02 -0.20933852113E+03 -0.40556626354E+03  0.45716806313E+03  0.00000000000E+00 0. -1.
         -1    1    6    6    0  503  0.84244979816E+02 -0.22225958091E+03 -0.65536404549E+03  0.69713597673E+03  0.00000000000E+00 0.  1.
<mgrwt>
<rscale>  0 0.16873442E+04</rscale>
<asrwt>0</asrwt>
<pdfrwt beam="1">  1        1 0.77405670E-01 0.16873442E+04</pdfrwt>
<pdfrwt beam="2">  1       -2 0.21764460E+00 0.16873442E+04</pdfrwt>
<totfact> 0.37436988E+00</totfact>
</mgrwt>
</event>
<event>
12    4  0.4424320E-008  0.2131987E+04  0.7818608E-02  0.8547282E-01
          1   -1    0    0  501    0  0.00000000000E+00  0.00000000000E+00  0.30497396548E+04  0.30497396548E+04  0.00000000000E+00 0. -1.
         -2   -1    0    0    0  501 -0.00000000000E+00 -0.00000000000E+00 -0.37260286027E+03  0.37260286027E+03  0.00000000000E+00 0.  1.
        -24    2    1    2    0    0  0.47809552964E+03 -0.45975493046E+03  0.20201185830E+04  0.21279137524E+04  0.84781583363E+02 0.  0.
        254    2    1    2    0    0 -0.47809552964E+03  0.45975493046E+03  0.65701821158E+03  0.12944287627E+04  0.89661751029E+03 0.  0.
         23    2    4    4    0    0 -0.50970395568E+03  0.27499355607E+03 -0.20173363547E+02  0.58679283563E+03  0.92191588745E+02 0.  0.
         23    2    4    4    0    0  0.31608426040E+02  0.18476137439E+03  0.67719157513E+03  0.70763592705E+03  0.83811203109E+02 0.  0.
          3    1    3    3  502    0  0.47890203220E+03 -0.45821038663E+03  0.20202198109E+04  0.21261683845E+04  0.00000000000E+00 0. -1.
         -4    1    3    3    0  502 -0.80650256106E+00 -0.15445438327E+01 -0.10122793940E+00  0.17453679062E+01  0.00000000000E+00 0.  1.
         11    1    5    5    0    0 -0.41436189942E+03  0.20071868440E+03 -0.47569420354E+02  0.46286782531E+03  0.00000000000E+00 0.  1.
        -11    1    5    5    0    0 -0.95342056258E+02  0.74274871670E+02  0.27396056807E+02  0.12392501032E+03  0.00000000000E+00 0. -1.
          1    1    6    6  503    0  0.25237767015E+02  0.15799021361E+02  0.51367811783E+02  0.59373445640E+02  0.00000000000E+00 0. -1.
         -1    1    6    6    0  503  0.63706590251E+01  0.16896235303E+03  0.62582376334E+03  0.64826248141E+03  0.00000000000E+00 0.  1.
<mgrwt>
<rscale>  0 0.21319866E+04</rscale>
<asrwt>0</asrwt>
<pdfrwt beam="1">  1        1 0.46919070E+00 0.21319866E+04</pdfrwt>
<pdfrwt beam="2">  1       -2 0.57323519E-01 0.21319866E+04</pdfrwt>
<totfact> 0.12647979E+00</totfact>
</mgrwt>
</event>
<event>
12    4  0.4424320E-008  0.1573017E+04  0.7818608E-02  0.8837298E-01
          1   -1    0    0  501    0  0.00000000000E+00  0.00000000000E+00  0.91308595191E+03  0.91308595191E+03  0.00000000000E+00 0. -1.
         -2   -1    0    0    0  501 -0.00000000000E+00 -0.00000000000E+00 -0.67747835316E+03  0.67747835316E+03  0.00000000000E+00 0.  1.
        -24    2    1    2    0    0 -0.77142639656E+02  0.36364197345E+02  0.61063190971E+03  0.62201099758E+03  0.82176701440E+02 0.  0.
        254    2    1    2    0    0  0.77142639656E+02 -0.36364197345E+02 -0.37502431096E+03  0.96855330749E+03  0.88892009424E+03 0.  0.
         23    2    4    4    0    0 -0.19922411222E+03 -0.18632122110E+03  0.16931517636E+03  0.33332950258E+03  0.89638630175E+02 0.  0.
         23    2    4    4    0    0  0.27636675188E+03  0.14995702376E+03 -0.54433948732E+03  0.63522380491E+03  0.91313275821E+02 0.  0.
          1    1    3    3  502    0 -0.94903163617E+02  0.31521794523E+02  0.51118482303E+03  0.52087441604E+03  0.00000000000E+00 0. -1.
         -2    1    3    3    0  502  0.17760523961E+02  0.48424028224E+01  0.99447086678E+02  0.10113658154E+03  0.00000000000E+00 0.  1.
         11    1    5    5    0    0 -0.10567806585E+03 -0.15453819884E+03  0.12456316416E+03  0.22486860690E+03  0.00000000000E+00 0. -1.
        -11    1    5    5    0    0 -0.93546046375E+02 -0.31783022263E+02  0.44752012207E+02  0.10846089569E+03  0.00000000000E+00 0.  1.
          2    1    6    6  503    0  0.11669596504E+03  0.95415709193E+02 -0.18810854670E+03  0.24105379308E+03  0.00000000000E+00 0. -1.
         -2    1    6    6    0  503  0.15967078684E+03  0.54541314566E+02 -0.35623094062E+03  0.39417001182E+03  0.00000000000E+00 0.  1.
<mgrwt>
<rscale>  0 0.15730174E+04</rscale>
<asrwt>0</asrwt>
<pdfrwt beam="1">  1        1 0.14047476E+00 0.15730174E+04</pdfrwt>
<pdfrwt beam="2">  1       -2 0.10422744E+00 0.15730174E+04</pdfrwt>
<totfact> 0.11195264E+01</totfact>
</mgrwt>
</event>
<event>
12    4  0.4424320E-008  0.1173265E+04  0.7818608E-02  0.9136585E-01
          3   -1    0    0  501    0  0.00000000000E+00  0.00000000000E+00  0.45884389623E+03  0.45884389623E+03  0.00000000000E+00 0. -1.
         -4   -1    0    0    0  501 -0.00000000000E+00 -0.00000000000E+00 -0.75000982438E+03  0.75000982438E+03  0.00000000000E+00 0.  1.
        -24    2    1    2    0    0 -0.67253824774E+02 -0.15177675555E+03  0.10451307758E+03  0.21127385929E+03  0.78449982549E+02 0.  0.
        254    2    1    2    0    0  0.67253824774E+02  0.15177675555E+03 -0.39567900573E+03  0.99757986132E+03  0.90058005955E+03 0.  0.
         23    2    4    4    0    0 -0.81499125700E+02  0.22526169972E+03  0.22982871497E+03  0.34392562908E+03  0.89881362166E+02 0.  0.
         23    2    4    4    0    0  0.14875295047E+03 -0.73484944168E+02 -0.62550772070E+03  0.65365423224E+03  0.92067743383E+02 0.  0.
          3    1    3    3  502    0 -0.98326532622E+01 -0.88752316367E+02  0.20587538425E+02  0.91637882282E+02  0.00000000000E+00 0. -1.
         -4    1    3    3    0  502 -0.57421171512E+02 -0.63024439182E+02  0.83925539155E+02  0.11963597701E+03  0.00000000000E+00 0.  1.
         11    1    5    5    0    0 -0.47107967864E+02  0.21480550554E+03  0.19699616327E+03  0.29524236517E+03  0.00000000000E+00 0. -1.
        -11    1    5    5    0    0 -0.34391157836E+02  0.10456194174E+02  0.32832551703E+02  0.48683263913E+02  0.00000000000E+00 0.  1.
          3    1    6    6  503    0  0.11705548230E+03 -0.10614669873E+02 -0.34616058108E+03  0.36557051994E+03  0.00000000000E+00 0. -1.
         -3    1    6    6    0  503  0.31697468173E+02 -0.62870274295E+02 -0.27934713962E+03  0.28808371230E+03  0.00000000000E+00 0.  1.
<mgrwt>
<rscale>  0 0.11732646E+04</rscale>
<asrwt>0</asrwt>
<pdfrwt beam="1">  1        3 0.70591370E-01 0.11732646E+04</pdfrwt>
<pdfrwt beam="2">  1       -4 0.11538613E+00 0.11732646E+04</pdfrwt>
<totfact> 0.25261151E+00</totfact>
</mgrwt>
</event>
<event>
12    4  0.4424320E-008  0.1176848E+04  0.7818608E-02  0.9133367E-01
         -2   -1    0    0    0  501 -0.00000000000E+00  0.00000000000E+00  0.24229838251E+03  0.24229838251E+03  0.00000000000E+00 0.  1.
          1   -1    0    0  501    0  0.00000000000E+00 -0.00000000000E+00 -0.14289925147E+04  0.14289925147E+04  0.00000000000E+00 0. -1.
        -24    2    1    2    0    0 -0.19111946543E+03 -0.13422733461E+03 -0.35682753476E+03  0.43384417165E+03  0.79694719349E+02 0.  0.
        254    2    1    2    0    0  0.19111946543E+03  0.13422733461E+03 -0.82986659740E+03  0.12374467255E+04  0.88772304330E+03 0.  0.
         23    2    4    4    0    0 -0.50672248425E+01 -0.31622243791E+03 -0.86123425378E+02  0.34136025276E+03  0.95327177468E+02 0.  0.
         23    2    4    4    0    0  0.19618669027E+03  0.45044977252E+03 -0.74374317202E+03  0.89608647276E+03  0.91776062968E+02 0.  0.
          3    1    3    3  502    0 -0.18518755185E+03 -0.11749796980E+03 -0.28367488785E+03  0.35856888357E+03  0.00000000000E+00 0. -1.
         -4    1    3    3    0  502 -0.59319135737E+01 -0.16729364806E+02 -0.73152646915E+02  0.75275288084E+02  0.00000000000E+00 0.  1.
         11    1    5    5    0    0 -0.26807087617E+02 -0.61902793559E+02  0.10826225632E+02  0.68321175037E+02  0.00000000000E+00 0.  1.
        -11    1    5    5    0    0  0.21739862775E+02 -0.25431964435E+03 -0.96949651010E+02  0.27303907773E+03  0.00000000000E+00 0. -1.
          2    1    6    6  503    0  0.16600519603E+03  0.42152593493E+03 -0.63893815800E+03  0.78325207224E+03  0.00000000000E+00 0. -1.
         -2    1    6    6    0  503  0.30181494237E+02  0.28923837588E+02 -0.10480501403E+03  0.11283440052E+03  0.00000000000E+00 0.  1.
<mgrwt>
<rscale>  0 0.11768476E+04</rscale>
<asrwt>0</asrwt>
<pdfrwt beam="1">  1        1 0.21984501E+00 0.11768476E+04</pdfrwt>
<pdfrwt beam="2">  1       -2 0.37276673E-01 0.11768476E+04</pdfrwt>
<totfact> 0.43257024E+01</totfact>
</mgrwt>
</event>
<event>
12    4  0.4424320E-008  0.1714694E+04  0.7818608E-02  0.8753028E-01
         -2   -1    0    0    0  501 -0.00000000000E+00  0.00000000000E+00  0.10252344532E+04  0.10252344532E+04  0.00000000000E+00 0.  1.
          1   -1    0    0  501    0  0.00000000000E+00 -0.00000000000E+00 -0.71695189457E+03  0.71695189457E+03  0.00000000000E+00 0. -1.
        -24    2    1    2    0    0  0.17115793893E+03 -0.50780687779E+03 -0.19656502202E+03  0.57665930036E+03  0.82068725001E+02 0.  0.
        254    2    1    2    0    0 -0.17115793893E+03  0.50780687779E+03  0.50484758068E+03  0.11655270474E+04  0.90355926945E+03 0.  0.
         23    2    4    4    0    0  0.15117936456E+03  0.11020730114E+03 -0.20087133783E+03  0.28917595648E+03  0.90953779213E+02 0.  0.
         23    2    4    4    0    0 -0.32233730349E+03  0.39759957666E+03  0.70571891850E+03  0.87635109096E+03  0.89248429210E+02 0.  0.
          1    1    3    3  502    0  0.17218664525E+03 -0.50663015945E+03 -0.20127715209E+03  0.57169471855E+03  0.00000000000E+00 0. -1.
         -2    1    3    3    0  502 -0.10287063149E+01 -0.11767183418E+01  0.47121300739E+01  0.49645818123E+01  0.00000000000E+00 0.  1.
         11    1    5    5    0    0  0.42841195466E+02  0.77802253840E+02 -0.12365438864E+03  0.15224640082E+03  0.00000000000E+00 0. -1.
        -11    1    5    5    0    0  0.10833816909E+03  0.32405047298E+02 -0.77216949187E+02  0.13692955566E+03  0.00000000000E+00 0.  1.
          1    1    6    6  503    0 -0.28868789812E+03  0.37132819131E+03  0.67898136728E+03  0.82597882860E+03  0.00000000000E+00 0. -1.
         -1    1    6    6    0  503 -0.33649405374E+02  0.26271385348E+02  0.26737551223E+02  0.50372262363E+02  0.00000000000E+00 0.  1.
<mgrwt>
<rscale>  0 0.17146939E+04</rscale>
<asrwt>0</asrwt>
<pdfrwt beam="1">  1        1 0.11030029E+00 0.17146939E+04</pdfrwt>
<pdfrwt beam="2">  1       -2 0.15772838E+00 0.17146939E+04</pdfrwt>
<totfact> 0.57215468E+00</totfact>
</mgrwt>
</event>
<event>
12    4  0.4424320E-008  0.1105285E+04  0.7818608E-02  0.9200056E-01
          3   -1    0    0  501    0  0.00000000000E+00  0.00000000000E+00  0.15644476004E+03  0.15644476004E+03  0.00000000000E+00 0. -1.
         -4   -1    0    0    0  501 -0.00000000000E+00 -0.00000000000E+00 -0.19522162577E+04  0.19522162577E+04  0.00000000000E+00 0.  1.
        -24    2    1    2    0    0 -0.14447577670E+03  0.69324456204E+02 -0.47400712315E+03  0.50698519740E+03  0.81682968290E+02 0.  0.
        254    2    1    2    0    0  0.14447577670E+03 -0.69324456204E+02 -0.13217643745E+04  0.16016758203E+04  0.89029503056E+03 0.  0.
         23    2    4    4    0    0  0.27964225000E+03  0.24591830420E+03 -0.21542742909E+03  0.43984036792E+03  0.91514871606E+02 0.  0.
         23    2    4    4    0    0 -0.13516647329E+03 -0.31524276041E+03 -0.11063369454E+04  0.11618354524E+04  0.90731517039E+02 0.  0.
          1    1    3    3  502    0 -0.29773974912E+02  0.60719865878E+00 -0.26277253937E+02  0.39715895391E+02  0.00000000000E+00 0. -1.
         -2    1    3    3    0  502 -0.11470180179E+03  0.68717257546E+02 -0.44772986921E+03  0.46726930201E+03  0.00000000000E+00 0.  1.
         11    1    5    5    0    0  0.20661286667E+03  0.22848940097E+03 -0.16575225604E+03  0.34981436993E+03  0.00000000000E+00 0.  1.
        -11    1    5    5    0    0  0.73029383327E+02  0.17428903238E+02 -0.49675173048E+02  0.90025997993E+02  0.00000000000E+00 0. -1.
          1    1    6    6  503    0 -0.13908001712E+03 -0.31980598771E+03 -0.10850586766E+04  0.11397242880E+04  0.00000000000E+00 0.  1.
         -1    1    6    6    0  503  0.39135438234E+01  0.45632273035E+01 -0.21278268800E+02  0.22111164415E+02  0.00000000000E+00 0. -1.
<mgrwt>
<rscale>  0 0.11052855E+04</rscale>
<asrwt>0</asrwt>
<pdfrwt beam="1">  1        3 0.24068424E-01 0.11052855E+04</pdfrwt>
<pdfrwt beam="2">  1       -4 0.30034097E+00 0.11052855E+04</pdfrwt>
<totfact> 0.11587758E+00</totfact>
</mgrwt>
</event>
<event>
12    4  0.4424320E-008  0.1235432E+04  0.7818608E-02  0.9082396E-01
          1   -1    0    0  501    0  0.00000000000E+00  0.00000000000E+00  0.20000818247E+04  0.20000818247E+04  0.00000000000E+00 0. -1.
         -2   -1    0    0    0  501 -0.00000000000E+00 -0.00000000000E+00 -0.19077883745E+03  0.19077883745E+03  0.00000000000E+00 0.  1.
        -24    2    1    2    0    0  0.20012141422E+02  0.22082279487E+03  0.13622899450E+03  0.27226735450E+03  0.80049864755E+02 0.  0.
        254    2    1    2    0    0 -0.20012141422E+02 -0.22082279487E+03  0.16730739927E+04  0.19185933076E+04  0.91250233006E+03 0.  0.
         23    2    4    4    0    0 -0.12874344474E+03 -0.52989922084E+03  0.72668208026E+03  0.91304860780E+03  0.90679962621E+02 0.  0.
         23    2    4    4    0    0  0.10873130332E+03  0.30907642597E+03  0.94639191247E+03  0.10055446998E+04  0.90065298233E+02 0.  0.
          3    1    3    3  502    0  0.21386776183E+02  0.94917556454E+02  0.10374603806E+03  0.14223212412E+03  0.00000000000E+00 0. -1.
         -4    1    3    3    0  502 -0.13746347609E+01  0.12590523842E+03  0.32482956435E+02  0.13003523038E+03  0.00000000000E+00 0.  1.
         11    1    5    5    0    0 -0.69870676445E+01 -0.38867745435E+02  0.20902306623E+02  0.44681396259E+02  0.00000000000E+00 0. -1.
        -11    1    5    5    0    0 -0.12175637710E+03 -0.49103147540E+03  0.70577977364E+03  0.86836721154E+03  0.00000000000E+00 0.  1.
          1    1    6    6  503    0  0.13161289051E+02 -0.26434730856E+01  0.29565216658E+02  0.32470132668E+02  0.00000000000E+00 0. -1.
         -1    1    6    6    0  503  0.95570014270E+02  0.31171989905E+03  0.91682669581E+03  0.97307456716E+03  0.00000000000E+00 0.  1.
<mgrwt>
<rscale>  0 0.12354324E+04</rscale>
<asrwt>0</asrwt>
<pdfrwt beam="1">  1        1 0.30770488E+00 0.12354324E+04</pdfrwt>
<pdfrwt beam="2">  1       -2 0.29350592E-01 0.12354324E+04</pdfrwt>
<totfact> 0.27627567E+01</totfact>
</mgrwt>
</event>
<event>
12    4  0.4424320E-008  0.4002279E+04  0.7818608E-02  0.8004087E-01
         -2   -1    0    0    0  501 -0.00000000000E+00  0.00000000000E+00  0.12012995669E+04  0.12012995669E+04  0.00000000000E+00 0.  1.
          1   -1    0    0  501    0  0.00000000000E+00 -0.00000000000E+00 -0.33335231214E+04  0.33335231214E+04  0.00000000000E+00 0. -1.
        -24    2    1    2    0    0 -0.86338303121E+03 -0.16601273448E+04 -0.13729200107E+04  0.23222243566E+04  0.79771845142E+02 0.  0.
        254    2    1    2    0    0  0.86338303121E+03  0.16601273448E+04 -0.75930354382E+03  0.22125983317E+04  0.90421039928E+03 0.  0.
         23    2    4    4    0    0  0.30245469800E+03  0.75094863295E+03 -0.79770921982E+03  0.11401920333E+04  0.91077876811E+02 0.  0.
         23    2    4    4    0    0  0.56092833322E+03  0.90917871185E+03  0.38405675998E+02  0.10724062984E+04  0.85637304216E+02 0.  0.
          3    1    3    3  502    0 -0.85306748299E+03 -0.16485117403E+04 -0.13528755335E+04  0.22968646668E+04  0.00000000000E+00 0. -1.
         -4    1    3    3    0  502 -0.10315548220E+02 -0.11615604492E+02 -0.20044477181E+02  0.25359689830E+02  0.00000000000E+00 0.  1.
         11    1    5    5    0    0  0.15608681220E+03  0.31532700816E+03 -0.39698030702E+03  0.53045978092E+03  0.00000000000E+00 0. -1.
        -11    1    5    5    0    0  0.14636788580E+03  0.43562162479E+03 -0.40072891279E+03  0.60973225233E+03  0.00000000000E+00 0.  1.
          3    1    6    6  503    0  0.41897103085E+03  0.70081870628E+03 -0.52969631452E+01  0.81652412186E+03  0.00000000000E+00 0. -1.
         -3    1    6    6    0  503  0.14195730237E+03  0.20836000557E+03  0.43702639143E+02  0.25588217657E+03  0.00000000000E+00 0.  1.
<mgrwt>
<rscale>  0 0.40022793E+04</rscale>
<asrwt>0</asrwt>
<pdfrwt beam="1">  1        1 0.51284971E+00 0.40022793E+04</pdfrwt>
<pdfrwt beam="2">  1       -2 0.18481532E+00 0.40022793E+04</pdfrwt>
<totfact> 0.38952912E-02</totfact>
</mgrwt>
</event>
<event>
12    4  0.4424320E-008  0.1250111E+04  0.7818608E-02  0.9070091E-01
          1   -1    0    0  501    0  0.00000000000E+00  0.00000000000E+00  0.10062882837E+04  0.10062882837E+04  0.00000000000E+00 0. -1.
         -2   -1    0    0    0  501 -0.00000000000E+00 -0.00000000000E+00 -0.38825279767E+03  0.38825279767E+03  0.00000000000E+00 0.  1.
        -24    2    1    2    0    0 -0.58927611959E+02 -0.26182417895E+03  0.26611571262E+03  0.38625768289E+03  0.79706091037E+02 0.  0.
        254    2    1    2    0    0  0.58927611959E+02  0.26182417895E+03  0.35191977337E+03  0.10082833984E+04  0.90595999943E+03 0.  0.
         23    2    4    4    0    0  0.13455411303E+03  0.57498551394E+03  0.14831882249E+03  0.61626843435E+03  0.95263631545E+02 0.  0.
         23    2    4    4    0    0 -0.75626501075E+02 -0.31316133498E+03  0.20360095088E+03  0.39201496410E+03  0.91831342632E+02 0.  0.
          1    1    3    3  502    0 -0.64433665116E+02 -0.26453989319E+03  0.25255468108E+03  0.37137167262E+03  0.00000000000E+00 0. -1.
         -2    1    3    3    0  502  0.55060531566E+01  0.27157142358E+01  0.13561031542E+02  0.14886010266E+02  0.00000000000E+00 0.  1.
         11    1    5    5    0    0  0.11074442592E+03  0.42185050291E+03  0.15019659128E+03  0.46128211618E+03  0.00000000000E+00 0. -1.
        -11    1    5    5    0    0  0.23809687114E+02  0.15313501103E+03 -0.18777687862E+01  0.15498631816E+03  0.00000000000E+00 0.  1.
          2    1    6    6  503    0 -0.34710435800E+02 -0.17073981968E+03  0.56367704699E+02  0.18312350617E+03  0.00000000000E+00 0. -1.
         -2    1    6    6    0  503 -0.40916065275E+02 -0.14242151530E+03  0.14723324618E+03  0.20889145793E+03  0.00000000000E+00 0.  1.
<mgrwt>
<rscale>  0 0.12501108E+04</rscale>
<asrwt>0</asrwt>
<pdfrwt beam="1">  1        1 0.15481358E+00 0.12501108E+04</pdfrwt>
<pdfrwt beam="2">  1       -2 0.59731200E-01 0.12501108E+04</pdfrwt>
<totfact> 0.33819933E+01</totfact>
</mgrwt>
</event>
<event>
12    4  0.4424320E-008  0.2414882E+04  0.7818608E-02  0.8433953E-01
          1   -1    0    0  501    0  0.00000000000E+00  0.00000000000E+00  0.29453570000E+04  0.29453570000E+04  0.00000000000E+00 0. -1.
         -2   -1    0    0    0  501 -0.00000000000E+00 -0.00000000000E+00 -0.49498707622E+03  0.49498707622E+03  0.00000000000E+00 0.  1.
        -24    2    1    2    0    0  0.16452437564E+03 -0.32584566014E+03 -0.32721046994E+03  0.49659303131E+03  0.79336515491E+02 0.  0.
        254    2    1    2    0    0 -0.16452437564E+03  0.32584566014E+03  0.27775803937E+04  0.29437510449E+04  0.90414252549E+03 0.  0.
         23    2    4    4    0    0  0.15670049371E+03 -0.12204216606E+03  0.18359889328E+04  0.18489399998E+04  0.90963874917E+02 0.  0.
         23    2    4    4    0    0 -0.32122486935E+03  0.44788782620E+03  0.94159146090E+03  0.10948110451E+04  0.90707351508E+02 0.  0.
          3    1    3    3  502    0  0.17747833977E+02 -0.11444215950E+03 -0.91358892611E+02  0.14750742605E+03  0.00000000000E+00 0. -1.
         -2    1    3    3    0  502  0.14677654166E+03 -0.21140350065E+03 -0.23585157733E+03  0.34908560526E+03  0.00000000000E+00 0.  1.
         11    1    5    5    0    0  0.75723536924E+02 -0.86118022636E+02  0.68366192171E+03  0.69321280359E+03  0.00000000000E+00 0.  1.
        -11    1    5    5    0    0  0.80976956786E+02 -0.35924143424E+02  0.11523270111E+04  0.11557271963E+04  0.00000000000E+00 0. -1.
          3    1    6    6  503    0 -0.63430834208E+02  0.91690777165E+02  0.12600201704E+03  0.16824737039E+03  0.00000000000E+00 0. -1.
         -3    1    6    6    0  503 -0.25779403514E+03  0.35619704904E+03  0.81558944386E+03  0.92656367468E+03  0.00000000000E+00 0.  1.
<mgrwt>
<rscale>  0 0.24148819E+04</rscale>
<asrwt>0</asrwt>
<pdfrwt beam="1">  1        1 0.45313184E+00 0.24148819E+04</pdfrwt>
<pdfrwt beam="2">  1       -2 0.76151860E-01 0.24148819E+04</pdfrwt>
<totfact> 0.79572668E-01</totfact>
</mgrwt>
</event>
<event>
12    4  0.4424320E-008  0.1265311E+04  0.7818608E-02  0.9057536E-01
         -2   -1    0    0    0  501 -0.00000000000E+00  0.00000000000E+00  0.46567254449E+03  0.46567254449E+03  0.00000000000E+00 0.  1.
          1   -1    0    0  501    0  0.00000000000E+00 -0.00000000000E+00 -0.85951555839E+03  0.85951555839E+03  0.00000000000E+00 0. -1.
        -24    2    1    2    0    0  0.24244029361E+03  0.94486483495E+02  0.63032754994E+02  0.27908482818E+03  0.78804959156E+02 0.  0.
        254    2    1    2    0    0 -0.24244029361E+03 -0.94486483495E+02 -0.45687576890E+03  0.10461032747E+04  0.90437359626E+03 0.  0.
         23    2    4    4    0    0 -0.51017285902E+03  0.85020253296E+01 -0.52546445270E+03  0.73782118620E+03  0.88986410420E+02 0.  0.
         23    2    4    4    0    0  0.26773256540E+03 -0.10298850882E+03  0.68588683805E+02  0.30828208850E+03  0.89699938788E+02 0.  0.
          1    1    3    3  502    0  0.51308042988E+02  0.55090528561E+02  0.48177064942E+01  0.75436674822E+02  0.00000000000E+00 0. -1.
         -2    1    3    3    0  502  0.19113225063E+03  0.39395954934E+02  0.58215048499E+02  0.20364815336E+03  0.00000000000E+00 0.  1.
         11    1    5    5    0    0 -0.35799616238E+03 -0.27711117764E+02 -0.39803299312E+03  0.53605915899E+03  0.00000000000E+00 0.  1.
        -11    1    5    5    0    0 -0.15217669663E+03  0.36213143094E+02 -0.12743145958E+03  0.20176202721E+03  0.00000000000E+00 0. -1.
          1    1    6    6  503    0  0.45565517996E+02  0.42967297931E+01  0.38368927752E+02  0.59723135667E+02  0.00000000000E+00 0.  1.
         -1    1    6    6    0  503  0.22216704741E+03 -0.10728523862E+03  0.30219756054E+02  0.24855895284E+03  0.00000000000E+00 0. -1.
<mgrwt>
<rscale>  0 0.12653107E+04</rscale>
<asrwt>0</asrwt>
<pdfrwt beam="1">  1        1 0.13223316E+00 0.12653107E+04</pdfrwt>
<pdfrwt beam="2">  1       -2 0.71641930E-01 0.12653107E+04</pdfrwt>
<totfact> 0.29991090E+01</totfact>
</mgrwt>
</event>
<event>
12    4  0.4424320E-008  0.1303490E+04  0.7818608E-02  0.9026802E-01
          3   -1    0    0  501    0  0.00000000000E+00  0.00000000000E+00  0.71553898025E+03  0.71553898025E+03  0.00000000000E+00 0. -1.
         -4   -1    0    0    0  501 -0.00000000000E+00 -0.00000000000E+00 -0.59363843069E+03  0.59363843069E+03  0.00000000000E+00 0.  1.
        -24    2    1    2    0    0 -0.54825673873E+02  0.26977938187E+03 -0.16552756616E+03  0.32873164928E+03  0.69845205177E+02 0.  0.
        254    2    1    2    0    0  0.54825673873E+02 -0.26977938187E+03  0.28742811571E+03  0.98044576166E+03  0.89603136131E+03 0.  0.
         23    2    4    4    0    0  0.12766756395E+03 -0.16536848073E+03  0.59349063596E+03  0.63658639572E+03  0.96774805322E+02 0.  0.
         23    2    4    4    0    0 -0.72841890082E+02 -0.10441090114E+03 -0.30606252025E+03  0.34385936594E+03  0.91418925903E+02 0.  0.
          1    1    3    3  502    0 -0.77143991081E+01  0.17675597131E+02  0.59920754121E+01  0.20195139397E+02  0.00000000000E+00 0. -1.
         -2    1    3    3    0  502 -0.47111274765E+02  0.25210378474E+03 -0.17151964157E+03  0.30853650989E+03  0.00000000000E+00 0.  1.
         11    1    5    5    0    0  0.92403623975E+02 -0.72030614067E+02  0.21153743110E+03  0.24181588832E+03  0.00000000000E+00 0. -1.
        -11    1    5    5    0    0  0.35263939980E+02 -0.93337866659E+02  0.38195320485E+03  0.39477050740E+03  0.00000000000E+00 0.  1.
          3    1    6    6  503    0  0.18375511259E+02 -0.53779614465E+00 -0.31953850799E+02  0.36864579472E+02  0.00000000000E+00 0. -1.
         -3    1    6    6    0  503 -0.91217401341E+02 -0.10387310500E+03 -0.27410866945E+03  0.30699478646E+03  0.00000000000E+00 0.  1.
<mgrwt>
<rscale>  0 0.13034898E+04</rscale>
<asrwt>0</asrwt>
<pdfrwt beam="1">  1        3 0.11008292E+00 0.13034898E+04</pdfrwt>
<pdfrwt beam="2">  1       -4 0.91328990E-01 0.13034898E+04</pdfrwt>
<totfact> 0.15991419E+00</totfact>
</mgrwt>
</event>
<event>
12    4  0.4424320E-008  0.1088517E+04  0.7818608E-02  0.9216457E-01
          1   -1    0    0  501    0  0.00000000000E+00  0.00000000000E+00  0.21607330612E+04  0.21607330612E+04  0.00000000000E+00 0. -1.
         -2   -1    0    0    0  501 -0.00000000000E+00 -0.00000000000E+00 -0.13709108227E+03  0.13709108227E+03  0.00000000000E+00 0.  1.
        -24    2    1    2    0    0 -0.51898714484E+02  0.13350608245E+03  0.18842347502E+03  0.24990697171E+03  0.80204351219E+02 0.  0.
        254    2    1    2    0    0  0.51898714484E+02 -0.13350608245E+03  0.18352185039E+04  0.20479171718E+04  0.89745219075E+03 0.  0.
         23    2    4    4    0    0  0.37792206455E+03 -0.24030280899E+03  0.55156151112E+03  0.71623735943E+03  0.90583263417E+02 0.  0.
         23    2    4    4    0    0 -0.32602335007E+03  0.10679672654E+03  0.12836569928E+04  0.13316798123E+04  0.88876778977E+02 0.  0.
          3    1    3    3  502    0 -0.55389804189E+01  0.28072513882E+01  0.61819413928E+02  0.62130515070E+02  0.00000000000E+00 0. -1.
         -4    1    3    3    0  502 -0.46359734065E+02  0.13069883106E+03  0.12660406109E+03  0.18777645664E+03  0.00000000000E+00 0.  1.
         11    1    5    5    0    0  0.13042568990E+03 -0.63671827061E+02  0.24294658888E+03  0.28299824592E+03  0.00000000000E+00 0. -1.
        -11    1    5    5    0    0  0.24749637466E+03 -0.17663098192E+03  0.30861492224E+03  0.43323911351E+03  0.00000000000E+00 0.  1.
          2    1    6    6  503    0 -0.27807671184E+03  0.84228600508E+02  0.93757084459E+03  0.98156008651E+03  0.00000000000E+00 0. -1.
         -2    1    6    6    0  503 -0.47946638228E+02  0.22568126028E+02  0.34608614822E+03  0.35011972583E+03  0.00000000000E+00 0.  1.
<mgrwt>
<rscale>  0 0.10885169E+04</rscale>
<asrwt>0</asrwt>
<pdfrwt beam="1">  1        1 0.33242045E+00 0.10885169E+04</pdfrwt>
<pdfrwt beam="2">  1       -2 0.21090937E-01 0.10885169E+04</pdfrwt>
<totfact> 0.39665474E+01</totfact>
</mgrwt>
</event>
<event>
12    4  0.4424320E-008  0.1457402E+04  0.7818608E-02  0.8913285E-01
          1   -1    0    0  501    0  0.00000000000E+00  0.00000000000E+00  0.63251987480E+03  0.63251987480E+03  0.00000000000E+00 0. -1.
         -2   -1    0    0    0  501 -0.00000000000E+00 -0.00000000000E+00 -0.83950692882E+03  0.83950692882E+03  0.00000000000E+00 0.  1.
        -24    2    1    2    0    0  0.18307512072E+03 -0.25971255193E+03 -0.38442937563E+03  0.50382145177E+03  0.71295167846E+02 0.  0.
        254    2    1    2    0    0 -0.18307512072E+03  0.25971255193E+03  0.17744232161E+03  0.96820535185E+03  0.89720048841E+03 0.  0.
         23    2    4    4    0    0 -0.11186922265E+02  0.11505775425E+03  0.52449880067E+03  0.54513721004E+03  0.93338908427E+02 0.  0.
         23    2    4    4    0    0 -0.17188819846E+03  0.14465479768E+03 -0.34705647906E+03  0.42306814182E+03  0.89821432321E+02 0.  0.
          1    1    3    3  502    0  0.90891450281E+02 -0.16208950332E+03 -0.17640372719E+03  0.25622751177E+03  0.00000000000E+00 0. -1.
         -4    1    3    3    0  502  0.92183670441E+02 -0.97623048607E+02 -0.20802564844E+03  0.24759394000E+03  0.00000000000E+00 0.  1.
         11    1    5    5    0    0 -0.19850798547E+02 -0.96761543769E+01  0.10981062692E+03  0.11200917797E+03  0.00000000000E+00 0.  1.
        -11    1    5    5    0    0  0.86638762820E+01  0.12473390863E+03  0.41468817375E+03  0.43312803207E+03  0.00000000000E+00 0. -1.
          2    1    6    6  503    0 -0.11328811768E+02  0.91526279576E+01  0.29376081557E+01  0.14857392648E+02  0.00000000000E+00 0.  1.
         -2    1    6    6    0  503 -0.16055938669E+03  0.13550216972E+03 -0.34999408721E+03  0.40821074917E+03  0.00000000000E+00 0. -1.
<mgrwt>
<rscale>  0 0.14574015E+04</rscale>
<asrwt>0</asrwt>
<pdfrwt beam="1">  1        1 0.97310750E-01 0.14574015E+04</pdfrwt>
<pdfrwt beam="2">  1       -2 0.12915491E+00 0.14574015E+04</pdfrwt>
<totfact> 0.11890148E+01</totfact>
</mgrwt>
</event>
<event>
12    4  0.4424320E-008  0.2582521E+04  0.7818608E-02  0.8374163E-01
          1   -1    0    0  501    0  0.00000000000E+00  0.00000000000E+00  0.15218975270E+04  0.15218975270E+04  0.00000000000E+00 0. -1.
         -2   -1    0    0    0  501 -0.00000000000E+00 -0.00000000000E+00 -0.10955759052E+04  0.10955759052E+04  0.00000000000E+00 0.  1.
        -24    2    1    2    0    0 -0.32169549833E+03  0.28081798148E+02  0.12229482680E+04  0.12672038868E+04  0.76984695783E+02 0.  0.
        254    2    1    2    0    0  0.32169549833E+03 -0.28081798148E+02 -0.79662664613E+03  0.13502695454E+04  0.10413151545E+04 0.  0.
         23    2    4    4    0    0 -0.21138111205E+02  0.13894096877E+02  0.23809644943E+03  0.25561659313E+03  0.89498926137E+02 0.  0.
         23    2    4    4    0    0  0.34283360954E+03 -0.41975895025E+02 -0.10347230956E+04  0.10946529523E+04  0.91193979753E+02 0.  0.
          3    1    3    3  502    0 -0.14445626878E+03  0.38027949497E+01  0.40751519215E+03  0.43237796738E+03  0.00000000000E+00 0. -1.
         -4    1    3    3    0  502 -0.17723922956E+03  0.24279003198E+02  0.81543307584E+03  0.83482591938E+03  0.00000000000E+00 0.  1.
         11    1    5    5    0    0 -0.32106959230E+01 -0.96187183818E+01 -0.45933594727E+01  0.11132262253E+02  0.00000000000E+00 0.  1.
        -11    1    5    5    0    0 -0.17927415282E+02  0.23512815259E+02  0.24268980890E+03  0.24448433088E+03  0.00000000000E+00 0. -1.
          1    1    6    6  503    0  0.28395189881E+03 -0.67841389499E+02 -0.87725712643E+03  0.92456000391E+03  0.00000000000E+00 0. -1.
         -1    1    6    6    0  503  0.58881710731E+02  0.25865494474E+02 -0.15746596913E+03  0.17009294840E+03  0.00000000000E+00 0.  1.
<mgrwt>
<rscale>  0 0.25825215E+04</rscale>
<asrwt>0</asrwt>
<pdfrwt beam="1">  1        1 0.23413808E+00 0.25825215E+04</pdfrwt>
<pdfrwt beam="2">  1       -2 0.16855014E+00 0.25825215E+04</pdfrwt>
<totfact> 0.10681033E+00</totfact>
</mgrwt>
</event>
<event>
12    4  0.4424320E-008  0.1854243E+04  0.7818608E-02  0.8677974E-01
          1   -1    0    0  501    0  0.00000000000E+00  0.00000000000E+00  0.34369468213E+04  0.34369468213E+04  0.00000000000E+00 0. -1.
         -2   -1    0    0    0  501 -0.00000000000E+00 -0.00000000000E+00 -0.25009227485E+03  0.25009227485E+03  0.00000000000E+00 0.  1.
        -24    2    1    2    0    0  0.18447177277E+03  0.66101511281E+03  0.90439386579E+03  0.11380696136E+04  0.79393743973E+02 0.  0.
        254    2    1    2    0    0 -0.18447177277E+03 -0.66101511281E+03  0.22824606807E+04  0.25489694826E+04  0.90368570312E+03 0.  0.
         23    2    4    4    0    0 -0.34524706785E+03 -0.81400021688E+03  0.19003181792E+04  0.20978792642E+04  0.89979633320E+02 0.  0.
         23    2    4    4    0    0  0.16077529508E+03  0.15298510407E+03  0.38214250150E+03  0.45109021832E+03  0.90533728717E+02 0.  0.
          3    1    3    3  502    0  0.50448878100E+02  0.24145790021E+03  0.38276854759E+03  0.45536663019E+03  0.00000000000E+00 0. -1.
         -4    1    3    3    0  502  0.13402289467E+03  0.41955721260E+03  0.52162531821E+03  0.68270298339E+03  0.00000000000E+00 0.  1.
         11    1    5    5    0    0 -0.32500406510E+03 -0.75477733424E+03  0.18119454810E+04  0.19895886240E+04  0.00000000000E+00 0.  1.
        -11    1    5    5    0    0 -0.20243002750E+02 -0.59222882638E+02  0.88372698172E+02  0.10829064027E+03  0.00000000000E+00 0. -1.
          3    1    6    6  503    0  0.10209402912E+03  0.61789396669E+02  0.26945162686E+03  0.29469526556E+03  0.00000000000E+00 0. -1.
         -3    1    6    6    0  503  0.58681265951E+02  0.91195707400E+02  0.11269087463E+03  0.15639495276E+03  0.00000000000E+00 0.  1.
<mgrwt>
<rscale>  0 0.18542425E+04</rscale>
<asrwt>0</asrwt>
<pdfrwt beam="1">  1        1 0.52876102E+00 0.18542425E+04</pdfrwt>
<pdfrwt beam="2">  1       -2 0.38475737E-01 0.18542425E+04</pdfrwt>
<totfact> 0.14823051E+00</totfact>
</mgrwt>
</event>
<event>
12    4  0.4424320E-008  0.1889234E+04  0.7818608E-02  0.8660234E-01
          1   -1    0    0  501    0  0.00000000000E+00  0.00000000000E+00  0.17396474161E+04  0.17396474161E+04  0.00000000000E+00 0. -1.
         -2   -1    0    0    0  501 -0.00000000000E+00 -0.00000000000E+00 -0.51292055231E+03  0.51292055231E+03  0.00000000000E+00 0.  1.
        -24    2    1    2    0    0  0.28355708846E+03  0.45662580886E+03 -0.10373220582E+03  0.55310168845E+03  0.79052865242E+02 0.  0.
        254    2    1    2    0    0 -0.28355708846E+03 -0.45662580886E+03  0.13304590696E+04  0.16994662800E+04  0.91057814004E+03 0.  0.
         23    2    4    4    0    0 -0.16737422038E+03 -0.57082312241E+02 -0.88502854763E+02  0.21803553641E+03  0.91838008571E+02 0.  0.
         23    2    4    4    0    0 -0.11618286808E+03 -0.39954349662E+03  0.14189619244E+04  0.14814307436E+04  0.89725362064E+02 0.  0.
          3    1    3    3  502    0  0.10842274467E+03  0.16920966370E+03 -0.77916334799E+02  0.21554200769E+03  0.00000000000E+00 0. -1.
         -4    1    3    3    0  502  0.17513434379E+03  0.28741614517E+03 -0.25815871024E+02  0.33755968076E+03  0.00000000000E+00 0.  1.
         11    1    5    5    0    0 -0.20651997944E+02 -0.77113571548E+01  0.19375206117E+02  0.29349082785E+02  0.00000000000E+00 0.  1.
        -11    1    5    5    0    0 -0.14672222244E+03 -0.49370955086E+02 -0.10787806088E+03  0.18868645363E+03  0.00000000000E+00 0. -1.
          1    1    6    6  503    0 -0.10295696716E+03 -0.26545775785E+03  0.83798880977E+03  0.88503853226E+03  0.00000000000E+00 0. -1.
         -1    1    6    6    0  503 -0.13225900921E+02 -0.13408573878E+03  0.58097311464E+03  0.59639221133E+03  0.00000000000E+00 0.  1.
<mgrwt>
<rscale>  0 0.18892336E+04</rscale>
<asrwt>0</asrwt>
<pdfrwt beam="1">  1        1 0.26763806E+00 0.18892336E+04</pdfrwt>
<pdfrwt beam="2">  1       -2 0.78910855E-01 0.18892336E+04</pdfrwt>
<totfact> 0.52483238E+00</totfact>
</mgrwt>
</event>
<event>
12    4  0.4424320E-008  0.1347306E+04  0.7818608E-02  0.8992870E-01
          3   -1    0    0  501    0  0.00000000000E+00  0.00000000000E+00  0.41706317148E+03  0.41706317148E+03  0.00000000000E+00 0. -1.
         -4   -1    0    0    0  501 -0.00000000000E+00 -0.00000000000E+00 -0.10881048232E+04  0.10881048232E+04  0.00000000000E+00 0.  1.
        -24    2    1    2    0    0  0.25303910979E+03 -0.15057936966E+03  0.78087895891E+02  0.31469208934E+03  0.78933224679E+02 0.  0.
        254    2    1    2    0    0 -0.25303910979E+03  0.15057936966E+03 -0.74912954756E+03  0.11904759053E+04  0.87711736068E+03 0.  0.
         23    2    4    4    0    0 -0.27183271418E+03 -0.24207871086E+03 -0.42875869494E+02  0.37707849153E+03  0.88626868612E+02 0.  0.
         23    2    4    4    0    0  0.18793604387E+02  0.39265808052E+03 -0.70625367807E+03  0.81339741376E+03  0.91035856483E+02 0.  0.
          1    1    3    3  502    0  0.23225107235E+03 -0.15991514231E+03  0.74134023710E+02  0.29156348677E+03  0.00000000000E+00 0. -1.
         -4    1    3    3    0  502  0.20788037447E+02  0.93357726476E+01  0.39538721804E+01  0.23128602574E+02  0.00000000000E+00 0.  1.
         11    1    5    5    0    0 -0.10033452085E+03 -0.13567161816E+03 -0.47153273664E+02  0.17520626491E+03  0.00000000000E+00 0. -1.
        -11    1    5    5    0    0 -0.17149819333E+03 -0.10640709271E+03  0.42774041696E+01  0.20187222662E+03  0.00000000000E+00 0.  1.
          3    1    6    6  503    0 -0.18810153924E+02  0.18892130791E+02 -0.32894662983E+02  0.42341390497E+02  0.00000000000E+00 0. -1.
         -3    1    6    6    0  503  0.37603758311E+02  0.37376594973E+03 -0.67335901508E+03  0.77105602326E+03  0.00000000000E+00 0.  1.
<mgrwt>
<rscale>  0 0.13473061E+04</rscale>
<asrwt>0</asrwt>
<pdfrwt beam="1">  1        3 0.64163566E-01 0.13473061E+04</pdfrwt>
<pdfrwt beam="2">  1       -4 0.16740074E+00 0.13473061E+04</pdfrwt>
<totfact> 0.11616778E+00</totfact>
</mgrwt>
</event>
<event>
12    4  0.4424320E-008  0.1366357E+04  0.7818608E-02  0.8978538E-01
         -2   -1    0    0    0  501 -0.00000000000E+00  0.00000000000E+00  0.36847637000E+03  0.36847637000E+03  0.00000000000E+00 0.  1.
          1   -1    0    0  501    0  0.00000000000E+00 -0.00000000000E+00 -0.12666557048E+04  0.12666557048E+04  0.00000000000E+00 0. -1.
        -24    2    1    2    0    0  0.37852102061E+02  0.35500314953E+03 -0.10669033920E+03  0.38105416407E+03  0.79746032329E+02 0.  0.
        254    2    1    2    0    0 -0.37852102061E+02 -0.35500314953E+03 -0.79148899557E+03  0.12540779107E+04  0.90487378026E+03 0.  0.
         23    2    4    4    0    0  0.90717244613E+02 -0.47060628412E+03 -0.90536043634E+03  0.10284172692E+04  0.90910212844E+02 0.  0.
         23    2    4    4    0    0 -0.12856934667E+03  0.11560313460E+03  0.11387144076E+03  0.22566064150E+03  0.89787852556E+02 0.  0.
          1    1    3    3  502    0 -0.77515237123E+01  0.86525359145E+01  0.71408967594E+01  0.13636161635E+02  0.00000000000E+00 0. -1.
         -2    1    3    3    0  502  0.45603625774E+02  0.34635061361E+03 -0.11383123596E+03  0.36741800243E+03  0.00000000000E+00 0.  1.
         11    1    5    5    0    0  0.37967870608E+02 -0.36626160343E+03 -0.63854314746E+03  0.73710682571E+03  0.00000000000E+00 0. -1.
        -11    1    5    5    0    0  0.52749374005E+02 -0.10434468070E+03 -0.26681728888E+03  0.29131044350E+03  0.00000000000E+00 0.  1.
          2    1    6    6  503    0 -0.51984583305E+02  0.15797253395E+01  0.88507589448E+01  0.52756311162E+02  0.00000000000E+00 0. -1.
         -2    1    6    6    0  503 -0.76584763370E+02  0.11402340926E+03  0.10502068182E+03  0.17290433034E+03  0.00000000000E+00 0.  1.
<mgrwt>
<rscale>  0 0.13663568E+04</rscale>
<asrwt>0</asrwt>
<pdfrwt beam="1">  1        1 0.19487011E+00 0.13663568E+04</pdfrwt>
<pdfrwt beam="2">  1       -2 0.56688671E-01 0.13663568E+04</pdfrwt>
<totfact> 0.23921975E+01</totfact>
</mgrwt>
</event>
<event>
12    4  0.5301844E-008  0.1599039E+04  0.7818608E-02  0.8821139E-01
         -2   -1    0    0    0  501 -0.00000000000E+00  0.00000000000E+00  0.32502798444E+03  0.32502798444E+03  0.00000000000E+00 0.  1.
          1   -1    0    0  501    0  0.00000000000E+00 -0.00000000000E+00 -0.19666954997E+04  0.19666954997E+04  0.00000000000E+00 0. -1.
        -24    2    1    2    0    0  0.13953642917E+03  0.13413767259E+03  0.16370840265E+03  0.26560482507E+03  0.79260026042E+02 0.  0.
        254    2    1    2    0    0 -0.13953642917E+03 -0.13413767259E+03 -0.18053759179E+04  0.20261186590E+04  0.89906133572E+03 0.  0.
         23    2    4    4    0    0 -0.27747473099E+02 -0.37362360504E+03 -0.28738271005E+03  0.48242338078E+03  0.98888704049E+02 0.  0.
         23    2    4    4    0    0 -0.11178895607E+03  0.23948593245E+03 -0.15179932078E+04  0.15436952782E+04  0.94028987865E+02 0.  0.
          3    1    3    3  502    0  0.51144805528E+02  0.94825589582E+01  0.66761366867E+02  0.84633268653E+02  0.00000000000E+00 0. -1.
         -4    1    3    3    0  502  0.88391623645E+02  0.12465511363E+03  0.96947035781E+02  0.18097155642E+03  0.00000000000E+00 0.  1.
         11    1    5    5    0    0 -0.32294534638E+02 -0.32686187478E+03 -0.20380755258E+03  0.38654772104E+03  0.00000000000E+00 0.  1.
        -11    1    5    5    0    0  0.45470615393E+01 -0.46761730252E+02 -0.83575157470E+02  0.95875659742E+02  0.00000000000E+00 0. -1.
          2    1    6    6  503    0  0.10151807601E+02 -0.15764541314E+01 -0.48432195100E+02  0.49509816475E+02  0.00000000000E+00 0. -1.
         -2    1    6    6    0  503 -0.12194076368E+03  0.24106238658E+03 -0.14695610127E+04  0.14941854618E+04  0.00000000000E+00 0.  1.
<mgrwt>
<rscale>  0 0.15990386E+04</rscale>
<asrwt>0</asrwt>
<pdfrwt beam="1">  1        1 0.30256854E+00 0.15990386E+04</pdfrwt>
<pdfrwt beam="2">  1       -2 0.50004304E-01 0.15990386E+04</pdfrwt>
<totfact> 0.10009961E+01</totfact>
</mgrwt>
</event>
<event>
12    4  0.4424320E-008  0.1933208E+04  0.7818608E-02  0.8638501E-01
          1   -1    0    0  501    0  0.00000000000E+00  0.00000000000E+00  0.15223710528E+04  0.15223710528E+04  0.00000000000E+00 0. -1.
         -2   -1    0    0    0  501 -0.00000000000E+00 -0.00000000000E+00 -0.61372933481E+03  0.61372933481E+03  0.00000000000E+00 0.  1.
        -24    2    1    2    0    0 -0.62718182299E+03  0.41932008363E+03  0.30365409748E+03  0.81730195181E+03  0.81180649746E+02 0.  0.
        254    2    1    2    0    0  0.62718182299E+03 -0.41932008363E+03  0.60498762051E+03  0.13187984358E+04  0.89667882861E+03 0.  0.
         23    2    4    4    0    0  0.72761445585E+03 -0.40939212124E+02  0.54007231264E+03  0.91151446603E+03  0.89898295069E+02 0.  0.
         23    2    4    4    0    0 -0.10043263286E+03 -0.37838087150E+03  0.64915307871E+02  0.40728396977E+03  0.91692078030E+02 0.  0.
          3    1    3    3  502    0 -0.17940317483E+03  0.99520088994E+02  0.11744561854E+03  0.23639632096E+03  0.00000000000E+00 0. -1.
         -4    1    3    3    0  502 -0.44777864817E+03  0.31979999463E+03  0.18620847894E+03  0.58090563085E+03  0.00000000000E+00 0.  1.
         11    1    5    5    0    0  0.12261928676E+02  0.46592339473E+01  0.26972944246E+02  0.29993383889E+02  0.00000000000E+00 0. -1.
        -11    1    5    5    0    0  0.71535252717E+03 -0.45598446071E+02  0.51309936839E+03  0.88152108214E+03  0.00000000000E+00 0.  1.
          4    1    6    6  503    0  0.76922655984E+01 -0.95014552157E+02 -0.69935884409E+01  0.95581621408E+02  0.00000000000E+00 0. -1.
         -4    1    6    6    0  503 -0.10812489845E+03 -0.28336631935E+03  0.71908896312E+02  0.31170234836E+03  0.00000000000E+00 0.  1.
<mgrwt>
<rscale>  0 0.19332085E+04</rscale>
<asrwt>0</asrwt>
<pdfrwt beam="1">  1        1 0.23421093E+00 0.19332085E+04</pdfrwt>
<pdfrwt beam="2">  1       -2 0.94419898E-01 0.19332085E+04</pdfrwt>
<totfact> 0.48869306E+00</totfact>
</mgrwt>
</event>
<event>
12    4  0.4424320E-008  0.1553463E+04  0.7818608E-02  0.8849659E-01
         -2   -1    0    0    0  501 -0.00000000000E+00  0.00000000000E+00  0.29352471798E+03  0.29352471798E+03  0.00000000000E+00 0.  1.
          1   -1    0    0  501    0  0.00000000000E+00 -0.00000000000E+00 -0.20554029085E+04  0.20554029085E+04  0.00000000000E+00 0. -1.
        -24    2    1    2    0    0  0.15802992885E+03  0.13779857746E+03 -0.12690365471E+04  0.12886983632E+04  0.79547515438E+02 0.  0.
        254    2    1    2    0    0 -0.15802992885E+03 -0.13779857746E+03 -0.49284164345E+03  0.10602292633E+04  0.91500344196E+03 0.  0.
         23    2    4    4    0    0 -0.51454796449E+03  0.24879279768E+02 -0.19002002760E+03  0.55666980436E+03  0.91624635772E+02 0.  0.
         23    2    4    4    0    0  0.35651803564E+03 -0.16267785723E+03 -0.30282161585E+03  0.50355945890E+03  0.91115326108E+02 0.  0.
          3    1    3    3  502    0  0.98234901369E+02  0.85538112549E+02 -0.99163338084E+03  0.10001518017E+04  0.00000000000E+00 0. -1.
         -4    1    3    3    0  502  0.59795027477E+02  0.52260464911E+02 -0.27740316622E+03  0.28854656146E+03  0.00000000000E+00 0.  1.
         11    1    5    5    0    0 -0.41550065483E+03 -0.20107812143E+01 -0.18232857142E+03  0.45374943015E+03  0.00000000000E+00 0. -1.
        -11    1    5    5    0    0 -0.99047309662E+02  0.26890060982E+02 -0.76914561809E+01  0.10292037422E+03  0.00000000000E+00 0.  1.
          4    1    6    6  503    0  0.20590078376E+03 -0.44802901810E+02 -0.14817738056E+03  0.25760234640E+03  0.00000000000E+00 0. -1.
         -4    1    6    6    0  503  0.15061725189E+03 -0.11787495542E+03 -0.15464423529E+03  0.24595711250E+03  0.00000000000E+00 0.  1.
<mgrwt>
<rscale>  0 0.15534627E+04</rscale>
<asrwt>0</asrwt>
<pdfrwt beam="1">  1        1 0.31621583E+00 0.15534627E+04</pdfrwt>
<pdfrwt beam="2">  1       -2 0.45157649E-01 0.15534627E+04</pdfrwt>
<totfact> 0.10753282E+01</totfact>
</mgrwt>
</event>
<event>
12    4  0.4424320E-008  0.1656701E+04  0.7818608E-02  0.8786452E-01
         -2   -1    0    0    0  501 -0.00000000000E+00  0.00000000000E+00  0.18991883416E+03  0.18991883416E+03  0.00000000000E+00 0.  1.
          1   -1    0    0  501    0  0.00000000000E+00 -0.00000000000E+00 -0.36129346901E+04  0.36129346901E+04  0.00000000000E+00 0. -1.
        -24    2    1    2    0    0  0.17225296668E+03 -0.52387102908E+03 -0.83417383973E+03  0.10031707783E+04  0.79960464737E+02 0.  0.
        254    2    1    2    0    0 -0.17225296668E+03  0.52387102908E+03 -0.25888420163E+04  0.27996827460E+04  0.91214502877E+03 0.  0.
         23    2    4    4    0    0 -0.17248634489E+03  0.73352698362E+03 -0.23486529820E+04  0.24683459152E+04  0.93527280285E+02 0.  0.
         23    2    4    4    0    0  0.23337821394E+00 -0.20965595454E+03 -0.24018903423E+03  0.33133683082E+03  0.90208921698E+02 0.  0.
          1    1    3    3  502    0  0.81164063850E+02 -0.31124816399E+03 -0.42310269502E+03  0.53148745552E+03  0.00000000000E+00 0. -1.
         -2    1    3    3    0  502  0.91088902830E+02 -0.21262286509E+03 -0.41107114471E+03  0.47168332279E+03  0.00000000000E+00 0.  1.
         11    1    5    5    0    0 -0.24137271494E+01  0.37098612762E+02 -0.65820928690E+02  0.75594495840E+02  0.00000000000E+00 0. -1.
        -11    1    5    5    0    0 -0.17007261774E+03  0.69642837086E+03 -0.22828320533E+04  0.23927514193E+04  0.00000000000E+00 0.  1.
          3    1    6    6  503    0 -0.26731013916E+02 -0.13448121088E+02 -0.26340032379E+02  0.39864725905E+02  0.00000000000E+00 0. -1.
         -3    1    6    6    0  503  0.26964392130E+02 -0.19620783345E+03 -0.21384900185E+03  0.29147210491E+03  0.00000000000E+00 0.  1.
<mgrwt>
<rscale>  0 0.16567008E+04</rscale>
<asrwt>0</asrwt>
<pdfrwt beam="1">  1        1 0.55583607E+00 0.16567008E+04</pdfrwt>
<pdfrwt beam="2">  1       -2 0.29218284E-01 0.16567008E+04</pdfrwt>
<totfact> 0.18533340E+00</totfact>
</mgrwt>
</event>
<event>
12    4  0.4424320E-008  0.1555654E+04  0.7818608E-02  0.8848264E-01
         -2   -1    0    0    0  501 -0.00000000000E+00  0.00000000000E+00  0.10653476771E+04  0.10653476771E+04  0.00000000000E+00 0.  1.
          1   -1    0    0  501    0  0.00000000000E+00 -0.00000000000E+00 -0.56790360336E+03  0.56790360336E+03  0.00000000000E+00 0. -1.
        -24    2    1    2    0    0 -0.22577047538E+03 -0.23598192732E+03 -0.25234342311E+03  0.42094800180E+03  0.82826562490E+02 0.  0.
        254    2    1    2    0    0  0.22577047538E+03  0.23598192732E+03  0.74978749680E+03  0.12123032786E+04  0.89489562040E+03 0.  0.
         23    2    4    4    0    0 -0.33670992386E+03  0.43449950528E+02  0.27850194383E+03  0.44822649580E+03  0.89900988815E+02 0.  0.
         23    2    4    4    0    0  0.56248039924E+03  0.19253197679E+03  0.47128555297E+03  0.76407678282E+03  0.90832240917E+02 0.  0.
          1    1    3    3  502    0 -0.48860018510E+02 -0.96281111344E+02 -0.11117010434E+03  0.15497143579E+03  0.00000000000E+00 0. -1.
         -2    1    3    3    0  502 -0.17691045687E+03 -0.13970081598E+03 -0.14117331877E+03  0.26597656601E+03  0.00000000000E+00 0.  1.
         11    1    5    5    0    0 -0.10099252530E+03  0.15609823121E+02  0.34589599213E+02  0.10788696454E+03  0.00000000000E+00 0. -1.
        -11    1    5    5    0    0 -0.23571739856E+03  0.27840127408E+02  0.24391234462E+03  0.34033953125E+03  0.00000000000E+00 0.  1.
          3    1    6    6  503    0  0.70126604904E+01  0.47630124073E+01 -0.39238794461E+01  0.93413341795E+01  0.00000000000E+00 0. -1.
         -3    1    6    6    0  503  0.55546773875E+03  0.18776896439E+03  0.47520943242E+03  0.75473544864E+03  0.00000000000E+00 0.  1.
<mgrwt>
<rscale>  0 0.15556539E+04</rscale>
<asrwt>0</asrwt>
<pdfrwt beam="1">  1        1 0.87369786E-01 0.15556539E+04</pdfrwt>
<pdfrwt beam="2">  1       -2 0.16389964E+00 0.15556539E+04</pdfrwt>
<totfact> 0.73588846E+00</totfact>
</mgrwt>
</event>
<event>
12    4  0.4424320E-008  0.1531708E+04  0.7818608E-02  0.8863637E-01
          1   -1    0    0  501    0  0.00000000000E+00  0.00000000000E+00  0.20816061887E+04  0.20816061887E+04  0.00000000000E+00 0. -1.
         -2   -1    0    0    0  501 -0.00000000000E+00 -0.00000000000E+00 -0.28176927407E+03  0.28176927407E+03  0.00000000000E+00 0.  1.
        -24    2    1    2    0    0 -0.15300796316E+03 -0.25242833420E+03 -0.27825403753E+02  0.30700467812E+03  0.79662529428E+02 0.  0.
        254    2    1    2    0    0  0.15300796316E+03  0.25242833420E+03  0.18276623184E+04  0.20563707846E+04  0.89508645015E+03 0.  0.
         23    2    4    4    0    0  0.32636143675E+03 -0.12194249795E+03  0.29286532904E+03  0.46441026745E+03  0.92331118020E+02 0.  0.
         23    2    4    4    0    0 -0.17335347360E+03  0.37437083215E+03  0.15347969893E+04  0.15919605172E+04  0.92366352438E+02 0.  0.
          3    1    3    3  502    0 -0.64458967376E+02 -0.12732495343E+03  0.25003430912E+02  0.14488538159E+03  0.00000000000E+00 0. -1.
         -4    1    3    3    0  502 -0.88548995780E+02 -0.12510338077E+03 -0.52828834665E+02  0.16211929652E+03  0.00000000000E+00 0.  1.
         11    1    5    5    0    0  0.10868131563E+03 -0.62586887770E+01  0.55480459353E+02  0.12218379975E+03  0.00000000000E+00 0. -1.
        -11    1    5    5    0    0  0.21768012113E+03 -0.11568380917E+03  0.23738486969E+03  0.34222646770E+03  0.00000000000E+00 0.  1.
          1    1    6    6  503    0 -0.50850882851E+02  0.56060947118E+02  0.18838928380E+03  0.20302503375E+03  0.00000000000E+00 0. -1.
         -1    1    6    6    0  503 -0.12250259075E+03  0.31830988503E+03  0.13464077055E+04  0.13889354834E+04  0.00000000000E+00 0.  1.
<mgrwt>
<rscale>  0 0.15317084E+04</rscale>
<asrwt>0</asrwt>
<pdfrwt beam="1">  1        1 0.32024710E+00 0.15317084E+04</pdfrwt>
<pdfrwt beam="2">  1       -2 0.43349120E-01 0.15317084E+04</pdfrwt>
<totfact> 0.11219994E+01</totfact>
</mgrwt>
</event>
<event>
12    4  0.4424320E-008  0.2474850E+04  0.7818608E-02  0.8412001E-01
         -2   -1    0    0    0  501 -0.00000000000E+00  0.00000000000E+00  0.68473981970E+03  0.68473981970E+03  0.00000000000E+00 0.  1.
          1   -1    0    0  501    0  0.00000000000E+00 -0.00000000000E+00 -0.22362075576E+04  0.22362075576E+04  0.00000000000E+00 0. -1.
        -24    2    1    2    0    0 -0.16658282431E+03  0.20717214332E+03  0.55423239005E+03  0.61947598993E+03  0.76855875409E+02 0.  0.
        254    2    1    2    0    0  0.16658282431E+03 -0.20717214332E+03 -0.21057001280E+04  0.23014713874E+04  0.89001538398E+03 0.  0.
         23    2    4    4    0    0 -0.21222512883E+03 -0.21371774676E+02 -0.10530894837E+03  0.25482404194E+03  0.91373189098E+02 0.  0.
         23    2    4    4    0    0  0.37880795314E+03 -0.18580036865E+03 -0.20003911796E+04  0.20466473455E+04  0.95829238108E+02 0.  0.
          1    1    3    3  502    0  0.37004854272E+01  0.14301250564E+02  0.11071394686E+02  0.18460637594E+02  0.00000000000E+00 0. -1.
         -2    1    3    3    0  502 -0.17028330974E+03  0.19287089276E+03  0.54316099537E+03  0.60101535233E+03  0.00000000000E+00 0.  1.
         11    1    5    5    0    0 -0.66960907483E+01 -0.13048960992E+02  0.11171077860E+02  0.18436539666E+02  0.00000000000E+00 0. -1.
        -11    1    5    5    0    0 -0.20552903808E+03 -0.83228136836E+01 -0.11648002623E+03  0.23638750227E+03  0.00000000000E+00 0.  1.
          4    1    6    6  503    0  0.11390545198E+03 -0.10669455204E+03 -0.69751821701E+03  0.71476558569E+03  0.00000000000E+00 0. -1.
         -4    1    6    6    0  503  0.26490250115E+03 -0.79105816607E+02 -0.13028729626E+04  0.13318817598E+04  0.00000000000E+00 0.  1.
<mgrwt>
<rscale>  0 0.24748498E+04</rscale>
<asrwt>0</asrwt>
<pdfrwt beam="1">  1        1 0.34403194E+00 0.24748498E+04</pdfrwt>
<pdfrwt beam="2">  1       -2 0.10534459E+00 0.24748498E+04</pdfrwt>
<totfact> 0.11743778E+00</totfact>
</mgrwt>
</event>
<event>
12    4  0.4424320E-008  0.2469076E+04  0.7818608E-02  0.8414086E-01
         -2   -1    0    0    0  501 -0.00000000000E+00  0.00000000000E+00  0.65743481347E+03  0.65743481347E+03  0.00000000000E+00 0.  1.
          1   -1    0    0  501    0  0.00000000000E+00 -0.00000000000E+00 -0.23182290632E+04  0.23182290632E+04  0.00000000000E+00 0. -1.
        -24    2    1    2    0    0  0.10145496078E+04  0.33952973647E+03 -0.66581914371E+03  0.12627399607E+04  0.81275627388E+02 0.  0.
        254    2    1    2    0    0 -0.10145496078E+04 -0.33952973647E+03 -0.99497510606E+03  0.17129239160E+04  0.89417086265E+03 0.  0.
         23    2    4    4    0    0 -0.97209847066E+03 -0.25593106537E+03 -0.11372222266E+04  0.15207658360E+04  0.94753303011E+02 0.  0.
         23    2    4    4    0    0 -0.42451137151E+02 -0.83598671100E+02  0.14224712053E+03  0.19215807998E+03  0.88879961441E+02 0.  0.
          1    1    3    3  502    0  0.12358085735E+03  0.21986445698E+02 -0.10062965615E+03  0.16087871144E+03  0.00000000000E+00 0. -1.
         -2    1    3    3    0  502  0.89096875046E+03  0.31754329077E+03 -0.56518948756E+03  0.11018612493E+04  0.00000000000E+00 0.  1.
         11    1    5    5    0    0 -0.24400075539E+03 -0.27307129235E+02 -0.30656338908E+03  0.39276349049E+03  0.00000000000E+00 0.  1.
        -11    1    5    5    0    0 -0.72809771527E+03 -0.22862393614E+03 -0.83065883751E+03  0.11280023455E+04  0.00000000000E+00 0. -1.
          2    1    6    6  503    0  0.13575379579E+02 -0.54718835463E+02  0.10436329261E+03  0.11861761560E+03  0.00000000000E+00 0. -1.
         -2    1    6    6    0  503 -0.56026516730E+02 -0.28879835637E+02  0.37883827918E+02  0.73540464379E+02  0.00000000000E+00 0.  1.
<mgrwt>
<rscale>  0 0.24690763E+04</rscale>
<asrwt>0</asrwt>
<pdfrwt beam="1">  1        1 0.35665062E+00 0.24690763E+04</pdfrwt>
<pdfrwt beam="2">  1       -2 0.10114382E+00 0.24690763E+04</pdfrwt>
<totfact> 0.11381343E+00</totfact>
</mgrwt>
</event>
<event>
12    4  0.4424320E-008  0.2210882E+04  0.7818608E-02  0.8513912E-01
          1   -1    0    0  501    0  0.00000000000E+00  0.00000000000E+00  0.44817364745E+04  0.44817364745E+04  0.00000000000E+00 0. -1.
         -2   -1    0    0    0  501 -0.00000000000E+00 -0.00000000000E+00 -0.27266221629E+03  0.27266221629E+03  0.00000000000E+00 0.  1.
        -24    2    1    2    0    0  0.82727100162E+03 -0.20166002500E+03  0.25153625175E+04  0.26567752679E+04  0.79763112748E+02 0.  0.
        254    2    1    2    0    0 -0.82727100162E+03  0.20166002500E+03  0.16937117407E+04  0.20976234229E+04  0.89795349970E+03 0.  0.
         23    2    4    4    0    0 -0.98768311930E+03  0.45873086328E+02  0.14187803566E+04  0.17317109308E+04  0.90899743981E+02 0.  0.
         23    2    4    4    0    0  0.16041211768E+03  0.15578693867E+03  0.27493138414E+03  0.36591249204E+03  0.91121172562E+02 0.  0.
          3    1    3    3  502    0  0.62240184748E+03 -0.13008468260E+03  0.19578986471E+04  0.20585609529E+04  0.00000000000E+00 0. -1.
         -4    1    3    3    0  502  0.20486915414E+03 -0.71575342407E+02  0.55746387032E+03  0.59821431500E+03  0.00000000000E+00 0.  1.
         11    1    5    5    0    0 -0.97509699657E+03  0.55492312485E+02  0.14017895360E+04  0.17084810366E+04  0.00000000000E+00 0. -1.
        -11    1    5    5    0    0 -0.12586122724E+02 -0.96192261573E+01  0.16990820640E+02  0.23229894169E+02  0.00000000000E+00 0.  1.
          3    1    6    6  503    0  0.16441449680E+03  0.12769234967E+03  0.26224353373E+03  0.33482702087E+03  0.00000000000E+00 0. -1.
         -3    1    6    6    0  503 -0.40023791228E+01  0.28094589006E+02  0.12687850411E+02  0.31085471174E+02  0.00000000000E+00 0.  1.
<mgrwt>
<rscale>  0 0.22108824E+04</rscale>
<asrwt>0</asrwt>
<pdfrwt beam="1">  1        1 0.68949786E+00 0.22108824E+04</pdfrwt>
<pdfrwt beam="2">  1       -2 0.41948037E-01 0.22108824E+04</pdfrwt>
<totfact> 0.14634171E-01</totfact>
</mgrwt>
</event>
<event>
12    4  0.4424320E-008  0.1505104E+04  0.7818608E-02  0.8881066E-01
          1   -1    0    0  501    0  0.00000000000E+00  0.00000000000E+00  0.48595289699E+03  0.48595289699E+03  0.00000000000E+00 0. -1.
         -2   -1    0    0    0  501 -0.00000000000E+00 -0.00000000000E+00 -0.11654100196E+04  0.11654100196E+04  0.00000000000E+00 0.  1.
        -24    2    1    2    0    0 -0.21913664566E+02 -0.35669173566E+03 -0.55887662593E+03  0.66842997508E+03  0.82136140556E+02 0.  0.
        254    2    1    2    0    0  0.21913664566E+02  0.35669173566E+03 -0.12058049672E+03  0.98293294155E+03  0.90769395085E+03 0.  0.
         23    2    4    4    0    0  0.34501841810E+03 -0.12055458901E+03 -0.13536812437E+03  0.39980136278E+03  0.89137437804E+02 0.  0.
         23    2    4    4    0    0 -0.32310475354E+03  0.47724632467E+03  0.14787627656E+02  0.58313157877E+03  0.87538723221E+02 0.  0.
          1    1    3    3  502    0 -0.31455955790E+02 -0.61643615356E+02 -0.13754508158E+03  0.15397422491E+03  0.00000000000E+00 0. -1.
         -4    1    3    3    0  502  0.95422912236E+01 -0.29504812030E+03 -0.42133154435E+03  0.51445575017E+03  0.00000000000E+00 0.  1.
         11    1    5    5    0    0  0.17880717729E+03 -0.15511374944E+02 -0.60328130283E+02  0.18934648850E+03  0.00000000000E+00 0.  1.
        -11    1    5    5    0    0  0.16621124082E+03 -0.10504321406E+03 -0.75039994092E+02  0.21045487428E+03  0.00000000000E+00 0. -1.
          4    1    6    6  503    0 -0.30062376955E+03  0.47223558815E+03  0.12022955803E+02  0.55993361481E+03  0.00000000000E+00 0. -1.
         -4    1    6    6    0  503 -0.22480983986E+02  0.50107365228E+01  0.27646718526E+01  0.23197963961E+02  0.00000000000E+00 0.  1.
<mgrwt>
<rscale>  0 0.15051038E+04</rscale>
<asrwt>0</asrwt>
<pdfrwt beam="1">  1        1 0.74761985E-01 0.15051038E+04</pdfrwt>
<pdfrwt beam="2">  1       -2 0.17929385E+00 0.15051038E+04</pdfrwt>
<totfact> 0.71414646E+00</totfact>
</mgrwt>
</event>
<event>
12    4  0.4424320E-008  0.2193092E+04  0.7818608E-02  0.8521309E-01
          1   -1    0    0  501    0  0.00000000000E+00  0.00000000000E+00  0.13834888872E+04  0.13834888872E+04  0.00000000000E+00 0. -1.
         -2   -1    0    0    0  501 -0.00000000000E+00 -0.00000000000E+00 -0.86911627690E+03  0.86911627690E+03  0.00000000000E+00 0.  1.
        -24    2    1    2    0    0  0.51432969961E+03 -0.73978154237E+03  0.71198135798E+02  0.90735293169E+03  0.80052468986E+02 0.  0.
        254    2    1    2    0    0 -0.51432969961E+03  0.73978154237E+03  0.44317447451E+03  0.13452522324E+04  0.89525872442E+03 0.  0.
         23    2    4    4    0    0 -0.63019892774E+03  0.17934287927E+03  0.37835827799E+03  0.76213669291E+03  0.91557606405E+02 0.  0.
         23    2    4    4    0    0  0.11586922814E+03  0.56043866310E+03  0.64816196522E+02  0.58311553951E+03  0.91134076800E+02 0.  0.
          1    1    3    3  502    0  0.38953922076E+03 -0.52641690549E+03  0.21473189621E+02  0.65522260398E+03  0.00000000000E+00 0. -1.
         -2    1    3    3    0  502  0.12479047884E+03 -0.21336463688E+03  0.49724946177E+02  0.25213032771E+03  0.00000000000E+00 0.  1.
         11    1    5    5    0    0 -0.18338845305E+03  0.51474038419E+02  0.15949079208E+03  0.24843150787E+03  0.00000000000E+00 0.  1.
        -11    1    5    5    0    0 -0.44681047469E+03  0.12786884085E+03  0.21886748591E+03  0.51370518504E+03  0.00000000000E+00 0. -1.
          2    1    6    6  503    0  0.63538395687E+02  0.30271030481E+03  0.80661046665E+02  0.31965115488E+03  0.00000000000E+00 0. -1.
         -2    1    6    6    0  503  0.52330832448E+02  0.25772835829E+03 -0.15844850143E+02  0.26346438463E+03  0.00000000000E+00 0.  1.
<mgrwt>
<rscale>  0 0.21930916E+04</rscale>
<asrwt>0</asrwt>
<pdfrwt beam="1">  1        1 0.21284444E+00 0.21930916E+04</pdfrwt>
<pdfrwt beam="2">  1       -2 0.13371020E+00 0.21930916E+04</pdfrwt>
<totfact> 0.25546902E+00</totfact>
</mgrwt>
</event>
<event>
12    4  0.4424320E-008  0.1479566E+04  0.7818608E-02  0.8898156E-01
         -4   -1    0    0    0  501 -0.00000000000E+00  0.00000000000E+00  0.30055093188E+03  0.30055093188E+03  0.00000000000E+00 0.  1.
          3   -1    0    0  501    0  0.00000000000E+00 -0.00000000000E+00 -0.18209181497E+04  0.18209181497E+04  0.00000000000E+00 0. -1.
        -24    2    1    2    0    0 -0.29425975875E+03 -0.28809455004E+03 -0.76031895775E+03  0.86862934866E+03  0.82733019164E+02 0.  0.
        254    2    1    2    0    0  0.29425975875E+03  0.28809455004E+03 -0.76004826007E+03  0.12528397329E+04  0.90683337133E+03 0.  0.
         23    2    4    4    0    0  0.29596032756E+03 -0.28182699019E+03 -0.32163989633E+03  0.52789657091E+03  0.90573720076E+02 0.  0.
         23    2    4    4    0    0 -0.17005688157E+01  0.56992154023E+03 -0.43840836373E+03  0.72494316201E+03  0.92343060356E+02 0.  0.
          3    1    3    3  502    0 -0.26938530161E+03 -0.24552223357E+03 -0.71049992699E+03  0.79853600680E+03  0.00000000000E+00 0. -1.
         -4    1    3    3    0  502 -0.24874457133E+02 -0.42572316468E+02 -0.49819030753E+02  0.70093341854E+02  0.00000000000E+00 0.  1.
         11    1    5    5    0    0  0.13348331373E+02 -0.53621139486E+02 -0.46280450871E+02  0.72078323254E+02  0.00000000000E+00 0. -1.
        -11    1    5    5    0    0  0.28261199619E+03 -0.22820585071E+03 -0.27535944546E+03  0.45581824765E+03  0.00000000000E+00 0.  1.
          2    1    6    6  503    0  0.38758919008E+02  0.36698924311E+03 -0.25638782205E+03  0.44935294998E+03  0.00000000000E+00 0. -1.
         -2    1    6    6    0  503 -0.40459487823E+02  0.20293229712E+03 -0.18202054169E+03  0.27559021203E+03  0.00000000000E+00 0.  1.
<mgrwt>
<rscale>  0 0.14795657E+04</rscale>
<asrwt>0</asrwt>
<pdfrwt beam="1">  1        3 0.28014126E+00 0.14795657E+04</pdfrwt>
<pdfrwt beam="2">  1       -4 0.46238604E-01 0.14795657E+04</pdfrwt>
<totfact> 0.50408604E-01</totfact>
</mgrwt>
</event>
<event>
12    4  0.4424320E-008  0.1716852E+04  0.7818608E-02  0.8751811E-01
          1   -1    0    0  501    0  0.00000000000E+00  0.00000000000E+00  0.14059576581E+04  0.14059576581E+04  0.00000000000E+00 0. -1.
         -2   -1    0    0    0  501 -0.00000000000E+00 -0.00000000000E+00 -0.52412328555E+03  0.52412328555E+03  0.00000000000E+00 0.  1.
        -24    2    1    2    0    0 -0.85812854705E+02 -0.34604289405E+03 -0.24693453191E+03  0.44070193455E+03  0.78307097427E+02 0.  0.
        254    2    1    2    0    0  0.85812854705E+02  0.34604289405E+03  0.11287689044E+04  0.14893790091E+04  0.90389217415E+03 0.  0.
         23    2    4    4    0    0  0.19693610090E+03  0.62279429533E+03  0.77101808167E+03  0.10145323120E+04  0.90279386653E+02 0.  0.
         23    2    4    4    0    0 -0.11112324620E+03 -0.27675140128E+03  0.35775082275E+03  0.47484669708E+03  0.92487948373E+02 0.  0.
          1    1    3    3  502    0 -0.29184963033E+02 -0.29478661682E+02 -0.43819079850E+02  0.60339583365E+02  0.00000000000E+00 0. -1.
         -2    1    3    3    0  502 -0.56627891673E+02 -0.31656423237E+03 -0.20311545206E+03  0.38036235118E+03  0.00000000000E+00 0.  1.
         11    1    5    5    0    0  0.18909611358E+03  0.61016373130E+03  0.72549666454E+03  0.96664498624E+03  0.00000000000E+00 0.  1.
        -11    1    5    5    0    0  0.78399873240E+01  0.12630564029E+02  0.45521417130E+02  0.47887325739E+02  0.00000000000E+00 0. -1.
          2    1    6    6  503    0 -0.26182552104E+01 -0.11982255640E+02 -0.46348299119E+01  0.13111497202E+02  0.00000000000E+00 0. -1.
         -2    1    6    6    0  503 -0.10850499099E+03 -0.26476914564E+03  0.36238565266E+03  0.46173519988E+03  0.00000000000E+00 0.  1.
<mgrwt>
<rscale>  0 0.17168519E+04</rscale>
<asrwt>0</asrwt>
<pdfrwt beam="1">  1        1 0.21630118E+00 0.17168519E+04</pdfrwt>
<pdfrwt beam="2">  1       -2 0.80634352E-01 0.17168519E+04</pdfrwt>
<totfact> 0.86150599E+00</totfact>
</mgrwt>
</event>
<event>
12    4  0.4424320E-008  0.1121291E+04  0.7818608E-02  0.9184685E-01
         -2   -1    0    0    0  501 -0.00000000000E+00  0.00000000000E+00  0.83065359985E+03  0.83065359985E+03  0.00000000000E+00 0.  1.
          1   -1    0    0  501    0  0.00000000000E+00 -0.00000000000E+00 -0.37840493310E+03  0.37840493310E+03  0.00000000000E+00 0. -1.
        -24    2    1    2    0    0  0.15265286889E+03  0.51839084287E+01 -0.39354339280E+02  0.17323973024E+03  0.71648229769E+02 0.  0.
        254    2    1    2    0    0 -0.15265286889E+03 -0.51839084287E+01  0.49160300602E+03  0.10358188027E+04  0.89884220263E+03 0.  0.
         23    2    4    4    0    0 -0.51867655019E+03 -0.56824911868E+02  0.31420152432E+03  0.61587564239E+03  0.91245683049E+02 0.  0.
         23    2    4    4    0    0  0.36602368131E+03  0.51641003439E+02  0.17740148171E+03  0.41994316032E+03  0.90779092725E+02 0.  0.
          1    1    3    3  502    0  0.15105817867E+03  0.11390221391E+02 -0.51088618320E+02  0.15986981394E+03  0.00000000000E+00 0. -1.
         -2    1    3    3    0  502  0.15946902161E+01 -0.62063129624E+01  0.11734279040E+02  0.13369916307E+02  0.00000000000E+00 0.  1.
         11    1    5    5    0    0 -0.23290095530E+03  0.44776615812E+01  0.99949642507E+02  0.25348143023E+03  0.00000000000E+00 0. -1.
        -11    1    5    5    0    0 -0.28577559489E+03 -0.61302573449E+02  0.21425188181E+03  0.36239421216E+03  0.00000000000E+00 0.  1.
          2    1    6    6  503    0  0.33749823166E+03  0.23775507087E+02  0.17248240386E+03  0.37976375650E+03  0.00000000000E+00 0. -1.
         -2    1    6    6    0  503  0.28525449641E+02  0.27865496352E+02  0.49190778485E+01  0.40179403816E+02  0.00000000000E+00 0.  1.
<mgrwt>
<rscale>  0 0.11212911E+04</rscale>
<asrwt>0</asrwt>
<pdfrwt beam="1">  1        1 0.58216144E-01 0.11212911E+04</pdfrwt>
<pdfrwt beam="2">  1       -2 0.12779286E+00 0.11212911E+04</pdfrwt>
<totfact> 0.25447214E+01</totfact>
</mgrwt>
</event>
<event>
12    4  0.4424320E-008  0.1711151E+04  0.7818608E-02  0.8755030E-01
          1   -1    0    0  501    0  0.00000000000E+00  0.00000000000E+00  0.68541873671E+03  0.68541873671E+03  0.00000000000E+00 0. -1.
         -2   -1    0    0    0  501 -0.00000000000E+00 -0.00000000000E+00 -0.10679738376E+04  0.10679738376E+04  0.00000000000E+00 0.  1.
        -24    2    1    2    0    0  0.47291488477E+01 -0.15994391724E+03  0.47308536090E+03  0.50567982885E+03  0.79359366836E+02 0.  0.
        254    2    1    2    0    0 -0.47291488477E+01  0.15994391724E+03 -0.85564046175E+03  0.12477127454E+04  0.89390272053E+03 0.  0.
         23    2    4    4    0    0  0.32458561875E+03  0.19389947230E+03 -0.81394825134E+03  0.90203398488E+03  0.90557853087E+02 0.  0.
         23    2    4    4    0    0 -0.32931476760E+03 -0.33955555059E+02 -0.41692210406E+02  0.34567876053E+03  0.90301545934E+02 0.  0.
          3    1    3    3  502    0 -0.18547578667E+02 -0.15282453402E+03  0.39737762747E+03  0.42615528823E+03  0.00000000000E+00 0. -1.
         -4    1    3    3    0  502  0.23276727515E+02 -0.71193832280E+01  0.75707733421E+02  0.79524540622E+02  0.00000000000E+00 0.  1.
         11    1    5    5    0    0  0.17431987041E+03  0.14070069408E+03 -0.40006981634E+03  0.45851931309E+03  0.00000000000E+00 0.  1.
        -11    1    5    5    0    0  0.15026574834E+03  0.53198778224E+02 -0.41387843500E+03  0.44351467179E+03  0.00000000000E+00 0. -1.
          3    1    6    6  503    0 -0.29663933804E+02 -0.31267969843E+01 -0.32772279388E+02  0.44314197774E+02  0.00000000000E+00 0. -1.
         -3    1    6    6    0  503 -0.29965083379E+03 -0.30828758074E+02 -0.89199310182E+01  0.30136456276E+03  0.00000000000E+00 0.  1.
<mgrwt>
<rscale>  0 0.17111508E+04</rscale>
<asrwt>0</asrwt>
<pdfrwt beam="1">  1        1 0.10544904E+00 0.17111508E+04</pdfrwt>
<pdfrwt beam="2">  1       -2 0.16430367E+00 0.17111508E+04</pdfrwt>
<totfact> 0.54811139E+00</totfact>
</mgrwt>
</event>
<event>
12    4  0.4424320E-008  0.1134746E+04  0.7818608E-02  0.9171973E-01
         -2   -1    0    0    0  501 -0.00000000000E+00  0.00000000000E+00  0.22384588257E+03  0.22384588257E+03  0.00000000000E+00 0.  1.
          1   -1    0    0  501    0  0.00000000000E+00 -0.00000000000E+00 -0.14380962236E+04  0.14380962236E+04  0.00000000000E+00 0. -1.
        -24    2    1    2    0    0  0.81116509166E+02  0.14989306649E+03 -0.35248088781E+03  0.39948678902E+03  0.79366862660E+02 0.  0.
        254    2    1    2    0    0 -0.81116509166E+02 -0.14989306649E+03 -0.86176945322E+03  0.12624553172E+04  0.90669676182E+03 0.  0.
         23    2    4    4    0    0  0.16011369058E+03  0.23540118948E+03 -0.71596066639E+03  0.77572277758E+03  0.89977985780E+02 0.  0.
         23    2    4    4    0    0 -0.24123019975E+03 -0.38529425596E+03 -0.14580878683E+03  0.48673253958E+03  0.94893044110E+02 0.  0.
          1    1    3    3  502    0  0.50942363975E+02  0.84361632299E+02 -0.28160878256E+03  0.29835468132E+03  0.00000000000E+00 0. -1.
         -2    1    3    3    0  502  0.30174145190E+02  0.65531434186E+02 -0.70872105250E+02  0.10113210770E+03  0.00000000000E+00 0.  1.
         11    1    5    5    0    0  0.36604620682E+02  0.61311543459E+02 -0.29770424705E+03  0.30614836652E+03  0.00000000000E+00 0. -1.
        -11    1    5    5    0    0  0.12350906990E+03  0.17408964602E+03 -0.41825641934E+03  0.46957441106E+03  0.00000000000E+00 0.  1.
          3    1    6    6  503    0 -0.22076084518E+03 -0.31392596061E+03 -0.90918459278E+02  0.39439957625E+03  0.00000000000E+00 0. -1.
         -3    1    6    6    0  503 -0.20469354568E+02 -0.71368295354E+02 -0.54890327557E+02  0.92332963331E+02  0.00000000000E+00 0.  1.
<mgrwt>
<rscale>  0 0.11347456E+04</rscale>
<asrwt>0</asrwt>
<pdfrwt beam="1">  1        1 0.22124557E+00 0.11347456E+04</pdfrwt>
<pdfrwt beam="2">  1       -2 0.34437829E-01 0.11347456E+04</pdfrwt>
<totfact> 0.49785680E+01</totfact>
</mgrwt>
</event>
<event>
12    4  0.4424320E-008  0.1204648E+04  0.7818608E-02  0.9108798E-01
          1   -1    0    0  501    0  0.00000000000E+00  0.00000000000E+00  0.34414375118E+03  0.34414375118E+03  0.00000000000E+00 0. -1.
         -2   -1    0    0    0  501 -0.00000000000E+00 -0.00000000000E+00 -0.10541937314E+04  0.10541937314E+04  0.00000000000E+00 0.  1.
        -24    2    1    2    0    0 -0.16409131004E+03 -0.96874185865E+02 -0.21734694600E+03  0.30015105756E+03  0.80872717910E+02 0.  0.
        254    2    1    2    0    0  0.16409131004E+03  0.96874185865E+02 -0.49270303419E+03  0.10981864250E+04  0.96278064907E+03 0.  0.
         23    2    4    4    0    0  0.65301771736E+02  0.39066963156E+03 -0.62791593018E+03  0.74810380740E+03  0.92161862334E+02 0.  0.
         23    2    4    4    0    0  0.98789538301E+02 -0.29379544569E+03  0.13521289598E+03  0.35008261759E+03  0.90554818257E+02 0.  0.
          3    1    3    3  502    0 -0.68618472923E+02 -0.18103446907E+02 -0.13179981347E+03  0.14969108339E+03  0.00000000000E+00 0. -1.
         -4    1    3    3    0  502 -0.95472837114E+02 -0.78770738958E+02 -0.85547132526E+02  0.15045997417E+03  0.00000000000E+00 0.  1.
         11    1    5    5    0    0  0.29902732033E+02  0.43616558263E+02 -0.12807318080E+03  0.13856160066E+03  0.00000000000E+00 0.  1.
        -11    1    5    5    0    0  0.35399039702E+02  0.34705307329E+03 -0.49984274938E+03  0.60954220674E+03  0.00000000000E+00 0. -1.
          3    1    6    6  503    0  0.84585233993E+02 -0.29363791987E+03  0.13850351274E+03  0.33550128589E+03  0.00000000000E+00 0. -1.
         -3    1    6    6    0  503  0.14204304309E+02 -0.15752582276E+00 -0.32906167598E+01  0.14581331693E+02  0.00000000000E+00 0.  1.
<mgrwt>
<rscale>  0 0.12046480E+04</rscale>
<asrwt>0</asrwt>
<pdfrwt beam="1">  1        1 0.52945194E-01 0.12046480E+04</pdfrwt>
<pdfrwt beam="2">  1       -2 0.16218365E+00 0.12046480E+04</pdfrwt>
<totfact> 0.15338620E+01</totfact>
</mgrwt>
</event>
<event>
12    4  0.4424320E-008  0.2335383E+04  0.7818608E-02  0.8464099E-01
          1   -1    0    0  501    0  0.00000000000E+00  0.00000000000E+00  0.76901827234E+03  0.76901827234E+03  0.00000000000E+00 0. -1.
         -4   -1    0    0    0  501 -0.00000000000E+00 -0.00000000000E+00 -0.17730445418E+04  0.17730445418E+04  0.00000000000E+00 0.  1.
        -24    2    1    2    0    0 -0.52502846842E+02  0.95394351691E+03 -0.12278309454E+03  0.96659624363E+03  0.80422804665E+02 0.  0.
        254    2    1    2    0    0  0.52502846842E+02 -0.95394351691E+03 -0.88124317488E+03  0.15754665705E+04  0.89035981433E+03 0.  0.
         23    2    4    4    0    0 -0.64123091071E+02 -0.87087518773E+03 -0.10258226625E+04  0.13502469186E+04  0.91209884555E+02 0.  0.
         23    2    4    4    0    0  0.11662593791E+03 -0.83068329189E+02  0.14457948757E+03  0.22521965184E+03  0.96533448297E+02 0.  0.
          1    1    3    3  502    0 -0.10426195722E+02  0.39887443434E+03 -0.13062333726E+02  0.39922442873E+03  0.00000000000E+00 0. -1.
         -2    1    3    3    0  502 -0.42076651120E+02  0.55506908257E+03 -0.10972076081E+03  0.56737181491E+03  0.00000000000E+00 0.  1.
         11    1    5    5    0    0  0.22578935428E+02 -0.23188136552E+03 -0.26109900747E+03  0.34993066127E+03  0.00000000000E+00 0.  1.
        -11    1    5    5    0    0 -0.86702026499E+02 -0.63899382221E+03 -0.76472365498E+03  0.10003162573E+04  0.00000000000E+00 0. -1.
          3    1    6    6  503    0  0.58245159356E+02  0.33671305424E+01  0.90640235072E+02  0.10779373066E+03  0.00000000000E+00 0. -1.
         -3    1    6    6    0  503  0.58380778556E+02 -0.86435459732E+02  0.53939252500E+02  0.11742592118E+03  0.00000000000E+00 0.  1.
<mgrwt>
<rscale>  0 0.23353832E+04</rscale>
<asrwt>0</asrwt>
<pdfrwt beam="1">  1        1 0.11831050E+00 0.23353832E+04</pdfrwt>
<pdfrwt beam="2">  1       -4 0.27277608E+00 0.23353832E+04</pdfrwt>
<totfact> 0.46395465E-01</totfact>
</mgrwt>
</event>
<event>
12    4  0.4424320E-008  0.1347756E+04  0.7818608E-02  0.8992529E-01
          1   -1    0    0  501    0  0.00000000000E+00  0.00000000000E+00  0.19047187157E+03  0.19047187157E+03  0.00000000000E+00 0. -1.
         -2   -1    0    0    0  501 -0.00000000000E+00 -0.00000000000E+00 -0.23841389935E+04  0.23841389935E+04  0.00000000000E+00 0.  1.
        -24    2    1    2    0    0  0.42666661355E+02  0.18485662974E+02  0.84620345211E+02  0.12507662266E+03  0.79507200842E+02 0.  0.
        254    2    1    2    0    0 -0.42666661355E+02 -0.18485662974E+02 -0.22782874671E+04  0.24495342424E+04  0.89858892605E+03 0.  0.
         23    2    4    4    0    0 -0.88028276656E+02  0.33798389193E+03 -0.18376932991E+04  0.18731828944E+04  0.98566757699E+02 0.  0.
         23    2    4    4    0    0  0.45361615300E+02 -0.35646955490E+03 -0.44059416805E+03  0.57635134798E+03  0.94495691353E+02 0.  0.
          3    1    3    3  502    0  0.54309151487E+02  0.30562145573E+02  0.88131578996E+02  0.10793842640E+03  0.00000000000E+00 0. -1.
         -4    1    3    3    0  502 -0.11642490132E+02 -0.12076482598E+02 -0.35112337846E+01  0.17138196262E+02  0.00000000000E+00 0.  1.
         11    1    5    5    0    0 -0.46982855877E+02  0.23855034144E+03 -0.14738871050E+04  0.14938061629E+04  0.00000000000E+00 0. -1.
        -11    1    5    5    0    0 -0.41045420779E+02  0.99433550489E+02 -0.36380619410E+03  0.37937673149E+03  0.00000000000E+00 0.  1.
          1    1    6    6  503    0  0.18620309386E+02 -0.15670618188E+03 -0.12246658416E+03  0.19975386754E+03  0.00000000000E+00 0. -1.
         -1    1    6    6    0  503  0.26741305914E+02 -0.19976337302E+03 -0.31812758389E+03  0.37659748044E+03  0.00000000000E+00 0.  1.
<mgrwt>
<rscale>  0 0.13477558E+04</rscale>
<asrwt>0</asrwt>
<pdfrwt beam="1">  1        1 0.29303365E-01 0.13477558E+04</pdfrwt>
<pdfrwt beam="2">  1       -2 0.36679061E+00 0.13477558E+04</pdfrwt>
<totfact> 0.16666046E+00</totfact>
</mgrwt>
</event>
<event>
12    4  0.4424320E-008  0.1665188E+04  0.7818608E-02  0.8781472E-01
         -2   -1    0    0    0  501 -0.00000000000E+00  0.00000000000E+00  0.64912338526E+03  0.64912338526E+03  0.00000000000E+00 0.  1.
          1   -1    0    0  501    0  0.00000000000E+00 -0.00000000000E+00 -0.10679215215E+04  0.10679215215E+04  0.00000000000E+00 0. -1.
        -24    2    1    2    0    0 -0.15377061262E+03 -0.50882713989E+03  0.75883352205E+02  0.54285353094E+03  0.79882496965E+02 0.  0.
        254    2    1    2    0    0  0.15377061262E+03  0.50882713989E+03 -0.49468148840E+03  0.11741913758E+04  0.92274869407E+03 0.  0.
         23    2    4    4    0    0 -0.14152441327E+03  0.12775480554E+03 -0.63048584129E+03  0.66492031483E+03  0.90863519137E+02 0.  0.
         23    2    4    4    0    0  0.29529502589E+03  0.38107233435E+03  0.13580435289E+03  0.50927106096E+03  0.92189559841E+02 0.  0.
          1    1    3    3  502    0 -0.14181611766E+03 -0.46536685022E+03  0.91742469137E+02  0.49507049716E+03  0.00000000000E+00 0. -1.
         -2    1    3    3    0  502 -0.11954494962E+02 -0.43460289664E+02 -0.15859116932E+02  0.47783033782E+02  0.00000000000E+00 0.  1.
         11    1    5    5    0    0 -0.74375057137E+02  0.73252193349E+02 -0.48119492396E+03  0.49238814751E+03  0.00000000000E+00 0. -1.
        -11    1    5    5    0    0 -0.67149356128E+02  0.54502612188E+02 -0.14929091733E+03  0.17253216732E+03  0.00000000000E+00 0.  1.
          3    1    6    6  503    0  0.11580082359E+03  0.21942377052E+03  0.86374918248E+02  0.26271134029E+03  0.00000000000E+00 0. -1.
         -3    1    6    6    0  503  0.17949420230E+03  0.16164856382E+03  0.49429434643E+02  0.24655972067E+03  0.00000000000E+00 0.  1.
<mgrwt>
<rscale>  0 0.16651881E+04</rscale>
<asrwt>0</asrwt>
<pdfrwt beam="1">  1        1 0.16429562E+00 0.16651881E+04</pdfrwt>
<pdfrwt beam="2">  1       -2 0.99865137E-01 0.16651881E+04</pdfrwt>
<totfact> 0.92985578E+00</totfact>
</mgrwt>
</event>
<event>
12    4  0.4424320E-008  0.9217358E+03  0.7818608E-02  0.9398811E-01
         -2   -1    0    0    0  501 -0.00000000000E+00  0.00000000000E+00  0.49542861495E+03  0.49542861495E+03  0.00000000000E+00 0.  1.
          1   -1    0    0  501    0  0.00000000000E+00 -0.00000000000E+00 -0.42871813159E+03  0.42871813159E+03  0.00000000000E+00 0. -1.
        -24    2    1    2    0    0 -0.10556128885E+02  0.46604789031E+02  0.33681003027E+02  0.99240064126E+02  0.80191908227E+02 0.  0.
        254    2    1    2    0    0  0.10556128885E+02 -0.46604789031E+02  0.33029480341E+02  0.82490668241E+03  0.82285882744E+03 0.  0.
         23    2    4    4    0    0 -0.40220263264E+02  0.15004747943E+03  0.37575697916E+03  0.41665241774E+03  0.90961608177E+02 0.  0.
         23    2    4    4    0    0  0.50776392148E+02 -0.19665226847E+03 -0.34272749882E+03  0.40825426467E+03  0.89213505030E+02 0.  0.
          3    1    3    3  502    0 -0.27196301267E+02  0.30835910907E+02 -0.16318437584E+02  0.44235546897E+02  0.00000000000E+00 0. -1.
         -4    1    3    3    0  502  0.16640172382E+02  0.15768878124E+02  0.49999440611E+02  0.55004517229E+02  0.00000000000E+00 0.  1.
         11    1    5    5    0    0 -0.28610573404E+02  0.42539929723E+01  0.10509165922E+03  0.10899962479E+03  0.00000000000E+00 0.  1.
        -11    1    5    5    0    0 -0.11609689859E+02  0.14579348646E+03  0.27066531994E+03  0.30765279295E+03  0.00000000000E+00 0. -1.
          1    1    6    6  503    0  0.28181876062E+02 -0.19202513757E+03 -0.27410127076E+03  0.33585618682E+03  0.00000000000E+00 0. -1.
         -1    1    6    6    0  503  0.22594516086E+02 -0.46271308980E+01 -0.68626228064E+02  0.72398077846E+02  0.00000000000E+00 0.  1.
<mgrwt>
<rscale>  0 0.92173582E+03</rscale>
<asrwt>0</asrwt>
<pdfrwt beam="1">  1        1 0.65956635E-01 0.92173582E+03</pdfrwt>
<pdfrwt beam="2">  1       -2 0.76219787E-01 0.92173582E+03</pdfrwt>
<totfact> 0.74178091E+01</totfact>
</mgrwt>
</event>
<event>
12    4  0.4424320E-008  0.1250143E+04  0.7818608E-02  0.9070065E-01
          1   -1    0    0  501    0  0.00000000000E+00  0.00000000000E+00  0.44230827934E+03  0.44230827934E+03  0.00000000000E+00 0. -1.
         -2   -1    0    0    0  501 -0.00000000000E+00 -0.00000000000E+00 -0.88335242808E+03  0.88335242808E+03  0.00000000000E+00 0.  1.
        -24    2    1    2    0    0 -0.51928257801E+01 -0.30149183402E+03 -0.17721864821E+03  0.35917729368E+03  0.81716507521E+02 0.  0.
        254    2    1    2    0    0  0.51928257801E+01  0.30149183402E+03 -0.26382550053E+03  0.96648341374E+03  0.87952373640E+03 0.  0.
         23    2    4    4    0    0 -0.39242636108E+03  0.97124248847E+01 -0.80034489917E+01  0.40343360331E+03  0.92746088968E+02 0.  0.
         23    2    4    4    0    0  0.39761918686E+03  0.29177940913E+03 -0.25582205154E+03  0.56304981043E+03  0.91345090844E+02 0.  0.
          3    1    3    3  502    0 -0.23000700581E+02 -0.55605864618E+02 -0.92922805996E+01  0.60888347702E+02  0.00000000000E+00 0. -1.
         -4    1    3    3    0  502  0.17807874801E+02 -0.24588596940E+03 -0.16792636761E+03  0.29828894598E+03  0.00000000000E+00 0.  1.
         11    1    5    5    0    0 -0.36708525900E+03  0.31983694214E+01 -0.31258826716E+02  0.36842764716E+03  0.00000000000E+00 0.  1.
        -11    1    5    5    0    0 -0.25341102075E+02  0.65140554632E+01  0.23255377724E+02  0.35005956151E+02  0.00000000000E+00 0. -1.
          1    1    6    6  503    0  0.14390914261E+03  0.67959189185E+02 -0.11615729781E+03  0.19702997375E+03  0.00000000000E+00 0. -1.
         -1    1    6    6    0  503  0.25371004425E+03  0.22382021995E+03 -0.13966475373E+03  0.36601983668E+03  0.00000000000E+00 0.  1.
<mgrwt>
<rscale>  0 0.12501425E+04</rscale>
<asrwt>0</asrwt>
<pdfrwt beam="1">  1        1 0.68047428E-01 0.12501425E+04</pdfrwt>
<pdfrwt beam="2">  1       -2 0.13590037E+00 0.12501425E+04</pdfrwt>
<totfact> 0.17510151E+01</totfact>
</mgrwt>
</event>
<event>
12    4  0.4424320E-008  0.1257854E+04  0.7818608E-02  0.9063672E-01
         -2   -1    0    0    0  501 -0.00000000000E+00  0.00000000000E+00  0.70890587737E+03  0.70890587737E+03  0.00000000000E+00 0.  1.
          3   -1    0    0  501    0  0.00000000000E+00 -0.00000000000E+00 -0.55797141557E+03  0.55797141557E+03  0.00000000000E+00 0. -1.
        -24    2    1    2    0    0  0.47925692748E+02  0.24160041543E+03  0.20310694177E+03  0.32951571066E+03  0.81612137686E+02 0.  0.
        254    2    1    2    0    0 -0.47925692748E+02 -0.24160041543E+03 -0.52172479981E+02  0.93736158228E+03  0.90291590721E+03 0.  0.
         23    2    4    4    0    0  0.24554026137E+03  0.19613920113E+03 -0.19805830976E+03  0.38265253181E+03  0.91843670777E+02 0.  0.
         23    2    4    4    0    0 -0.29346595412E+03 -0.43773961655E+03  0.14588582978E+03  0.55470905046E+03  0.93173049789E+02 0.  0.
          3    1    3    3  502    0  0.39252835219E+02  0.42332779451E+02  0.28281123014E+02  0.64285855425E+02  0.00000000000E+00 0. -1.
         -4    1    3    3    0  502  0.86728575296E+01  0.19926763598E+03  0.17482581876E+03  0.26522985524E+03  0.00000000000E+00 0.  1.
         11    1    5    5    0    0  0.10059012020E+03  0.12313343456E+03 -0.61252499525E+02  0.17038803857E+03  0.00000000000E+00 0.  1.
        -11    1    5    5    0    0  0.14495014117E+03  0.73005766568E+02 -0.13680581024E+03  0.21226449325E+03  0.00000000000E+00 0. -1.
          4    1    6    6  503    0 -0.28310936271E+03 -0.38932908928E+03  0.11062407913E+03  0.49392887939E+03  0.00000000000E+00 0. -1.
         -4    1    6    6    0  503 -0.10356591412E+02 -0.48410527278E+02  0.35261750652E+02  0.60780171077E+02  0.00000000000E+00 0.  1.
<mgrwt>
<rscale>  0 0.12578541E+04</rscale>
<asrwt>0</asrwt>
<pdfrwt beam="1">  1        3 0.85841756E-01 0.12578541E+04</pdfrwt>
<pdfrwt beam="2">  1       -2 0.10906244E+00 0.12578541E+04</pdfrwt>
<totfact> 0.34086377E+00</totfact>
</mgrwt>
</event>
<event>
12    4  0.4424320E-008  0.2475099E+04  0.7818608E-02  0.8411911E-01
          1   -1    0    0  501    0  0.00000000000E+00  0.00000000000E+00  0.13598784383E+04  0.13598784383E+04  0.00000000000E+00 0. -1.
         -2   -1    0    0    0  501 -0.00000000000E+00 -0.00000000000E+00 -0.11262249562E+04  0.11262249562E+04  0.00000000000E+00 0.  1.
        -24    2    1    2    0    0 -0.29097153613E+03  0.14108190929E+03 -0.92828658866E+03  0.98624373242E+03  0.79951041812E+02 0.  0.
        254    2    1    2    0    0  0.29097153613E+03 -0.14108190929E+03  0.11619400708E+04  0.14998596621E+04  0.89157486386E+03 0.  0.
         23    2    4    4    0    0  0.22195310831E+03  0.12512064489E+03 -0.32928019019E+02  0.27030025376E+03  0.84021513203E+02 0.  0.
         23    2    4    4    0    0  0.69018427819E+02 -0.26620255418E+03  0.11948680898E+04  0.12295594083E+04  0.92082806888E+02 0.  0.
          3    1    3    3  502    0  0.37739534764E+00 -0.56763745121E+01 -0.77645953106E+01  0.96256218079E+01  0.00000000000E+00 0. -1.
         -4    1    3    3    0  502 -0.29134893148E+03  0.14675828380E+03 -0.92052199335E+03  0.97661811061E+03  0.00000000000E+00 0.  1.
         11    1    5    5    0    0  0.10129315820E+02  0.48373054275E+01  0.18215605713E+02  0.21396515003E+02  0.00000000000E+00 0. -1.
        -11    1    5    5    0    0  0.21182379249E+03  0.12028333946E+03 -0.51143624732E+02  0.24890373876E+03  0.00000000000E+00 0.  1.
          1    1    6    6  503    0  0.54294364742E+02 -0.86271213106E+02  0.30563081141E+03  0.32218130476E+03  0.00000000000E+00 0. -1.
         -1    1    6    6    0  503  0.14724063077E+02 -0.17993134107E+03  0.88923727837E+03  0.90737810354E+03  0.00000000000E+00 0.  1.
<mgrwt>
<rscale>  0 0.24750992E+04</rscale>
<asrwt>0</asrwt>
<pdfrwt beam="1">  1        1 0.20921207E+00 0.24750992E+04</pdfrwt>
<pdfrwt beam="2">  1       -2 0.17326538E+00 0.24750992E+04</pdfrwt>
<totfact> 0.12951002E+00</totfact>
</mgrwt>
</event>
<event>
12    4  0.4424320E-008  0.1720239E+04  0.7818608E-02  0.8749905E-01
         -2   -1    0    0    0  501 -0.00000000000E+00  0.00000000000E+00  0.10104396089E+04  0.10104396089E+04  0.00000000000E+00 0.  1.
          1   -1    0    0  501    0  0.00000000000E+00 -0.00000000000E+00 -0.73216247622E+03  0.73216247622E+03  0.00000000000E+00 0. -1.
        -24    2    1    2    0    0 -0.24470634250E+03  0.35032648044E+03  0.55731779513E+03  0.70693458670E+03  0.80892200832E+02 0.  0.
        254    2    1    2    0    0  0.24470634250E+03 -0.35032648044E+03 -0.27904066244E+03  0.10356674984E+04  0.90118457547E+03 0.  0.
         23    2    4    4    0    0  0.35430609699E+03 -0.31032953609E+03 -0.54792423970E+03  0.72801130803E+03  0.89119362874E+02 0.  0.
         23    2    4    4    0    0 -0.10959975449E+03 -0.39996944346E+02  0.26888357726E+03  0.30765619040E+03  0.93499153095E+02 0.  0.
          1    1    3    3  502    0 -0.37325210100E+02  0.18121149564E+02  0.74337930870E+02  0.85133279841E+02  0.00000000000E+00 0. -1.
         -2    1    3    3    0  502 -0.20738113240E+03  0.33220533087E+03  0.48297986426E+03  0.62180130686E+03  0.00000000000E+00 0.  1.
         11    1    5    5    0    0  0.96678698089E+02 -0.12038799942E+03 -0.22881981890E+03  0.27604084949E+03  0.00000000000E+00 0. -1.
        -11    1    5    5    0    0  0.25762739890E+03 -0.18994153667E+03 -0.31910442080E+03  0.45197045854E+03  0.00000000000E+00 0.  1.
          1    1    6    6  503    0 -0.42366957777E+02 -0.62838843946E+02  0.16784640014E+03  0.18416322504E+03  0.00000000000E+00 0. -1.
         -1    1    6    6    0  503 -0.67232796713E+02  0.22841899600E+02  0.10103717712E+03  0.12349296535E+03  0.00000000000E+00 0.  1.
<mgrwt>
<rscale>  0 0.17202395E+04</rscale>
<asrwt>0</asrwt>
<pdfrwt beam="1">  1        1 0.11264038E+00 0.17202395E+04</pdfrwt>
<pdfrwt beam="2">  1       -2 0.15545225E+00 0.17202395E+04</pdfrwt>
<totfact> 0.57592104E+00</totfact>
</mgrwt>
</event>
<event>
12    4  0.4424320E-008  0.1794106E+04  0.7818608E-02  0.8709440E-01
         -2   -1    0    0    0  501 -0.00000000000E+00  0.00000000000E+00  0.77404992689E+03  0.77404992689E+03  0.00000000000E+00 0.  1.
          1   -1    0    0  501    0  0.00000000000E+00 -0.00000000000E+00 -0.10396025453E+04  0.10396025453E+04  0.00000000000E+00 0. -1.
        -24    2    1    2    0    0  0.26278691025E+03 -0.32397361877E+03 -0.61700898863E+03  0.74914154133E+03  0.80604534828E+02 0.  0.
        254    2    1    2    0    0 -0.26278691025E+03  0.32397361877E+03  0.35145637025E+03  0.10645109308E+04  0.91413679272E+03 0.  0.
         23    2    4    4    0    0 -0.44858479861E+02  0.30434391146E+03  0.62489941549E+03  0.70240036281E+03  0.90716539542E+02 0.  0.
         23    2    4    4    0    0 -0.21792843039E+03  0.19629707309E+02 -0.27344304523E+03  0.36211056801E+03  0.92058884954E+02 0.  0.
          1    1    3    3  502    0  0.99584590257E+02 -0.15892513595E+03 -0.33468863123E+03  0.38365449212E+03  0.00000000000E+00 0. -1.
         -2    1    3    3    0  502  0.16320232000E+03 -0.16504848282E+03 -0.28232035741E+03  0.36548704921E+03  0.00000000000E+00 0.  1.
         11    1    5    5    0    0 -0.70015467209E+02  0.25947793038E+03  0.50892378629E+03  0.57552965367E+03  0.00000000000E+00 0.  1.
        -11    1    5    5    0    0  0.25156987348E+02  0.44865981079E+02  0.11597562920E+03  0.12687070915E+03  0.00000000000E+00 0. -1.
          4    1    6    6  503    0 -0.11491438513E+03  0.30771997241E+02 -0.82192356078E+02  0.14459534958E+03  0.00000000000E+00 0. -1.
         -4    1    6    6    0  503 -0.10301404526E+03 -0.11142289933E+02 -0.19125068916E+03  0.21751521843E+03  0.00000000000E+00 0.  1.
<mgrwt>
<rscale>  0 0.17941062E+04</rscale>
<asrwt>0</asrwt>
<pdfrwt beam="1">  1        1 0.15993885E+00 0.17941062E+04</pdfrwt>
<pdfrwt beam="2">  1       -2 0.11908460E+00 0.17941062E+04</pdfrwt>
<totfact> 0.63146061E+00</totfact>
</mgrwt>
</event>
<event>
12    4  0.4424320E-008  0.2137753E+04  0.7818608E-02  0.8544793E-01
         -2   -1    0    0    0  501 -0.00000000000E+00  0.00000000000E+00  0.13668044035E+04  0.13668044035E+04  0.00000000000E+00 0.  1.
          1   -1    0    0  501    0  0.00000000000E+00 -0.00000000000E+00 -0.83588931317E+03  0.83588931317E+03  0.00000000000E+00 0. -1.
        -24    2    1    2    0    0  0.55128641700E+02  0.56502150729E+03 -0.43658654237E+03  0.72121496345E+03  0.85174783180E+02 0.  0.
        254    2    1    2    0    0 -0.55128641700E+02 -0.56502150729E+03  0.96750163273E+03  0.14814787532E+04  0.96769386490E+03 0.  0.
         23    2    4    4    0    0 -0.47841895940E+03 -0.47128605922E+03  0.55522845834E+03  0.87622577207E+03  0.92183037250E+02 0.  0.
         23    2    4    4    0    0  0.42329031771E+03 -0.93735448074E+02  0.41227317439E+03  0.60525298118E+03  0.91656825266E+02 0.  0.
          1    1    3    3  502    0  0.16384818256E+02  0.39879464530E+03 -0.26436330344E+03  0.47874167104E+03  0.00000000000E+00 0. -1.
         -2    1    3    3    0  502  0.38743823444E+02  0.16622686200E+03 -0.17222323894E+03  0.24247329241E+03  0.00000000000E+00 0.  1.
         11    1    5    5    0    0 -0.35403657391E+03 -0.37487847371E+03  0.46773203134E+03  0.69616737848E+03  0.00000000000E+00 0.  1.
        -11    1    5    5    0    0 -0.12438238549E+03 -0.96407585512E+02  0.87496427002E+02  0.18005839359E+03  0.00000000000E+00 0. -1.
          3    1    6    6  503    0  0.24970582207E+02 -0.11908148780E+02  0.22095467648E+01  0.27752767070E+02  0.00000000000E+00 0. -1.
         -3    1    6    6    0  503  0.39831973550E+03 -0.81827299294E+02  0.41006362762E+03  0.57750021411E+03  0.00000000000E+00 0.  1.
<mgrwt>
<rscale>  0 0.21377532E+04</rscale>
<asrwt>0</asrwt>
<pdfrwt beam="1">  1        1 0.12859836E+00 0.21377532E+04</pdfrwt>
<pdfrwt beam="2">  1       -2 0.21027760E+00 0.21377532E+04</pdfrwt>
<totfact> 0.18854955E+00</totfact>
</mgrwt>
</event>
<event>
12    4  0.4424320E-008  0.1635519E+04  0.7818608E-02  0.8799020E-01
          1   -1    0    0  501    0  0.00000000000E+00  0.00000000000E+00  0.45630482925E+03  0.45630482925E+03  0.00000000000E+00 0. -1.
         -2   -1    0    0    0  501 -0.00000000000E+00 -0.00000000000E+00 -0.14655344240E+04  0.14655344240E+04  0.00000000000E+00 0.  1.
        -24    2    1    2    0    0 -0.72195582515E+02 -0.85827412396E+02  0.30013259182E+03  0.33050989468E+03  0.81109006624E+02 0.  0.
        254    2    1    2    0    0  0.72195582515E+02  0.85827412396E+02 -0.13093621866E+04  0.15913293586E+04  0.89739692723E+03 0.  0.
         23    2    4    4    0    0 -0.38282433994E+03  0.33154566947E+02 -0.84365368211E+03  0.93159074708E+03  0.91956969008E+02 0.  0.
         23    2    4    4    0    0  0.45501992245E+03  0.52672845449E+02 -0.46570850451E+03  0.65973861154E+03  0.92482787076E+02 0.  0.
          3    1    3    3  502    0 -0.43212170479E+02 -0.82247721712E+02  0.28007148202E+03  0.29507967474E+03  0.00000000000E+00 0. -1.
         -4    1    3    3    0  502 -0.28983412035E+02 -0.35796906840E+01  0.20061109803E+02  0.35430219942E+02  0.00000000000E+00 0.  1.
         11    1    5    5    0    0 -0.37616464960E+03  0.22216907299E+02 -0.83513162442E+03  0.91620863600E+03  0.00000000000E+00 0. -1.
        -11    1    5    5    0    0 -0.66596903332E+01  0.10937659648E+02 -0.85220576933E+01  0.15382111079E+02  0.00000000000E+00 0.  1.
          1    1    6    6  503    0  0.37490022023E+03  0.50897425245E+02 -0.42775936723E+03  0.57106812140E+03  0.00000000000E+00 0. -1.
         -1    1    6    6    0  503  0.80119702221E+02  0.17754202040E+01 -0.37949137276E+02  0.88670490136E+02  0.00000000000E+00 0.  1.
<mgrwt>
<rscale>  0 0.16355188E+04</rscale>
<asrwt>0</asrwt>
<pdfrwt beam="1">  1        1 0.70200744E-01 0.16355188E+04</pdfrwt>
<pdfrwt beam="2">  1       -2 0.22546683E+00 0.16355188E+04</pdfrwt>
<totfact> 0.38357577E+00</totfact>
</mgrwt>
</event>
<event>
12    4  0.4424320E-008  0.3351910E+04  0.7818608E-02  0.8149811E-01
         -2   -1    0    0    0  501 -0.00000000000E+00  0.00000000000E+00  0.23453423221E+04  0.23453423221E+04  0.00000000000E+00 0.  1.
          1   -1    0    0  501    0  0.00000000000E+00 -0.00000000000E+00 -0.11976184575E+04  0.11976184575E+04  0.00000000000E+00 0. -1.
        -24    2    1    2    0    0  0.72690558676E+03  0.16598847079E+02 -0.92262353584E+03  0.11773197480E+04  0.78615178207E+02 0.  0.
        254    2    1    2    0    0 -0.72690558676E+03 -0.16598847079E+02  0.20703474005E+04  0.23656410317E+04  0.88388453891E+03 0.  0.
         23    2    4    4    0    0 -0.76915279368E+03  0.27943142787E+03  0.13658152811E+04  0.15948281019E+04  0.91363831123E+02 0.  0.
         23    2    4    4    0    0  0.42247206919E+02 -0.29603027495E+03  0.70453211942E+03  0.77081292977E+03  0.91478495970E+02 0.  0.
          3    1    3    3  502    0  0.38532320644E+03 -0.99690085135E+01 -0.43273253445E+03  0.57950910340E+03  0.00000000000E+00 0. -1.
         -4    1    3    3    0  502  0.34158238032E+03  0.26567855593E+02 -0.48989100140E+03  0.59781064456E+03  0.00000000000E+00 0.  1.
         11    1    5    5    0    0 -0.30874705001E+03  0.65082792382E+02  0.53042927354E+03  0.61718370440E+03  0.00000000000E+00 0. -1.
        -11    1    5    5    0    0 -0.46040574367E+03  0.21434863549E+03  0.83538600753E+03  0.97764439748E+03  0.00000000000E+00 0.  1.
          1    1    6    6  503    0  0.53259728709E+02 -0.82035345664E+02  0.19875467304E+03  0.22151707992E+03  0.00000000000E+00 0. -1.
         -1    1    6    6    0  503 -0.11012521789E+02 -0.21399492929E+03  0.50577744638E+03  0.54929584985E+03  0.00000000000E+00 0.  1.
<mgrwt>
<rscale>  0 0.33519101E+04</rscale>
<asrwt>0</asrwt>
<pdfrwt beam="1">  1        1 0.18424899E+00 0.33519101E+04</pdfrwt>
<pdfrwt beam="2">  1       -2 0.36082189E+00 0.33519101E+04</pdfrwt>
<totfact> 0.10330820E-01</totfact>
</mgrwt>
</event>
<event>
12    4  0.4424320E-008  0.2131395E+04  0.7818608E-02  0.8547538E-01
          3   -1    0    0  501    0  0.00000000000E+00  0.00000000000E+00  0.27222414485E+04  0.27222414485E+04  0.00000000000E+00 0. -1.
         -4   -1    0    0    0  501 -0.00000000000E+00 -0.00000000000E+00 -0.41719726366E+03  0.41719726366E+03  0.00000000000E+00 0.  1.
        -24    2    1    2    0    0 -0.71792672287E+03  0.43568293761E+02  0.22379653265E+03  0.75740037780E+03  0.79078876034E+02 0.  0.
        254    2    1    2    0    0  0.71792672287E+03 -0.43568293761E+02  0.20812476522E+04  0.23820383343E+04  0.90840401861E+03 0.  0.
         23    2    4    4    0    0  0.13721440189E+03  0.22185833535E+03  0.93332029704E+02  0.29197785176E+03  0.92148169265E+02 0.  0.
         23    2    4    4    0    0  0.58071232097E+03 -0.26542662911E+03  0.19879156225E+04  0.20900604826E+04  0.94160520723E+02 0.  0.
          3    1    3    3  502    0 -0.12001456098E+03 -0.16078046129E+02  0.18936877555E+02  0.12255857272E+03  0.00000000000E+00 0. -1.
         -4    1    3    3    0  502 -0.59791216189E+03  0.59646339890E+02  0.20485965510E+03  0.63484180508E+03  0.00000000000E+00 0.  1.
         11    1    5    5    0    0  0.30755684554E+02  0.27667959486E+01  0.22800076643E+02  0.38385033374E+02  0.00000000000E+00 0.  1.
        -11    1    5    5    0    0  0.10645871734E+03  0.21909153940E+03  0.70531953061E+02  0.25359281839E+03  0.00000000000E+00 0. -1.
          3    1    6    6  503    0  0.29325129864E+03 -0.87557397317E+02  0.87809759784E+03  0.92990215255E+03  0.00000000000E+00 0. -1.
         -3    1    6    6    0  503  0.28746102233E+03 -0.17786923179E+03  0.11098180246E+04  0.11601583300E+04  0.00000000000E+00 0.  1.
<mgrwt>
<rscale>  0 0.21313955E+04</rscale>
<asrwt>0</asrwt>
<pdfrwt beam="1">  1        3 0.41880637E+00 0.21313955E+04</pdfrwt>
<pdfrwt beam="2">  1       -4 0.64184196E-01 0.21313955E+04</pdfrwt>
<totfact> 0.42378599E-02</totfact>
</mgrwt>
</event>
<event>
12    4  0.4424320E-008  0.1522679E+04  0.7818608E-02  0.8869510E-01
          1   -1    0    0  501    0  0.00000000000E+00  0.00000000000E+00  0.46721858359E+03  0.46721858359E+03  0.00000000000E+00 0. -1.
         -2   -1    0    0    0  501 -0.00000000000E+00 -0.00000000000E+00 -0.12406145242E+04  0.12406145242E+04  0.00000000000E+00 0.  1.
        -24    2    1    2    0    0  0.44589295942E+03  0.17940073541E+02 -0.47320293215E+03  0.65488264682E+03  0.76209504752E+02 0.  0.
        254    2    1    2    0    0 -0.44589295942E+03 -0.17940073541E+02 -0.30019300843E+03  0.10529504609E+04  0.90523281723E+03 0.  0.
         23    2    4    4    0    0 -0.53563840331E+03 -0.22238594047E+03  0.92202078203E+02  0.59257247195E+03  0.79226925171E+02 0.  0.
         23    2    4    4    0    0  0.89745443890E+02  0.20444586693E+03 -0.39239508663E+03  0.46037798899E+03  0.90120095024E+02 0.  0.
          1    1    3    3  502    0  0.86074029939E+02  0.32597961567E+02 -0.83584679784E+02  0.12432925811E+03  0.00000000000E+00 0. -1.
         -2    1    3    3    0  502  0.35981892948E+03 -0.14657888027E+02 -0.38961825237E+03  0.53055338871E+03  0.00000000000E+00 0.  1.
         11    1    5    5    0    0 -0.77617437135E+02 -0.62420830846E+02  0.56720885252E+01  0.99764719511E+02  0.00000000000E+00 0. -1.
        -11    1    5    5    0    0 -0.45802096617E+03 -0.15996510962E+03  0.86529989678E+02  0.49280775244E+03  0.00000000000E+00 0.  1.
          1    1    6    6  503    0  0.60917648301E+02  0.72658596944E+02 -0.97038553360E+02  0.13567133972E+03  0.00000000000E+00 0. -1.
         -1    1    6    6    0  503  0.28827795589E+02  0.13178726998E+03 -0.29535653327E+03  0.32470664926E+03  0.00000000000E+00 0.  1.
<mgrwt>
<rscale>  0 0.15226794E+04</rscale>
<asrwt>0</asrwt>
<pdfrwt beam="1">  1        1 0.71879783E-01 0.15226794E+04</pdfrwt>
<pdfrwt beam="2">  1       -2 0.19086377E+00 0.15226794E+04</pdfrwt>
<totfact> 0.62766501E+00</totfact>
</mgrwt>
</event>
<event>
12    4  0.4424320E-008  0.3962563E+04  0.7818608E-02  0.8012142E-01
         -2   -1    0    0    0  501 -0.00000000000E+00  0.00000000000E+00  0.11468262689E+04  0.11468262689E+04  0.00000000000E+00 0.  1.
          1   -1    0    0  501    0  0.00000000000E+00 -0.00000000000E+00 -0.34229042389E+04  0.34229042389E+04  0.00000000000E+00 0. -1.
        -24    2    1    2    0    0  0.81525155471E+03  0.11906770129E+04 -0.24412858421E+04  0.28373399523E+04  0.90964801992E+02 0.  0.
        254    2    1    2    0    0 -0.81525155471E+03 -0.11906770129E+04  0.16520787215E+03  0.17323905555E+04  0.94421213155E+03 0.  0.
         23    2    4    4    0    0 -0.54898473208E+03 -0.81451962846E+03  0.54648137973E+03  0.11274782014E+04  0.87970079947E+02 0.  0.
         23    2    4    4    0    0 -0.26626682263E+03 -0.37615738443E+03 -0.38127350757E+03  0.60491235416E+03  0.90316498703E+02 0.  0.
          3    1    3    3  502    0  0.60794982073E+03  0.81710118425E+03 -0.16980939701E+04  0.19800960737E+04  0.00000000000E+00 0. -1.
         -4    1    3    3    0  502  0.20730173399E+03  0.37357582865E+03 -0.74319187200E+03  0.85724387853E+03  0.00000000000E+00 0.  1.
         11    1    5    5    0    0 -0.28058433025E+03 -0.38611521841E+03  0.21902353514E+03  0.52515125175E+03  0.00000000000E+00 0. -1.
        -11    1    5    5    0    0 -0.26840040183E+03 -0.42840441006E+03  0.32745784459E+03  0.60232694962E+03  0.00000000000E+00 0.  1.
          1    1    6    6  503    0 -0.41719229160E+02 -0.10870578371E+03 -0.62841166323E+02  0.13231195592E+03  0.00000000000E+00 0. -1.
         -1    1    6    6    0  503 -0.22454759347E+03 -0.26745160072E+03 -0.31843234125E+03  0.47260039824E+03  0.00000000000E+00 0.  1.
<mgrwt>
<rscale>  0 0.39625631E+04</rscale>
<asrwt>0</asrwt>
<pdfrwt beam="1">  1        1 0.52660066E+00 0.39625631E+04</pdfrwt>
<pdfrwt beam="2">  1       -2 0.17643481E+00 0.39625631E+04</pdfrwt>
<totfact> 0.38082127E-02</totfact>
</mgrwt>
</event>
<event>
12    4  0.4424320E-008  0.2138642E+04  0.7818608E-02  0.8544410E-01
         -2   -1    0    0    0  501 -0.00000000000E+00  0.00000000000E+00  0.53135871822E+03  0.53135871822E+03  0.00000000000E+00 0.  1.
          1   -1    0    0  501    0  0.00000000000E+00 -0.00000000000E+00 -0.21519307738E+04  0.21519307738E+04  0.00000000000E+00 0. -1.
        -24    2    1    2    0    0  0.34041233601E+03 -0.47702390318E+03 -0.14827436442E+04  0.15963419667E+04  0.79665535683E+02 0.  0.
        254    2    1    2    0    0 -0.34041233601E+03  0.47702390318E+03 -0.13782841137E+03  0.10869475253E+04  0.90500049119E+03 0.  0.
         23    2    4    4    0    0  0.15604371527E+03 -0.10513564050E+03 -0.22972490360E+03  0.31084631054E+03  0.91917101036E+02 0.  0.
         23    2    4    4    0    0 -0.49645605128E+03  0.58215954368E+03  0.91896492226E+02  0.77610121475E+03  0.92248496484E+02 0.  0.
          1    1    3    3  502    0  0.31492287633E+03 -0.46844632173E+03 -0.14200683726E+04  0.15281402283E+04  0.00000000000E+00 0. -1.
         -2    1    3    3    0  502  0.25489459674E+02 -0.85775814551E+01 -0.62675271608E+02  0.68201738462E+02  0.00000000000E+00 0.  1.
         11    1    5    5    0    0  0.15713509917E+03 -0.88473968059E+02 -0.16645625561E+03  0.24541142485E+03  0.00000000000E+00 0. -1.
        -11    1    5    5    0    0 -0.10913838931E+01 -0.16661672442E+02 -0.63268647983E+02  0.65434885688E+02  0.00000000000E+00 0.  1.
          1    1    6    6  503    0 -0.33227982171E+03  0.42533768251E+03  0.29048716491E+02  0.54052368312E+03  0.00000000000E+00 0. -1.
         -1    1    6    6    0  503 -0.16417622957E+03  0.15682186117E+03  0.62847775735E+02  0.23557753164E+03  0.00000000000E+00 0.  1.
<mgrwt>
<rscale>  0 0.21386418E+04</rscale>
<asrwt>0</asrwt>
<pdfrwt beam="1">  1        1 0.33106627E+00 0.21386418E+04</pdfrwt>
<pdfrwt beam="2">  1       -2 0.81747497E-01 0.21386418E+04</pdfrwt>
<totfact> 0.24902933E+00</totfact>
</mgrwt>
</event>
<event>
12    4  0.4424320E-008  0.1677383E+04  0.7818608E-02  0.8774370E-01
          1   -1    0    0  501    0  0.00000000000E+00  0.00000000000E+00  0.81999174752E+03  0.81999174752E+03  0.00000000000E+00 0. -1.
         -2   -1    0    0    0  501 -0.00000000000E+00 -0.00000000000E+00 -0.85781769372E+03  0.85781769372E+03  0.00000000000E+00 0.  1.
        -24    2    1    2    0    0 -0.31269894777E+03 -0.44925010869E+03  0.19493712487E+03  0.58643796402E+03  0.79389614534E+02 0.  0.
        254    2    1    2    0    0  0.31269894777E+03  0.44925010869E+03 -0.23276307107E+03  0.10913714772E+04  0.91504467756E+03 0.  0.
         23    2    4    4    0    0 -0.31147726779E+03  0.13978111889E+03 -0.15227242861E+03  0.38438830561E+03  0.89502108486E+02 0.  0.
         23    2    4    4    0    0  0.62417621556E+03  0.30946898980E+03 -0.80490642457E+02  0.70698317161E+03  0.89327810332E+02 0.  0.
          1    1    3    3  502    0 -0.16989383947E+03 -0.20171847932E+03  0.12692703208E+03  0.29268538239E+03  0.00000000000E+00 0. -1.
         -2    1    3    3    0  502 -0.14280510830E+03 -0.24753162937E+03  0.68010092789E+02  0.29375258163E+03  0.00000000000E+00 0.  1.
         11    1    5    5    0    0 -0.79902136977E+02  0.81197582559E+02 -0.54474690793E+02  0.12627308044E+03  0.00000000000E+00 0. -1.
        -11    1    5    5    0    0 -0.23157513081E+03  0.58583536332E+02 -0.97797737821E+02  0.25811522517E+03  0.00000000000E+00 0.  1.
          3    1    6    6  503    0  0.35892785436E+03  0.22271753140E+03 -0.30940965813E+02  0.42354414976E+03  0.00000000000E+00 0. -1.
         -3    1    6    6    0  503  0.26524836120E+03  0.86751458401E+02 -0.49549676643E+02  0.28343902185E+03  0.00000000000E+00 0.  1.
<mgrwt>
<rscale>  0 0.16773830E+04</rscale>
<asrwt>0</asrwt>
<pdfrwt beam="1">  1        1 0.12615258E+00 0.16773830E+04</pdfrwt>
<pdfrwt beam="2">  1       -2 0.13197195E+00 0.16773830E+04</pdfrwt>
<totfact> 0.74155493E+00</totfact>
</mgrwt>
</event>
<event>
12    4  0.4424320E-008  0.1619894E+04  0.7818608E-02  0.8808419E-01
          3   -1    0    0  501    0  0.00000000000E+00  0.00000000000E+00  0.37507913173E+03  0.37507913173E+03  0.00000000000E+00 0. -1.
         -2   -1    0    0    0  501 -0.00000000000E+00 -0.00000000000E+00 -0.17490025322E+04  0.17490025322E+04  0.00000000000E+00 0.  1.
        -24    2    1    2    0    0 -0.73804419709E+02  0.20177527864E+03  0.19889182182E+03  0.30355233808E+03  0.80160524752E+02 0.  0.
        254    2    1    2    0    0  0.73804419709E+02 -0.20177527864E+03 -0.15728152223E+04  0.18205293258E+04  0.89130182732E+03 0.  0.
         23    2    4    4    0    0  0.18938326963E+03 -0.38188218843E+02  0.18889020524E+02  0.21371788275E+03  0.89410152868E+02 0.  0.
         23    2    4    4    0    0 -0.11557884992E+03 -0.16358705980E+03 -0.15917042428E+04  0.16068114431E+04  0.90561693968E+02 0.  0.
          1    1    3    3  502    0 -0.76616662742E+02  0.18091367889E+03  0.20255571673E+03  0.28218556058E+03  0.00000000000E+00 0. -1.
         -2    1    3    3    0  502  0.28122430326E+01  0.20861599750E+02 -0.36638949071E+01  0.21366777504E+02  0.00000000000E+00 0.  1.
         11    1    5    5    0    0  0.19354047169E+03 -0.46258809682E+02  0.74730213510E+01  0.19913221161E+03  0.00000000000E+00 0.  1.
        -11    1    5    5    0    0 -0.41572020538E+01  0.80705908390E+01  0.11415999173E+02  0.14585671137E+02  0.00000000000E+00 0. -1.
          1    1    6    6  503    0 -0.17295363999E+02  0.62537739178E+01 -0.26933373238E+03  0.26996092069E+03  0.00000000000E+00 0. -1.
         -1    1    6    6    0  503 -0.98283485925E+02 -0.16984083372E+03 -0.13223705104E+04  0.13368505224E+04  0.00000000000E+00 0.  1.
<mgrwt>
<rscale>  0 0.16198943E+04</rscale>
<asrwt>0</asrwt>
<pdfrwt beam="1">  1        3 0.57704481E-01 0.16198943E+04</pdfrwt>
<pdfrwt beam="2">  1       -2 0.26907731E+00 0.16198943E+04</pdfrwt>
<totfact> 0.58377923E-01</totfact>
</mgrwt>
</event>
<event>
12    4  0.4424320E-008  0.2160223E+04  0.7818608E-02  0.8535169E-01
         -2   -1    0    0    0  501 -0.00000000000E+00  0.00000000000E+00  0.90543607183E+03  0.90543607183E+03  0.00000000000E+00 0.  1.
          1   -1    0    0  501    0  0.00000000000E+00 -0.00000000000E+00 -0.12884847681E+04  0.12884847681E+04  0.00000000000E+00 0. -1.
        -24    2    1    2    0    0  0.64102901910E+03  0.59835720273E+03  0.23432264334E+02  0.88087356081E+03  0.80247203892E+02 0.  0.
        254    2    1    2    0    0 -0.64102901910E+03 -0.59835720273E+03 -0.40648096062E+03  0.13130472791E+04  0.88877265962E+03 0.  0.
         23    2    4    4    0    0 -0.53891423100E+03 -0.67550617039E+03  0.87413619135E+01  0.86901711535E+03  0.91527049341E+02 0.  0.
         23    2    4    4    0    0 -0.10211478811E+03  0.77148967662E+02 -0.41522232253E+03  0.44403016377E+03  0.91508557255E+02 0.  0.
          1    1    3    3  502    0  0.48756617780E+02  0.32108183498E+02 -0.15962013163E+02  0.60522137182E+02  0.00000000000E+00 0. -1.
         -2    1    3    3    0  502  0.59227240132E+03  0.56624901923E+03  0.39394277496E+02  0.82035142363E+03  0.00000000000E+00 0.  1.
         11    1    5    5    0    0 -0.12026074497E+02  0.32769314634E-01 -0.22236284235E+01  0.12229965863E+02  0.00000000000E+00 0.  1.
        -11    1    5    5    0    0 -0.52688815650E+03 -0.67553893971E+03  0.10964990337E+02  0.85678714949E+03  0.00000000000E+00 0. -1.
          3    1    6    6  503    0 -0.14883306838E+02  0.61766783957E+02 -0.23165066268E+03  0.24020549107E+03  0.00000000000E+00 0. -1.
         -3    1    6    6    0  503 -0.87231481268E+02  0.15382183705E+02 -0.18357165985E+03  0.20382467270E+03  0.00000000000E+00 0.  1.
<mgrwt>
<rscale>  0 0.21602228E+04</rscale>
<asrwt>0</asrwt>
<pdfrwt beam="1">  1        1 0.19822843E+00 0.21602228E+04</pdfrwt>
<pdfrwt beam="2">  1       -2 0.13929786E+00 0.21602228E+04</pdfrwt>
<totfact> 0.26931657E+00</totfact>
</mgrwt>
</event>
<event>
12    4  0.4424320E-008  0.1055556E+04  0.7818608E-02  0.9249627E-01
         -4   -1    0    0    0  501 -0.00000000000E+00  0.00000000000E+00  0.78253699798E+03  0.78253699798E+03  0.00000000000E+00 0.  1.
          3   -1    0    0  501    0  0.00000000000E+00 -0.00000000000E+00 -0.35595713588E+03  0.35595713588E+03  0.00000000000E+00 0. -1.
        -24    2    1    2    0    0  0.84638875346E+02  0.81501770224E+02  0.20601651998E+02  0.14366577065E+03  0.80057153475E+02 0.  0.
        254    2    1    2    0    0 -0.84638875346E+02 -0.81501770224E+02  0.40597821009E+03  0.99482836321E+03  0.90058807865E+03 0.  0.
         23    2    4    4    0    0 -0.13687435429E+03  0.13788906185E+03  0.62921029987E+03  0.66462419880E+03  0.89842873529E+02 0.  0.
         23    2    4    4    0    0  0.52235478940E+02 -0.21939083207E+03 -0.22323208978E+03  0.33020416441E+03  0.91330946713E+02 0.  0.
          3    1    3    3  502    0  0.28136710889E+02  0.57132096279E+02 -0.23583856475E+02  0.67911333451E+02  0.00000000000E+00 0. -1.
         -4    1    3    3    0  502  0.56502164458E+02  0.24369673945E+02  0.44185508474E+02  0.75754437201E+02  0.00000000000E+00 0.  1.
         11    1    5    5    0    0 -0.14014754040E+03  0.14714625950E+03  0.61142075585E+03  0.64430481563E+03  0.00000000000E+00 0. -1.
        -11    1    5    5    0    0  0.32731861098E+01 -0.92571976524E+01  0.17789544024E+02  0.20319383167E+02  0.00000000000E+00 0.  1.
          3    1    6    6  503    0  0.24393172364E+02 -0.17803865777E+03 -0.12152229388E+03  0.21693422604E+03  0.00000000000E+00 0. -1.
         -3    1    6    6    0  503  0.27842306576E+02 -0.41352174300E+02 -0.10170979590E+03  0.11326993837E+03  0.00000000000E+00 0.  1.
<mgrwt>
<rscale>  0 0.10555560E+04</rscale>
<asrwt>0</asrwt>
<pdfrwt beam="1">  1        3 0.54762637E-01 0.10555560E+04</pdfrwt>
<pdfrwt beam="2">  1       -4 0.12039031E+00 0.10555560E+04</pdfrwt>
<totfact> 0.39243105E+00</totfact>
</mgrwt>
</event>
<event>
12    4  0.4424320E-008  0.1402049E+04  0.7818608E-02  0.8952337E-01
         -2   -1    0    0    0  501 -0.00000000000E+00  0.00000000000E+00  0.29389727984E+03  0.29389727984E+03  0.00000000000E+00 0.  1.
          1   -1    0    0  501    0  0.00000000000E+00 -0.00000000000E+00 -0.16721324628E+04  0.16721324628E+04  0.00000000000E+00 0. -1.
        -24    2    1    2    0    0 -0.30327695424E+03  0.58582375920E+02 -0.81766064463E+03  0.87892052703E+03  0.92323113704E+02 0.  0.
        254    2    1    2    0    0  0.30327695424E+03 -0.58582375920E+02 -0.56057453835E+03  0.10871092156E+04  0.87872283907E+03 0.  0.
         23    2    4    4    0    0 -0.26207402719E+03 -0.21729342777E+02 -0.40707384537E+03  0.49306448857E+03  0.90821331402E+02 0.  0.
         23    2    4    4    0    0  0.56535098143E+03 -0.36853033144E+02 -0.15350069299E+03  0.59404472706E+03  0.91360805272E+02 0.  0.
          1    1    3    3  502    0 -0.28095221564E+03  0.76537691501E+02 -0.70715827330E+03  0.76476466261E+03  0.00000000000E+00 0. -1.
         -2    1    3    3    0  502 -0.22324738605E+02 -0.17955315581E+02 -0.11050237133E+03  0.11415586442E+03  0.00000000000E+00 0.  1.
         11    1    5    5    0    0 -0.45258442351E+02  0.28923898774E+02 -0.10331120767E+03  0.11643935827E+03  0.00000000000E+00 0. -1.
        -11    1    5    5    0    0 -0.21681558484E+03 -0.50653241551E+02 -0.30376263769E+03  0.37662513029E+03  0.00000000000E+00 0.  1.
          1    1    6    6  503    0  0.48994383012E+02 -0.20223288015E+02  0.60400259115E+01  0.53347097933E+02  0.00000000000E+00 0. -1.
         -1    1    6    6    0  503  0.51635659842E+03 -0.16629745129E+02 -0.15954071890E+03  0.54069762912E+03  0.00000000000E+00 0.  1.
<mgrwt>
<rscale>  0 0.14020488E+04</rscale>
<asrwt>0</asrwt>
<pdfrwt beam="1">  1        1 0.25725115E+00 0.14020488E+04</pdfrwt>
<pdfrwt beam="2">  1       -2 0.45214965E-01 0.14020488E+04</pdfrwt>
<totfact> 0.19766101E+01</totfact>
</mgrwt>
</event>
<event>
12    4  0.4424320E-008  0.1427981E+04  0.7818608E-02  0.8933810E-01
         -2   -1    0    0    0  501 -0.00000000000E+00  0.00000000000E+00  0.39854929096E+03  0.39854929096E+03  0.00000000000E+00 0.  1.
          1   -1    0    0  501    0  0.00000000000E+00 -0.00000000000E+00 -0.12790953640E+04  0.12790953640E+04  0.00000000000E+00 0. -1.
        -24    2    1    2    0    0 -0.31570149637E+03 -0.20268420482E+03 -0.49301273695E+03  0.62549690591E+03  0.86235136742E+02 0.  0.
        254    2    1    2    0    0  0.31570149637E+03  0.20268420482E+03 -0.38753333612E+03  0.10521477491E+04  0.90337394118E+03 0.  0.
         23    2    4    4    0    0  0.14787029892E+03  0.24274503231E+03 -0.65591415695E+03  0.72022629530E+03  0.87816622191E+02 0.  0.
         23    2    4    4    0    0  0.16783119745E+03 -0.40060827491E+02  0.26838082083E+03  0.33192145378E+03  0.91495386533E+02 0.  0.
          3    1    3    3  502    0 -0.28326314629E+03 -0.15329482959E+03 -0.38135764613E+03  0.49917028065E+03  0.00000000000E+00 0. -1.
         -2    1    3    3    0  502 -0.32438350079E+02 -0.49389375233E+02 -0.11165509082E+03  0.12632662526E+03  0.00000000000E+00 0.  1.
         11    1    5    5    0    0 -0.11136234124E+02  0.81816948852E+01 -0.37899825540E+02  0.40340458818E+02  0.00000000000E+00 0. -1.
        -11    1    5    5    0    0  0.15900653305E+03  0.23456333743E+03 -0.61801433141E+03  0.67988583648E+03  0.00000000000E+00 0.  1.
          1    1    6    6  503    0 -0.79770328072E+01 -0.12500717783E+02  0.38165674078E+02  0.40945325439E+02  0.00000000000E+00 0. -1.
         -1    1    6    6    0  503  0.17580823026E+03 -0.27560109708E+02  0.23021514675E+03  0.29097612834E+03  0.00000000000E+00 0.  1.
<mgrwt>
<rscale>  0 0.14279812E+04</rscale>
<asrwt>0</asrwt>
<pdfrwt beam="1">  1        1 0.19678390E+00 0.14279812E+04</pdfrwt>
<pdfrwt beam="2">  1       -2 0.61315276E-01 0.14279812E+04</pdfrwt>
<totfact> 0.19764840E+01</totfact>
</mgrwt>
</event>
<event>
12    4  0.4424320E-008  0.2818482E+04  0.7818608E-02  0.8297553E-01
          1   -1    0    0  501    0  0.00000000000E+00  0.00000000000E+00  0.88427902908E+03  0.88427902908E+03  0.00000000000E+00 0. -1.
         -2   -1    0    0    0  501 -0.00000000000E+00 -0.00000000000E+00 -0.22458529600E+04  0.22458529600E+04  0.00000000000E+00 0.  1.
        -24    2    1    2    0    0  0.11450324500E+04 -0.51684842394E+03 -0.45822363979E+03  0.13396185951E+04  0.79859071768E+02 0.  0.
        254    2    1    2    0    0 -0.11450324500E+04  0.51684842394E+03 -0.90335029109E+03  0.17905133939E+04  0.90092444772E+03 0.  0.
         23    2    4    4    0    0 -0.63217859252E+03  0.67239502738E+02 -0.89595456983E+03  0.11023930362E+04  0.91459780328E+02 0.  0.
         23    2    4    4    0    0 -0.51285385751E+03  0.44960892121E+03 -0.73957212531E+01  0.68812035776E+03  0.91036634866E+02 0.  0.
          3    1    3    3  502    0  0.47830345582E+03 -0.21044460849E+03 -0.23230097929E+03  0.57186088699E+03  0.00000000000E+00 0. -1.
         -4    1    3    3    0  502  0.66672899420E+03 -0.30640381546E+03 -0.22592266049E+03  0.76775770811E+03  0.00000000000E+00 0.  1.
         11    1    5    5    0    0 -0.50949486540E+03  0.22402509171E+02 -0.74404979662E+03  0.90205154517E+03  0.00000000000E+00 0. -1.
        -11    1    5    5    0    0 -0.12268372711E+03  0.44836993567E+02 -0.15190477322E+03  0.20034149100E+03  0.00000000000E+00 0.  1.
          1    1    6    6  503    0 -0.41985305791E+03  0.39898810655E+03  0.17062554435E+02  0.57944734892E+03  0.00000000000E+00 0. -1.
         -1    1    6    6    0  503 -0.93000799593E+02  0.50620814661E+02 -0.24458275688E+02  0.10867300885E+03  0.00000000000E+00 0.  1.
<mgrwt>
<rscale>  0 0.28184823E+04</rscale>
<asrwt>0</asrwt>
<pdfrwt beam="1">  1        1 0.13604293E+00 0.28184823E+04</pdfrwt>
<pdfrwt beam="2">  1       -2 0.34551584E+00 0.28184823E+04</pdfrwt>
<totfact> 0.23600215E-01</totfact>
</mgrwt>
</event>
<event>
12    4  0.4424320E-008  0.2571854E+04  0.7818608E-02  0.8377825E-01
          1   -1    0    0  501    0  0.00000000000E+00  0.00000000000E+00  0.14964063366E+04  0.14964063366E+04  0.00000000000E+00 0. -1.
         -2   -1    0    0    0  501 -0.00000000000E+00 -0.00000000000E+00 -0.11050530718E+04  0.11050530718E+04  0.00000000000E+00 0.  1.
        -24    2    1    2    0    0  0.48384815800E+02 -0.40008731776E+03  0.12349220507E+04  0.13018391647E+04  0.85684230597E+02 0.  0.
        254    2    1    2    0    0 -0.48384815800E+02  0.40008731776E+03 -0.84356878585E+03  0.12996202437E+04  0.90276992036E+03 0.  0.
         23    2    4    4    0    0  0.12460289033E+03 -0.22009644433E+03 -0.48535473945E+02  0.27250170188E+03  0.89068289598E+02 0.  0.
         23    2    4    4    0    0 -0.17298770613E+03  0.62018376209E+03 -0.79503331190E+03  0.10271185418E+04  0.91333929439E+02 0.  0.
          1    1    3    3  502    0  0.63194672891E+02 -0.35022767381E+03  0.10063419967E+04  0.10674161346E+04  0.00000000000E+00 0. -1.
         -4    1    3    3    0  502 -0.14809857091E+02 -0.49859643950E+02  0.22858005398E+03  0.23442303010E+03  0.00000000000E+00 0.  1.
         11    1    5    5    0    0  0.72154385834E+02 -0.64678967653E+02 -0.48751631838E+02  0.10847278856E+03  0.00000000000E+00 0. -1.
        -11    1    5    5    0    0  0.52448504497E+02 -0.15541747667E+03  0.21615789284E+00  0.16402891332E+03  0.00000000000E+00 0.  1.
          2    1    6    6  503    0 -0.21533400290E+02  0.14478889641E+02 -0.32197739526E+02  0.41352388128E+02  0.00000000000E+00 0. -1.
         -2    1    6    6    0  503 -0.15145430584E+03  0.60570487245E+03 -0.76283557238E+03  0.98576615368E+03  0.00000000000E+00 0.  1.
<mgrwt>
<rscale>  0 0.25718541E+04</rscale>
<asrwt>0</asrwt>
<pdfrwt beam="1">  1        1 0.23021636E+00 0.25718541E+04</pdfrwt>
<pdfrwt beam="2">  1       -2 0.17000816E+00 0.25718541E+04</pdfrwt>
<totfact> 0.10870511E+00</totfact>
</mgrwt>
</event>
<event>
12    4  0.4424320E-008  0.1518638E+04  0.7818608E-02  0.8872153E-01
          1   -1    0    0  501    0  0.00000000000E+00  0.00000000000E+00  0.16066292353E+04  0.16066292353E+04  0.00000000000E+00 0. -1.
         -2   -1    0    0    0  501 -0.00000000000E+00 -0.00000000000E+00 -0.35886635451E+03  0.35886635451E+03  0.00000000000E+00 0.  1.
        -24    2    1    2    0    0 -0.32565367470E+03  0.81903337605E+02  0.88596036245E+03  0.95129630249E+03  0.85325369950E+02 0.  0.
        254    2    1    2    0    0  0.32565367470E+03 -0.81903337605E+02  0.36180251832E+03  0.10141992873E+04  0.88596876894E+03 0.  0.
         23    2    4    4    0    0  0.50458466791E+03  0.24103298837E+03  0.23384698138E+03  0.61291288334E+03  0.90968144366E+02 0.  0.
         23    2    4    4    0    0 -0.17893099321E+03 -0.32293632598E+03  0.12795553694E+03  0.40128640396E+03  0.91400151005E+02 0.  0.
          1    1    3    3  502    0 -0.71314944612E+02 -0.56626999626E+01  0.26689136055E+03  0.27631302146E+03  0.00000000000E+00 0. -1.
         -2    1    3    3    0  502 -0.25433873009E+03  0.87566037568E+02  0.61906900190E+03  0.67498328103E+03  0.00000000000E+00 0.  1.
         11    1    5    5    0    0  0.42516787930E+03  0.22046416788E+03  0.22865362746E+03  0.53071146234E+03  0.00000000000E+00 0.  1.
        -11    1    5    5    0    0  0.79416788613E+02  0.20568820492E+02  0.51933539219E+01  0.82201421004E+02  0.00000000000E+00 0. -1.
          2    1    6    6  503    0 -0.12390500053E+03 -0.19601329325E+03  0.12383929847E+03  0.26288748949E+03  0.00000000000E+00 0. -1.
         -2    1    6    6    0  503 -0.55025992684E+02 -0.12692303273E+03  0.41162384748E+01  0.13839891447E+03  0.00000000000E+00 0.  1.
<mgrwt>
<rscale>  0 0.15186378E+04</rscale>
<asrwt>0</asrwt>
<pdfrwt beam="1">  1        1 0.24717372E+00 0.15186378E+04</pdfrwt>
<pdfrwt beam="2">  1       -2 0.55210209E-01 0.15186378E+04</pdfrwt>
<totfact> 0.14437122E+01</totfact>
</mgrwt>
</event>
<event>
12    4  0.4424320E-008  0.1515578E+04  0.7818608E-02  0.8874159E-01
          1   -1    0    0  501    0  0.00000000000E+00  0.00000000000E+00  0.47941954934E+03  0.47941954934E+03  0.00000000000E+00 0. -1.
         -2   -1    0    0    0  501 -0.00000000000E+00 -0.00000000000E+00 -0.11977908831E+04  0.11977908831E+04  0.00000000000E+00 0.  1.
        -24    2    1    2    0    0 -0.19423965398E+03 -0.32459350319E+03  0.10451712453E+03  0.40047008974E+03  0.79765142552E+02 0.  0.
        254    2    1    2    0    0  0.19423965398E+03  0.32459350319E+03 -0.82288845831E+03  0.12767403427E+04  0.89990582974E+03 0.  0.
         23    2    4    4    0    0  0.43793862463E+03 -0.58052826233E+02 -0.18448633767E+03  0.48752761108E+03  0.92128134720E+02 0.  0.
         23    2    4    4    0    0 -0.24369897064E+03  0.38264632942E+03 -0.63840212063E+03  0.78921273163E+03  0.97427236546E+02 0.  0.
          1    1    3    3  502    0 -0.14132972479E+03 -0.24066474709E+03  0.39562801316E+02  0.28188442108E+03  0.00000000000E+00 0. -1.
         -2    1    3    3    0  502 -0.52909929196E+02 -0.83928756103E+02  0.64954323213E+02  0.11858566866E+03  0.00000000000E+00 0.  1.
         11    1    5    5    0    0  0.31270250840E+02 -0.29789743894E+02 -0.24132631339E+02  0.49473642722E+02  0.00000000000E+00 0. -1.
        -11    1    5    5    0    0  0.40666837379E+03 -0.28263082339E+02 -0.16035370634E+03  0.43805396836E+03  0.00000000000E+00 0.  1.
          3    1    6    6  503    0 -0.20395081342E+02  0.74791352280E+02 -0.65083862213E+02  0.10122062457E+03  0.00000000000E+00 0. -1.
         -3    1    6    6    0  503 -0.22330388930E+03  0.30785497714E+03 -0.57331825842E+03  0.68799210705E+03  0.00000000000E+00 0.  1.
<mgrwt>
<rscale>  0 0.15155783E+04</rscale>
<asrwt>0</asrwt>
<pdfrwt beam="1">  1        1 0.73756855E-01 0.15155783E+04</pdfrwt>
<pdfrwt beam="2">  1       -2 0.18427552E+00 0.15155783E+04</pdfrwt>
<totfact> 0.67177387E+00</totfact>
</mgrwt>
</event>
<event>
12    4  0.4424320E-008  0.1885519E+04  0.7818608E-02  0.8662098E-01
         -2   -1    0    0    0  501 -0.00000000000E+00  0.00000000000E+00  0.50618082960E+03  0.50618082960E+03  0.00000000000E+00 0.  1.
          1   -1    0    0  501    0  0.00000000000E+00 -0.00000000000E+00 -0.17558845367E+04  0.17558845367E+04  0.00000000000E+00 0. -1.
        -24    2    1    2    0    0  0.70855886534E+03  0.11847987667E+02 -0.26712587837E+03  0.76015874197E+03  0.65490744695E+02 0.  0.
        254    2    1    2    0    0 -0.70855886534E+03 -0.11847987667E+02 -0.98257782869E+03  0.15019066243E+04  0.88773209822E+03 0.  0.
         23    2    4    4    0    0 -0.36531814621E+02  0.19743323829E+03  0.70836450367E+02  0.23182872422E+03  0.91718578342E+02 0.  0.
         23    2    4    4    0    0 -0.67202705072E+03 -0.20928122595E+03 -0.10534142791E+04  0.12700779001E+04  0.89427291709E+02 0.  0.
          3    1    3    3  502    0  0.21835446261E+03  0.68140492847E+01 -0.50624906155E+02  0.22424982437E+03  0.00000000000E+00 0. -1.
         -4    1    3    3    0  502  0.49020440273E+03  0.50339383819E+01 -0.21650097221E+03  0.53590891760E+03  0.00000000000E+00 0.  1.
         11    1    5    5    0    0  0.83797772046E+01 -0.67450307471E+01 -0.92263949315E+00  0.10796636949E+02  0.00000000000E+00 0. -1.
        -11    1    5    5    0    0 -0.44911591825E+02  0.20417826903E+03  0.71759089861E+02  0.22103208727E+03  0.00000000000E+00 0.  1.
          3    1    6    6  503    0 -0.28886778603E+03 -0.48674795045E+02 -0.40076521598E+03  0.49641373049E+03  0.00000000000E+00 0. -1.
         -3    1    6    6    0  503 -0.38315926469E+03 -0.16060643091E+03 -0.65264906308E+03  0.77366416959E+03  0.00000000000E+00 0.  1.
<mgrwt>
<rscale>  0 0.18855186E+04</rscale>
<asrwt>0</asrwt>
<pdfrwt beam="1">  1        1 0.27013608E+00 0.18855186E+04</pdfrwt>
<pdfrwt beam="2">  1       -2 0.77873976E-01 0.18855186E+04</pdfrwt>
<totfact> 0.52720073E+00</totfact>
</mgrwt>
</event>
<event>
12    4  0.4424320E-008  0.1386319E+04  0.7818608E-02  0.8963782E-01
         -2   -1    0    0    0  501 -0.00000000000E+00  0.00000000000E+00  0.40996366951E+03  0.40996366951E+03  0.00000000000E+00 0.  1.
          1   -1    0    0  501    0  0.00000000000E+00 -0.00000000000E+00 -0.11719820130E+04  0.11719820130E+04  0.00000000000E+00 0. -1.
        -24    2    1    2    0    0  0.64684477043E+02 -0.23112994514E+03 -0.58361827397E+03  0.63559311657E+03  0.75915657158E+02 0.  0.
        254    2    1    2    0    0 -0.64684477043E+02  0.23112994514E+03 -0.17840006949E+03  0.94635256593E+03  0.89785937715E+03 0.  0.
         23    2    4    4    0    0 -0.68020422530E+02 -0.19783134774E+03  0.24684780837E+03  0.33527796280E+03  0.87826259267E+02 0.  0.
         23    2    4    4    0    0  0.33359454871E+01  0.42896129288E+03 -0.42524787785E+03  0.61107460312E+03  0.92506722148E+02 0.  0.
          3    1    3    3  502    0  0.41194822181E+02 -0.15421128916E+03 -0.28850247896E+03  0.32971474861E+03  0.00000000000E+00 0. -1.
         -4    1    3    3    0  502  0.23489654863E+02 -0.76918655974E+02 -0.29511579501E+03  0.30587836796E+03  0.00000000000E+00 0.  1.
         11    1    5    5    0    0 -0.43092253136E+02 -0.12559968850E+03  0.88843307399E+02  0.15976657129E+03  0.00000000000E+00 0. -1.
        -11    1    5    5    0    0 -0.24928169394E+02 -0.72231659240E+02  0.15800450097E+03  0.17551139151E+03  0.00000000000E+00 0.  1.
          2    1    6    6  503    0  0.20958134792E+02  0.21917919725E+03 -0.27576178971E+03  0.35287863152E+03  0.00000000000E+00 0.  1.
         -2    1    6    6    0  503 -0.17622189305E+02  0.20978209563E+03 -0.14948608815E+03  0.25819597160E+03  0.00000000000E+00 0. -1.
<mgrwt>
<rscale>  0 0.13863189E+04</rscale>
<asrwt>0</asrwt>
<pdfrwt beam="1">  1        1 0.18030492E+00 0.13863189E+04</pdfrwt>
<pdfrwt beam="2">  1       -2 0.63071334E-01 0.13863189E+04</pdfrwt>
<totfact> 0.22337884E+01</totfact>
</mgrwt>
</event>
<event>
12    4  0.4424320E-008  0.2547579E+04  0.7818608E-02  0.8386229E-01
          1   -1    0    0  501    0  0.00000000000E+00  0.00000000000E+00  0.35420294384E+04  0.35420294384E+04  0.00000000000E+00 0. -1.
         -2   -1    0    0    0  501 -0.00000000000E+00 -0.00000000000E+00 -0.45808206155E+03  0.45808206155E+03  0.00000000000E+00 0.  1.
        -24    2    1    2    0    0  0.40084117500E+03 -0.43392236514E+03 -0.12984667877E+03  0.60993672199E+03  0.78742480904E+02 0.  0.
        254    2    1    2    0    0 -0.40084117500E+03  0.43392236514E+03  0.32137940556E+04  0.33901747779E+04  0.90324444453E+03 0.  0.
         23    2    4    4    0    0 -0.17509368809E+03  0.58967830645E+02  0.27058286304E+04  0.27136432117E+04  0.90641594483E+02 0.  0.
         23    2    4    4    0    0 -0.22574748692E+03  0.37495453450E+03  0.50796542522E+03  0.67653156625E+03  0.90073615056E+02 0.  0.
          1    1    3    3  502    0  0.11789915066E+03 -0.17200643107E+03 -0.22698669237E+02  0.20976570654E+03  0.00000000000E+00 0. -1.
         -2    1    3    3    0  502  0.28294202434E+03 -0.26191593407E+03 -0.10714800953E+03  0.40017101545E+03  0.00000000000E+00 0.  1.
         11    1    5    5    0    0 -0.10560128175E+03  0.32050875172E+02  0.21513867804E+04  0.21542153951E+04  0.00000000000E+00 0. -1.
        -11    1    5    5    0    0 -0.69492406340E+02  0.26916955473E+02  0.55444184991E+03  0.55942781658E+03  0.00000000000E+00 0.  1.
          2    1    6    6  503    0 -0.22841504606E+03  0.33860096126E+03  0.48197883732E+03  0.63176549752E+03  0.00000000000E+00 0. -1.
         -2    1    6    6    0  503  0.26675591493E+01  0.36353573235E+02  0.25986587896E+02  0.44766068726E+02  0.00000000000E+00 0.  1.
<mgrwt>
<rscale>  0 0.25475794E+04</rscale>
<asrwt>0</asrwt>
<pdfrwt beam="1">  1        1 0.54492759E+00 0.25475794E+04</pdfrwt>
<pdfrwt beam="2">  1       -2 0.70474165E-01 0.25475794E+04</pdfrwt>
<totfact> 0.33011379E-01</totfact>
</mgrwt>
</event>
<event>
12    4  0.4424320E-008  0.3608183E+04  0.7818608E-02  0.8088620E-01
          1   -1    0    0  501    0  0.00000000000E+00  0.00000000000E+00  0.17087507415E+04  0.17087507415E+04  0.00000000000E+00 0. -1.
         -2   -1    0    0    0  501 -0.00000000000E+00 -0.00000000000E+00 -0.19047516047E+04  0.19047516047E+04  0.00000000000E+00 0.  1.
        -24    2    1    2    0    0  0.42829473372E+03 -0.16106567455E+04 -0.31156705122E+03  0.16973892215E+04  0.80028813498E+02 0.  0.
        254    2    1    2    0    0 -0.42829473372E+03  0.16106567455E+04  0.11556618800E+03  0.19161131247E+04  0.93834025401E+03 0.  0.
         23    2    4    4    0    0 -0.45070630459E+03  0.59580144944E+03 -0.30658684065E+03  0.81277938084E+03  0.92191598913E+02 0.  0.
         23    2    4    4    0    0  0.22411570868E+02  0.10148552960E+04  0.42215302865E+03  0.11033337439E+04  0.93266394921E+02 0.  0.
          3    1    3    3  502    0  0.11476962428E+03 -0.44986963122E+03 -0.50755738876E+02  0.46704485522E+03  0.00000000000E+00 0. -1.
         -4    1    3    3    0  502  0.31352510944E+03 -0.11607871143E+04 -0.26081131235E+03  0.12303443662E+04  0.00000000000E+00 0.  1.
         11    1    5    5    0    0 -0.24022321106E+02  0.71770928658E+01 -0.16618885009E+02  0.30079393482E+02  0.00000000000E+00 0. -1.
        -11    1    5    5    0    0 -0.42668398348E+03  0.58862435657E+03 -0.28996795564E+03  0.78269998736E+03  0.00000000000E+00 0.  1.
          1    1    6    6  503    0  0.14698394426E+02  0.18772974450E+03  0.41671737563E+02  0.19286013969E+03  0.00000000000E+00 0. -1.
         -1    1    6    6    0  503  0.77131764422E+01  0.82712555155E+03  0.38048129109E+03  0.91047360422E+03  0.00000000000E+00 0.  1.
<mgrwt>
<rscale>  0 0.36081828E+04</rscale>
<asrwt>0</asrwt>
<pdfrwt beam="1">  1        1 0.26288473E+00 0.36081828E+04</pdfrwt>
<pdfrwt beam="2">  1       -2 0.29303871E+00 0.36081828E+04</pdfrwt>
<totfact> 0.11706763E-01</totfact>
</mgrwt>
</event>
<event>
12    4  0.4424320E-008  0.2031019E+04  0.7818608E-02  0.8592254E-01
         -2   -1    0    0    0  501 -0.00000000000E+00  0.00000000000E+00  0.26004246805E+03  0.26004246805E+03  0.00000000000E+00 0.  1.
          1   -1    0    0  501    0  0.00000000000E+00 -0.00000000000E+00 -0.39657349303E+04  0.39657349303E+04  0.00000000000E+00 0. -1.
        -24    2    1    2    0    0 -0.51125958988E+03  0.41244488621E+03 -0.48705561800E+03  0.82164704442E+03  0.79897047312E+02 0.  0.
        254    2    1    2    0    0  0.51125958988E+03 -0.41244488621E+03 -0.32186368443E+04  0.34041303540E+04  0.89273914389E+03 0.  0.
         23    2    4    4    0    0  0.28795932965E+03 -0.66823916854E+03 -0.24803801566E+04  0.25865163262E+04  0.91196614035E+02 0.  0.
         23    2    4    4    0    0  0.22330026023E+03  0.25579428233E+03 -0.73825668765E+03  0.81761402776E+03  0.90421460093E+02 0.  0.
          3    1    3    3  502    0 -0.13405426843E+03  0.75264427284E+02 -0.14165822511E+03  0.20905103119E+03  0.00000000000E+00 0. -1.
         -4    1    3    3    0  502 -0.37720532144E+03  0.33718045892E+03 -0.34539739289E+03  0.61259601323E+03  0.00000000000E+00 0.  1.
         11    1    5    5    0    0  0.96778130603E+02 -0.22499282529E+03 -0.99329842258E+03  0.10230491358E+04  0.00000000000E+00 0. -1.
        -11    1    5    5    0    0  0.19118119904E+03 -0.44324634324E+03 -0.14870817341E+04  0.15634671904E+04  0.00000000000E+00 0.  1.
          3    1    6    6  503    0  0.11863876173E+02 -0.51172532283E+01 -0.52161375802E+02  0.53737761062E+02  0.00000000000E+00 0. -1.
         -3    1    6    6    0  503  0.21143638406E+03  0.26091153556E+03 -0.68609531185E+03  0.76387626670E+03  0.00000000000E+00 0.  1.
<mgrwt>
<rscale>  0 0.20310190E+04</rscale>
<asrwt>0</asrwt>
<pdfrwt beam="1">  1        1 0.61011308E+00 0.20310190E+04</pdfrwt>
<pdfrwt beam="2">  1       -2 0.40006533E-01 0.20310190E+04</pdfrwt>
<totfact> 0.49791710E-01</totfact>
</mgrwt>
</event>
<event>
12    4  0.4424320E-008  0.1748386E+04  0.7818608E-02  0.8734239E-01
         -2   -1    0    0    0  501 -0.00000000000E+00  0.00000000000E+00  0.83099270732E+03  0.83099270732E+03  0.00000000000E+00 0.  1.
          1   -1    0    0  501    0  0.00000000000E+00 -0.00000000000E+00 -0.91963895453E+03  0.91963895453E+03  0.00000000000E+00 0. -1.
        -24    2    1    2    0    0 -0.12217679899E+03 -0.21647685841E+03  0.55612479885E+03  0.61441408780E+03  0.80252594715E+02 0.  0.
        254    2    1    2    0    0  0.12217679899E+03  0.21647685841E+03 -0.64477104605E+03  0.11362175740E+04  0.90192642344E+03 0.  0.
         23    2    4    4    0    0  0.13348096241E+03 -0.32558914405E+03 -0.13695025792E+03  0.38701231252E+03  0.84839253023E+02 0.  0.
         23    2    4    4    0    0 -0.11304163421E+02  0.54206600246E+03 -0.50782078813E+03  0.74920526152E+03  0.97279164778E+02 0.  0.
          3    1    3    3  502    0  0.78359069962E+01 -0.46119561073E+02  0.10716936777E+03  0.11693454896E+03  0.00000000000E+00 0. -1.
         -4    1    3    3    0  502 -0.13001270599E+03 -0.17035729734E+03  0.44895543108E+03  0.49747953884E+03  0.00000000000E+00 0.  1.
         11    1    5    5    0    0  0.11536045067E+03 -0.17075534531E+03 -0.79339855004E+02  0.22081719616E+03  0.00000000000E+00 0. -1.
        -11    1    5    5    0    0  0.18120511743E+02 -0.15483379874E+03 -0.57610402913E+02  0.16619511636E+03  0.00000000000E+00 0.  1.
          3    1    6    6  503    0 -0.31318045957E+02  0.69294430471E+02 -0.51583106594E+02  0.91887730316E+02  0.00000000000E+00 0. -1.
         -3    1    6    6    0  503  0.20013882536E+02  0.47277157199E+03 -0.45623768154E+03  0.65731753121E+03  0.00000000000E+00 0.  1.
<mgrwt>
<rscale>  0 0.17483858E+04</rscale>
<asrwt>0</asrwt>
<pdfrwt beam="1">  1        1 0.14148292E+00 0.17483858E+04</pdfrwt>
<pdfrwt beam="2">  1       -2 0.12784503E+00 0.17483858E+04</pdfrwt>
<totfact> 0.65984292E+00</totfact>
</mgrwt>
</event>
<event>
12    4  0.4424320E-008  0.1655423E+04  0.7818608E-02  0.8787204E-01
          1   -1    0    0  501    0  0.00000000000E+00  0.00000000000E+00  0.18680808427E+04  0.18680808427E+04  0.00000000000E+00 0. -1.
         -2   -1    0    0    0  501 -0.00000000000E+00 -0.00000000000E+00 -0.36674362303E+03  0.36674362303E+03  0.00000000000E+00 0.  1.
        -24    2    1    2    0    0 -0.11506205432E+03 -0.37592323491E+03  0.11327937718E+04  0.12017187412E+04  0.79678408511E+02 0.  0.
        254    2    1    2    0    0  0.11506205432E+03  0.37592323491E+03  0.36854344789E+03  0.10331057245E+04  0.88143383761E+03 0.  0.
         23    2    4    4    0    0 -0.18307677680E+03  0.50014907008E+03  0.77481526312E+01  0.54038460106E+03  0.91045508855E+02 0.  0.
         23    2    4    4    0    0  0.29813883112E+03 -0.12422583518E+03  0.36079529525E+03  0.49272112342E+03  0.91005712151E+02 0.  0.
          3    1    3    3  502    0 -0.30393426128E+02 -0.15961527440E+03  0.57433702609E+03  0.59687839273E+03  0.00000000000E+00 0. -1.
         -2    1    3    3    0  502 -0.84668628196E+02 -0.21630796051E+03  0.55845674570E+03  0.60484034852E+03  0.00000000000E+00 0.  1.
         11    1    5    5    0    0 -0.11590509015E+03  0.18737538518E+03 -0.18917296200E+01  0.22033407257E+03  0.00000000000E+00 0. -1.
        -11    1    5    5    0    0 -0.67171686644E+02  0.31277368490E+03  0.96398822512E+01  0.32005052848E+03  0.00000000000E+00 0.  1.
          3    1    6    6  503    0  0.16505398696E+03 -0.20494130735E+02  0.19258585844E+03  0.25446441967E+03  0.00000000000E+00 0. -1.
         -3    1    6    6    0  503  0.13308484416E+03 -0.10373170444E+03  0.16820943682E+03  0.23825670376E+03  0.00000000000E+00 0.  1.
<mgrwt>
<rscale>  0 0.16554235E+04</rscale>
<asrwt>0</asrwt>
<pdfrwt beam="1">  1        1 0.28739705E+00 0.16554235E+04</pdfrwt>
<pdfrwt beam="2">  1       -2 0.56422097E-01 0.16554235E+04</pdfrwt>
<totfact> 0.90534871E+00</totfact>
</mgrwt>
</event>
<event>
12    4  0.4424320E-008  0.1841421E+04  0.7818608E-02  0.8684577E-01
          1   -1    0    0  501    0  0.00000000000E+00  0.00000000000E+00  0.15054829066E+04  0.15054829066E+04  0.00000000000E+00 0. -1.
         -2   -1    0    0    0  501 -0.00000000000E+00 -0.00000000000E+00 -0.56308011939E+03  0.56308011939E+03  0.00000000000E+00 0.  1.
        -24    2    1    2    0    0 -0.17979547950E+03 -0.65644361496E+03  0.64935864716E+03  0.94404034419E+03  0.79378112531E+02 0.  0.
        254    2    1    2    0    0  0.17979547950E+03  0.65644361496E+03  0.29304414010E+03  0.11245226818E+04  0.84583199269E+03 0.  0.
         23    2    4    4    0    0  0.27725517245E+03  0.33236841318E+03  0.53800631932E+03  0.69653443195E+03  0.91488920260E+02 0.  0.
         23    2    4    4    0    0 -0.97459692954E+02  0.32407520178E+03 -0.24496217922E+03  0.42798824989E+03  0.92974967805E+02 0.  0.
          3    1    3    3  502    0 -0.15049638318E+03 -0.54613702485E+03  0.49652400352E+03  0.75329336738E+03  0.00000000000E+00 0. -1.
         -4    1    3    3    0  502 -0.29299096316E+02 -0.11030659011E+03  0.15283464364E+03  0.19074697681E+03  0.00000000000E+00 0.  1.
         11    1    5    5    0    0  0.17924522173E+03  0.14487913301E+03  0.26657627656E+03  0.35239427339E+03  0.00000000000E+00 0. -1.
        -11    1    5    5    0    0  0.98009950725E+02  0.18748928017E+03  0.27143004277E+03  0.34414015856E+03  0.00000000000E+00 0.  1.
          4    1    6    6  503    0 -0.37881343889E+02  0.45685040070E+02 -0.12988745883E+02  0.60752173794E+02  0.00000000000E+00 0. -1.
         -4    1    6    6    0  503 -0.59578349065E+02  0.27839016171E+03 -0.23197343334E+03  0.36723607610E+03  0.00000000000E+00 0.  1.
<mgrwt>
<rscale>  0 0.18414206E+04</rscale>
<asrwt>0</asrwt>
<pdfrwt beam="1">  1        1 0.23161275E+00 0.18414206E+04</pdfrwt>
<pdfrwt beam="2">  1       -2 0.86627711E-01 0.18414206E+04</pdfrwt>
<totfact> 0.61741324E+00</totfact>
</mgrwt>
</event>
<event>
12    4  0.4424320E-008  0.1570674E+04  0.7818608E-02  0.8838769E-01
         -2   -1    0    0    0  501 -0.00000000000E+00  0.00000000000E+00  0.19875615117E+03  0.19875615117E+03  0.00000000000E+00 0.  1.
          1   -1    0    0  501    0  0.00000000000E+00 -0.00000000000E+00 -0.31030714785E+04  0.31030714785E+04  0.00000000000E+00 0. -1.
        -24    2    1    2    0    0 -0.13331328293E+03  0.41167582916E+03 -0.37414775394E+03  0.57773451202E+03  0.80877715612E+02 0.  0.
        254    2    1    2    0    0  0.13331328293E+03 -0.41167582916E+03 -0.25301675733E+04  0.27240931176E+04  0.91196817074E+03 0.  0.
         23    2    4    4    0    0  0.81386650871E+02 -0.35968667562E+03 -0.28110511057E+03  0.47200206579E+03  0.88133849128E+02 0.  0.
         23    2    4    4    0    0  0.51926632062E+02 -0.51989153540E+02 -0.22490624628E+04  0.22520910518E+04  0.90735312914E+02 0.  0.
          3    1    3    3  502    0 -0.88348832011E+02  0.27850232553E+03 -0.30018293222E+03  0.41890196256E+03  0.00000000000E+00 0. -1.
         -4    1    3    3    0  502 -0.44964450923E+02  0.13317350363E+03 -0.73964821722E+02  0.15883254946E+03  0.00000000000E+00 0.  1.
         11    1    5    5    0    0  0.56939869114E+02 -0.34695847269E+03 -0.26117514794E+03  0.43798948431E+03  0.00000000000E+00 0. -1.
        -11    1    5    5    0    0  0.24446781757E+02 -0.12728202922E+02 -0.19929962633E+02  0.34012581473E+02  0.00000000000E+00 0.  1.
          3    1    6    6  503    0  0.57964982368E+02 -0.58030450002E+02 -0.22257876642E+04  0.22272984080E+04  0.00000000000E+00 0. -1.
         -3    1    6    6    0  503 -0.60383503054E+01  0.60412964621E+01 -0.23274798605E+02  0.24792643817E+02  0.00000000000E+00 0.  1.
<mgrwt>
<rscale>  0 0.15706744E+04</rscale>
<asrwt>0</asrwt>
<pdfrwt beam="1">  1        1 0.47739559E+00 0.15706744E+04</pdfrwt>
<pdfrwt beam="2">  1       -2 0.30577871E-01 0.15706744E+04</pdfrwt>
<totfact> 0.42219383E+00</totfact>
</mgrwt>
</event>
<event>
12    4  0.4424320E-008  0.2018611E+04  0.7818608E-02  0.8597969E-01
          1   -1    0    0  501    0  0.00000000000E+00  0.00000000000E+00  0.98728638214E+03  0.98728638214E+03  0.00000000000E+00 0. -1.
         -2   -1    0    0    0  501 -0.00000000000E+00 -0.00000000000E+00 -0.10318155004E+04  0.10318155004E+04  0.00000000000E+00 0.  1.
        -24    2    1    2    0    0 -0.25052026086E+03  0.21762707455E+03 -0.75181636473E+03  0.82543278862E+03  0.77391844425E+02 0.  0.
        254    2    1    2    0    0  0.25052026086E+03 -0.21762707455E+03  0.70728724649E+03  0.11936690939E+04  0.90247920308E+03 0.  0.
         23    2    4    4    0    0  0.25361418944E+03 -0.52511266254E+03  0.63111444100E+03  0.86401421627E+03  0.90286559549E+02 0.  0.
         23    2    4    4    0    0 -0.30939285826E+01  0.30748558799E+03  0.76172805492E+02  0.32965487762E+03  0.91176108870E+02 0.  0.
          3    1    3    3  502    0 -0.70116435060E+02  0.19857933597E+02 -0.14990422532E+03  0.16667911915E+03  0.00000000000E+00 0. -1.
         -4    1    3    3    0  502 -0.18040382580E+03  0.19776914095E+03 -0.60191213940E+03  0.65875366947E+03  0.00000000000E+00 0.  1.
         11    1    5    5    0    0  0.11792161969E+03 -0.31509366152E+03  0.31420976525E+03  0.46034476265E+03  0.00000000000E+00 0. -1.
        -11    1    5    5    0    0  0.13569256976E+03 -0.21001900102E+03  0.31690467575E+03  0.40366945363E+03  0.00000000000E+00 0.  1.
          1    1    6    6  503    0 -0.10330936001E+02  0.20707729430E+03  0.93609293938E+02  0.22748721715E+03  0.00000000000E+00 0. -1.
         -1    1    6    6    0  503  0.72370074189E+01  0.10040829369E+03 -0.17436488446E+02  0.10216766048E+03  0.00000000000E+00 0.  1.
<mgrwt>
<rscale>  0 0.20186108E+04</rscale>
<asrwt>0</asrwt>
<pdfrwt beam="1">  1        1 0.15189021E+00 0.20186108E+04</pdfrwt>
<pdfrwt beam="2">  1       -2 0.15874085E+00 0.20186108E+04</pdfrwt>
<totfact> 0.32348259E+00</totfact>
</mgrwt>
</event>
<event>
12    4  0.4424320E-008  0.2708303E+04  0.7818608E-02  0.8332316E-01
          1   -1    0    0  501    0  0.00000000000E+00  0.00000000000E+00  0.22263841483E+04  0.22263841483E+04  0.00000000000E+00 0. -1.
         -2   -1    0    0    0  501 -0.00000000000E+00 -0.00000000000E+00 -0.82363408634E+03  0.82363408634E+03  0.00000000000E+00 0.  1.
        -24    2    1    2    0    0 -0.10433335546E+04 -0.47236953099E+03  0.10454900557E+04  0.15528039143E+04  0.80452840172E+02 0.  0.
        254    2    1    2    0    0  0.10433335546E+04  0.47236953099E+03  0.35726000621E+03  0.14972143203E+04  0.89573329120E+03 0.  0.
         23    2    4    4    0    0  0.70037091500E+03  0.68313860816E+03  0.53825445217E+02  0.98417773485E+03  0.92254315240E+02 0.  0.
         23    2    4    4    0    0  0.34296263964E+03 -0.21076907717E+03  0.30343456099E+03  0.51303658550E+03  0.95325910299E+02 0.  0.
          1    1    3    3  502    0 -0.37789490044E+03 -0.17667897957E+03  0.43339359165E+03  0.60153971015E+03  0.00000000000E+00 0. -1.
         -2    1    3    3    0  502 -0.66543865421E+03 -0.29569055141E+03  0.61209646406E+03  0.95126420411E+03  0.00000000000E+00 0.  1.
         11    1    5    5    0    0  0.57222100792E+03  0.54184141271E+03  0.77967838962E+02  0.79190149788E+03  0.00000000000E+00 0. -1.
        -11    1    5    5    0    0  0.12814990709E+03  0.14129719545E+03 -0.24142393746E+02  0.19227623697E+03  0.00000000000E+00 0.  1.
          3    1    6    6  503    0  0.16835960652E+03 -0.12063611695E+03  0.21175526469E+03  0.29620655284E+03  0.00000000000E+00 0. -1.
         -3    1    6    6    0  503  0.17460303312E+03 -0.90132960217E+02  0.91679296303E+02  0.21683003266E+03  0.00000000000E+00 0.  1.
<mgrwt>
<rscale>  0 0.27083027E+04</rscale>
<asrwt>0</asrwt>
<pdfrwt beam="1">  1        1 0.34252064E+00 0.27083027E+04</pdfrwt>
<pdfrwt beam="2">  1       -2 0.12671294E+00 0.27083027E+04</pdfrwt>
<totfact> 0.74277532E-01</totfact>
</mgrwt>
</event>
<event>
12    4  0.4424320E-008  0.1859215E+04  0.7818608E-02  0.8675429E-01
          1   -1    0    0  501    0  0.00000000000E+00  0.00000000000E+00  0.26143973506E+04  0.26143973506E+04  0.00000000000E+00 0. -1.
         -2   -1    0    0    0  501 -0.00000000000E+00 -0.00000000000E+00 -0.33054261214E+03  0.33054261214E+03  0.00000000000E+00 0.  1.
        -24    2    1    2    0    0 -0.18452342858E+03 -0.13285770752E+03 -0.18886657362E+03  0.30641883254E+03  0.80757985121E+02 0.  0.
        254    2    1    2    0    0  0.18452342858E+03  0.13285770752E+03  0.24727213121E+04  0.26385211302E+04  0.89204428208E+03 0.  0.
         23    2    4    4    0    0 -0.99904026010E+00  0.49488382978E+03  0.12959578468E+04  0.13902790065E+04  0.91967234586E+02 0.  0.
         23    2    4    4    0    0  0.18552246884E+03 -0.36202612226E+03  0.11767634653E+04  0.12482421237E+04  0.88626443453E+02 0.  0.
          3    1    3    3  502    0 -0.78834147404E+02 -0.89238251197E+02 -0.13506009826E+03  0.18005420966E+03  0.00000000000E+00 0. -1.
         -4    1    3    3    0  502 -0.10568928117E+03 -0.43619456326E+02 -0.53806475364E+02  0.12636462288E+03  0.00000000000E+00 0.  1.
         11    1    5    5    0    0  0.28049508017E+02  0.38105399207E+03  0.91356723245E+03  0.99024946755E+03  0.00000000000E+00 0.  1.
        -11    1    5    5    0    0 -0.29048548277E+02  0.11382983771E+03  0.38239061435E+03  0.40002953898E+03  0.00000000000E+00 0. -1.
          1    1    6    6  503    0  0.31613930991E+01 -0.23013378144E+02  0.26327037625E+02  0.35110153660E+02  0.00000000000E+00 0. -1.
         -1    1    6    6    0  503  0.18236107574E+03 -0.33901274411E+03  0.11504364277E+04  0.12131319701E+04  0.00000000000E+00 0.  1.
<mgrwt>
<rscale>  0 0.18592146E+04</rscale>
<asrwt>0</asrwt>
<pdfrwt beam="1">  1        1 0.40221496E+00 0.18592146E+04</pdfrwt>
<pdfrwt beam="2">  1       -2 0.50852711E-01 0.18592146E+04</pdfrwt>
<totfact> 0.34025680E+00</totfact>
</mgrwt>
</event>
<event>
12    4  0.4424320E-008  0.2205362E+04  0.7818608E-02  0.8516200E-01
          1   -1    0    0  501    0  0.00000000000E+00  0.00000000000E+00  0.10524356352E+04  0.10524356352E+04  0.00000000000E+00 0. -1.
         -2   -1    0    0    0  501 -0.00000000000E+00 -0.00000000000E+00 -0.11553252750E+04  0.11553252750E+04  0.00000000000E+00 0.  1.
        -24    2    1    2    0    0  0.57338674997E+03  0.64917185222E+03 -0.34908148503E+03  0.93715953481E+03  0.78826719662E+02 0.  0.
        254    2    1    2    0    0 -0.57338674997E+03 -0.64917185222E+03  0.24619184521E+03  0.12706013753E+04  0.89644909033E+03 0.  0.
         23    2    4    4    0    0  0.44606952960E+02 -0.12361023043E+03  0.40703942892E+03  0.43845210148E+03  0.96384019855E+02 0.  0.
         23    2    4    4    0    0 -0.61799370293E+03 -0.52556162179E+03 -0.16084758371E+03  0.83214927383E+03  0.92028439027E+02 0.  0.
          3    1    3    3  502    0  0.40522851638E+03  0.45314216138E+03 -0.20574413101E+03  0.64177770011E+03  0.00000000000E+00 0. -1.
         -4    1    3    3    0  502  0.16815823359E+03  0.19602969084E+03 -0.14333735401E+03  0.29538183470E+03  0.00000000000E+00 0.  1.
         11    1    5    5    0    0  0.59019075520E+02 -0.12339181134E+03  0.39933076682E+03  0.42210644595E+03  0.00000000000E+00 0. -1.
        -11    1    5    5    0    0 -0.14412122560E+02 -0.21841909054E+00  0.77086620954E+01  0.16345655536E+02  0.00000000000E+00 0.  1.
          1    1    6    6  503    0 -0.39206911361E+03 -0.30173824281E+03 -0.13636114062E+03  0.51318468186E+03  0.00000000000E+00 0. -1.
         -1    1    6    6    0  503 -0.22592458933E+03 -0.22382337898E+03 -0.24486443089E+02  0.31896459198E+03  0.00000000000E+00 0.  1.
<mgrwt>
<rscale>  0 0.22053621E+04</rscale>
<asrwt>0</asrwt>
<pdfrwt beam="1">  1        1 0.16191317E+00 0.22053621E+04</pdfrwt>
<pdfrwt beam="2">  1       -2 0.17774235E+00 0.22053621E+04</pdfrwt>
<totfact> 0.20699160E+00</totfact>
</mgrwt>
</event>
<event>
12    4  0.4424320E-008  0.1974938E+04  0.7818608E-02  0.8618428E-01
         -2   -1    0    0    0  501 -0.00000000000E+00  0.00000000000E+00  0.90018341858E+03  0.90018341858E+03  0.00000000000E+00 0.  1.
          1   -1    0    0  501    0  0.00000000000E+00 -0.00000000000E+00 -0.10832179705E+04  0.10832179705E+04  0.00000000000E+00 0. -1.
        -24    2    1    2    0    0  0.73750501919E+03  0.19789299888E+03  0.60837847433E+01  0.76757341902E+03  0.77824474377E+02 0.  0.
        254    2    1    2    0    0 -0.73750501919E+03 -0.19789299888E+03 -0.18911833669E+03  0.12158279701E+04  0.92703646918E+03 0.  0.
         23    2    4    4    0    0 -0.69629565707E+03 -0.68712991907E+02  0.24851762704E+03  0.74845631318E+03  0.94216370476E+02 0.  0.
         23    2    4    4    0    0 -0.41209362119E+02 -0.12918000697E+03 -0.43763596372E+03  0.46737165689E+03  0.92332785052E+02 0.  0.
          3    1    3    3  502    0  0.57228146250E+03  0.17244700212E+03 -0.21780007147E+02  0.59809565253E+03  0.00000000000E+00 0. -1.
         -4    1    3    3    0  502  0.16522355670E+03  0.25445996760E+02  0.27863791891E+02  0.16947776650E+03  0.00000000000E+00 0.  1.
         11    1    5    5    0    0 -0.12201611850E+03 -0.20030326134E+02  0.78875377600E+01  0.12390060690E+03  0.00000000000E+00 0.  1.
        -11    1    5    5    0    0 -0.57427953857E+03 -0.48682665774E+02  0.24063008928E+03  0.62455570627E+03  0.00000000000E+00 0. -1.
          3    1    6    6  503    0 -0.58668717502E+02 -0.82664045604E+02 -0.19578821713E+03  0.22047310225E+03  0.00000000000E+00 0. -1.
         -3    1    6    6    0  503  0.17459355383E+02 -0.46515961371E+02 -0.24184774660E+03  0.24689855465E+03  0.00000000000E+00 0.  1.
<mgrwt>
<rscale>  0 0.19749378E+04</rscale>
<asrwt>0</asrwt>
<pdfrwt beam="1">  1        1 0.16664892E+00 0.19749378E+04</pdfrwt>
<pdfrwt beam="2">  1       -2 0.13848976E+00 0.19749378E+04</pdfrwt>
<totfact> 0.39313000E+00</totfact>
</mgrwt>
</event>
<event>
12    4  0.4424320E-008  0.1271158E+04  0.7818608E-02  0.9052755E-01
          3   -1    0    0  501    0  0.00000000000E+00  0.00000000000E+00  0.44742563268E+03  0.44742563268E+03  0.00000000000E+00 0. -1.
         -4   -1    0    0    0  501 -0.00000000000E+00 -0.00000000000E+00 -0.90285583618E+03  0.90285583618E+03  0.00000000000E+00 0.  1.
        -24    2    1    2    0    0 -0.16011578226E+03  0.89307822621E+02  0.15936183858E+03  0.25883992777E+03  0.89380991820E+02 0.  0.
        254    2    1    2    0    0  0.16011578226E+03 -0.89307822621E+02 -0.61479204208E+03  0.10914415411E+04  0.88298495554E+03 0.  0.
         23    2    4    4    0    0  0.44585810064E+02  0.28625160549E+03  0.56285161146E+02  0.30886744428E+03  0.91121911005E+02 0.  0.
         23    2    4    4    0    0  0.11552997220E+03 -0.37555942811E+03 -0.67107720323E+03  0.78257409682E+03  0.87667244754E+02 0.  0.
          3    1    3    3  502    0 -0.11497133732E+03  0.44183303300E+02  0.15037743292E+03  0.19438092763E+03  0.00000000000E+00 0. -1.
         -4    1    3    3    0  502 -0.45144444941E+02  0.45124519321E+02  0.89844056614E+01  0.64459000132E+02  0.00000000000E+00 0.  1.
         11    1    5    5    0    0  0.53670324509E+02  0.83190655577E+02  0.44637402621E+01  0.99101533214E+02  0.00000000000E+00 0. -1.
        -11    1    5    5    0    0 -0.90845144449E+01  0.20306094991E+03  0.51821420884E+02  0.20976591106E+03  0.00000000000E+00 0.  1.
          2    1    6    6  503    0  0.35265304236E+02 -0.26806086591E+02 -0.63239606561E+02  0.77210464311E+02  0.00000000000E+00 0.  1.
         -2    1    6    6    0  503  0.80264667963E+02 -0.34875334152E+03 -0.60783759667E+03  0.70536363251E+03  0.00000000000E+00 0. -1.
<mgrwt>
<rscale>  0 0.12711583E+04</rscale>
<asrwt>0</asrwt>
<pdfrwt beam="1">  1        3 0.68834713E-01 0.12711583E+04</pdfrwt>
<pdfrwt beam="2">  1       -4 0.13890090E+00 0.12711583E+04</pdfrwt>
<totfact> 0.16585425E+00</totfact>
</mgrwt>
</event>
<event>
12    4  0.4424320E-008  0.2391125E+04  0.7818608E-02  0.8442834E-01
         -2   -1    0    0    0  501 -0.00000000000E+00  0.00000000000E+00  0.70664299324E+03  0.70664299324E+03  0.00000000000E+00 0.  1.
          1   -1    0    0  501    0  0.00000000000E+00 -0.00000000000E+00 -0.20227614279E+04  0.20227614279E+04  0.00000000000E+00 0. -1.
        -24    2    1    2    0    0 -0.16537292874E+03 -0.72419400284E+03  0.23958280033E+03  0.78379780436E+03  0.71651382444E+02 0.  0.
        254    2    1    2    0    0  0.16537292874E+03  0.72419400284E+03 -0.15557012350E+04  0.19456066168E+04  0.90187228330E+03 0.  0.
         23    2    4    4    0    0 -0.33731834059E+03  0.38342356448E+03 -0.47942910633E+03  0.70639668850E+03  0.91360389865E+02 0.  0.
         23    2    4    4    0    0  0.50269126933E+03  0.34077043836E+03 -0.10762721286E+04  0.12392099283E+04  0.91959488245E+02 0.  0.
          1    1    3    3  502    0 -0.93451163302E+02 -0.37138679350E+03  0.16000401420E+03  0.41504524436E+03  0.00000000000E+00 0. -1.
         -2    1    3    3    0  502 -0.71921765442E+02 -0.35280720934E+03  0.79578786123E+02  0.36875256000E+03  0.00000000000E+00 0.  1.
         11    1    5    5    0    0 -0.37255970646E+02  0.13489814169E+02 -0.19110822442E+02  0.43990976000E+02  0.00000000000E+00 0.  1.
        -11    1    5    5    0    0 -0.30006236994E+03  0.36993375031E+03 -0.46031828389E+03  0.66240571250E+03  0.00000000000E+00 0. -1.
          2    1    6    6  503    0  0.38773850639E+03  0.21360811162E+03 -0.78707612166E+03  0.90302735062E+03  0.00000000000E+00 0. -1.
         -2    1    6    6    0  503  0.11495276294E+03  0.12716232674E+03 -0.28919600699E+03  0.33618257764E+03  0.00000000000E+00 0.  1.
<mgrwt>
<rscale>  0 0.23911254E+04</rscale>
<asrwt>0</asrwt>
<pdfrwt beam="1">  1        1 0.31119406E+00 0.23911254E+04</pdfrwt>
<pdfrwt beam="2">  1       -2 0.10871431E+00 0.23911254E+04</pdfrwt>
<totfact> 0.15317782E+00</totfact>
</mgrwt>
</event>
<event>
12    4  0.4424320E-008  0.1736148E+04  0.7818608E-02  0.8741012E-01
          1   -1    0    0  501    0  0.00000000000E+00  0.00000000000E+00  0.13496681970E+04  0.13496681970E+04  0.00000000000E+00 0. -1.
         -2   -1    0    0    0  501 -0.00000000000E+00 -0.00000000000E+00 -0.55832426974E+03  0.55832426974E+03  0.00000000000E+00 0.  1.
        -24    2    1    2    0    0 -0.52890143550E+03 -0.29761164888E+03  0.67286433469E+02  0.61572218446E+03  0.79227029997E+02 0.  0.
        254    2    1    2    0    0  0.52890143550E+03  0.29761164888E+03  0.72405749384E+03  0.12922702823E+04  0.88169938538E+03 0.  0.
         23    2    4    4    0    0 -0.72386954503E+02  0.18452037498E+03 -0.11734322465E+03  0.24793189504E+03  0.91723237212E+02 0.  0.
         23    2    4    4    0    0  0.60128839000E+03  0.11309127390E+03  0.84140071848E+03  0.10443383873E+04  0.91379067086E+02 0.  0.
          3    1    3    3  502    0 -0.66819638899E+02 -0.42785386728E+02  0.35935694519E+02  0.87102397215E+02  0.00000000000E+00 0. -1.
         -4    1    3    3    0  502 -0.46208179660E+03 -0.25482626215E+03  0.31350738950E+02  0.52861978724E+03  0.00000000000E+00 0.  1.
         11    1    5    5    0    0 -0.83418256026E+02  0.11626617425E+03 -0.10550547036E+03  0.17778591898E+03  0.00000000000E+00 0.  1.
        -11    1    5    5    0    0  0.11031301522E+02  0.68254200730E+02 -0.11837754282E+02  0.70145976057E+02  0.00000000000E+00 0. -1.
          2    1    6    6  503    0  0.28784351950E+03  0.15102133202E+02  0.43505987290E+03  0.52188031114E+03  0.00000000000E+00 0. -1.
         -2    1    6    6    0  503  0.31344487050E+03  0.97989140698E+02  0.40634084559E+03  0.52245807615E+03  0.00000000000E+00 0.  1.
<mgrwt>
<rscale>  0 0.17361480E+04</rscale>
<asrwt>0</asrwt>
<pdfrwt beam="1">  1        1 0.20764126E+00 0.17361480E+04</pdfrwt>
<pdfrwt beam="2">  1       -2 0.85896042E-01 0.17361480E+04</pdfrwt>
<totfact> 0.81646324E+00</totfact>
</mgrwt>
</event>
<event>
12    4  0.4424320E-008  0.1310256E+04  0.7818608E-02  0.9021472E-01
         -2   -1    0    0    0  501 -0.00000000000E+00  0.00000000000E+00  0.25646812036E+03  0.25646812036E+03  0.00000000000E+00 0.  1.
          1   -1    0    0  501    0  0.00000000000E+00 -0.00000000000E+00 -0.16734728404E+04  0.16734728404E+04  0.00000000000E+00 0. -1.
        -24    2    1    2    0    0 -0.55380259794E+02 -0.26805204086E+03 -0.67166254503E+03  0.73062572273E+03  0.88116414710E+02 0.  0.
        254    2    1    2    0    0  0.55380259794E+02  0.26805204086E+03 -0.74534217497E+03  0.11993152380E+04  0.89883436321E+03 0.  0.
         23    2    4    4    0    0 -0.22684678048E+03 -0.31588206010E+02  0.90791714382E+02  0.26272751388E+03  0.91243271420E+02 0.  0.
         23    2    4    4    0    0  0.28222704027E+03  0.29964024687E+03 -0.83613388935E+03  0.93658772410E+03  0.92953236670E+02 0.  0.
          3    1    3    3  502    0 -0.11459298449E+02 -0.13744115427E+03 -0.43967730198E+03  0.46080095083E+03  0.00000000000E+00 0. -1.
         -4    1    3    3    0  502 -0.43920961345E+02 -0.13061088659E+03 -0.23198524305E+03  0.26982477190E+03  0.00000000000E+00 0.  1.
         11    1    5    5    0    0 -0.15143792427E+02 -0.33419757320E+01 -0.17400432028E+02  0.23308330820E+02  0.00000000000E+00 0.  1.
        -11    1    5    5    0    0 -0.21170298805E+03 -0.28246230278E+02  0.10819214641E+03  0.23941918306E+03  0.00000000000E+00 0. -1.
          1    1    6    6  503    0  0.19317754900E+03  0.23370394174E+03 -0.52440797190E+03  0.60575475138E+03  0.00000000000E+00 0. -1.
         -1    1    6    6    0  503  0.89049491271E+02  0.65936305127E+02 -0.31172591745E+03  0.33083297272E+03  0.00000000000E+00 0.  1.
<mgrwt>
<rscale>  0 0.13102556E+04</rscale>
<asrwt>0</asrwt>
<pdfrwt beam="1">  1        1 0.25745736E+00 0.13102556E+04</pdfrwt>
<pdfrwt beam="2">  1       -2 0.39456635E-01 0.13102556E+04</pdfrwt>
<totfact> 0.26014453E+01</totfact>
</mgrwt>
</event>
<event>
12    4  0.4424320E-008  0.1904828E+04  0.7818608E-02  0.8652457E-01
         -2   -1    0    0    0  501 -0.00000000000E+00  0.00000000000E+00  0.10946651601E+04  0.10946651601E+04  0.00000000000E+00 0.  1.
          1   -1    0    0  501    0  0.00000000000E+00 -0.00000000000E+00 -0.82864788351E+03  0.82864788351E+03  0.00000000000E+00 0. -1.
        -24    2    1    2    0    0 -0.54518009969E+03 -0.44806792615E+03 -0.10518455342E+03  0.71731000927E+03  0.74051681810E+02 0.  0.
        254    2    1    2    0    0  0.54518009969E+03  0.44806792615E+03  0.37120182996E+03  0.12060030343E+04  0.90480180848E+03 0.  0.
         23    2    4    4    0    0  0.23744040605E+03  0.39910272565E+03  0.63197439206E+03  0.78959556662E+03  0.91698389121E+02 0.  0.
         23    2    4    4    0    0  0.30773969364E+03  0.48965200500E+02 -0.26077256209E+03  0.41640746768E+03  0.91057894211E+02 0.  0.
          3    1    3    3  502    0 -0.42275502663E+03 -0.37858756892E+03 -0.10146149413E+03  0.57649353394E+03  0.00000000000E+00 0. -1.
         -4    1    3    3    0  502 -0.12242507306E+03 -0.69480357230E+02 -0.37230592890E+01  0.14081647533E+03  0.00000000000E+00 0.  1.
         11    1    5    5    0    0  0.22952161613E+03  0.37883886279E+03  0.55769595056E+03  0.71219648237E+03  0.00000000000E+00 0. -1.
        -11    1    5    5    0    0  0.79187899202E+01  0.20263862860E+02  0.74278441493E+02  0.77399084248E+02  0.00000000000E+00 0.  1.
          3    1    6    6  503    0  0.30162183804E+03  0.61839130774E+02 -0.23643312151E+03  0.38820153558E+03  0.00000000000E+00 0. -1.
         -3    1    6    6    0  503  0.61178555950E+01 -0.12873930274E+02 -0.24339440579E+02  0.28205932097E+02  0.00000000000E+00 0.  1.
<mgrwt>
<rscale>  0 0.19048275E+04</rscale>
<asrwt>0</asrwt>
<pdfrwt beam="1">  1        1 0.12748429E+00 0.19048275E+04</pdfrwt>
<pdfrwt beam="2">  1       -2 0.16841002E+00 0.19048275E+04</pdfrwt>
<totfact> 0.37423330E+00</totfact>
</mgrwt>
</event>
<event>
12    4  0.4424320E-008  0.1752930E+04  0.7818608E-02  0.8731739E-01
         -2   -1    0    0    0  501 -0.00000000000E+00  0.00000000000E+00  0.13476835536E+04  0.13476835536E+04  0.00000000000E+00 0.  1.
          1   -1    0    0  501    0  0.00000000000E+00 -0.00000000000E+00 -0.57000822648E+03  0.57000822648E+03  0.00000000000E+00 0. -1.
        -24    2    1    2    0    0  0.30277471591E+03 -0.39538253502E+03 -0.16140049220E+03  0.52891107620E+03  0.75478010344E+02 0.  0.
        254    2    1    2    0    0 -0.30277471591E+03  0.39538253502E+03  0.93907581927E+03  0.13887807038E+04  0.89378329109E+03 0.  0.
         23    2    4    4    0    0  0.17078302521E+03  0.23941814890E+03  0.80892634834E+03  0.86558384584E+03  0.91573278956E+02 0.  0.
         23    2    4    4    0    0 -0.47355774111E+03  0.15596438612E+03  0.13014947093E+03  0.52319685801E+03  0.90632464029E+02 0.  0.
          3    1    3    3  502    0  0.28291640948E+03 -0.36763515027E+03 -0.12815205930E+03  0.48126941391E+03  0.00000000000E+00 0. -1.
         -4    1    3    3    0  502  0.19858306431E+02 -0.27747384755E+02 -0.33248432896E+02  0.47641662283E+02  0.00000000000E+00 0.  1.
         11    1    5    5    0    0  0.50755126492E+02  0.43601717500E+02  0.99505663097E+02  0.11991067351E+03  0.00000000000E+00 0. -1.
        -11    1    5    5    0    0  0.12002789871E+03  0.19581643140E+03  0.70942068524E+03  0.74567317232E+03  0.00000000000E+00 0.  1.
          4    1    6    6  503    0 -0.98605228322E+02  0.73054066014E+02  0.29434293137E+02  0.12619930755E+03  0.00000000000E+00 0. -1.
         -4    1    6    6    0  503 -0.37495251279E+03  0.82910320106E+02  0.10071517780E+03  0.39699755046E+03  0.00000000000E+00 0.  1.
<mgrwt>
<rscale>  0 0.17529298E+04</rscale>
<asrwt>0</asrwt>
<pdfrwt beam="1">  1        1 0.87693574E-01 0.17529298E+04</pdfrwt>
<pdfrwt beam="2">  1       -2 0.20733593E+00 0.17529298E+04</pdfrwt>
<totfact> 0.36392382E+00</totfact>
</mgrwt>
</event>
<event>
12    4  0.4424320E-008  0.1225491E+04  0.7818608E-02  0.9090832E-01
         -2   -1    0    0    0  501 -0.00000000000E+00  0.00000000000E+00  0.14083808985E+03  0.14083808985E+03  0.00000000000E+00 0.  1.
          1   -1    0    0  501    0  0.00000000000E+00 -0.00000000000E+00 -0.26658793209E+04  0.26658793209E+04  0.00000000000E+00 0. -1.
        -24    2    1    2    0    0  0.14011471153E+03  0.34092966968E+02 -0.11425492653E+04  0.11544520424E+04  0.80908786334E+02 0.  0.
        254    2    1    2    0    0 -0.14011471153E+03 -0.34092966968E+02 -0.13824919657E+04  0.16522653684E+04  0.89325379898E+03 0.  0.
         23    2    4    4    0    0  0.31260101022E+03 -0.22363431046E+03 -0.73865744818E+03  0.83789070999E+03  0.93350520757E+02 0.  0.
         23    2    4    4    0    0 -0.45271572175E+03  0.18954134349E+03 -0.64383451755E+03  0.81437465837E+03  0.88350170318E+02 0.  0.
          1    1    3    3  502    0  0.10260746611E+03 -0.14858689928E+02 -0.71275485552E+03  0.72025589678E+03  0.00000000000E+00 0. -1.
         -2    1    3    3    0  502  0.37507245419E+02  0.48951656896E+02 -0.42979440982E+03  0.43419614564E+03  0.00000000000E+00 0.  1.
         11    1    5    5    0    0  0.28262334070E+03 -0.17418177956E+03 -0.67277936377E+03  0.75023150917E+03  0.00000000000E+00 0.  1.
        -11    1    5    5    0    0  0.29977669524E+02 -0.49452530896E+02 -0.65878084407E+02  0.87659200813E+02  0.00000000000E+00 0. -1.
          2    1    6    6  503    0 -0.10422366070E+03  0.10521996319E+02 -0.16826915651E+03  0.19821148526E+03  0.00000000000E+00 0. -1.
         -2    1    6    6    0  503 -0.34849206105E+03  0.17901934717E+03 -0.47556536104E+03  0.61616317311E+03  0.00000000000E+00 0.  1.
<mgrwt>
<rscale>  0 0.12254915E+04</rscale>
<asrwt>0</asrwt>
<pdfrwt beam="1">  1        1 0.41013531E+00 0.12254915E+04</pdfrwt>
<pdfrwt beam="2">  1       -2 0.21667397E-01 0.12254915E+04</pdfrwt>
<totfact> 0.16820880E+01</totfact>
</mgrwt>
</event>
<event>
12    4  0.4424320E-008  0.1354911E+04  0.7818608E-02  0.8987119E-01
         -2   -1    0    0    0  501 -0.00000000000E+00  0.00000000000E+00  0.14136683387E+03  0.14136683387E+03  0.00000000000E+00 0.  1.
          1   -1    0    0  501    0  0.00000000000E+00 -0.00000000000E+00 -0.32464885754E+04  0.32464885754E+04  0.00000000000E+00 0. -1.
        -24    2    1    2    0    0 -0.19225690733E+03 -0.31021399031E+03 -0.67532121494E+03  0.77181573019E+03  0.80282873812E+02 0.  0.
        254    2    1    2    0    0  0.19225690733E+03  0.31021399031E+03 -0.24298005266E+04  0.26160396790E+04  0.89807436511E+03 0.  0.
         23    2    4    4    0    0 -0.20265777396E+03  0.39849625721E+03 -0.18318449242E+04  0.18880772571E+04  0.96490735450E+02 0.  0.
         23    2    4    4    0    0  0.39491468129E+03 -0.88282266894E+02 -0.59795560235E+03  0.72796242195E+03  0.92881759501E+02 0.  0.
          3    1    3    3  502    0 -0.76250945939E+02 -0.58075015586E+02 -0.18692770112E+03  0.21006874979E+03  0.00000000000E+00 0. -1.
         -4    1    3    3    0  502 -0.11600596139E+03 -0.25213897473E+03 -0.48839351382E+03  0.56174698041E+03  0.00000000000E+00 0.  1.
         11    1    5    5    0    0 -0.16598030092E+03  0.30433784946E+03 -0.15601684745E+04  0.15982167111E+04  0.00000000000E+00 0. -1.
        -11    1    5    5    0    0 -0.36677473040E+02  0.94158407752E+02 -0.27167644976E+03  0.28986054601E+03  0.00000000000E+00 0.  1.
          1    1    6    6  503    0  0.33741052660E+03 -0.10204840203E+03 -0.54204539828E+03  0.64658561197E+03  0.00000000000E+00 0. -1.
         -1    1    6    6    0  503  0.57504154690E+02  0.13766135133E+02 -0.55910204071E+02  0.81376809979E+02  0.00000000000E+00 0.  1.
<mgrwt>
<rscale>  0 0.13549108E+04</rscale>
<asrwt>0</asrwt>
<pdfrwt beam="1">  1        1 0.49945975E+00 0.13549108E+04</pdfrwt>
<pdfrwt beam="2">  1       -2 0.21748745E-01 0.13549108E+04</pdfrwt>
<totfact> 0.62840876E+00</totfact>
</mgrwt>
</event>
<event>
12    4  0.4424320E-008  0.1782020E+04  0.7818608E-02  0.8715920E-01
          1   -1    0    0  501    0  0.00000000000E+00  0.00000000000E+00  0.24839923257E+04  0.24839923257E+04  0.00000000000E+00 0. -1.
         -2   -1    0    0    0  501 -0.00000000000E+00 -0.00000000000E+00 -0.31960594431E+03  0.31960594431E+03  0.00000000000E+00 0.  1.
        -24    2    1    2    0    0  0.60577615048E+03 -0.29509325139E+03  0.96137406692E+03  0.11767960312E+04  0.81018707319E+02 0.  0.
        254    2    1    2    0    0 -0.60577615048E+03  0.29509325139E+03  0.12030123145E+04  0.16268022388E+04  0.86325090441E+03 0.  0.
         23    2    4    4    0    0 -0.59605465450E+03 -0.14665242319E+03  0.52047621732E+03  0.80988997372E+03  0.90764488408E+02 0.  0.
         23    2    4    4    0    0 -0.97214959842E+01  0.44174567458E+03  0.68253609715E+03  0.81691226511E+03  0.79097259596E+02 0.  0.
          1    1    3    3  502    0  0.32986021849E+03 -0.14257112989E+03  0.44757244512E+03  0.57398204193E+03  0.00000000000E+00 0. -1.
         -2    1    3    3    0  502  0.27591593200E+03 -0.15252212150E+03  0.51380162180E+03  0.60281398926E+03  0.00000000000E+00 0.  1.
         11    1    5    5    0    0 -0.26619468215E+03 -0.10715201083E+03  0.21479964388E+03  0.35844113776E+03  0.00000000000E+00 0. -1.
        -11    1    5    5    0    0 -0.32985997235E+03 -0.39500412357E+02  0.30567657344E+03  0.45144883595E+03  0.00000000000E+00 0.  1.
          2    1    6    6  503    0 -0.14885200530E+02  0.16459823810E+02  0.49727741573E+02  0.54454965583E+02  0.00000000000E+00 0. -1.
         -2    1    6    6    0  503  0.51637045458E+01  0.42528585077E+03  0.63280835557E+03  0.76245729952E+03  0.00000000000E+00 0.  1.
<mgrwt>
<rscale>  0 0.17820199E+04</rscale>
<asrwt>0</asrwt>
<pdfrwt beam="1">  1        1 0.38215265E+00 0.17820199E+04</pdfrwt>
<pdfrwt beam="2">  1       -2 0.49170147E-01 0.17820199E+04</pdfrwt>
<totfact> 0.45220359E+00</totfact>
</mgrwt>
</event>
<event>
12    4  0.4424320E-008  0.1768526E+04  0.7818608E-02  0.8723218E-01
          1   -1    0    0  501    0  0.00000000000E+00  0.00000000000E+00  0.66962145960E+03  0.66962145960E+03  0.00000000000E+00 0. -1.
         -2   -1    0    0    0  501 -0.00000000000E+00 -0.00000000000E+00 -0.11677061750E+04  0.11677061750E+04  0.00000000000E+00 0.  1.
        -24    2    1    2    0    0  0.18841553463E+03  0.46281221370E+03 -0.65844742614E+03  0.83078884506E+03  0.83435803143E+02 0.  0.
        254    2    1    2    0    0 -0.18841553463E+03 -0.46281221370E+03  0.16036271075E+03  0.10065387895E+04  0.85889963149E+03 0.  0.
         23    2    4    4    0    0 -0.12453097360E+03 -0.57420571765E+03 -0.18826707796E+03  0.62384038334E+03  0.92261376973E+02 0.  0.
         23    2    4    4    0    0 -0.63884561033E+02  0.11139350395E+03  0.34862978871E+03  0.38269840618E+03  0.91791016212E+02 0.  0.
          1    1    3    3  502    0  0.72987897848E+02  0.95659922163E+02 -0.13129114652E+03  0.17808823402E+03  0.00000000000E+00 0. -1.
         -2    1    3    3    0  502  0.11542763678E+03  0.36715229154E+03 -0.52715627963E+03  0.65270061105E+03  0.00000000000E+00 0.  1.
         11    1    5    5    0    0 -0.80513323321E+02 -0.28923818008E+03 -0.51185113696E+02  0.30456696458E+03  0.00000000000E+00 0.  1.
        -11    1    5    5    0    0 -0.44017650275E+02 -0.28496753756E+03 -0.13708196426E+03  0.31927341876E+03  0.00000000000E+00 0. -1.
          2    1    6    6  503    0 -0.48147477780E+01 -0.77760120358E+01  0.10269369909E+03  0.10310016485E+03  0.00000000000E+00 0. -1.
         -2    1    6    6    0  503 -0.59069813255E+02  0.11916951598E+03  0.24593608962E+03  0.27959824133E+03  0.00000000000E+00 0.  1.
<mgrwt>
<rscale>  0 0.17685261E+04</rscale>
<asrwt>0</asrwt>
<pdfrwt beam="1">  1        1 0.10301869E+00 0.17685261E+04</pdfrwt>
<pdfrwt beam="2">  1       -2 0.17964710E+00 0.17685261E+04</pdfrwt>
<totfact> 0.43979410E+00</totfact>
</mgrwt>
</event>
<event>
12    4  0.4424320E-008  0.1573387E+04  0.7818608E-02  0.8837067E-01
          1   -1    0    0  501    0  0.00000000000E+00  0.00000000000E+00  0.13061786953E+04  0.13061786953E+04  0.00000000000E+00 0. -1.
         -2   -1    0    0    0  501 -0.00000000000E+00 -0.00000000000E+00 -0.47381445753E+03  0.47381445753E+03  0.00000000000E+00 0.  1.
        -24    2    1    2    0    0  0.24433037228E+03 -0.22174599597E+03 -0.18380079085E+03  0.38620921695E+03  0.80661087209E+02 0.  0.
        254    2    1    2    0    0 -0.24433037228E+03  0.22174599597E+03  0.10161650286E+04  0.13937839358E+04  0.89508305590E+03 0.  0.
         23    2    4    4    0    0  0.11241423240E+03 -0.52708158058E+02  0.90900559073E+03  0.92229347022E+03  0.94440307323E+02 0.  0.
         23    2    4    4    0    0 -0.35674460469E+03  0.27445415403E+03  0.10715943784E+03  0.47149046562E+03  0.90710078918E+02 0.  0.
          3    1    3    3  502    0  0.51690571590E+02 -0.34061503172E+02 -0.26920142961E+01  0.61962473568E+02  0.00000000000E+00 0. -1.
         -4    1    3    3    0  502  0.19263980069E+03 -0.18768449280E+03 -0.18110877655E+03  0.32424674338E+03  0.00000000000E+00 0.  1.
         11    1    5    5    0    0  0.67543759963E+02 -0.26494989300E+02  0.22704917205E+03  0.23835995992E+03  0.00000000000E+00 0. -1.
        -11    1    5    5    0    0  0.44870472441E+02 -0.26213168758E+02  0.68195641869E+03  0.68393351029E+03  0.00000000000E+00 0.  1.
          3    1    6    6  503    0 -0.39957401830E+02  0.70995549375E+02  0.62574264844E+01  0.81707511150E+02  0.00000000000E+00 0. -1.
         -3    1    6    6    0  503 -0.31678720286E+03  0.20345860465E+03  0.10090201136E+03  0.38978295447E+03  0.00000000000E+00 0.  1.
<mgrwt>
<rscale>  0 0.15733866E+04</rscale>
<asrwt>0</asrwt>
<pdfrwt beam="1">  1        1 0.20095057E+00 0.15733866E+04</pdfrwt>
<pdfrwt beam="2">  1       -2 0.72894532E-01 0.15733866E+04</pdfrwt>
<totfact> 0.12845442E+01</totfact>
</mgrwt>
</event>
<event>
12    4  0.4424320E-008  0.1585635E+04  0.7818608E-02  0.8829422E-01
          1   -1    0    0  501    0  0.00000000000E+00  0.00000000000E+00  0.31905617356E+03  0.31905617356E+03  0.00000000000E+00 0. -1.
         -2   -1    0    0    0  501 -0.00000000000E+00 -0.00000000000E+00 -0.19700590726E+04  0.19700590726E+04  0.00000000000E+00 0.  1.
        -24    2    1    2    0    0 -0.13471821323E+03  0.22636344913E+03  0.11056392040E+03  0.29727782209E+03  0.82221134356E+02 0.  0.
        254    2    1    2    0    0  0.13471821323E+03 -0.22636344913E+03 -0.17615668194E+04  0.19918374241E+04  0.89157683711E+03 0.  0.
         23    2    4    4    0    0  0.10775171478E+03 -0.46987299913E+03 -0.16251245092E+04  0.16975808794E+04  0.91433605729E+02 0.  0.
         23    2    4    4    0    0  0.26966498455E+02  0.24350955000E+03 -0.13644231027E+03  0.29425654472E+03  0.89142117418E+02 0.  0.
          3    1    3    3  502    0 -0.11599047451E+03  0.18843297098E+03  0.56019155540E+02  0.22825187955E+03  0.00000000000E+00 0. -1.
         -4    1    3    3    0  502 -0.18727738719E+02  0.37930478151E+02  0.54544764862E+02  0.69025942545E+02  0.00000000000E+00 0.  1.
         11    1    5    5    0    0  0.10172698952E+03 -0.24039733164E+03 -0.84994720631E+03  0.88912851207E+03  0.00000000000E+00 0. -1.
        -11    1    5    5    0    0  0.60247252561E+01 -0.22947566749E+03 -0.77517730287E+03  0.80845236728E+03  0.00000000000E+00 0.  1.
          1    1    6    6  503    0 -0.27867512525E+02  0.93556607142E+02 -0.75297314283E+02  0.12328472141E+03  0.00000000000E+00 0. -1.
         -1    1    6    6    0  503  0.54834010980E+02  0.14995294286E+03 -0.61144995982E+02  0.17097182331E+03  0.00000000000E+00 0.  1.
<mgrwt>
<rscale>  0 0.15856349E+04</rscale>
<asrwt>0</asrwt>
<pdfrwt beam="1">  1        1 0.49085565E-01 0.15856349E+04</pdfrwt>
<pdfrwt beam="2">  1       -2 0.30308601E+00 0.15856349E+04</pdfrwt>
<totfact> 0.20722993E+00</totfact>
</mgrwt>
</event>
<event>
12    4  0.4424320E-008  0.2593390E+04  0.7818608E-02  0.8370450E-01
         -2   -1    0    0    0  501 -0.00000000000E+00  0.00000000000E+00  0.39948341632E+03  0.39948341632E+03  0.00000000000E+00 0.  1.
          1   -1    0    0  501    0  0.00000000000E+00 -0.00000000000E+00 -0.42089807329E+04  0.42089807329E+04  0.00000000000E+00 0. -1.
        -24    2    1    2    0    0 -0.18755562108E+03 -0.10724649269E+04 -0.22556395467E+04  0.25059429996E+04  0.80513490988E+02 0.  0.
        254    2    1    2    0    0  0.18755562108E+03  0.10724649269E+04 -0.15538577699E+04  0.21025211497E+04  0.90595975905E+03 0.  0.
         23    2    4    4    0    0  0.52883179137E+03  0.45046680024E+03 -0.79089041450E+03  0.10564744451E+04  0.89706208085E+02 0.  0.
         23    2    4    4    0    0 -0.34127617029E+03  0.62199812670E+03 -0.76296735543E+03  0.10460467045E+04  0.93506302257E+02 0.  0.
          3    1    3    3  502    0 -0.10844662666E+03 -0.43635762248E+03 -0.98504471335E+03  0.10828119564E+04  0.00000000000E+00 0. -1.
         -4    1    3    3    0  502 -0.79108994423E+02 -0.63610730446E+03 -0.12705948333E+04  0.14231310433E+04  0.00000000000E+00 0.  1.
         11    1    5    5    0    0  0.12064146355E+03  0.12180328358E+03 -0.14358992506E+03  0.22362573465E+03  0.00000000000E+00 0. -1.
        -11    1    5    5    0    0  0.40819032782E+03  0.32866351666E+03 -0.64730048944E+03  0.83284871048E+03  0.00000000000E+00 0.  1.
          4    1    6    6  503    0 -0.16406023130E+03  0.20725767957E+03 -0.29560880221E+03  0.39655525362E+03  0.00000000000E+00 0. -1.
         -4    1    6    6    0  503 -0.17721593899E+03  0.41474044713E+03 -0.46735855323E+03  0.64949145090E+03  0.00000000000E+00 0.  1.
<mgrwt>
<rscale>  0 0.25933901E+04</rscale>
<asrwt>0</asrwt>
<pdfrwt beam="1">  1        1 0.64753553E+00 0.25933901E+04</pdfrwt>
<pdfrwt beam="2">  1       -2 0.61458984E-01 0.25933901E+04</pdfrwt>
<totfact> 0.11863850E-01</totfact>
</mgrwt>
</event>
<event>
12    4  0.4424320E-008  0.1663261E+04  0.7818608E-02  0.8782600E-01
         -2   -1    0    0    0  501 -0.00000000000E+00  0.00000000000E+00  0.44076684807E+03  0.44076684807E+03  0.00000000000E+00 0.  1.
          1   -1    0    0  501    0  0.00000000000E+00 -0.00000000000E+00 -0.15691054651E+04  0.15691054651E+04  0.00000000000E+00 0. -1.
        -24    2    1    2    0    0  0.20955484800E+03  0.24280350096E+03  0.18870003586E+03  0.38068531050E+03  0.80292139733E+02 0.  0.
        254    2    1    2    0    0 -0.20955484800E+03 -0.24280350096E+03 -0.13170386529E+04  0.16291870027E+04  0.90376584473E+03 0.  0.
         23    2    4    4    0    0 -0.36315541697E+03 -0.19370913082E+03 -0.15059435696E+03  0.44792053590E+03  0.92461137223E+02 0.  0.
         23    2    4    4    0    0  0.15360056897E+03 -0.49094370137E+02 -0.11664442960E+04  0.11812664668E+04  0.93780477928E+02 0.  0.
          3    1    3    3  502    0  0.23442507115E+01  0.32861505956E+02  0.34998860972E+02  0.48065521472E+02  0.00000000000E+00 0. -1.
         -4    1    3    3    0  502  0.20721059729E+03  0.20994199500E+03  0.15370117489E+03  0.33261978903E+03  0.00000000000E+00 0.  1.
         11    1    5    5    0    0 -0.26002625278E+03 -0.11107915668E+03 -0.63949959949E+02  0.28989968707E+03  0.00000000000E+00 0. -1.
        -11    1    5    5    0    0 -0.10312916419E+03 -0.82629974139E+02 -0.86644397014E+02  0.15802084883E+03  0.00000000000E+00 0.  1.
          4    1    6    6  503    0  0.15810292513E+03 -0.57017572462E+02 -0.95858171779E+03  0.97320421710E+03  0.00000000000E+00 0. -1.
         -4    1    6    6    0  503 -0.45023561527E+01  0.79232023256E+01 -0.20786257819E+03  0.20806224972E+03  0.00000000000E+00 0.  1.
<mgrwt>
<rscale>  0 0.16632615E+04</rscale>
<asrwt>0</asrwt>
<pdfrwt beam="1">  1        1 0.24140084E+00 0.16632615E+04</pdfrwt>
<pdfrwt beam="2">  1       -2 0.67810284E-01 0.16632615E+04</pdfrwt>
<totfact> 0.97795940E+00</totfact>
</mgrwt>
</event>
<event>
12    4  0.4424320E-008  0.2149697E+04  0.7818608E-02  0.8539662E-01
         -2   -1    0    0    0  501 -0.00000000000E+00  0.00000000000E+00  0.34737241514E+03  0.34737241514E+03  0.00000000000E+00 0.  1.
          1   -1    0    0  501    0  0.00000000000E+00 -0.00000000000E+00 -0.33258231318E+04  0.33258231318E+04  0.00000000000E+00 0. -1.
        -24    2    1    2    0    0 -0.61130448686E+03  0.14760987006E+03 -0.23001220535E+04  0.23858797364E+04  0.79867430068E+02 0.  0.
        254    2    1    2    0    0  0.61130448686E+03 -0.14760987006E+03 -0.67832866323E+03  0.12873158106E+04  0.89530462489E+03 0.  0.
         23    2    4    4    0    0  0.61275516199E+03 -0.14870008911E+01 -0.84504257736E+03  0.10479885602E+04  0.93337907883E+02 0.  0.
         23    2    4    4    0    0 -0.14506751267E+01 -0.14612286917E+03  0.16671391413E+03  0.23932725035E+03  0.90166547264E+02 0.  0.
          3    1    3    3  502    0 -0.13702829932E+03  0.32063540388E+02 -0.39913497351E+03  0.42321809097E+03  0.00000000000E+00 0. -1.
         -4    1    3    3    0  502 -0.47427618754E+03  0.11554632967E+03 -0.19009870800E+04  0.19626616455E+04  0.00000000000E+00 0.  1.
         11    1    5    5    0    0  0.30707687364E+03 -0.17178367544E+02 -0.34966444073E+03  0.46567856269E+03  0.00000000000E+00 0.  1.
        -11    1    5    5    0    0  0.30567828835E+03  0.15691366653E+02 -0.49537813662E+03  0.58230999751E+03  0.00000000000E+00 0. -1.
          4    1    6    6  503    0 -0.37114506384E+02 -0.10791355338E+03  0.14003444633E+03  0.18064458958E+03  0.00000000000E+00 0.  1.
         -4    1    6    6    0  503  0.35663831257E+02 -0.38209315793E+02  0.26679467799E+02  0.58682660773E+02  0.00000000000E+00 0. -1.
<mgrwt>
<rscale>  0 0.21496969E+04</rscale>
<asrwt>0</asrwt>
<pdfrwt beam="1">  1        1 0.51166507E+00 0.21496969E+04</pdfrwt>
<pdfrwt beam="2">  1       -2 0.53441913E-01 0.21496969E+04</pdfrwt>
<totfact> 0.90837269E-01</totfact>
</mgrwt>
</event>
<event>
12    4  0.4424320E-008  0.1470085E+04  0.7818608E-02  0.8904594E-01
         -2   -1    0    0    0  501 -0.00000000000E+00  0.00000000000E+00  0.25551584739E+03  0.25551584739E+03  0.00000000000E+00 0.  1.
          1   -1    0    0  501    0  0.00000000000E+00 -0.00000000000E+00 -0.21144955040E+04  0.21144955040E+04  0.00000000000E+00 0. -1.
        -24    2    1    2    0    0  0.37902471761E+03  0.83480072529E+02 -0.94070874012E+03  0.10208275034E+04  0.80791081830E+02 0.  0.
        254    2    1    2    0    0 -0.37902471761E+03 -0.83480072529E+02 -0.91827091644E+03  0.13491838479E+04  0.90909126081E+03 0.  0.
         23    2    4    4    0    0 -0.64500371139E+03 -0.17787475623E+03 -0.75030264355E+03  0.10093790372E+04  0.90679475087E+02 0.  0.
         23    2    4    4    0    0  0.26597899378E+03  0.94394683701E+02 -0.16796827289E+03  0.33980481074E+03  0.87171023047E+02 0.  0.
          1    1    3    3  502    0  0.21393167030E+03  0.22135038133E+02 -0.59822089883E+03  0.63570823754E+03  0.00000000000E+00 0. -1.
         -2    1    3    3    0  502  0.16509304731E+03  0.61345034396E+02 -0.34248784129E+03  0.38511926587E+03  0.00000000000E+00 0.  1.
         11    1    5    5    0    0 -0.28395770642E+03 -0.38094014644E+02 -0.35299581573E+03  0.45463081605E+03  0.00000000000E+00 0. -1.
        -11    1    5    5    0    0 -0.36104600497E+03 -0.13978074159E+03 -0.39730682782E+03  0.55474822114E+03  0.00000000000E+00 0.  1.
          2    1    6    6  503    0  0.62586655702E+01  0.48886239562E+01 -0.32598100306E+02  0.33551537706E+02  0.00000000000E+00 0. -1.
         -2    1    6    6    0  503  0.25972032821E+03  0.89506059745E+02 -0.13537017258E+03  0.30625327303E+03  0.00000000000E+00 0.  1.
<mgrwt>
<rscale>  0 0.14700845E+04</rscale>
<asrwt>0</asrwt>
<pdfrwt beam="1">  1        1 0.32530700E+00 0.14700845E+04</pdfrwt>
<pdfrwt beam="2">  1       -2 0.39310131E-01 0.14700845E+04</pdfrwt>
<totfact> 0.12991771E+01</totfact>
</mgrwt>
</event>
<event>
12    4  0.4424320E-008  0.1179436E+04  0.7818608E-02  0.9131049E-01
          1   -1    0    0  501    0  0.00000000000E+00  0.00000000000E+00  0.14255112777E+04  0.14255112777E+04  0.00000000000E+00 0. -1.
         -2   -1    0    0    0  501 -0.00000000000E+00 -0.00000000000E+00 -0.24395964090E+03  0.24395964090E+03  0.00000000000E+00 0.  1.
        -24    2    1    2    0    0 -0.20212450139E+02  0.97585875594E+02  0.53859060962E+03  0.55329525104E+03  0.78257547858E+02 0.  0.
        254    2    1    2    0    0  0.20212450139E+02 -0.97585875594E+02  0.64296102723E+03  0.11161756676E+04  0.90692761130E+03 0.  0.
         23    2    4    4    0    0  0.25917116699E+03  0.30341705066E+02  0.75913926014E+03  0.80706956142E+03  0.83537703022E+02 0.  0.
         23    2    4    4    0    0 -0.23895871685E+03 -0.12792758066E+03 -0.11617823291E+03  0.30910610617E+03  0.92641614932E+02 0.  0.
          3    1    3    3  502    0 -0.35512087615E+02  0.42666389849E+02  0.39366078476E+03  0.39755545858E+03  0.00000000000E+00 0. -1.
         -4    1    3    3    0  502  0.15299637476E+02  0.54919485745E+02  0.14492982486E+03  0.15573979246E+03  0.00000000000E+00 0.  1.
         11    1    5    5    0    0  0.83562796114E+02 -0.30329091745E+01  0.14433605437E+03  0.16680778166E+03  0.00000000000E+00 0.  1.
        -11    1    5    5    0    0  0.17560837088E+03  0.33374614241E+02  0.61480320577E+03  0.64026177976E+03  0.00000000000E+00 0. -1.
          3    1    6    6  503    0 -0.23064541485E+03 -0.12992398798E+03 -0.86923154243E+02  0.27862732240E+03  0.00000000000E+00 0. -1.
         -3    1    6    6    0  503 -0.83133020037E+01  0.19964073205E+01 -0.29255078669E+02  0.30478783774E+02  0.00000000000E+00 0.  1.
<mgrwt>
<rscale>  0 0.11794358E+04</rscale>
<asrwt>0</asrwt>
<pdfrwt beam="1">  1        1 0.21930942E+00 0.11794358E+04</pdfrwt>
<pdfrwt beam="2">  1       -2 0.37532253E-01 0.11794358E+04</pdfrwt>
<totfact> 0.42920427E+01</totfact>
</mgrwt>
</event>
<event>
12    4  0.4424320E-008  0.3438092E+04  0.7818608E-02  0.8128620E-01
          1   -1    0    0  501    0  0.00000000000E+00  0.00000000000E+00  0.24844509455E+04  0.24844509455E+04  0.00000000000E+00 0. -1.
         -2   -1    0    0    0  501 -0.00000000000E+00 -0.00000000000E+00 -0.11894457040E+04  0.11894457040E+04  0.00000000000E+00 0.  1.
        -24    2    1    2    0    0  0.77854984832E+03  0.15928134137E+03  0.20883607192E+04  0.22359008471E+04  0.80571042291E+02 0.  0.
        254    2    1    2    0    0 -0.77854984832E+03 -0.15928134137E+03 -0.79335547771E+03  0.14379958024E+04  0.89828091470E+03 0.  0.
         23    2    4    4    0    0 -0.27662781727E+03  0.65154074671E+02 -0.82858130915E+03  0.88118924809E+03  0.95809719396E+02 0.  0.
         23    2    4    4    0    0 -0.50192203105E+03 -0.22443541604E+03  0.35225831446E+02  0.55680655432E+03  0.80595896383E+02 0.  0.
          1    1    3    3  502    0  0.58052159081E+03  0.99479101720E+02  0.16255638137E+04  0.17289763219E+04  0.00000000000E+00 0. -1.
         -2    1    3    3    0  502  0.19802825751E+03  0.59802239646E+02  0.46279690543E+03  0.50692452526E+03  0.00000000000E+00 0.  1.
         11    1    5    5    0    0 -0.15067340959E+03 -0.92845895612E+01 -0.47905842928E+03  0.50228045814E+03  0.00000000000E+00 0. -1.
        -11    1    5    5    0    0 -0.12595440768E+03  0.74438664233E+02 -0.34952287987E+03  0.37890878995E+03  0.00000000000E+00 0.  1.
          2    1    6    6  503    0 -0.23188751543E+03 -0.65838229984E+02 -0.47614422482E+01  0.24109990393E+03  0.00000000000E+00 0. -1.
         -2    1    6    6    0  503 -0.27003451561E+03 -0.15859718605E+03  0.39987273694E+02  0.31570665039E+03  0.00000000000E+00 0.  1.
<mgrwt>
<rscale>  0 0.34380922E+04</rscale>
<asrwt>0</asrwt>
<pdfrwt beam="1">  1        1 0.38222322E+00 0.34380922E+04</pdfrwt>
<pdfrwt beam="2">  1       -2 0.18299165E+00 0.34380922E+04</pdfrwt>
<totfact> 0.17328097E-01</totfact>
</mgrwt>
</event>
<event>
12    4  0.4424320E-008  0.2689242E+04  0.7818608E-02  0.8338504E-01
          1   -1    0    0  501    0  0.00000000000E+00  0.00000000000E+00  0.14748053040E+04  0.14748053040E+04  0.00000000000E+00 0. -1.
         -2   -1    0    0    0  501 -0.00000000000E+00 -0.00000000000E+00 -0.12259287572E+04  0.12259287572E+04  0.00000000000E+00 0.  1.
        -24    2    1    2    0    0 -0.74479902169E+03  0.92379697355E+03 -0.21032143481E+01  0.11893306177E+04  0.79852761920E+02 0.  0.
        254    2    1    2    0    0  0.74479902169E+03 -0.92379697355E+03  0.25097976121E+03  0.15114034435E+04  0.90178883195E+03 0.  0.
         23    2    4    4    0    0  0.10455501322E+03 -0.70758274180E+03  0.38372001691E+03  0.81668311478E+03  0.90139732064E+02 0.  0.
         23    2    4    4    0    0  0.64024400847E+03 -0.21621423175E+03 -0.13274025570E+03  0.69472032872E+03  0.91407741814E+02 0.  0.
          1    1    3    3  502    0 -0.51384138061E+03  0.68994772159E+03  0.12037636499E+02  0.86035209516E+03  0.00000000000E+00 0. -1.
         -2    1    3    3    0  502 -0.23095764108E+03  0.23384925196E+03 -0.14140850847E+02  0.32897852252E+03  0.00000000000E+00 0.  1.
         11    1    5    5    0    0 -0.45357403703E+01 -0.21345898357E+03  0.13735469874E+03  0.25387324372E+03  0.00000000000E+00 0. -1.
        -11    1    5    5    0    0  0.10909075359E+03 -0.49412375823E+03  0.24636531817E+03  0.56280987106E+03  0.00000000000E+00 0.  1.
          1    1    6    6  503    0  0.56736985350E+02 -0.41847190669E+02  0.37868076477E+01  0.70601790244E+02  0.00000000000E+00 0. -1.
         -1    1    6    6    0  503  0.58350702312E+03 -0.17436704108E+03 -0.13652706334E+03  0.62411853848E+03  0.00000000000E+00 0.  1.
<mgrwt>
<rscale>  0 0.26892424E+04</rscale>
<asrwt>0</asrwt>
<pdfrwt beam="1">  1        1 0.22689312E+00 0.26892424E+04</pdfrwt>
<pdfrwt beam="2">  1       -2 0.18860442E+00 0.26892424E+04</pdfrwt>
<totfact> 0.82791718E-01</totfact>
</mgrwt>
</event>
<event>
12    4  0.4424320E-008  0.1685842E+04  0.7818608E-02  0.8769481E-01
          1   -1    0    0  501    0  0.00000000000E+00  0.00000000000E+00  0.20125212856E+04  0.20125212856E+04  0.00000000000E+00 0. -1.
         -2   -1    0    0    0  501 -0.00000000000E+00 -0.00000000000E+00 -0.35304753404E+03  0.35304753404E+03  0.00000000000E+00 0.  1.
        -24    2    1    2    0    0 -0.54690052414E+03 -0.19018438544E+03  0.44132705157E+03  0.73190843977E+03  0.75167240158E+02 0.  0.
        254    2    1    2    0    0  0.54690052414E+03  0.19018438544E+03  0.12181467000E+04  0.16336603799E+04  0.92178878833E+03 0.  0.
         23    2    4    4    0    0 -0.20997534555E+03 -0.10936696210E+03  0.18192490966E+03  0.31284925849E+03  0.93419524982E+02 0.  0.
         23    2    4    4    0    0  0.75687586969E+03  0.29955134754E+03  0.10362217903E+04  0.13208111214E+04  0.90522525770E+02 0.  0.
          1    1    3    3  502    0 -0.74244521442E+01  0.50110250393E+01  0.13691370736E+02  0.16361127535E+02  0.00000000000E+00 0. -1.
         -2    1    3    3    0  502 -0.53947607200E+03 -0.19519541048E+03  0.42763568084E+03  0.71554731224E+03  0.00000000000E+00 0.  1.
         11    1    5    5    0    0 -0.20735653963E+03 -0.11991757636E+03  0.18365993194E+03  0.30184090221E+03  0.00000000000E+00 0. -1.
        -11    1    5    5    0    0 -0.26188059198E+01  0.10550614263E+02 -0.17350222770E+01  0.11008356284E+02  0.00000000000E+00 0.  1.
          1    1    6    6  503    0  0.60390629744E+03  0.22330171569E+03  0.87046246031E+03  0.10827148134E+04  0.00000000000E+00 0. -1.
         -1    1    6    6    0  503  0.15296957225E+03  0.76249631848E+02  0.16575933003E+03  0.23809630800E+03  0.00000000000E+00 0.  1.
<mgrwt>
<rscale>  0 0.16858418E+04</rscale>
<asrwt>0</asrwt>
<pdfrwt beam="1">  1        1 0.30961865E+00 0.16858418E+04</pdfrwt>
<pdfrwt beam="2">  1       -2 0.54315006E-01 0.16858418E+04</pdfrwt>
<totfact> 0.78027434E+00</totfact>
</mgrwt>
</event>
<event>
12    4  0.4424320E-008  0.2018912E+04  0.7818608E-02  0.8597830E-01
          1   -1    0    0  501    0  0.00000000000E+00  0.00000000000E+00  0.23035772972E+04  0.23035772972E+04  0.00000000000E+00 0. -1.
         -2   -1    0    0    0  501 -0.00000000000E+00 -0.00000000000E+00 -0.44235596323E+03  0.44235596323E+03  0.00000000000E+00 0.  1.
        -24    2    1    2    0    0 -0.33222208522E+03 -0.19149922952E+03  0.16360964533E+04  0.16823234188E+04  0.79730873769E+02 0.  0.
        254    2    1    2    0    0  0.33222208522E+03  0.19149922952E+03  0.22512488072E+03  0.10636098417E+04  0.96619936583E+03 0.  0.
         23    2    4    4    0    0  0.36673891680E+03 -0.67927771421E+02  0.52782868391E+03  0.65253686792E+03  0.89942366047E+02 0.  0.
         23    2    4    4    0    0 -0.34516831584E+02  0.25942700095E+03 -0.30270380319E+03  0.41107297373E+03  0.94114912666E+02 0.  0.
          1    1    3    3  502    0 -0.30804243914E+03 -0.15381550915E+03  0.15016526245E+04  0.15406199920E+04  0.00000000000E+00 0. -1.
         -2    1    3    3    0  502 -0.24179646075E+02 -0.37683720375E+02  0.13444382882E+03  0.14170342683E+03  0.00000000000E+00 0.  1.
         11    1    5    5    0    0  0.31973313843E+03 -0.78753409306E+02  0.49373096692E+03  0.59346579259E+03  0.00000000000E+00 0.  1.
        -11    1    5    5    0    0  0.47005778375E+02  0.10825637885E+02  0.34097716996E+02  0.59071075330E+02  0.00000000000E+00 0. -1.
          1    1    6    6  503    0  0.30671592289E+01 -0.41894548834E+01 -0.28054417792E+02  0.28530849192E+02  0.00000000000E+00 0. -1.
         -1    1    6    6    0  503 -0.37583990813E+02  0.26361645583E+03 -0.27464938540E+03  0.38254212454E+03  0.00000000000E+00 0.  1.
<mgrwt>
<rscale>  0 0.20189117E+04</rscale>
<asrwt>0</asrwt>
<pdfrwt beam="1">  1        1 0.35439650E+00 0.20189117E+04</pdfrwt>
<pdfrwt beam="2">  1       -2 0.68054765E-01 0.20189117E+04</pdfrwt>
<totfact> 0.29766523E+00</totfact>
</mgrwt>
</event>
<event>
12    4  0.4424320E-008  0.2350418E+04  0.7818608E-02  0.8458303E-01
         -2   -1    0    0    0  501 -0.00000000000E+00  0.00000000000E+00  0.44324769395E+03  0.44324769395E+03  0.00000000000E+00 0.  1.
          1   -1    0    0  501    0  0.00000000000E+00 -0.00000000000E+00 -0.31159007006E+04  0.31159007006E+04  0.00000000000E+00 0. -1.
        -24    2    1    2    0    0  0.17990247035E+03  0.86280817162E+03 -0.18680323491E+04  0.20671125038E+04  0.81279802979E+02 0.  0.
        254    2    1    2    0    0 -0.17990247035E+03 -0.86280817162E+03 -0.80462065756E+03  0.14920358907E+04  0.89551876406E+03 0.  0.
         23    2    4    4    0    0 -0.16439141077E+03 -0.59313128229E+02  0.14476937850E+03  0.24479905327E+03  0.91792267715E+02 0.  0.
         23    2    4    4    0    0 -0.15511059580E+02 -0.80349504339E+03 -0.94939003606E+03  0.12472368375E+04  0.91724644578E+02 0.  0.
          1    1    3    3  502    0  0.17896610028E+03  0.83354886938E+03 -0.17668889115E+04  0.19618177816E+04  0.00000000000E+00 0. -1.
         -2    1    3    3    0  502  0.93637006878E+00  0.29259302239E+02 -0.10114343763E+03  0.10529472224E+03  0.00000000000E+00 0.  1.
         11    1    5    5    0    0 -0.66005514337E+02 -0.90587299678E+01  0.52429675950E+01  0.66830211886E+02  0.00000000000E+00 0.  1.
        -11    1    5    5    0    0 -0.98385896437E+02 -0.50254398261E+02  0.13952641090E+03  0.17796884138E+03  0.00000000000E+00 0. -1.
          1    1    6    6  503    0  0.88078445767E+01 -0.73840292457E+03 -0.85012725874E+03  0.11260696307E+04  0.00000000000E+00 0. -1.
         -1    1    6    6    0  503 -0.24318904156E+02 -0.65092118828E+02 -0.99262777323E+02  0.12116720676E+03  0.00000000000E+00 0.  1.
<mgrwt>
<rscale>  0 0.23504177E+04</rscale>
<asrwt>0</asrwt>
<pdfrwt beam="1">  1        1 0.47936933E+00 0.23504177E+04</pdfrwt>
<pdfrwt beam="2">  1       -2 0.68191954E-01 0.23504177E+04</pdfrwt>
<totfact> 0.76522474E-01</totfact>
</mgrwt>
</event>
<event>
12    4  0.4424320E-008  0.1477607E+04  0.7818608E-02  0.8899482E-01
          1   -1    0    0  501    0  0.00000000000E+00  0.00000000000E+00  0.16107626756E+04  0.16107626756E+04  0.00000000000E+00 0. -1.
         -2   -1    0    0    0  501 -0.00000000000E+00 -0.00000000000E+00 -0.33886475460E+03  0.33886475460E+03  0.00000000000E+00 0.  1.
        -24    2    1    2    0    0 -0.15226600219E+03 -0.31109762603E+03  0.18350322073E+00  0.35538583440E+03  0.79576310995E+02 0.  0.
        254    2    1    2    0    0  0.15226600219E+03  0.31109762603E+03  0.12717144177E+04  0.15942415958E+04  0.89687347884E+03 0.  0.
         23    2    4    4    0    0 -0.89485592436E+02  0.13433757549E+03  0.12676874201E+04  0.12813056303E+04  0.93050886778E+02 0.  0.
         23    2    4    4    0    0  0.24175159462E+03  0.17676005055E+03  0.40269976156E+01  0.31293596552E+03  0.90690423042E+02 0.  0.
          1    1    3    3  502    0 -0.21918099166E+02 -0.48579051073E+02 -0.29283693580E+02  0.60810048379E+02  0.00000000000E+00 0. -1.
         -2    1    3    3    0  502 -0.13034790302E+03 -0.26251857496E+03  0.29467196800E+02  0.29457578602E+03  0.00000000000E+00 0.  1.
         11    1    5    5    0    0 -0.41293215126E+02  0.10354171554E+03  0.54064553697E+03  0.55201776522E+03  0.00000000000E+00 0. -1.
        -11    1    5    5    0    0 -0.48192377309E+02  0.30795859942E+02  0.72704188315E+03  0.72928786503E+03  0.00000000000E+00 0.  1.
          1    1    6    6  503    0  0.13631200791E+03  0.51599145234E+02 -0.21413800696E+02  0.14731593991E+03  0.00000000000E+00 0. -1.
         -1    1    6    6    0  503  0.10543958671E+03  0.12516090531E+03  0.25440798312E+02  0.16562002561E+03  0.00000000000E+00 0.  1.
<mgrwt>
<rscale>  0 0.14776071E+04</rscale>
<asrwt>0</asrwt>
<pdfrwt beam="1">  1        1 0.24780964E+00 0.14776071E+04</pdfrwt>
<pdfrwt beam="2">  1       -2 0.52133040E-01 0.14776071E+04</pdfrwt>
<totfact> 0.16206089E+01</totfact>
</mgrwt>
</event>
<event>
12    4  0.4424320E-008  0.1510285E+04  0.7818608E-02  0.8877642E-01
         -2   -1    0    0    0  501 -0.00000000000E+00  0.00000000000E+00  0.46196608091E+03  0.46196608091E+03  0.00000000000E+00 0.  1.
          1   -1    0    0  501    0  0.00000000000E+00 -0.00000000000E+00 -0.12343768457E+04  0.12343768457E+04  0.00000000000E+00 0. -1.
        -24    2    1    2    0    0  0.12924418275E+03 -0.32563806374E+03 -0.62249009078E+03  0.71873787913E+03  0.79661900821E+02 0.  0.
        254    2    1    2    0    0 -0.12924418275E+03  0.32563806374E+03 -0.14992067404E+03  0.97760504752E+03  0.90027285481E+03 0.  0.
         23    2    4    4    0    0 -0.42853467192E+03  0.19493030893E+02  0.13080321719E+03  0.45764822260E+03  0.91161783292E+02 0.  0.
         23    2    4    4    0    0  0.29929048916E+03  0.30614503285E+03 -0.28072389123E+03  0.51995682493E+03  0.90827411281E+02 0.  0.
          1    1    3    3  502    0  0.10296847927E+03 -0.27198765612E+03 -0.44629031417E+03  0.53268643434E+03  0.00000000000E+00 0. -1.
         -2    1    3    3    0  502  0.26275703488E+02 -0.53650407616E+02 -0.17619977661E+03  0.18605144479E+03  0.00000000000E+00 0.  1.
         11    1    5    5    0    0 -0.11293105794E+03  0.33872943154E+02  0.63000227667E+01  0.11806985395E+03  0.00000000000E+00 0.  1.
        -11    1    5    5    0    0 -0.31560361398E+03 -0.14379912261E+02  0.12450319442E+03  0.33957836865E+03  0.00000000000E+00 0. -1.
          4    1    6    6  503    0  0.21066720407E+03  0.15172017111E+03 -0.16699534952E+03  0.30868613178E+03  0.00000000000E+00 0. -1.
         -4    1    6    6    0  503  0.88623285091E+02  0.15442486173E+03 -0.11372854171E+03  0.21127069314E+03  0.00000000000E+00 0.  1.
<mgrwt>
<rscale>  0 0.15102851E+04</rscale>
<asrwt>0</asrwt>
<pdfrwt beam="1">  1        1 0.18990413E+00 0.15102851E+04</pdfrwt>
<pdfrwt beam="2">  1       -2 0.71071705E-01 0.15102851E+04</pdfrwt>
<totfact> 0.15375314E+01</totfact>
</mgrwt>
</event>
<event>
12    4  0.4424320E-008  0.1279486E+04  0.7818608E-02  0.9045993E-01
          1   -1    0    0  501    0  0.00000000000E+00  0.00000000000E+00  0.22432653383E+04  0.22432653383E+04  0.00000000000E+00 0. -1.
         -2   -1    0    0    0  501 -0.00000000000E+00 -0.00000000000E+00 -0.18244439174E+03  0.18244439174E+03  0.00000000000E+00 0.  1.
        -24    2    1    2    0    0  0.69382799383E+02 -0.11393150201E+03 -0.15911050795E+02  0.15414651577E+03  0.75588536081E+02 0.  0.
        254    2    1    2    0    0 -0.69382799383E+02  0.11393150201E+03  0.20767319974E+04  0.22715632143E+04  0.91070812424E+03 0.  0.
         23    2    4    4    0    0 -0.33158360134E+03 -0.23100282257E+03  0.14229373721E+04  0.14818482932E+04  0.88394629089E+02 0.  0.
         23    2    4    4    0    0  0.26220080195E+03  0.34493432458E+03  0.65379462522E+03  0.78971492102E+03  0.92050506224E+02 0.  0.
          3    1    3    3  502    0  0.78907193176E+02 -0.74167837263E+02  0.46244854223E+01  0.10839095481E+03  0.00000000000E+00 0. -1.
         -4    1    3    3    0  502 -0.95243937930E+01 -0.39763664747E+02 -0.20535536217E+02  0.45755560962E+02  0.00000000000E+00 0.  1.
         11    1    5    5    0    0 -0.12435462248E+03 -0.12918469431E+03  0.52851360841E+03  0.55810338796E+03  0.00000000000E+00 0.  1.
        -11    1    5    5    0    0 -0.20722897885E+03 -0.10181812827E+03  0.89442376373E+03  0.92374490529E+03  0.00000000000E+00 0. -1.
          1    1    6    6  503    0  0.73914872197E+02  0.49515187872E+02  0.17650966237E+03  0.19766340853E+03  0.00000000000E+00 0. -1.
         -1    1    6    6    0  503  0.18828592976E+03  0.29541913671E+03  0.47728496284E+03  0.59205151249E+03  0.00000000000E+00 0.  1.
<mgrwt>
<rscale>  0 0.12794861E+04</rscale>
<asrwt>0</asrwt>
<pdfrwt beam="1">  1        1 0.34511772E+00 0.12794861E+04</pdfrwt>
<pdfrwt beam="2">  1       -2 0.28068370E-01 0.12794861E+04</pdfrwt>
<totfact> 0.20462364E+01</totfact>
</mgrwt>
</event>
<event>
12    4  0.4424320E-008  0.1599400E+04  0.7818608E-02  0.8820917E-01
          1   -1    0    0  501    0  0.00000000000E+00  0.00000000000E+00  0.73834855392E+03  0.73834855392E+03  0.00000000000E+00 0. -1.
         -2   -1    0    0    0  501 -0.00000000000E+00 -0.00000000000E+00 -0.86614913450E+03  0.86614913450E+03  0.00000000000E+00 0.  1.
        -24    2    1    2    0    0  0.31739177941E+02 -0.45723674198E+02 -0.59164202375E+03  0.59963052880E+03  0.80115273227E+02 0.  0.
        254    2    1    2    0    0 -0.31739177941E+02  0.45723674198E+02  0.46384144316E+03  0.10048671596E+04  0.88966909258E+03 0.  0.
         23    2    4    4    0    0 -0.16354756343E+03 -0.38175141998E+03  0.29533861827E+03  0.51766471357E+03  0.90939012886E+02 0.  0.
         23    2    4    4    0    0  0.13180838549E+03  0.42747509418E+03  0.16850282489E+03  0.48720244605E+03  0.94152083433E+02 0.  0.
          1    1    3    3  502    0  0.33238774603E+02 -0.26732465557E+02 -0.11578100027E+03  0.12338833362E+03  0.00000000000E+00 0. -1.
         -2    1    3    3    0  502 -0.14995966616E+01 -0.18991208641E+02 -0.47586102348E+03  0.47624219518E+03  0.00000000000E+00 0.  1.
         11    1    5    5    0    0  0.18432036197E+01 -0.28311294091E+02  0.47691928246E+02  0.55492763424E+02  0.00000000000E+00 0.  1.
        -11    1    5    5    0    0 -0.16539076705E+03 -0.35344012589E+03  0.24764669003E+03  0.46217195014E+03  0.00000000000E+00 0. -1.
          1    1    6    6  503    0  0.13296496917E+03  0.28355342421E+03  0.11291536263E+03  0.33291456340E+03  0.00000000000E+00 0. -1.
         -1    1    6    6    0  503 -0.11565836765E+01  0.14392166997E+03  0.55587462261E+02  0.15428788265E+03  0.00000000000E+00 0.  1.
<mgrwt>
<rscale>  0 0.15993998E+04</rscale>
<asrwt>0</asrwt>
<pdfrwt beam="1">  1        1 0.11359209E+00 0.15993998E+04</pdfrwt>
<pdfrwt beam="2">  1       -2 0.13325371E+00 0.15993998E+04</pdfrwt>
<totfact> 0.85991699E+00</totfact>
</mgrwt>
</event>
<event>
12    4  0.4424320E-008  0.1465588E+04  0.7818608E-02  0.8907664E-01
         -2   -1    0    0    0  501 -0.00000000000E+00  0.00000000000E+00  0.17028538659E+04  0.17028538659E+04  0.00000000000E+00 0.  1.
          1   -1    0    0  501    0  0.00000000000E+00 -0.00000000000E+00 -0.31534542199E+03  0.31534542199E+03  0.00000000000E+00 0. -1.
        -24    2    1    2    0    0 -0.26422719835E+03 -0.22572847476E+03  0.55197032702E+02  0.36734546351E+03  0.10548279704E+03 0.  0.
        254    2    1    2    0    0  0.26422719835E+03  0.22572847476E+03  0.13323114112E+04  0.16508538244E+04  0.91076632371E+03 0.  0.
         23    2    4    4    0    0 -0.70867215450E+02  0.22349419544E+03 -0.24822423800E+02  0.25010895931E+03  0.83465688645E+02 0.  0.
         23    2    4    4    0    0  0.33509441380E+03  0.22342793178E+01  0.13571338350E+04  0.14007448651E+04  0.89334611267E+02 0.  0.
          1    1    3    3  502    0 -0.22649388649E+03 -0.18165279209E+03  0.84442664199E+02  0.30237027140E+03  0.00000000000E+00 0. -1.
         -2    1    3    3    0  502 -0.37733311868E+02 -0.44075682673E+02 -0.29245631497E+02  0.64975192106E+02  0.00000000000E+00 0.  1.
         11    1    5    5    0    0  0.11377975578E+02  0.92685466306E+02 -0.20104680477E+02  0.95520951470E+02  0.00000000000E+00 0.  1.
        -11    1    5    5    0    0 -0.82245191028E+02  0.13080872914E+03 -0.47177433232E+01  0.15458800784E+03  0.00000000000E+00 0. -1.
          2    1    6    6  503    0  0.26712406805E+03  0.19098917905E+02  0.11855196374E+04  0.12153916435E+04  0.00000000000E+00 0. -1.
         -2    1    6    6    0  503  0.67970345749E+02 -0.16864638587E+02  0.17161419763E+03  0.18535322162E+03  0.00000000000E+00 0.  1.
<mgrwt>
<rscale>  0 0.14655882E+04</rscale>
<asrwt>0</asrwt>
<pdfrwt beam="1">  1        1 0.48514681E-01 0.14655882E+04</pdfrwt>
<pdfrwt beam="2">  1       -2 0.26197751E+00 0.14655882E+04</pdfrwt>
<totfact> 0.37811839E+00</totfact>
</mgrwt>
</event>
<event>
12    4  0.4424320E-008  0.1203691E+04  0.7818608E-02  0.9109632E-01
         -2   -1    0    0    0  501 -0.00000000000E+00  0.00000000000E+00  0.44148171418E+03  0.44148171418E+03  0.00000000000E+00 0.  1.
          1   -1    0    0  501    0  0.00000000000E+00 -0.00000000000E+00 -0.82045923810E+03  0.82045923810E+03  0.00000000000E+00 0. -1.
        -24    2    1    2    0    0 -0.66372323513E+01 -0.16530783774E+03  0.12146735333E+03  0.21997872492E+03  0.79155463635E+02 0.  0.
        254    2    1    2    0    0  0.66372323513E+01  0.16530783774E+03 -0.50044487725E+03  0.10419622274E+04  0.89881559512E+03 0.  0.
         23    2    4    4    0    0 -0.16637127459E+03  0.47855425111E+03 -0.41899075217E+03  0.66367401406E+03  0.90644218038E+02 0.  0.
         23    2    4    4    0    0  0.17300850695E+03 -0.31324641337E+03 -0.81454125074E+02  0.37828821331E+03  0.91716622660E+02 0.  0.
          1    1    3    3  502    0  0.25355896876E+02 -0.33856061320E+02  0.72337104757E+01  0.42912480256E+02  0.00000000000E+00 0. -1.
         -2    1    3    3    0  502 -0.31993129227E+02 -0.13145177642E+03  0.11423364285E+03  0.17706624466E+03  0.00000000000E+00 0.  1.
         11    1    5    5    0    0 -0.32969494103E+02  0.22502919085E+03 -0.16733155029E+03  0.28235610849E+03  0.00000000000E+00 0. -1.
        -11    1    5    5    0    0 -0.13340178049E+03  0.25352506025E+03 -0.25165920188E+03  0.38131790557E+03  0.00000000000E+00 0.  1.
          1    1    6    6  503    0  0.30083161412E+02 -0.53962534293E+02 -0.52013025619E+02  0.80760798299E+02  0.00000000000E+00 0. -1.
         -1    1    6    6    0  503  0.14292534553E+03 -0.25928387908E+03 -0.29441099455E+02  0.29752741501E+03  0.00000000000E+00 0.  1.
<mgrwt>
<rscale>  0 0.12036906E+04</rscale>
<asrwt>0</asrwt>
<pdfrwt beam="1">  1        1 0.12622450E+00 0.12036906E+04</pdfrwt>
<pdfrwt beam="2">  1       -2 0.67920265E-01 0.12036906E+04</pdfrwt>
<totfact> 0.36537140E+01</totfact>
</mgrwt>
</event>
<event>
12    4  0.4424320E-008  0.1774085E+04  0.7818608E-02  0.8720204E-01
         -2   -1    0    0    0  501 -0.00000000000E+00  0.00000000000E+00  0.37215903604E+03  0.37215903604E+03  0.00000000000E+00 0.  1.
          1   -1    0    0  501    0  0.00000000000E+00 -0.00000000000E+00 -0.21142688486E+04  0.21142688486E+04  0.00000000000E+00 0. -1.
        -24    2    1    2    0    0  0.46180965901E+03  0.42830509133E+03 -0.42972564612E+03  0.76635066235E+03  0.76914201186E+02 0.  0.
        254    2    1    2    0    0 -0.46180965901E+03 -0.42830509133E+03 -0.13123841664E+04  0.17200772223E+04  0.91629691579E+03 0.  0.
         23    2    4    4    0    0  0.11866438114E+03 -0.27466203947E+03 -0.46730937958E+02  0.31615279858E+03  0.90820373325E+02 0.  0.
         23    2    4    4    0    0 -0.58047404016E+03 -0.15364305185E+03 -0.12656532285E+04  0.14039244237E+04  0.92571021577E+02 0.  0.
          3    1    3    3  502    0  0.41795682941E+03  0.39016418267E+03 -0.41469402076E+03  0.70631942600E+03  0.00000000000E+00 0. -1.
         -4    1    3    3    0  502  0.43852829606E+02  0.38140908655E+02 -0.15031625358E+02  0.60031236356E+02  0.00000000000E+00 0.  1.
         11    1    5    5    0    0  0.92099027200E+02 -0.18532465082E+03 -0.72788124518E+02  0.21937540446E+03  0.00000000000E+00 0. -1.
        -11    1    5    5    0    0  0.26565353943E+02 -0.89337388652E+02  0.26057186560E+02  0.96777394120E+02  0.00000000000E+00 0.  1.
          1    1    6    6  503    0 -0.16104232130E+03 -0.72679115643E+01 -0.28730581373E+03  0.32944207744E+03  0.00000000000E+00 0. -1.
         -1    1    6    6    0  503 -0.41943171886E+03 -0.14637514029E+03 -0.97834741473E+03  0.10744823462E+04  0.00000000000E+00 0.  1.
<mgrwt>
<rscale>  0 0.17740848E+04</rscale>
<asrwt>0</asrwt>
<pdfrwt beam="1">  1        1 0.32527213E+00 0.17740848E+04</pdfrwt>
<pdfrwt beam="2">  1       -2 0.57255236E-01 0.17740848E+04</pdfrwt>
<totfact> 0.59175944E+00</totfact>
</mgrwt>
</event>
<event>
12    4  0.4424320E-008  0.1905822E+04  0.7818608E-02  0.8651964E-01
          1   -1    0    0  501    0  0.00000000000E+00  0.00000000000E+00  0.82890779822E+03  0.82890779822E+03  0.00000000000E+00 0. -1.
         -2   -1    0    0    0  501 -0.00000000000E+00 -0.00000000000E+00 -0.10954647987E+04  0.10954647987E+04  0.00000000000E+00 0.  1.
        -24    2    1    2    0    0  0.24125345741E+02 -0.25205240868E+03  0.59635804643E+03  0.65291657998E+03  0.80899269712E+02 0.  0.
        254    2    1    2    0    0 -0.24125345741E+02  0.25205240868E+03 -0.86291504687E+03  0.12714560169E+04  0.89881342658E+03 0.  0.
         23    2    4    4    0    0 -0.44245619904E+03  0.21678739116E+03 -0.51414625192E+03  0.71795259402E+03  0.91352601822E+02 0.  0.
         23    2    4    4    0    0  0.41833085330E+03  0.35265017522E+02 -0.34876879496E+03  0.55350342289E+03  0.92098005046E+02 0.  0.
          1    1    3    3  502    0  0.35281331827E+02 -0.24807863943E+03  0.58543370508E+03  0.63680484197E+03  0.00000000000E+00 0. -1.
         -2    1    3    3    0  502 -0.11155986086E+02 -0.39737692556E+01  0.10924341346E+02  0.16111738003E+02  0.00000000000E+00 0.  1.
         11    1    5    5    0    0 -0.35393635122E+03  0.14236202910E+03 -0.43057453599E+03  0.57526717192E+03  0.00000000000E+00 0. -1.
        -11    1    5    5    0    0 -0.88519847827E+02  0.74425362063E+02 -0.83571715924E+02  0.14268542210E+03  0.00000000000E+00 0.  1.
          3    1    6    6  503    0  0.65122638139E+02  0.38159791776E+02 -0.77074912918E+02  0.10787803256E+03  0.00000000000E+00 0. -1.
         -3    1    6    6    0  503  0.35320821516E+03 -0.28947742544E+01 -0.27169388204E+03  0.44562539034E+03  0.00000000000E+00 0.  1.
<mgrwt>
<rscale>  0 0.19058219E+04</rscale>
<asrwt>0</asrwt>
<pdfrwt beam="1">  1        1 0.12752428E+00 0.19058219E+04</pdfrwt>
<pdfrwt beam="2">  1       -2 0.16853305E+00 0.19058219E+04</pdfrwt>
<totfact> 0.37325258E+00</totfact>
</mgrwt>
</event>
<event>
12    4  0.4424320E-008  0.2229456E+04  0.7818608E-02  0.8506267E-01
          1   -1    0    0  501    0  0.00000000000E+00  0.00000000000E+00  0.30967508511E+04  0.30967508511E+04  0.00000000000E+00 0. -1.
         -4   -1    0    0    0  501 -0.00000000000E+00 -0.00000000000E+00 -0.40126540582E+03  0.40126540582E+03  0.00000000000E+00 0.  1.
        -24    2    1    2    0    0  0.63165282584E+03 -0.25185008751E+03  0.20798341855E+04  0.21896017221E+04  0.78941137957E+02 0.  0.
        254    2    1    2    0    0 -0.63165282584E+03  0.25185008751E+03  0.61565125979E+03  0.13084145348E+04  0.93301037632E+03 0.  0.
         23    2    4    4    0    0  0.21504738405E+02  0.42243612302E+03  0.78934247999E+02  0.44005987437E+03  0.92235273733E+02 0.  0.
         23    2    4    4    0    0 -0.65315756424E+03 -0.17058603550E+03  0.53671701180E+03  0.86835466047E+03  0.10129297297E+03 0.  0.
          3    1    3    3  502    0  0.51924129452E+03 -0.22394738627E+03  0.18003817032E+04  0.18870978329E+04  0.00000000000E+00 0. -1.
         -4    1    3    3    0  502  0.11241153132E+03 -0.27902701243E+02  0.27945248232E+03  0.30250388921E+03  0.00000000000E+00 0.  1.
         11    1    5    5    0    0  0.19783572379E+02  0.29053338668E+03  0.96951392939E+02  0.30692118061E+03  0.00000000000E+00 0.  1.
        -11    1    5    5    0    0  0.17211660262E+01  0.13190273633E+03 -0.18017144940E+02  0.13313869376E+03  0.00000000000E+00 0. -1.
          1    1    6    6  503    0 -0.61105877351E+03 -0.17456561435E+03  0.52543368469E+03  0.82458870681E+03  0.00000000000E+00 0. -1.
         -1    1    6    6    0  503 -0.42098790737E+02  0.39795788473E+01  0.11283327108E+02  0.43765953662E+02  0.00000000000E+00 0.  1.
<mgrwt>
<rscale>  0 0.22294564E+04</rscale>
<asrwt>0</asrwt>
<pdfrwt beam="1">  1        1 0.47642319E+00 0.22294564E+04</pdfrwt>
<pdfrwt beam="2">  1       -4 0.61733141E-01 0.22294564E+04</pdfrwt>
<totfact> 0.56616312E-01</totfact>
</mgrwt>
</event>
<event>
12    4  0.4424320E-008  0.1338755E+04  0.7818608E-02  0.8999385E-01
         -4   -1    0    0    0  501 -0.00000000000E+00  0.00000000000E+00  0.14254399764E+04  0.14254399764E+04  0.00000000000E+00 0.  1.
          3   -1    0    0  501    0  0.00000000000E+00 -0.00000000000E+00 -0.31433528419E+03  0.31433528419E+03  0.00000000000E+00 0. -1.
        -24    2    1    2    0    0 -0.20155813911E+03 -0.10755217270E+03 -0.60035428868E+02  0.25262088108E+03  0.89553914184E+02 0.  0.
        254    2    1    2    0    0  0.20155813911E+03  0.10755217270E+03  0.11711401211E+04  0.14871543795E+04  0.88761805523E+03 0.  0.
         23    2    4    4    0    0 -0.11971205904E+03 -0.31497187320E+03  0.65145764736E+03  0.73884019423E+03  0.89160015190E+02 0.  0.
         23    2    4    4    0    0  0.32127019815E+03  0.42252404590E+03  0.51968247369E+03  0.74831418525E+03  0.90350079188E+02 0.  0.
          1    1    3    3  502    0 -0.11581854923E+03 -0.35916267707E+02 -0.70734304271E+02  0.14038253606E+03  0.00000000000E+00 0. -1.
         -2    1    3    3    0  502 -0.85739589883E+02 -0.71635904997E+02  0.10698875403E+02  0.11223834502E+03  0.00000000000E+00 0.  1.
         11    1    5    5    0    0 -0.12679004654E+03 -0.22819128873E+03  0.47217582430E+03  0.53953404824E+03  0.00000000000E+00 0.  1.
        -11    1    5    5    0    0  0.70779874991E+01 -0.86780584472E+02  0.17928182306E+03  0.19930614599E+03  0.00000000000E+00 0. -1.
          4    1    6    6  503    0  0.18422183548E+03  0.20196623080E+03  0.31919708046E+03  0.42025565936E+03  0.00000000000E+00 0.  1.
         -4    1    6    6    0  503  0.13704836267E+03  0.22055781510E+03  0.20048539323E+03  0.32805852589E+03  0.00000000000E+00 0. -1.
<mgrwt>
<rscale>  0 0.13387548E+04</rscale>
<asrwt>0</asrwt>
<pdfrwt beam="1">  1        3 0.48359275E-01 0.13387548E+04</pdfrwt>
<pdfrwt beam="2">  1       -4 0.21929845E+00 0.13387548E+04</pdfrwt>
<totfact> 0.93713632E-01</totfact>
</mgrwt>
</event>
<event>
12    4  0.4424320E-008  0.1883314E+04  0.7818608E-02  0.8663207E-01
         -2   -1    0    0    0  501 -0.00000000000E+00  0.00000000000E+00  0.65168031789E+03  0.65168031789E+03  0.00000000000E+00 0.  1.
          1   -1    0    0  501    0  0.00000000000E+00 -0.00000000000E+00 -0.13606643093E+04  0.13606643093E+04  0.00000000000E+00 0. -1.
        -24    2    1    2    0    0  0.52433599884E+02 -0.36663602067E+03 -0.93889972952E+03  0.10127654353E+04  0.83605447383E+02 0.  0.
        254    2    1    2    0    0 -0.52433599884E+02  0.36663602067E+03  0.22991573809E+03  0.99957919190E+03  0.89951434686E+03 0.  0.
         23    2    4    4    0    0 -0.35319945270E+03  0.20055801250E+03 -0.18289411732E+03  0.45453163954E+03  0.90417826942E+02 0.  0.
         23    2    4    4    0    0  0.30076585281E+03  0.16607800818E+03  0.41280985541E+03  0.54504755236E+03  0.92859326921E+02 0.  0.
          3    1    3    3  502    0  0.62168655363E+02 -0.28410191413E+03 -0.79590524539E+03  0.84737476890E+03  0.00000000000E+00 0. -1.
         -4    1    3    3    0  502 -0.97350554792E+01 -0.82534106546E+02 -0.14299448413E+03  0.16539066642E+03  0.00000000000E+00 0.  1.
         11    1    5    5    0    0 -0.18143282496E+03  0.11916667339E+03 -0.50419371392E+02  0.22284676132E+03  0.00000000000E+00 0. -1.
        -11    1    5    5    0    0 -0.17176662773E+03  0.81391339104E+02 -0.13247474593E+03  0.23168487821E+03  0.00000000000E+00 0.  1.
          2    1    6    6  503    0  0.10775996831E+03  0.14106596582E+02  0.10375016123E+03  0.15025079964E+03  0.00000000000E+00 0. -1.
         -2    1    6    6    0  503  0.19300588450E+03  0.15197141159E+03  0.30905969417E+03  0.39479675272E+03  0.00000000000E+00 0.  1.
<mgrwt>
<rscale>  0 0.18833143E+04</rscale>
<asrwt>0</asrwt>
<pdfrwt beam="1">  1        1 0.20933297E+00 0.18833143E+04</pdfrwt>
<pdfrwt beam="2">  1       -2 0.10025851E+00 0.18833143E+04</pdfrwt>
<totfact> 0.55276094E+00</totfact>
</mgrwt>
</event>
<event>
12    4  0.4424320E-008  0.1131633E+04  0.7818608E-02  0.9174897E-01
          1   -1    0    0  501    0  0.00000000000E+00  0.00000000000E+00  0.28045037106E+04  0.28045037106E+04  0.00000000000E+00 0. -1.
         -2   -1    0    0    0  501 -0.00000000000E+00 -0.00000000000E+00 -0.11415500590E+03  0.11415500590E+03  0.00000000000E+00 0.  1.
        -24    2    1    2    0    0 -0.85449841726E+02  0.16888039195E+03  0.59123346944E+03  0.62588153075E+03  0.79676928377E+02 0.  0.
        254    2    1    2    0    0  0.85449841726E+02 -0.16888039195E+03  0.20991152353E+04  0.22927771858E+04  0.90261851873E+03 0.  0.
         23    2    4    4    0    0  0.28746905375E+03  0.88874297472E+02  0.18329830846E+04  0.18598179101E+04  0.92512553714E+02 0.  0.
         23    2    4    4    0    0 -0.20201921202E+03 -0.25775468942E+03  0.26613215070E+03  0.43295927571E+03  0.96840956438E+02 0.  0.
          1    1    3    3  502    0 -0.86032025159E+02  0.14825915515E+03  0.42335563160E+03  0.45674093012E+03  0.00000000000E+00 0. -1.
         -4    1    3    3    0  502  0.58218343385E+00  0.20621236798E+02  0.16787783784E+03  0.16914060063E+03  0.00000000000E+00 0.  1.
         11    1    5    5    0    0  0.21912812157E+03  0.32101008290E+02  0.14389011785E+04  0.14558448441E+04  0.00000000000E+00 0.  1.
        -11    1    5    5    0    0  0.68340932175E+02  0.56773289182E+02  0.39408190604E+03  0.40397306599E+03  0.00000000000E+00 0. -1.
          4    1    6    6  503    0 -0.12567115762E+02 -0.63716432481E+01  0.47903745309E+02  0.49932945546E+02  0.00000000000E+00 0. -1.
         -4    1    6    6    0  503 -0.18945209626E+03 -0.25138304617E+03  0.21822840539E+03  0.38302633017E+03  0.00000000000E+00 0.  1.
<mgrwt>
<rscale>  0 0.11316327E+04</rscale>
<asrwt>0</asrwt>
<pdfrwt beam="1">  1        1 0.43146206E+00 0.11316327E+04</pdfrwt>
<pdfrwt beam="2">  1       -2 0.17562311E-01 0.11316327E+04</pdfrwt>
<totfact> 0.19606852E+01</totfact>
</mgrwt>
</event>
<event>
12    4  0.4424320E-008  0.2038090E+04  0.7818608E-02  0.8589016E-01
          1   -1    0    0  501    0  0.00000000000E+00  0.00000000000E+00  0.18186381931E+04  0.18186381931E+04  0.00000000000E+00 0. -1.
         -2   -1    0    0    0  501 -0.00000000000E+00 -0.00000000000E+00 -0.57100581543E+03  0.57100581543E+03  0.00000000000E+00 0.  1.
        -24    2    1    2    0    0 -0.28304662543E+03 -0.54200713161E+02 -0.39288548516E+03  0.49357868477E+03  0.78789619460E+02 0.  0.
        254    2    1    2    0    0  0.28304662543E+03  0.54200713161E+02  0.16405178628E+04  0.18960653238E+04  0.90593142358E+03 0.  0.
         23    2    4    4    0    0  0.26710351569E+03 -0.15509597925E+03  0.16360629823E+04  0.16673272636E+04  0.88764132205E+02 0.  0.
         23    2    4    4    0    0  0.15943109739E+02  0.20929669241E+03  0.44548805642E+01  0.22873806015E+03  0.90785274127E+02 0.  0.
          3    1    3    3  502    0 -0.10367240860E+03  0.17821967966E+02 -0.14875909323E+03  0.18219456267E+03  0.00000000000E+00 0. -1.
         -4    1    3    3    0  502 -0.17937421683E+03 -0.72022681127E+02 -0.24412639193E+03  0.31138412210E+03  0.00000000000E+00 0.  1.
         11    1    5    5    0    0  0.64801961125E+02 -0.30360581312E+02  0.60551674263E+03  0.60973074768E+03  0.00000000000E+00 0.  1.
        -11    1    5    5    0    0  0.20230155457E+03 -0.12473539793E+03  0.10305462397E+04  0.10575965159E+04  0.00000000000E+00 0. -1.
          1    1    6    6  503    0 -0.17104642586E+02  0.13954134405E+03  0.36367311460E+02  0.14521341825E+03  0.00000000000E+00 0. -1.
         -1    1    6    6    0  503  0.33047752325E+02  0.69755348355E+02 -0.31912430896E+02  0.83524641894E+02  0.00000000000E+00 0.  1.
<mgrwt>
<rscale>  0 0.20380903E+04</rscale>
<asrwt>0</asrwt>
<pdfrwt beam="1">  1        1 0.27979049E+00 0.20380903E+04</pdfrwt>
<pdfrwt beam="2">  1       -2 0.87847049E-01 0.20380903E+04</pdfrwt>
<totfact> 0.35897149E+00</totfact>
</mgrwt>
</event>
<event>
12    4  0.4424320E-008  0.1359184E+04  0.7818608E-02  0.8983905E-01
         -4   -1    0    0    0  501 -0.00000000000E+00  0.00000000000E+00  0.11360977328E+04  0.11360977328E+04  0.00000000000E+00 0.  1.
          3   -1    0    0  501    0  0.00000000000E+00 -0.00000000000E+00 -0.40651913297E+03  0.40651913297E+03  0.00000000000E+00 0. -1.
        -24    2    1    2    0    0  0.28548800569E+03  0.76567407659E+02  0.48820655799E+03  0.57657838184E+03  0.82042780531E+02 0.  0.
        254    2    1    2    0    0 -0.28548800569E+03 -0.76567407659E+02  0.24137204180E+03  0.96603848389E+03  0.88747051809E+03 0.  0.
         23    2    4    4    0    0  0.24491770882E+03  0.19780054878E+03  0.12772398609E+03  0.35138824909E+03  0.89724822585E+02 0.  0.
         23    2    4    4    0    0 -0.53040571451E+03 -0.27436795644E+03  0.11364805571E+03  0.61465023480E+03  0.90945220119E+02 0.  0.
          3    1    3    3  502    0  0.94079307355E+02  0.36803205924E+02  0.24169168151E+03  0.26195469255E+03  0.00000000000E+00 0. -1.
         -4    1    3    3    0  502  0.19140869833E+03  0.39764201735E+02  0.24651487647E+03  0.31462368929E+03  0.00000000000E+00 0.  1.
         11    1    5    5    0    0  0.17887793330E+03  0.18982975362E+03  0.10244138123E+03  0.28022649227E+03  0.00000000000E+00 0. -1.
        -11    1    5    5    0    0  0.66039775518E+02  0.79707951618E+01  0.25282604856E+02  0.71161756824E+02  0.00000000000E+00 0.  1.
          1    1    6    6  503    0 -0.20070189551E+03 -0.14728809596E+03  0.70106335786E+02  0.25863088058E+03  0.00000000000E+00 0. -1.
         -1    1    6    6    0  503 -0.32970381900E+03 -0.12707986048E+03  0.43541719928E+02  0.35601935421E+03  0.00000000000E+00 0.  1.
<mgrwt>
<rscale>  0 0.13591843E+04</rscale>
<asrwt>0</asrwt>
<pdfrwt beam="1">  1        3 0.62541406E-01 0.13591843E+04</pdfrwt>
<pdfrwt beam="2">  1       -4 0.17478426E+00 0.13591843E+04</pdfrwt>
<totfact> 0.10857742E+00</totfact>
</mgrwt>
</event>
<event>
12    4  0.4424320E-008  0.2483226E+04  0.7818608E-02  0.8408986E-01
          1   -1    0    0  501    0  0.00000000000E+00  0.00000000000E+00  0.98707641886E+03  0.98707641886E+03  0.00000000000E+00 0. -1.
         -4   -1    0    0    0  501 -0.00000000000E+00 -0.00000000000E+00 -0.15617868141E+04  0.15617868141E+04  0.00000000000E+00 0.  1.
        -24    2    1    2    0    0  0.39636126891E+03  0.99263384369E+03 -0.11987959529E+03  0.10785082106E+04  0.79903941145E+02 0.  0.
        254    2    1    2    0    0 -0.39636126891E+03 -0.99263384369E+03 -0.45483079992E+03  0.14703550223E+04  0.90147026130E+03 0.  0.
         23    2    4    4    0    0 -0.81215245310E+00 -0.89205550351E+03 -0.66014116027E+02  0.89904022104E+03  0.90287178484E+02 0.  0.
         23    2    4    4    0    0 -0.39554911646E+03 -0.10057834018E+03 -0.38881668390E+03  0.57131480130E+03  0.92989690084E+02 0.  0.
          3    1    3    3  502    0  0.36789661148E+03  0.84757545927E+03 -0.10583103730E+03  0.93001735702E+03  0.00000000000E+00 0. -1.
         -4    1    3    3    0  502  0.28464657430E+02  0.14505838442E+03 -0.14048557984E+02  0.14849085357E+03  0.00000000000E+00 0.  1.
         11    1    5    5    0    0 -0.31117403430E+01 -0.87617933427E+03 -0.77054232422E+02  0.87956652021E+03  0.00000000000E+00 0. -1.
        -11    1    5    5    0    0  0.22995878899E+01 -0.15876169235E+02  0.11040116395E+02  0.19473700831E+02  0.00000000000E+00 0.  1.
          1    1    6    6  503    0 -0.14950927380E+03 -0.85045625885E+02 -0.15501652747E+03  0.23155108556E+03  0.00000000000E+00 0. -1.
         -1    1    6    6    0  503 -0.24603984266E+03 -0.15532714299E+02 -0.23380015643E+03  0.33976371574E+03  0.00000000000E+00 0.  1.
<mgrwt>
<rscale>  0 0.24832261E+04</rscale>
<asrwt>0</asrwt>
<pdfrwt beam="1">  1        1 0.15185791E+00 0.24832261E+04</pdfrwt>
<pdfrwt beam="2">  1       -4 0.24027489E+00 0.24832261E+04</pdfrwt>
<totfact> 0.48196547E-01</totfact>
</mgrwt>
</event>
<event>
12    4  0.4424320E-008  0.1456662E+04  0.7818608E-02  0.8913795E-01
         -2   -1    0    0    0  501 -0.00000000000E+00  0.00000000000E+00  0.37488343596E+03  0.37488343596E+03  0.00000000000E+00 0.  1.
          1   -1    0    0  501    0  0.00000000000E+00 -0.00000000000E+00 -0.14150165483E+04  0.14150165483E+04  0.00000000000E+00 0. -1.
        -24    2    1    2    0    0 -0.39524210142E+03 -0.12577360375E+03 -0.13311023094E+03  0.44282564814E+03  0.79629786738E+02 0.  0.
        254    2    1    2    0    0  0.39524210142E+03  0.12577360375E+03 -0.90702288139E+03  0.13470743361E+04  0.90547415288E+03 0.  0.
         23    2    4    4    0    0  0.44483499586E+03 -0.24739900719E+03 -0.22710834938E+03  0.56492813745E+03  0.92093191000E+02 0.  0.
         23    2    4    4    0    0 -0.49592894438E+02  0.37317261094E+03 -0.67991453201E+03  0.78214619867E+03  0.88043469456E+02 0.  0.
          3    1    3    3  502    0 -0.94366262930E+02 -0.16231643460E+02  0.80033475227E+00  0.95755409061E+02  0.00000000000E+00 0. -1.
         -4    1    3    3    0  502 -0.30087583849E+03 -0.10954196029E+03 -0.13391056569E+03  0.34707023908E+03  0.00000000000E+00 0.  1.
         11    1    5    5    0    0  0.41325383230E+03 -0.20689132273E+03 -0.22372068723E+03  0.51345271956E+03  0.00000000000E+00 0.  1.
        -11    1    5    5    0    0  0.31581163562E+02 -0.40507684461E+02 -0.33876621468E+01  0.51475417892E+02  0.00000000000E+00 0. -1.
          3    1    6    6  503    0  0.21352000729E+02  0.34384397830E+02 -0.71651549525E+02  0.82293008807E+02  0.00000000000E+00 0. -1.
         -3    1    6    6    0  503 -0.70944895167E+02  0.33878821311E+03 -0.60826298249E+03  0.69985318986E+03  0.00000000000E+00 0.  1.
<mgrwt>
<rscale>  0 0.14566623E+04</rscale>
<asrwt>0</asrwt>
<pdfrwt beam="1">  1        1 0.21769485E+00 0.14566623E+04</pdfrwt>
<pdfrwt beam="2">  1       -2 0.57674374E-01 0.14566623E+04</pdfrwt>
<totfact> 0.17977248E+01</totfact>
</mgrwt>
</event>
<event>
12    4  0.4424320E-008  0.1108154E+04  0.7818608E-02  0.9197281E-01
         -2   -1    0    0    0  501 -0.00000000000E+00  0.00000000000E+00  0.47054045906E+03  0.47054045906E+03  0.00000000000E+00 0.  1.
          1   -1    0    0  501    0  0.00000000000E+00 -0.00000000000E+00 -0.65244346879E+03  0.65244346879E+03  0.00000000000E+00 0. -1.
        -24    2    1    2    0    0  0.10882215521E+03  0.12476260598E+02 -0.18880642397E+03  0.23241579526E+03  0.79820533764E+02 0.  0.
        254    2    1    2    0    0 -0.10882215521E+03 -0.12476260598E+02  0.69034142415E+01  0.89056813260E+03  0.88377939732E+03 0.  0.
         23    2    4    4    0    0  0.40596105652E+02 -0.73253869044E+02  0.41967192111E+03  0.43770100975E+03  0.91888407543E+02 0.  0.
         23    2    4    4    0    0 -0.14941826086E+03  0.60777608446E+02 -0.41276850687E+03  0.45286712285E+03  0.93225835073E+02 0.  0.
          1    1    3    3  502    0 -0.96469985443E+01  0.13889861395E+02 -0.27283366701E+02  0.32099453718E+02  0.00000000000E+00 0. -1.
         -2    1    3    3    0  502  0.11846915375E+03 -0.14136007974E+01 -0.16152305727E+03  0.20031634154E+03  0.00000000000E+00 0.  1.
         11    1    5    5    0    0  0.38191719108E+01 -0.67035015038E+02  0.36740578946E+03  0.37349068723E+03  0.00000000000E+00 0. -1.
        -11    1    5    5    0    0  0.36776933741E+02 -0.62188540056E+01  0.52266131648E+02  0.64210322519E+02  0.00000000000E+00 0.  1.
          2    1    6    6  503    0 -0.15839984179E+03  0.45944273373E+02 -0.39495099184E+03  0.42800428980E+03  0.00000000000E+00 0. -1.
         -2    1    6    6    0  503  0.89815809232E+01  0.14833335073E+02 -0.17817515035E+02  0.24862833050E+02  0.00000000000E+00 0.  1.
<mgrwt>
<rscale>  0 0.11081535E+04</rscale>
<asrwt>0</asrwt>
<pdfrwt beam="1">  1        1 0.10037592E+00 0.11081535E+04</pdfrwt>
<pdfrwt beam="2">  1       -2 0.72390840E-01 0.11081535E+04</pdfrwt>
<totfact> 0.45624055E+01</totfact>
</mgrwt>
</event>
<event>
12    4  0.4424320E-008  0.1455571E+04  0.7818608E-02  0.8914547E-01
         -2   -1    0    0    0  501 -0.00000000000E+00  0.00000000000E+00  0.29293434229E+03  0.29293434229E+03  0.00000000000E+00 0.  1.
          1   -1    0    0  501    0  0.00000000000E+00 -0.00000000000E+00 -0.18081584672E+04  0.18081584672E+04  0.00000000000E+00 0. -1.
        -24    2    1    2    0    0 -0.41636489947E+03 -0.79043087900E+02 -0.27532739747E+03  0.51168106214E+03  0.80029958763E+02 0.  0.
        254    2    1    2    0    0  0.41636489947E+03  0.79043087900E+02 -0.12398967274E+04  0.15894117473E+04  0.89959894876E+03 0.  0.
         23    2    4    4    0    0  0.37004477368E+03  0.27518162388E+03 -0.17437871079E+03  0.50117454581E+03  0.90055149473E+02 0.  0.
         23    2    4    4    0    0  0.46320125794E+02 -0.19613853598E+03 -0.10655180166E+04  0.10882372015E+04  0.91190370313E+02 0.  0.
          1    1    3    3  502    0 -0.84736716348E+02 -0.47920862055E+02 -0.49064001121E+02  0.10901374374E+03  0.00000000000E+00 0. -1.
         -2    1    3    3    0  502 -0.33162818312E+03 -0.31122225845E+02 -0.22626339635E+03  0.40266731841E+03  0.00000000000E+00 0.  1.
         11    1    5    5    0    0  0.14741253986E+02  0.33245471142E+02 -0.31749751654E+02  0.48276419198E+02  0.00000000000E+00 0. -1.
        -11    1    5    5    0    0  0.35530351969E+03  0.24193615274E+03 -0.14262895913E+03  0.45289812661E+03  0.00000000000E+00 0.  1.
          2    1    6    6  503    0  0.43192937246E+02 -0.75661314837E+02 -0.64271977466E+03  0.64859769744E+03  0.00000000000E+00 0.  1.
         -2    1    6    6    0  503  0.31271885477E+01 -0.12047722114E+03 -0.42279824197E+03  0.43963950406E+03  0.00000000000E+00 0. -1.
<mgrwt>
<rscale>  0 0.14555710E+04</rscale>
<asrwt>0</asrwt>
<pdfrwt beam="1">  1        1 0.27817823E+00 0.14555710E+04</pdfrwt>
<pdfrwt beam="2">  1       -2 0.45066821E-01 0.14555710E+04</pdfrwt>
<totfact> 0.16008791E+01</totfact>
</mgrwt>
</event>
<event>
12    4  0.4424320E-008  0.1792815E+04  0.7818608E-02  0.8710130E-01
         -2   -1    0    0    0  501 -0.00000000000E+00  0.00000000000E+00  0.17931103635E+04  0.17931103635E+04  0.00000000000E+00 0.  1.
          1   -1    0    0  501    0  0.00000000000E+00 -0.00000000000E+00 -0.44812968337E+03  0.44812968337E+03  0.00000000000E+00 0. -1.
        -24    2    1    2    0    0  0.23598603606E+03 -0.61280176829E+03  0.65032847867E+03  0.92756494965E+03  0.78956882002E+02 0.  0.
        254    2    1    2    0    0 -0.23598603606E+03  0.61280176829E+03  0.69465220147E+03  0.13136750972E+04  0.90110219379E+03 0.  0.
         23    2    4    4    0    0 -0.22486568930E+03  0.13610163995E+03  0.77311234707E+03  0.82174708277E+03  0.92072429307E+02 0.  0.
         23    2    4    4    0    0 -0.11120346763E+02  0.47670012834E+03 -0.78460145594E+02  0.49192801446E+03  0.92035332883E+02 0.  0.
          3    1    3    3  502    0  0.53243652182E+02 -0.15818664004E+03  0.12017185601E+03  0.20566763129E+03  0.00000000000E+00 0. -1.
         -4    1    3    3    0  502  0.18274238388E+03 -0.45461512824E+03  0.53015662266E+03  0.72189731835E+03  0.00000000000E+00 0.  1.
         11    1    5    5    0    0 -0.18264610626E+03  0.64543184733E+02  0.58084004700E+03  0.61229125670E+03  0.00000000000E+00 0. -1.
        -11    1    5    5    0    0 -0.42219583046E+02  0.71558455217E+02  0.19227230007E+03  0.20945582608E+03  0.00000000000E+00 0.  1.
          2    1    6    6  503    0 -0.29758065165E+02  0.31070934812E+03 -0.12619546375E+02  0.31238613030E+03  0.00000000000E+00 0. -1.
         -2    1    6    6    0  503  0.18637718402E+02  0.16599078021E+03 -0.65840599219E+02  0.17954188416E+03  0.00000000000E+00 0.  1.
<mgrwt>
<rscale>  0 0.17928145E+04</rscale>
<asrwt>0</asrwt>
<pdfrwt beam="1">  1        1 0.68943029E-01 0.17928145E+04</pdfrwt>
<pdfrwt beam="2">  1       -2 0.27586313E+00 0.17928145E+04</pdfrwt>
<totfact> 0.18998944E+00</totfact>
</mgrwt>
</event>
<event>
12    4  0.4424320E-008  0.1467401E+04  0.7818608E-02  0.8906425E-01
          3   -1    0    0  501    0  0.00000000000E+00  0.00000000000E+00  0.79133513808E+03  0.79133513808E+03  0.00000000000E+00 0. -1.
         -4   -1    0    0    0  501 -0.00000000000E+00 -0.00000000000E+00 -0.68026318799E+03  0.68026318799E+03  0.00000000000E+00 0.  1.
        -24    2    1    2    0    0  0.15103757908E+03  0.15233503886E+02  0.45758591610E+03  0.48855246680E+03  0.79083704196E+02 0.  0.
        254    2    1    2    0    0 -0.15103757908E+03 -0.15233503886E+02 -0.34651396601E+03  0.98304585928E+03  0.90733831775E+03 0.  0.
         23    2    4    4    0    0 -0.34317042579E+03  0.13530171042E+02  0.19177187949E+03  0.40358834831E+03  0.90322170361E+02 0.  0.
         23    2    4    4    0    0  0.19213284671E+03 -0.28763674928E+02 -0.53828584550E+03  0.57945751097E+03  0.90977886165E+02 0.  0.
          3    1    3    3  502    0  0.73651743950E+02 -0.20201252594E+02  0.29866283005E+03  0.30827285973E+03  0.00000000000E+00 0. -1.
         -4    1    3    3    0  502  0.77385835130E+02  0.35434756481E+02  0.15892308605E+03  0.18027960707E+03  0.00000000000E+00 0.  1.
         11    1    5    5    0    0 -0.16987356002E+03  0.30786781956E+02  0.13891395028E+03  0.22158957087E+03  0.00000000000E+00 0. -1.
        -11    1    5    5    0    0 -0.17329686577E+03 -0.17256610914E+02  0.52857929209E+02  0.18199877743E+03  0.00000000000E+00 0.  1.
          1    1    6    6  503    0  0.56704710776E+02 -0.49939524638E+02 -0.22938091057E+03  0.24150565724E+03  0.00000000000E+00 0. -1.
         -1    1    6    6    0  503  0.13542813594E+03  0.21175849710E+02 -0.30890493493E+03  0.33795185373E+03  0.00000000000E+00 0.  1.
<mgrwt>
<rscale>  0 0.14674006E+04</rscale>
<asrwt>0</asrwt>
<pdfrwt beam="1">  1        3 0.12174387E+00 0.14674006E+04</pdfrwt>
<pdfrwt beam="2">  1       -4 0.10465587E+00 0.14674006E+04</pdfrwt>
<totfact> 0.89755368E-01</totfact>
</mgrwt>
</event>
<event>
12    4  0.4424320E-008  0.1694739E+04  0.7818608E-02  0.8764371E-01
          1   -1    0    0  501    0  0.00000000000E+00  0.00000000000E+00  0.27463344484E+03  0.27463344484E+03  0.00000000000E+00 0. -1.
         -2   -1    0    0    0  501 -0.00000000000E+00 -0.00000000000E+00 -0.26145209677E+04  0.26145209677E+04  0.00000000000E+00 0.  1.
        -24    2    1    2    0    0  0.10579369368E+03  0.35160963649E+03 -0.24267394861E+02  0.37724460997E+03  0.83083976815E+02 0.  0.
        254    2    1    2    0    0 -0.10579369368E+03 -0.35160963649E+03 -0.23156201280E+04  0.25119098026E+04  0.90153903797E+03 0.  0.
         23    2    4    4    0    0  0.23297605484E+02  0.19528437720E+03 -0.15049341332E+04  0.15203797709E+04  0.89716978080E+02 0.  0.
         23    2    4    4    0    0 -0.12909129917E+03 -0.54689401369E+03 -0.81068599484E+03  0.99153003170E+03  0.10080870893E+03 0.  0.
          3    1    3    3  502    0  0.33365301889E+02  0.10175273912E+03 -0.45261257248E+02  0.11625594477E+03  0.00000000000E+00 0. -1.
         -4    1    3    3    0  502  0.72428391795E+02  0.24985689737E+03  0.20993862387E+02  0.26098866520E+03  0.00000000000E+00 0.  1.
         11    1    5    5    0    0  0.23892506527E+02  0.56624324870E+02 -0.23521094735E+03  0.24310770409E+03  0.00000000000E+00 0. -1.
        -11    1    5    5    0    0 -0.59490104205E+00  0.13866005233E+03 -0.12697231858E+04  0.12772720668E+04  0.00000000000E+00 0.  1.
          1    1    6    6  503    0 -0.10161965868E+03 -0.32175070978E+03 -0.55705457844E+03  0.65127557734E+03  0.00000000000E+00 0. -1.
         -1    1    6    6    0  503 -0.27471640486E+02 -0.22514330391E+03 -0.25363141640E+03  0.34025445436E+03  0.00000000000E+00 0.  1.
<mgrwt>
<rscale>  0 0.16947388E+04</rscale>
<asrwt>0</asrwt>
<pdfrwt beam="1">  1        1 0.42251298E-01 0.16947388E+04</pdfrwt>
<pdfrwt beam="2">  1       -2 0.40223401E+00 0.16947388E+04</pdfrwt>
<totfact> 0.59083119E-01</totfact>
</mgrwt>
</event>
<event>
12    4  0.4424320E-008  0.1140831E+04  0.7818608E-02  0.9166284E-01
         -4   -1    0    0    0  501 -0.00000000000E+00  0.00000000000E+00  0.42505197823E+03  0.42505197823E+03  0.00000000000E+00 0.  1.
          3   -1    0    0  501    0  0.00000000000E+00 -0.00000000000E+00 -0.76549227665E+03  0.76549227665E+03  0.00000000000E+00 0. -1.
        -24    2    1    2    0    0 -0.77572553526E+01 -0.15280444448E+03  0.82065539751E+02  0.19163077886E+03  0.81106284164E+02 0.  0.
        254    2    1    2    0    0  0.77572553526E+01  0.15280444448E+03 -0.42250583817E+03  0.99891347601E+03  0.89213652319E+03 0.  0.
         23    2    4    4    0    0 -0.12742968272E+03  0.29949996781E+03 -0.61866346723E+03  0.70494870806E+03  0.90937564050E+02 0.  0.
         23    2    4    4    0    0  0.13518693807E+03 -0.14669552333E+03  0.19615762906E+03  0.29396476795E+03  0.90235162586E+02 0.  0.
          1    1    3    3  502    0 -0.24820955494E+01  0.88652180257E+01 -0.18704663576E+01  0.93942287259E+01  0.00000000000E+00 0. -1.
         -2    1    3    3    0  502 -0.52751598032E+01 -0.16166966250E+03  0.83936006109E+02  0.18223655014E+03  0.00000000000E+00 0.  1.
         11    1    5    5    0    0 -0.43944688667E+02  0.20803589308E+03 -0.42208525510E+03  0.47261615614E+03  0.00000000000E+00 0. -1.
        -11    1    5    5    0    0 -0.83484994050E+02  0.91464074732E+02 -0.19657821214E+03  0.23233255193E+03  0.00000000000E+00 0.  1.
          3    1    6    6  503    0  0.14327293447E+03 -0.12161834304E+03  0.18928658818E+03  0.26673501379E+03  0.00000000000E+00 0. -1.
         -3    1    6    6    0  503 -0.80859963955E+01 -0.25077180292E+02  0.68710408803E+01  0.27229754165E+02  0.00000000000E+00 0.  1.
<mgrwt>
<rscale>  0 0.11408313E+04</rscale>
<asrwt>0</asrwt>
<pdfrwt beam="1">  1        3 0.11776804E+00 0.11408313E+04</pdfrwt>
<pdfrwt beam="2">  1       -4 0.65392613E-01 0.11408313E+04</pdfrwt>
<totfact> 0.29215755E+00</totfact>
</mgrwt>
</event>
<event>
12    4  0.4424320E-008  0.1093893E+04  0.7818608E-02  0.9211164E-01
          1   -1    0    0  501    0  0.00000000000E+00  0.00000000000E+00  0.13972371360E+04  0.13972371360E+04  0.00000000000E+00 0. -1.
         -2   -1    0    0    0  501 -0.00000000000E+00 -0.00000000000E+00 -0.21410150342E+03  0.21410150342E+03  0.00000000000E+00 0.  1.
        -24    2    1    2    0    0  0.11610019784E+03  0.11715556917E+03  0.11554827725E+03  0.21492608397E+03  0.75080848878E+02 0.  0.
        254    2    1    2    0    0 -0.11610019784E+03 -0.11715556917E+03  0.10675873553E+04  0.13964125554E+04  0.88488450118E+03 0.  0.
         23    2    4    4    0    0 -0.30603463097E+03  0.76487090586E+02  0.10609798155E+04  0.11107264536E+04  0.92345089316E+02 0.  0.
         23    2    4    4    0    0  0.18993443313E+03 -0.19364265975E+03  0.66075398549E+01  0.28568610184E+03  0.89444511484E+02 0.  0.
          3    1    3    3  502    0  0.35755269684E+02 -0.23414637740E+01  0.34235513762E+02  0.49557967728E+02  0.00000000000E+00 0. -1.
         -4    1    3    3    0  502  0.80344928158E+02  0.11949703294E+03  0.81312763491E+02  0.16536811624E+03  0.00000000000E+00 0.  1.
         11    1    5    5    0    0 -0.97464035748E+02  0.65075869616E+02  0.45077983781E+03  0.46576449977E+03  0.00000000000E+00 0. -1.
        -11    1    5    5    0    0 -0.20857059523E+03  0.11411220970E+02  0.61019997765E+03  0.64496195383E+03  0.00000000000E+00 0.  1.
          3    1    6    6  503    0 -0.79158221931E+01 -0.21892227052E+02  0.43275872857E+01  0.23678214839E+02  0.00000000000E+00 0. -1.
         -3    1    6    6    0  503  0.19785025533E+03 -0.17175043270E+03  0.22799525692E+01  0.26200788700E+03  0.00000000000E+00 0.  1.
<mgrwt>
<rscale>  0 0.10938932E+04</rscale>
<asrwt>0</asrwt>
<pdfrwt beam="1">  1        1 0.21495955E+00 0.10938932E+04</pdfrwt>
<pdfrwt beam="2">  1       -2 0.32938694E-01 0.10938932E+04</pdfrwt>
<totfact> 0.58031051E+01</totfact>
</mgrwt>
</event>
<event>
12    4  0.4424320E-008  0.1375925E+04  0.7818608E-02  0.8971432E-01
         -2   -1    0    0    0  501 -0.00000000000E+00  0.00000000000E+00  0.47869059544E+03  0.47869059544E+03  0.00000000000E+00 0.  1.
          1   -1    0    0  501    0  0.00000000000E+00 -0.00000000000E+00 -0.98872254935E+03  0.98872254935E+03  0.00000000000E+00 0. -1.
        -24    2    1    2    0    0 -0.31294784388E+03  0.12806330540E+03  0.41132286519E+02  0.34970360075E+03  0.79146574205E+02 0.  0.
        254    2    1    2    0    0  0.31294784388E+03 -0.12806330540E+03 -0.55116424043E+03  0.11177095440E+04  0.91167759748E+03 0.  0.
         23    2    4    4    0    0  0.18072604448E+03  0.26378805633E+02  0.22888698236E+03  0.30664361550E+03  0.91012700747E+02 0.  0.
         23    2    4    4    0    0  0.13222179940E+03 -0.15444211103E+03 -0.78005122279E+03  0.81106592854E+03  0.89515699000E+02 0.  0.
          3    1    3    3  502    0 -0.99308167253E+02  0.73639402444E+02 -0.77924222113E+01  0.12387734062E+03  0.00000000000E+00 0. -1.
         -4    1    3    3    0  502 -0.21363967662E+03  0.54423902956E+02  0.48924708730E+02  0.22582626013E+03  0.00000000000E+00 0.  1.
         11    1    5    5    0    0  0.12617795189E+03 -0.14373116313E+02  0.18908776495E+03  0.22777542639E+03  0.00000000000E+00 0. -1.
        -11    1    5    5    0    0  0.54548092587E+02  0.40751921945E+02  0.39799217411E+02  0.78868189111E+02  0.00000000000E+00 0.  1.
          3    1    6    6  503    0  0.12222021410E+03 -0.78366436951E+02 -0.52754863533E+03  0.54716235416E+03  0.00000000000E+00 0. -1.
         -3    1    6    6    0  503  0.10001585301E+02 -0.76075674082E+02 -0.25250258746E+03  0.26390357438E+03  0.00000000000E+00 0.  1.
<mgrwt>
<rscale>  0 0.13759247E+04</rscale>
<asrwt>0</asrwt>
<pdfrwt beam="1">  1        1 0.15211116E+00 0.13759247E+04</pdfrwt>
<pdfrwt beam="2">  1       -2 0.73644707E-01 0.13759247E+04</pdfrwt>
<totfact> 0.21989307E+01</totfact>
</mgrwt>
</event>
<event>
12    4  0.4424320E-008  0.1937328E+04  0.7818608E-02  0.8636496E-01
          1   -1    0    0  501    0  0.00000000000E+00  0.00000000000E+00  0.12215938564E+04  0.12215938564E+04  0.00000000000E+00 0. -1.
         -2   -1    0    0    0  501 -0.00000000000E+00 -0.00000000000E+00 -0.76810319075E+03  0.76810319075E+03  0.00000000000E+00 0.  1.
        -24    2    1    2    0    0 -0.22189503729E+02 -0.73916485146E+03  0.32382011552E+01  0.74383459497E+03  0.80139671931E+02 0.  0.
        254    2    1    2    0    0  0.22189503729E+02  0.73916485146E+03  0.45025246448E+03  0.12458624522E+04  0.89587327019E+03 0.  0.
         23    2    4    4    0    0  0.25670424615E+03  0.26762162942E+03 -0.17781130312E+03  0.42134001688E+03  0.91608644705E+02 0.  0.
         23    2    4    4    0    0 -0.23451474242E+03  0.47154322203E+03  0.62806376760E+03  0.82452243528E+03  0.89571063720E+02 0.  0.
          1    1    3    3  502    0 -0.61182652819E+01 -0.17419550538E+02  0.11705456060E+02  0.21860732206E+02  0.00000000000E+00 0. -1.
         -2    1    3    3    0  502 -0.16071238447E+02 -0.72174530092E+03 -0.84672549050E+01  0.72197386276E+03  0.00000000000E+00 0.  1.
         11    1    5    5    0    0  0.53203276783E+02  0.15714755204E+02 -0.44579851164E+02  0.71168148222E+02  0.00000000000E+00 0. -1.
        -11    1    5    5    0    0  0.20350096937E+03  0.25190687422E+03 -0.13323145195E+03  0.35017186866E+03  0.00000000000E+00 0.  1.
          1    1    6    6  503    0 -0.33427728411E+02  0.15227537981E+03  0.16133662526E+03  0.22435398586E+03  0.00000000000E+00 0. -1.
         -1    1    6    6    0  503 -0.20108701401E+03  0.31926784222E+03  0.46672714234E+03  0.60016844942E+03  0.00000000000E+00 0.  1.
<mgrwt>
<rscale>  0 0.19373282E+04</rscale>
<asrwt>0</asrwt>
<pdfrwt beam="1">  1        1 0.18793752E+00 0.19373282E+04</pdfrwt>
<pdfrwt beam="2">  1       -2 0.11816972E+00 0.19373282E+04</pdfrwt>
<totfact> 0.46507169E+00</totfact>
</mgrwt>
</event>
<event>
12    4  0.4424320E-008  0.1795758E+04  0.7818608E-02  0.8708559E-01
          1   -1    0    0  501    0  0.00000000000E+00  0.00000000000E+00  0.23055546218E+04  0.23055546218E+04  0.00000000000E+00 0. -1.
         -2   -1    0    0    0  501 -0.00000000000E+00 -0.00000000000E+00 -0.34967133400E+03  0.34967133400E+03  0.00000000000E+00 0.  1.
        -24    2    1    2    0    0  0.32540425424E+03  0.33471964781E+03  0.32473614929E+02  0.47454238276E+03  0.78808413629E+02 0.  0.
        254    2    1    2    0    0 -0.32540425424E+03 -0.33471964781E+03  0.19234096729E+04  0.21806835731E+04  0.91539658334E+03 0.  0.
         23    2    4    4    0    0  0.24851131273E+03 -0.14285578299E+03  0.11827147327E+04  0.12199134263E+04  0.84905721056E+02 0.  0.
         23    2    4    4    0    0 -0.57391556697E+03 -0.19186386482E+03  0.74069494019E+03  0.96077014676E+03  0.90881570432E+02 0.  0.
          1    1    3    3  502    0  0.11186556977E+03  0.88874721639E+02 -0.21444713035E+02  0.14447317247E+03  0.00000000000E+00 0. -1.
         -2    1    3    3    0  502  0.21353868447E+03  0.24584492617E+03  0.53918327964E+02  0.33006921029E+03  0.00000000000E+00 0.  1.
         11    1    5    5    0    0  0.19089587181E+03 -0.12952181311E+03  0.10428399131E+04  0.10680506628E+04  0.00000000000E+00 0.  1.
        -11    1    5    5    0    0  0.57615440921E+02 -0.13333969879E+02  0.13987481960E+03  0.15186276352E+03  0.00000000000E+00 0. -1.
          2    1    6    6  503    0 -0.31564322176E+03 -0.99832253163E+02  0.33386316698E+03  0.47017202860E+03  0.00000000000E+00 0.  1.
         -2    1    6    6    0  503 -0.25827234521E+03 -0.92031611654E+02  0.40683177321E+03  0.49059811816E+03  0.00000000000E+00 0. -1.
<mgrwt>
<rscale>  0 0.17957576E+04</rscale>
<asrwt>0</asrwt>
<pdfrwt beam="1">  1        1 0.35470070E+00 0.17957576E+04</pdfrwt>
<pdfrwt beam="2">  1       -2 0.53795591E-01 0.17957576E+04</pdfrwt>
<totfact> 0.49817279E+00</totfact>
</mgrwt>
</event>
<event>
12    4  0.4424320E-008  0.2217455E+04  0.7818608E-02  0.8511198E-01
          3   -1    0    0  501    0  0.00000000000E+00  0.00000000000E+00  0.78495444215E+03  0.78495444215E+03  0.00000000000E+00 0. -1.
         -4   -1    0    0    0  501 -0.00000000000E+00 -0.00000000000E+00 -0.15660478797E+04  0.15660478797E+04  0.00000000000E+00 0.  1.
        -24    2    1    2    0    0 -0.22154665167E+03 -0.35368273382E+03  0.55878339664E+03  0.70221525619E+03  0.81810675344E+02 0.  0.
        254    2    1    2    0    0  0.22154665167E+03  0.35368273382E+03 -0.13398768342E+04  0.16487870657E+04  0.86547932501E+03 0.  0.
         23    2    4    4    0    0  0.31425808151E+03  0.55075794797E+03 -0.12329721425E+04  0.13894868403E+04  0.91438045364E+02 0.  0.
         23    2    4    4    0    0 -0.92711429838E+02 -0.19707521415E+03 -0.10690469178E+03  0.25930022544E+03  0.91509259262E+02 0.  0.
          3    1    3    3  502    0 -0.22054793981E+03 -0.30829267428E+03  0.48460998964E+03  0.61525003765E+03  0.00000000000E+00 0. -1.
         -4    1    3    3    0  502 -0.99871186368E+00 -0.45390059541E+02  0.74173406998E+02  0.86965218543E+02  0.00000000000E+00 0.  1.
         11    1    5    5    0    0  0.23523400450E+03  0.41997737175E+03 -0.84473135435E+03  0.97225875706E+03  0.00000000000E+00 0. -1.
        -11    1    5    5    0    0  0.79024077006E+02  0.13078057623E+03 -0.38824078811E+03  0.41722808321E+03  0.00000000000E+00 0.  1.
          1    1    6    6  503    0 -0.67683069296E+02 -0.17848555663E+03 -0.12001281470E+03  0.22547986049E+03  0.00000000000E+00 0. -1.
         -1    1    6    6    0  503 -0.25028360542E+02 -0.18589657527E+02  0.13108122926E+02  0.33820364945E+02  0.00000000000E+00 0.  1.
<mgrwt>
<rscale>  0 0.22174546E+04</rscale>
<asrwt>0</asrwt>
<pdfrwt beam="1">  1        3 0.12076222E+00 0.22174546E+04</pdfrwt>
<pdfrwt beam="2">  1       -4 0.24093044E+00 0.22174546E+04</pdfrwt>
<totfact> 0.83564879E-02</totfact>
</mgrwt>
</event>
<event>
12    4  0.4424320E-008  0.2425290E+04  0.7818608E-02  0.8430096E-01
         -2   -1    0    0    0  501 -0.00000000000E+00  0.00000000000E+00  0.50306243431E+03  0.50306243431E+03  0.00000000000E+00 0.  1.
          1   -1    0    0  501    0  0.00000000000E+00 -0.00000000000E+00 -0.29231129254E+04  0.29231129254E+04  0.00000000000E+00 0. -1.
        -24    2    1    2    0    0 -0.10263209186E+04 -0.19205528245E+03 -0.10430138569E+04  0.14779933538E+04  0.79790906992E+02 0.  0.
        254    2    1    2    0    0  0.10263209186E+04  0.19205528245E+03 -0.13770366343E+04  0.19481820059E+04  0.89942391372E+03 0.  0.
         23    2    4    4    0    0  0.67104010906E+02  0.36357643077E+03 -0.25206224393E+03  0.45711350610E+03  0.93416344141E+02 0.  0.
         23    2    4    4    0    0  0.95921690771E+03 -0.17152114832E+03 -0.11249743903E+04  0.14910684998E+04  0.90561094767E+02 0.  0.
          1    1    3    3  502    0 -0.47566635350E+03 -0.96512328296E+02 -0.42979722382E+03  0.64830452950E+03  0.00000000000E+00 0. -1.
         -2    1    3    3    0  502 -0.55065456511E+03 -0.95542954153E+02 -0.61321663305E+03  0.82968882433E+03  0.00000000000E+00 0.  1.
         11    1    5    5    0    0  0.73236584157E+02  0.36573669586E+03 -0.25276431233E+03  0.45057377370E+03  0.00000000000E+00 0.  1.
        -11    1    5    5    0    0 -0.61325732510E+01 -0.21602650872E+01  0.70206839302E+00  0.65397324070E+01  0.00000000000E+00 0. -1.
          1    1    6    6  503    0  0.37568157116E+02 -0.19918056204E+02 -0.71171299541E+02  0.82906267980E+02  0.00000000000E+00 0. -1.
         -1    1    6    6    0  503  0.92164875059E+03 -0.15160309212E+03 -0.10538030908E+04  0.14081622318E+04  0.00000000000E+00 0.  1.
<mgrwt>
<rscale>  0 0.24252903E+04</rscale>
<asrwt>0</asrwt>
<pdfrwt beam="1">  1        1 0.44970969E+00 0.24252903E+04</pdfrwt>
<pdfrwt beam="2">  1       -2 0.77394219E-01 0.24252903E+04</pdfrwt>
<totfact> 0.79578180E-01</totfact>
</mgrwt>
</event>
<event>
12    4  0.4424320E-008  0.1431356E+04  0.7818608E-02  0.8931429E-01
         -2   -1    0    0    0  501 -0.00000000000E+00  0.00000000000E+00  0.53037589341E+03  0.53037589341E+03  0.00000000000E+00 0.  1.
          1   -1    0    0  501    0  0.00000000000E+00 -0.00000000000E+00 -0.96572016520E+03  0.96572016520E+03  0.00000000000E+00 0. -1.
        -24    2    1    2    0    0  0.22858111728E+02  0.25186965456E+03  0.22187077147E+03  0.34573212593E+03  0.79644507102E+02 0.  0.
        254    2    1    2    0    0 -0.22858111728E+02 -0.25186965456E+03 -0.65721504326E+03  0.11503639327E+04  0.90963990038E+03 0.  0.
         23    2    4    4    0    0  0.41051231581E+03 -0.16760600993E+03 -0.49630767916E+03  0.67173084866E+03  0.91043311905E+02 0.  0.
         23    2    4    4    0    0 -0.43337042754E+03 -0.84263644621E+02 -0.16090736410E+03  0.47863308402E+03  0.91039332304E+02 0.  0.
          3    1    3    3  502    0 -0.50355800482E+01  0.34182023348E+02  0.12974039925E+01  0.34575295280E+02  0.00000000000E+00 0. -1.
         -4    1    3    3    0  502  0.27893691776E+02  0.21768763121E+03  0.22057336747E+03  0.31115683065E+03  0.00000000000E+00 0.  1.
         11    1    5    5    0    0  0.11064095657E+01 -0.63120132666E+01  0.22188264730E+01  0.67815075405E+01  0.00000000000E+00 0. -1.
        -11    1    5    5    0    0  0.40940590625E+03 -0.16129399667E+03 -0.49852650563E+03  0.66494934112E+03  0.00000000000E+00 0.  1.
          1    1    6    6  503    0 -0.40906149210E+01  0.71190289440E+00  0.84344868185E+01  0.94010905780E+01  0.00000000000E+00 0. -1.
         -1    1    6    6    0  503 -0.42927981262E+03 -0.84975547516E+02 -0.16934185091E+03  0.46923199344E+03  0.00000000000E+00 0.  1.
<mgrwt>
<rscale>  0 0.14313556E+04</rscale>
<asrwt>0</asrwt>
<pdfrwt beam="1">  1        1 0.14857233E+00 0.14313556E+04</pdfrwt>
<pdfrwt beam="2">  1       -2 0.81596291E-01 0.14313556E+04</pdfrwt>
<totfact> 0.18152430E+01</totfact>
</mgrwt>
</event>
<event>
12    4  0.4424320E-008  0.1887014E+04  0.7818608E-02  0.8661348E-01
         -2   -1    0    0    0  501 -0.00000000000E+00  0.00000000000E+00  0.80883686866E+03  0.80883686866E+03  0.00000000000E+00 0.  1.
          1   -1    0    0  501    0  0.00000000000E+00 -0.00000000000E+00 -0.11005991185E+04  0.11005991185E+04  0.00000000000E+00 0. -1.
        -24    2    1    2    0    0 -0.51466299115E+03  0.30785008996E+03 -0.59114807834E+03  0.84495419245E+03  0.69583507127E+02 0.  0.
        254    2    1    2    0    0  0.51466299115E+03 -0.30785008996E+03  0.29938582855E+03  0.10644817947E+04  0.82694615574E+03 0.  0.
         23    2    4    4    0    0  0.57299454886E+03 -0.47765347283E+03  0.66149713988E+02  0.75475455308E+03  0.93824610848E+02 0.  0.
         23    2    4    4    0    0 -0.58331557715E+02  0.16980338287E+03  0.23323611457E+03  0.30972724159E+03  0.96416386490E+02 0.  0.
          1    1    3    3  502    0 -0.28556570580E+03  0.15835193778E+03 -0.36748931344E+03  0.49160096015E+03  0.00000000000E+00 0. -1.
         -2    1    3    3    0  502 -0.22909728535E+03  0.14949815218E+03 -0.22365876491E+03  0.35335323230E+03  0.00000000000E+00 0.  1.
         11    1    5    5    0    0  0.33897254110E+03 -0.33576990286E+03  0.22761998818E+02  0.47766297729E+03  0.00000000000E+00 0.  1.
        -11    1    5    5    0    0  0.23402200776E+03 -0.14188356997E+03  0.43387715170E+02  0.27709157579E+03  0.00000000000E+00 0. -1.
          3    1    6    6  503    0  0.23519772583E+02  0.67196818899E+02  0.99451077713E+02  0.12230743653E+03  0.00000000000E+00 0. -1.
         -3    1    6    6    0  503 -0.81851330299E+02  0.10260656397E+03  0.13378503685E+03  0.18741980506E+03  0.00000000000E+00 0.  1.
<mgrwt>
<rscale>  0 0.18870137E+04</rscale>
<asrwt>0</asrwt>
<pdfrwt beam="1">  1        1 0.16932294E+00 0.18870137E+04</pdfrwt>
<pdfrwt beam="2">  1       -2 0.12443644E+00 0.18870137E+04</pdfrwt>
<totfact> 0.50449560E+00</totfact>
</mgrwt>
</event>
<event>
12    4  0.4424320E-008  0.1709839E+04  0.7818608E-02  0.8755773E-01
         -2   -1    0    0    0  501 -0.00000000000E+00  0.00000000000E+00  0.58574982724E+03  0.58574982724E+03  0.00000000000E+00 0.  1.
          1   -1    0    0  501    0  0.00000000000E+00 -0.00000000000E+00 -0.12477809437E+04  0.12477809437E+04  0.00000000000E+00 0. -1.
        -24    2    1    2    0    0  0.68864074200E+01 -0.51919347772E+03  0.14925598598E+03  0.54576345412E+03  0.77272948587E+02 0.  0.
        254    2    1    2    0    0 -0.68864074200E+01  0.51919347772E+03 -0.81128710241E+03  0.12877673168E+04  0.85472136379E+03 0.  0.
         23    2    4    4    0    0  0.20479258522E+03 -0.10311948318E+03 -0.99832843882E+01  0.24707819335E+03  0.91511403065E+02 0.  0.
         23    2    4    4    0    0 -0.21167899264E+03  0.62231296090E+03 -0.80130381802E+03  0.10406891234E+04  0.94152140767E+02 0.  0.
          3    1    3    3  502    0  0.13635590494E+02 -0.49130038690E+03  0.15714555791E+03  0.51600070336E+03  0.00000000000E+00 0. -1.
         -4    1    3    3    0  502 -0.67491830735E+01 -0.27893090824E+02 -0.78895719214E+01  0.29762750763E+02  0.00000000000E+00 0.  1.
         11    1    5    5    0    0  0.21066587486E+03 -0.11012116020E+03 -0.89352466236E+01  0.23787942195E+03  0.00000000000E+00 0. -1.
        -11    1    5    5    0    0 -0.58732896380E+01  0.70016770183E+01 -0.10480377646E+01  0.91987714069E+01  0.00000000000E+00 0.  1.
          1    1    6    6  503    0 -0.16529846403E+03  0.55687167155E+03 -0.66927074838E+03  0.88620143050E+03  0.00000000000E+00 0. -1.
         -1    1    6    6    0  503 -0.46380528614E+02  0.65441289351E+02 -0.13203306964E+03  0.15448769293E+03  0.00000000000E+00 0.  1.
<mgrwt>
<rscale>  0 0.17098391E+04</rscale>
<asrwt>0</asrwt>
<pdfrwt beam="1">  1        1 0.19196630E+00 0.17098391E+04</pdfrwt>
<pdfrwt beam="2">  1       -2 0.90115358E-01 0.17098391E+04</pdfrwt>
<totfact> 0.86682254E+00</totfact>
</mgrwt>
</event>
<event>
12    4  0.4424320E-008  0.1258760E+04  0.7818608E-02  0.9062924E-01
         -2   -1    0    0    0  501 -0.00000000000E+00  0.00000000000E+00  0.18851242004E+03  0.18851242004E+03  0.00000000000E+00 0.  1.
          1   -1    0    0  501    0  0.00000000000E+00 -0.00000000000E+00 -0.21012883304E+04  0.21012883304E+04  0.00000000000E+00 0. -1.
        -24    2    1    2    0    0 -0.70754477748E+02  0.10803643263E+03 -0.96135872096E+03  0.97327071237E+03  0.79794876316E+02 0.  0.
        254    2    1    2    0    0  0.70754477748E+02 -0.10803643263E+03 -0.95141718937E+03  0.13165300380E+04  0.90076556659E+03 0.  0.
         23    2    4    4    0    0  0.27520141193E+03  0.63149266223E+02 -0.98910434634E+03  0.10319122123E+04  0.82412128647E+02 0.  0.
         23    2    4    4    0    0 -0.20444693418E+03 -0.17118569885E+03  0.37687156967E+02  0.28461782577E+03  0.92108048276E+02 0.  0.
          1    1    3    3  502    0 -0.48529808959E+02  0.11733730288E+03 -0.84009363315E+03  0.84963550859E+03  0.00000000000E+00 0. -1.
         -2    1    3    3    0  502 -0.22224668789E+02 -0.93008702485E+01 -0.12126508781E+03  0.12363520377E+03  0.00000000000E+00 0.  1.
         11    1    5    5    0    0  0.71573571926E+02 -0.19300439218E+02 -0.22923442862E+03  0.24092261500E+03  0.00000000000E+00 0. -1.
        -11    1    5    5    0    0  0.20362784000E+03  0.82449705440E+02 -0.75986991771E+03  0.79098959728E+03  0.00000000000E+00 0.  1.
          1    1    6    6  503    0 -0.53894936580E+02 -0.28882520889E+02  0.47189452923E+02  0.77238000163E+02  0.00000000000E+00 0. -1.
         -1    1    6    6    0  503 -0.15055199760E+03 -0.14230317796E+03 -0.95022959560E+01  0.20737982561E+03  0.00000000000E+00 0.  1.
<mgrwt>
<rscale>  0 0.12587596E+04</rscale>
<asrwt>0</asrwt>
<pdfrwt beam="1">  1        1 0.32327513E+00 0.12587596E+04</pdfrwt>
<pdfrwt beam="2">  1       -2 0.29001911E-01 0.12587596E+04</pdfrwt>
<totfact> 0.24082688E+01</totfact>
</mgrwt>
</event>
<event>
12    4  0.4424320E-008  0.9972720E+03  0.7818608E-02  0.9311542E-01
         -2   -1    0    0    0  501 -0.00000000000E+00  0.00000000000E+00  0.67222038451E+03  0.67222038451E+03  0.00000000000E+00 0.  1.
          1   -1    0    0  501    0  0.00000000000E+00 -0.00000000000E+00 -0.36987554034E+03  0.36987554034E+03  0.00000000000E+00 0. -1.
        -24    2    1    2    0    0 -0.22087596723E+02  0.12110584962E+02  0.12139231249E+03  0.14721610730E+03  0.79384888480E+02 0.  0.
        254    2    1    2    0    0  0.22087596723E+02 -0.12110584962E+02  0.18095253168E+03  0.89487981755E+03  0.87603170088E+03 0.  0.
         23    2    4    4    0    0  0.24988213584E+03 -0.18481418166E+03  0.40662533217E+03  0.51988222502E+03  0.91301717263E+02 0.  0.
         23    2    4    4    0    0 -0.22779453912E+03  0.17270359669E+03 -0.22567280050E+03  0.37499759252E+03  0.89320194529E+02 0.  0.
          3    1    3    3  502    0 -0.12714485373E+02  0.17613528981E+02 -0.33684848261E+01  0.21982748498E+02  0.00000000000E+00 0. -1.
         -4    1    3    3    0  502 -0.93731113501E+01 -0.55029440193E+01  0.12476079732E+03  0.12523335880E+03  0.00000000000E+00 0.  1.
         11    1    5    5    0    0  0.13801107813E+02 -0.43878687686E+01 -0.20293291137E+01  0.14623342499E+02  0.00000000000E+00 0.  1.
        -11    1    5    5    0    0  0.23608102803E+03 -0.18042631289E+03  0.40865466129E+03  0.50525888253E+03  0.00000000000E+00 0. -1.
          3    1    6    6  503    0 -0.12094373511E+03  0.80169388492E+02 -0.16890857562E+03  0.22267605356E+03  0.00000000000E+00 0. -1.
         -3    1    6    6    0  503 -0.10685080401E+03  0.92534208202E+02 -0.56764224882E+02  0.15232153896E+03  0.00000000000E+00 0.  1.
<mgrwt>
<rscale>  0 0.99727203E+03</rscale>
<asrwt>0</asrwt>
<pdfrwt beam="1">  1        1 0.56903929E-01 0.99727203E+03</pdfrwt>
<pdfrwt beam="2">  1       -2 0.10341852E+00 0.99727203E+03</pdfrwt>
<totfact> 0.44456085E+01</totfact>
</mgrwt>
</event>
<event>
12    4  0.4424320E-008  0.1861293E+04  0.7818608E-02  0.8674367E-01
          1   -1    0    0  501    0  0.00000000000E+00  0.00000000000E+00  0.27273703419E+04  0.27273703419E+04  0.00000000000E+00 0. -1.
         -2   -1    0    0    0  501 -0.00000000000E+00 -0.00000000000E+00 -0.31755954346E+03  0.31755954346E+03  0.00000000000E+00 0.  1.
        -24    2    1    2    0    0  0.62199017281E+03  0.81238344312E+02  0.14794640524E+04  0.16088803468E+04  0.78807642852E+02 0.  0.
        254    2    1    2    0    0 -0.62199017281E+03 -0.81238344312E+02  0.93034674612E+03  0.14360495386E+04  0.89622640305E+03 0.  0.
         23    2    4    4    0    0 -0.39645969807E+03  0.33087903491E+03  0.76948160378E+03  0.93112092331E+03  0.90680799208E+02 0.  0.
         23    2    4    4    0    0 -0.22553047475E+03 -0.41211737922E+03  0.16086514234E+03  0.50492861525E+03  0.91490891256E+02 0.  0.
          1    1    3    3  502    0  0.43384862277E+03  0.33461308263E+02  0.10922403388E+04  0.11757266878E+04  0.00000000000E+00 0. -1.
         -2    1    3    3    0  502  0.18814155004E+03  0.47777036048E+02  0.38722371353E+03  0.43315365905E+03  0.00000000000E+00 0.  1.
         11    1    5    5    0    0 -0.26814999205E+03  0.25870804804E+03  0.49392340758E+03  0.61870397196E+03  0.00000000000E+00 0. -1.
        -11    1    5    5    0    0 -0.12830970602E+03  0.72170986865E+02  0.27555819620E+03  0.31241695136E+03  0.00000000000E+00 0.  1.
          2    1    6    6  503    0 -0.43463653069E+02 -0.74723932924E+02 -0.63247147049E+01  0.86676163424E+02  0.00000000000E+00 0. -1.
         -2    1    6    6    0  503 -0.18206682168E+03 -0.33739344629E+03  0.16718985705E+03  0.41825245183E+03  0.00000000000E+00 0.  1.
<mgrwt>
<rscale>  0 0.18612925E+04</rscale>
<asrwt>0</asrwt>
<pdfrwt beam="1">  1        1 0.41959542E+00 0.18612925E+04</pdfrwt>
<pdfrwt beam="2">  1       -2 0.48855316E-01 0.18612925E+04</pdfrwt>
<totfact> 0.30750394E+00</totfact>
</mgrwt>
</event>
<event>
12    4  0.4424320E-008  0.1243211E+04  0.7818608E-02  0.9075853E-01
          1   -1    0    0  501    0  0.00000000000E+00  0.00000000000E+00  0.10535285346E+04  0.10535285346E+04  0.00000000000E+00 0. -1.
         -2   -1    0    0    0  501 -0.00000000000E+00 -0.00000000000E+00 -0.36676122015E+03  0.36676122015E+03  0.00000000000E+00 0.  1.
        -24    2    1    2    0    0 -0.12935893248E+03 -0.18135635640E+03  0.40653299072E+03  0.47028658775E+03  0.79224621552E+02 0.  0.
        254    2    1    2    0    0  0.12935893248E+03  0.18135635640E+03  0.28023432373E+03  0.95000316700E+03  0.87997209029E+03 0.  0.
         23    2    4    4    0    0 -0.21258413410E+03 -0.16998611296E+03 -0.11929320354E+03  0.31095722176E+03  0.91521760712E+02 0.  0.
         23    2    4    4    0    0  0.34194306658E+03  0.35134246935E+03  0.39952752727E+03  0.63904594524E+03  0.91601765953E+02 0.  0.
          1    1    3    3  502    0 -0.41954332411E+02 -0.97371602634E+02  0.25551194716E+03  0.27663649460E+03  0.00000000000E+00 0. -1.
         -2    1    3    3    0  502 -0.87404600068E+02 -0.83984753764E+02  0.15102104356E+03  0.19365009315E+03  0.00000000000E+00 0.  1.
         11    1    5    5    0    0 -0.15512017012E+03 -0.70808775094E+02 -0.89254336914E+02  0.19246424724E+03  0.00000000000E+00 0. -1.
        -11    1    5    5    0    0 -0.57463963981E+02 -0.99177337861E+02 -0.30038866623E+02  0.11849297452E+03  0.00000000000E+00 0.  1.
          1    1    6    6  503    0  0.23622228543E+03  0.29820607195E+03  0.30403438478E+03  0.48699562279E+03  0.00000000000E+00 0. -1.
         -1    1    6    6    0  503  0.10572078115E+03  0.53136397402E+02  0.95493142486E+02  0.15205032245E+03  0.00000000000E+00 0.  1.
<mgrwt>
<rscale>  0 0.12432110E+04</rscale>
<asrwt>0</asrwt>
<pdfrwt beam="1">  1        1 0.16208131E+00 0.12432110E+04</pdfrwt>
<pdfrwt beam="2">  1       -2 0.56424804E-01 0.12432110E+04</pdfrwt>
<totfact> 0.35066349E+01</totfact>
</mgrwt>
</event>
<event>
12    4  0.4424320E-008  0.1170994E+04  0.7818608E-02  0.9138631E-01
         -2   -1    0    0    0  501 -0.00000000000E+00  0.00000000000E+00  0.48723544867E+03  0.48723544867E+03  0.00000000000E+00 0.  1.
          1   -1    0    0  501    0  0.00000000000E+00 -0.00000000000E+00 -0.70357535876E+03  0.70357535876E+03  0.00000000000E+00 0. -1.
        -24    2    1    2    0    0 -0.18198055044E+03  0.13010030927E+03 -0.84725681623E+02  0.25126137260E+03  0.76881890106E+02 0.  0.
        254    2    1    2    0    0  0.18198055044E+03 -0.13010030927E+03 -0.13161422847E+03  0.93954943483E+03  0.90298827464E+03 0.  0.
         23    2    4    4    0    0  0.33578247743E+02 -0.45555833684E+03  0.13306162262E+03  0.48488195200E+03  0.93510507341E+02 0.  0.
         23    2    4    4    0    0  0.14840230269E+03  0.32545802756E+03 -0.26467585109E+03  0.45466748282E+03  0.93397230346E+02 0.  0.
          3    1    3    3  502    0 -0.11386482397E+03  0.87410278592E+02 -0.92073952429E+02  0.17053846386E+03  0.00000000000E+00 0. -1.
         -4    1    3    3    0  502 -0.68115726468E+02  0.42690030682E+02  0.73482708053E+01  0.80722908742E+02  0.00000000000E+00 0.  1.
         11    1    5    5    0    0  0.25878103970E+02 -0.45753686641E+03  0.13168894479E+03  0.47681405031E+03  0.00000000000E+00 0.  1.
        -11    1    5    5    0    0  0.77001437727E+01  0.19785295736E+01  0.13726778274E+01  0.80679016982E+01  0.00000000000E+00 0. -1.
          1    1    6    6  503    0  0.11707660332E+02  0.58224849982E+02 -0.88621563985E+02  0.10668169510E+03  0.00000000000E+00 0. -1.
         -1    1    6    6    0  503  0.13669464236E+03  0.26723317758E+03 -0.17605428710E+03  0.34798578772E+03  0.00000000000E+00 0.  1.
<mgrwt>
<rscale>  0 0.11709942E+04</rscale>
<asrwt>0</asrwt>
<pdfrwt beam="1">  1        1 0.10824236E+00 0.11709942E+04</pdfrwt>
<pdfrwt beam="2">  1       -2 0.74959300E-01 0.11709942E+04</pdfrwt>
<totfact> 0.37547864E+01</totfact>
</mgrwt>
</event>
<event>
12    4  0.4424320E-008  0.2678297E+04  0.7818608E-02  0.8342081E-01
         -2   -1    0    0    0  501 -0.00000000000E+00  0.00000000000E+00  0.31365198442E+04  0.31365198442E+04  0.00000000000E+00 0.  1.
          1   -1    0    0  501    0  0.00000000000E+00 -0.00000000000E+00 -0.57175418190E+03  0.57175418190E+03  0.00000000000E+00 0. -1.
        -24    2    1    2    0    0  0.47575806715E+03 -0.89046092199E+03  0.19967431837E+04  0.22389243959E+04  0.80825224916E+02 0.  0.
        254    2    1    2    0    0 -0.47575806715E+03  0.89046092199E+03  0.56802247861E+03  0.14693496302E+04  0.90392057586E+03 0.  0.
         23    2    4    4    0    0 -0.42612008654E+03  0.75432250850E+03  0.79882873297E+03  0.11819652383E+04  0.91289128208E+02 0.  0.
         23    2    4    4    0    0 -0.49637980613E+02  0.13613841349E+03 -0.23080625436E+03  0.28738439189E+03  0.91217678697E+02 0.  0.
          3    1    3    3  502    0  0.23382919831E+03 -0.36573729044E+03  0.80985198323E+03  0.91885803819E+03  0.00000000000E+00 0. -1.
         -4    1    3    3    0  502  0.24192886884E+03 -0.52472363155E+03  0.11868912005E+04  0.13200663577E+04  0.00000000000E+00 0.  1.
         11    1    5    5    0    0 -0.24984940904E+03  0.52925563106E+03  0.53966592169E+03  0.79610021809E+03  0.00000000000E+00 0. -1.
        -11    1    5    5    0    0 -0.17627067749E+03  0.22506687744E+03  0.25916281128E+03  0.38586502020E+03  0.00000000000E+00 0.  1.
          1    1    6    6  503    0 -0.58098808649E+02  0.14648346337E+03 -0.20804444586E+03  0.26098921062E+03  0.00000000000E+00 0. -1.
         -1    1    6    6    0  503  0.84608280363E+01 -0.10345049886E+02 -0.22761808499E+02  0.26395181272E+02  0.00000000000E+00 0.  1.
<mgrwt>
<rscale>  0 0.26782967E+04</rscale>
<asrwt>0</asrwt>
<pdfrwt beam="1">  1        1 0.87962183E-01 0.26782967E+04</pdfrwt>
<pdfrwt beam="2">  1       -2 0.48254151E+00 0.26782967E+04</pdfrwt>
<totfact> 0.59698087E-02</totfact>
</mgrwt>
</event>
<event>
12    4  0.4424320E-008  0.1408357E+04  0.7818608E-02  0.8947792E-01
         -4   -1    0    0    0  501 -0.00000000000E+00  0.00000000000E+00  0.34572878381E+03  0.34572878381E+03  0.00000000000E+00 0.  1.
          3   -1    0    0  501    0  0.00000000000E+00 -0.00000000000E+00 -0.14342667787E+04  0.14342667787E+04  0.00000000000E+00 0. -1.
        -24    2    1    2    0    0 -0.65572849867E+02  0.29900324999E+03 -0.66113565380E+03  0.73292457021E+03  0.79845668319E+02 0.  0.
        254    2    1    2    0    0  0.65572849867E+02 -0.29900324999E+03 -0.42740234111E+03  0.10470709923E+04  0.90552866306E+03 0.  0.
         23    2    4    4    0    0 -0.30937818687E+03  0.10342438520E+03  0.98302792946E+01  0.33840921338E+03  0.89513660101E+02 0.  0.
         23    2    4    4    0    0  0.37495103673E+03 -0.40242763519E+03 -0.43723262040E+03  0.70866177894E+03  0.92156774422E+02 0.  0.
          3    1    3    3  502    0  0.70038477747E+01  0.42199104808E+02 -0.15438113987E+03  0.16019786103E+03  0.00000000000E+00 0. -1.
         -4    1    3    3    0  502 -0.72576697642E+02  0.25680414518E+03 -0.50675451393E+03  0.57272670918E+03  0.00000000000E+00 0.  1.
         11    1    5    5    0    0 -0.23795194845E+03  0.93429122345E+02  0.42650942044E+02  0.25917027903E+03  0.00000000000E+00 0.  1.
        -11    1    5    5    0    0 -0.71426238418E+02  0.99952628580E+01 -0.32820662749E+02  0.79238934353E+02  0.00000000000E+00 0. -1.
          1    1    6    6  503    0  0.18024634125E+03 -0.19955384963E+03 -0.15556870131E+03  0.31066397162E+03  0.00000000000E+00 0. -1.
         -1    1    6    6    0  503  0.19470469548E+03 -0.20287378557E+03 -0.28166391910E+03  0.39799780732E+03  0.00000000000E+00 0.  1.
<mgrwt>
<rscale>  0 0.14083569E+04</rscale>
<asrwt>0</asrwt>
<pdfrwt beam="1">  1        3 0.22065643E+00 0.14083569E+04</pdfrwt>
<pdfrwt beam="2">  1       -4 0.53189043E-01 0.14083569E+04</pdfrwt>
<totfact> 0.83153262E-01</totfact>
</mgrwt>
</event>
<event>
12    4  0.4424320E-008  0.1374687E+04  0.7818608E-02  0.8972348E-01
          1   -1    0    0  501    0  0.00000000000E+00  0.00000000000E+00  0.51269770083E+03  0.51269770083E+03  0.00000000000E+00 0. -1.
         -2   -1    0    0    0  501 -0.00000000000E+00 -0.00000000000E+00 -0.92148065150E+03  0.92148065150E+03  0.00000000000E+00 0.  1.
        -24    2    1    2    0    0  0.19733822514E+03 -0.12476923440E+03  0.20899217623E+03  0.32357939559E+03  0.80722726483E+02 0.  0.
        254    2    1    2    0    0 -0.19733822514E+03  0.12476923440E+03 -0.61777512690E+03  0.11105989567E+04  0.89290212138E+03 0.  0.
         23    2    4    4    0    0  0.77927324385E+01  0.32887461766E+03  0.79354045319E+02  0.35028743799E+03  0.90470900788E+02 0.  0.
         23    2    4    4    0    0 -0.20513095758E+03 -0.20410538326E+03 -0.69712917222E+03  0.76031151875E+03  0.91360853556E+02 0.  0.
          3    1    3    3  502    0  0.20521398819E+03 -0.11989138656E+03  0.20283391027E+03  0.31245530989E+03  0.00000000000E+00 0. -1.
         -2    1    3    3    0  502 -0.78757630482E+01 -0.48778478426E+01  0.61582659538E+01  0.11124085703E+02  0.00000000000E+00 0.  1.
         11    1    5    5    0    0  0.44442202815E+02  0.10241681953E+03  0.21403835548E+02  0.11367690395E+03  0.00000000000E+00 0. -1.
        -11    1    5    5    0    0 -0.36649470377E+02  0.22645779812E+03  0.57950209772E+02  0.23661053405E+03  0.00000000000E+00 0.  1.
          4    1    6    6  503    0  0.45889957387E+01  0.52866245912E+01 -0.19192040833E+02  0.20428943017E+02  0.00000000000E+00 0. -1.
         -4    1    6    6    0  503 -0.20971995332E+03 -0.20939200785E+03 -0.67793713139E+03  0.73988257574E+03  0.00000000000E+00 0.  1.
<mgrwt>
<rscale>  0 0.13746869E+04</rscale>
<asrwt>0</asrwt>
<pdfrwt beam="1">  1        1 0.78876569E-01 0.13746869E+04</pdfrwt>
<pdfrwt beam="2">  1       -2 0.14176625E+00 0.13746869E+04</pdfrwt>
<totfact> 0.12705297E+01</totfact>
</mgrwt>
</event>
<event>
12    4  0.4424320E-008  0.1588675E+04  0.7818608E-02  0.8827536E-01
          1   -1    0    0  501    0  0.00000000000E+00  0.00000000000E+00  0.22739763621E+04  0.22739763621E+04  0.00000000000E+00 0. -1.
         -2   -1    0    0    0  501 -0.00000000000E+00 -0.00000000000E+00 -0.27747521994E+03  0.27747521994E+03  0.00000000000E+00 0.  1.
        -24    2    1    2    0    0 -0.11459251229E+03  0.40982825747E+03  0.16846980028E+03  0.46403369688E+03  0.76515055668E+02 0.  0.
        254    2    1    2    0    0  0.11459251229E+03 -0.40982825747E+03  0.18280313419E+04  0.20874178852E+04  0.91352295859E+03 0.  0.
         23    2    4    4    0    0  0.46280431290E+03 -0.23816927886E+03  0.61982345540E+03  0.81508069506E+03  0.96244408492E+02 0.  0.
         23    2    4    4    0    0 -0.34821180061E+03 -0.17165897861E+03  0.12082078865E+04  0.12723371901E+04  0.91418626682E+02 0.  0.
          3    1    3    3  502    0  0.29172654084E+01  0.89025115182E+02  0.51656528929E+02  0.10296785203E+03  0.00000000000E+00 0. -1.
         -4    1    3    3    0  502 -0.11750977770E+03  0.32080314229E+03  0.11681327135E+03  0.36106584485E+03  0.00000000000E+00 0.  1.
         11    1    5    5    0    0  0.43395577251E+02 -0.33311322958E+02  0.28354924663E+02  0.61618358586E+02  0.00000000000E+00 0. -1.
        -11    1    5    5    0    0  0.41940873565E+03 -0.20485795590E+03  0.59146853073E+03  0.75346233647E+03  0.00000000000E+00 0.  1.
          4    1    6    6  503    0 -0.15927508622E+03 -0.12539228146E+03  0.55932324787E+03  0.59492375389E+03  0.00000000000E+00 0. -1.
         -4    1    6    6    0  503 -0.18893671439E+03 -0.46266697151E+02  0.64888463867E+03  0.67741343625E+03  0.00000000000E+00 0.  1.
<mgrwt>
<rscale>  0 0.15886750E+04</rscale>
<asrwt>0</asrwt>
<pdfrwt beam="1">  1        1 0.34984250E+00 0.15886750E+04</pdfrwt>
<pdfrwt beam="2">  1       -2 0.42688497E-01 0.15886750E+04</pdfrwt>
<totfact> 0.85172002E+00</totfact>
</mgrwt>
</event>
<event>
12    4  0.4424320E-008  0.1551383E+04  0.7818608E-02  0.8850985E-01
         -2   -1    0    0    0  501 -0.00000000000E+00  0.00000000000E+00  0.30516495787E+03  0.30516495787E+03  0.00000000000E+00 0.  1.
          1   -1    0    0  501    0  0.00000000000E+00 -0.00000000000E+00 -0.19717117792E+04  0.19717117792E+04  0.00000000000E+00 0. -1.
        -24    2    1    2    0    0 -0.47028406661E+03  0.10298081453E+03 -0.80666613548E+03  0.94289820565E+03  0.81084034286E+02 0.  0.
        254    2    1    2    0    0  0.47028406661E+03 -0.10298081453E+03 -0.85988068581E+03  0.13339785314E+04  0.89907273172E+03 0.  0.
         23    2    4    4    0    0  0.18423582498E+03 -0.18414272294E+03 -0.96754588220E+03  0.10059138201E+04  0.88691587498E+02 0.  0.
         23    2    4    4    0    0  0.28604824162E+03  0.81161908413E+02  0.10766519639E+03  0.32806471129E+03  0.87314422431E+02 0.  0.
          1    1    3    3  502    0 -0.40101766462E+02 -0.35100961982E+01 -0.36544675378E+02  0.54368977801E+02  0.00000000000E+00 0. -1.
         -2    1    3    3    0  502 -0.43018230014E+03  0.10649091072E+03 -0.77012146010E+03  0.88852922785E+03  0.00000000000E+00 0.  1.
         11    1    5    5    0    0  0.16279882092E+03 -0.10662725386E+03 -0.69869007767E+03  0.72528659990E+03  0.00000000000E+00 0. -1.
        -11    1    5    5    0    0  0.21437004060E+02 -0.77515469075E+02 -0.26885580453E+03  0.28062722021E+03  0.00000000000E+00 0.  1.
          4    1    6    6  503    0  0.13733210340E+03  0.27267796030E+02  0.95368115250E+02  0.16940695597E+03  0.00000000000E+00 0. -1.
         -4    1    6    6    0  503  0.14871613822E+03  0.53894112382E+02  0.12297081140E+02  0.15865775531E+03  0.00000000000E+00 0.  1.
<mgrwt>
<rscale>  0 0.15513831E+04</rscale>
<asrwt>0</asrwt>
<pdfrwt beam="1">  1        1 0.30334026E+00 0.15513831E+04</pdfrwt>
<pdfrwt beam="2">  1       -2 0.46948457E-01 0.15513831E+04</pdfrwt>
<totfact> 0.11333439E+01</totfact>
</mgrwt>
</event>
<event>
12    4  0.4424320E-008  0.1545027E+04  0.7818608E-02  0.8855050E-01
          1   -1    0    0  501    0  0.00000000000E+00  0.00000000000E+00  0.25924413154E+03  0.25924413154E+03  0.00000000000E+00 0. -1.
         -2   -1    0    0    0  501 -0.00000000000E+00 -0.00000000000E+00 -0.23019901854E+04  0.23019901854E+04  0.00000000000E+00 0.  1.
        -24    2    1    2    0    0 -0.46016456483E+03 -0.50617908713E+02 -0.83042657191E+03  0.95417601928E+03  0.80808322796E+02 0.  0.
        254    2    1    2    0    0  0.46016456483E+03  0.50617908713E+02 -0.12123194820E+04  0.16070582977E+04  0.94794738584E+03 0.  0.
         23    2    4    4    0    0  0.40060554494E+03  0.46208525132E+03 -0.82912448928E+03  0.10342957575E+04  0.91174081318E+02 0.  0.
         23    2    4    4    0    0  0.59559019890E+02 -0.41146734260E+03 -0.38319499267E+03  0.57276254016E+03  0.91465152539E+02 0.  0.
          1    1    3    3  502    0 -0.10273634904E+03 -0.34214246059E+02 -0.14490177602E+03  0.18089194770E+03  0.00000000000E+00 0. -1.
         -2    1    3    3    0  502 -0.35742821579E+03 -0.16403662654E+02 -0.68552479589E+03  0.77328407158E+03  0.00000000000E+00 0.  1.
         11    1    5    5    0    0  0.39326506259E+03  0.42917569899E+03 -0.75931577037E+03  0.95677041613E+03  0.00000000000E+00 0. -1.
        -11    1    5    5    0    0  0.73404823524E+01  0.32909552324E+02 -0.69808718917E+02  0.77525341355E+02  0.00000000000E+00 0.  1.
          3    1    6    6  503    0  0.20990180050E+02 -0.30379333630E+03 -0.32144583828E+03  0.44278483012E+03  0.00000000000E+00 0. -1.
         -3    1    6    6    0  503  0.38568839840E+02 -0.10767400631E+03 -0.61749154392E+02  0.12997771005E+03  0.00000000000E+00 0.  1.
<mgrwt>
<rscale>  0 0.15450274E+04</rscale>
<asrwt>0</asrwt>
<pdfrwt beam="1">  1        1 0.39883714E-01 0.15450274E+04</pdfrwt>
<pdfrwt beam="2">  1       -2 0.35415233E+00 0.15450274E+04</pdfrwt>
<totfact> 0.13160645E+00</totfact>
</mgrwt>
</event>
<event>
12    4  0.4424320E-008  0.1579645E+04  0.7818608E-02  0.8833151E-01
         -2   -1    0    0    0  501 -0.00000000000E+00  0.00000000000E+00  0.50516914970E+03  0.50516914970E+03  0.00000000000E+00 0.  1.
          1   -1    0    0  501    0  0.00000000000E+00 -0.00000000000E+00 -0.12348734257E+04  0.12348734257E+04  0.00000000000E+00 0. -1.
        -24    2    1    2    0    0  0.33044821718E+03  0.22399738567E+03 -0.57433483082E+03  0.70404739275E+03  0.80320485062E+02 0.  0.
        254    2    1    2    0    0 -0.33044821718E+03 -0.22399738567E+03 -0.15536944514E+03  0.10359951826E+04  0.94327912140E+03 0.  0.
         23    2    4    4    0    0 -0.49412889309E+03  0.20845930807E+03 -0.11198859309E+02  0.54297200470E+03  0.84110268858E+02 0.  0.
         23    2    4    4    0    0  0.16368067591E+03 -0.43245669374E+03 -0.14417058583E+03  0.49302317791E+03  0.92068129699E+02 0.  0.
          3    1    3    3  502    0  0.10227562679E+03  0.49555351434E+02 -0.22268726863E+03  0.25001131235E+03  0.00000000000E+00 0. -1.
         -4    1    3    3    0  502  0.22817259039E+03  0.17444203424E+03 -0.35164756218E+03  0.45403608040E+03  0.00000000000E+00 0.  1.
         11    1    5    5    0    0 -0.15966903584E+03  0.49882004601E+02 -0.39049692872E+02  0.17177687243E+03  0.00000000000E+00 0. -1.
        -11    1    5    5    0    0 -0.33445985725E+03  0.15857730347E+03  0.27850833563E+02  0.37119513227E+03  0.00000000000E+00 0.  1.
          3    1    6    6  503    0  0.53826273330E+02 -0.21382438156E+03 -0.28331600273E+02  0.22230792479E+03  0.00000000000E+00 0. -1.
         -3    1    6    6    0  503  0.10985440258E+03 -0.21863231219E+03 -0.11583898555E+03  0.27071525312E+03  0.00000000000E+00 0.  1.
<mgrwt>
<rscale>  0 0.15796455E+04</rscale>
<asrwt>0</asrwt>
<pdfrwt beam="1">  1        1 0.18998053E+00 0.15796455E+04</pdfrwt>
<pdfrwt beam="2">  1       -2 0.77718331E-01 0.15796455E+04</pdfrwt>
<totfact> 0.12532077E+01</totfact>
</mgrwt>
</event>
<event>
12    4  0.4424320E-008  0.1578242E+04  0.7818608E-02  0.8834028E-01
          1   -1    0    0  501    0  0.00000000000E+00  0.00000000000E+00  0.63683303554E+03  0.63683303554E+03  0.00000000000E+00 0. -1.
         -2   -1    0    0    0  501 -0.00000000000E+00 -0.00000000000E+00 -0.97782568004E+03  0.97782568004E+03  0.00000000000E+00 0.  1.
        -24    2    1    2    0    0 -0.70920764891E+02  0.16589821576E+02  0.42052047683E+03  0.43475737181E+03  0.82894655050E+02 0.  0.
        254    2    1    2    0    0  0.70920764891E+02 -0.16589821576E+02 -0.76151312133E+03  0.11799013438E+04  0.89830950680E+03 0.  0.
         23    2    4    4    0    0  0.24434601311E+03  0.35434583912E+03 -0.21211882047E+03  0.48831983943E+03  0.90531341291E+02 0.  0.
         23    2    4    4    0    0 -0.17342524822E+03 -0.37093566070E+03 -0.54939430086E+03  0.69158150434E+03  0.93708581392E+02 0.  0.
          1    1    3    3  502    0 -0.35920056887E+02 -0.79271164469E+01  0.35258955632E+03  0.35450315216E+03  0.00000000000E+00 0. -1.
         -2    1    3    3    0  502 -0.35000708004E+02  0.24516938023E+02  0.67930920509E+02  0.80254219652E+02  0.00000000000E+00 0.  1.
         11    1    5    5    0    0  0.11078385788E+03  0.20617366004E+03 -0.73205509194E+02  0.24523394512E+03  0.00000000000E+00 0.  1.
        -11    1    5    5    0    0  0.13356215523E+03  0.14817217908E+03 -0.13891331127E+03  0.24308589431E+03  0.00000000000E+00 0. -1.
          2    1    6    6  503    0 -0.12396470977E+03 -0.18279702309E+03 -0.24045053923E+03  0.32649420015E+03  0.00000000000E+00 0. -1.
         -2    1    6    6    0  503 -0.49460538452E+02 -0.18813863761E+03 -0.30894376163E+03  0.36508730418E+03  0.00000000000E+00 0.  1.
<mgrwt>
<rscale>  0 0.15782417E+04</rscale>
<asrwt>0</asrwt>
<pdfrwt beam="1">  1        1 0.97974313E-01 0.15782417E+04</pdfrwt>
<pdfrwt beam="2">  1       -2 0.15043472E+00 0.15782417E+04</pdfrwt>
<totfact> 0.78485024E+00</totfact>
</mgrwt>
</event>
<event>
12    4  0.4424320E-008  0.1815992E+04  0.7818608E-02  0.8697841E-01
          1   -1    0    0  501    0  0.00000000000E+00  0.00000000000E+00  0.30000433392E+04  0.30000433392E+04  0.00000000000E+00 0. -1.
         -2   -1    0    0    0  501 -0.00000000000E+00 -0.00000000000E+00 -0.27481484693E+03  0.27481484693E+03  0.00000000000E+00 0.  1.
        -24    2    1    2    0    0  0.11943526380E+03  0.60115625848E+03  0.15949935015E+04  0.17106425140E+04  0.81485651901E+02 0.  0.
        254    2    1    2    0    0 -0.11943526380E+03 -0.60115625848E+03  0.11302349908E+04  0.15642156722E+04  0.89089051253E+03 0.  0.
         23    2    4    4    0    0 -0.33921384466E+03 -0.72965618250E+03  0.85030489519E+03  0.11742981484E+04  0.92160455021E+02 0.  0.
         23    2    4    4    0    0  0.21977858087E+03  0.12849992402E+03  0.27993009559E+03  0.38991752377E+03  0.94127370324E+02 0.  0.
          3    1    3    3  502    0  0.10248719405E+03  0.58675337684E+03  0.15483758792E+04  0.16589909624E+04  0.00000000000E+00 0. -1.
         -4    1    3    3    0  502  0.16948069745E+02  0.14402881638E+02  0.46617622352E+02  0.51651551586E+02  0.00000000000E+00 0.  1.
         11    1    5    5    0    0 -0.19348069876E+03 -0.36062788555E+03  0.48920816341E+03  0.63781806166E+03  0.00000000000E+00 0.  1.
        -11    1    5    5    0    0 -0.14573314590E+03 -0.36902829695E+03  0.36109673177E+03  0.53648008673E+03  0.00000000000E+00 0. -1.
          4    1    6    6  503    0  0.10854891520E+03  0.42752884753E+02  0.19060164814E+03  0.22347184256E+03  0.00000000000E+00 0. -1.
         -4    1    6    6    0  503  0.11122966567E+03  0.85747039266E+02  0.89328447450E+02  0.16644568121E+03  0.00000000000E+00 0.  1.
<mgrwt>
<rscale>  0 0.18159917E+04</rscale>
<asrwt>0</asrwt>
<pdfrwt beam="1">  1        1 0.46154510E+00 0.18159917E+04</pdfrwt>
<pdfrwt beam="2">  1       -2 0.42279209E-01 0.18159917E+04</pdfrwt>
<totfact> 0.26312154E+00</totfact>
</mgrwt>
</event>
<event>
12    4  0.4424320E-008  0.1316498E+04  0.7818608E-02  0.9016583E-01
          1   -1    0    0  501    0  0.00000000000E+00  0.00000000000E+00  0.23308148588E+03  0.23308148588E+03  0.00000000000E+00 0. -1.
         -2   -1    0    0    0  501 -0.00000000000E+00 -0.00000000000E+00 -0.18589724582E+04  0.18589724582E+04  0.00000000000E+00 0.  1.
        -24    2    1    2    0    0 -0.93966470252E+02 -0.20244893916E+01  0.91669488846E+02  0.15366345114E+03  0.79845882437E+02 0.  0.
        254    2    1    2    0    0  0.93966470252E+02  0.20244893916E+01 -0.17175604612E+04  0.19383904929E+04  0.89359385027E+03 0.  0.
         23    2    4    4    0    0 -0.27619871709E+03 -0.29019020196E+03 -0.90919878290E+03  0.99826883965E+03  0.96964760296E+02 0.  0.
         23    2    4    4    0    0  0.37016518734E+03  0.29221469135E+03 -0.80836167825E+03  0.94012165328E+03  0.89266053652E+02 0.  0.
          1    1    3    3  502    0 -0.83607304549E+02  0.28322728484E+02  0.81173293264E+02  0.11992273288E+03  0.00000000000E+00 0. -1.
         -2    1    3    3    0  502 -0.10359165704E+02 -0.30347217876E+02  0.10496195582E+02  0.33740718258E+02  0.00000000000E+00 0.  1.
         11    1    5    5    0    0 -0.26569233543E+03 -0.29396109238E+03 -0.84731915108E+03  0.93539044506E+03  0.00000000000E+00 0. -1.
        -11    1    5    5    0    0 -0.10506381659E+02  0.37708904152E+01 -0.61879631827E+02  0.62878394581E+02  0.00000000000E+00 0.  1.
          1    1    6    6  503    0  0.27337313858E+03  0.24351594983E+03 -0.67870679023E+03  0.77115225334E+03  0.00000000000E+00 0. -1.
         -1    1    6    6    0  503  0.96792048759E+02  0.48698741524E+02 -0.12965488802E+03  0.16896939994E+03  0.00000000000E+00 0.  1.
<mgrwt>
<rscale>  0 0.13164985E+04</rscale>
<asrwt>0</asrwt>
<pdfrwt beam="1">  1        1 0.35858690E-01 0.13164985E+04</pdfrwt>
<pdfrwt beam="2">  1       -2 0.28599576E+00 0.13164985E+04</pdfrwt>
<totfact> 0.40561663E+00</totfact>
</mgrwt>
</event>
<event>
12    4  0.4424320E-008  0.1243682E+04  0.7818608E-02  0.9075459E-01
          1   -1    0    0  501    0  0.00000000000E+00  0.00000000000E+00  0.21872011408E+04  0.21872011408E+04  0.00000000000E+00 0. -1.
         -2   -1    0    0    0  501 -0.00000000000E+00 -0.00000000000E+00 -0.17679486851E+03  0.17679486851E+03  0.00000000000E+00 0.  1.
        -24    2    1    2    0    0  0.23703115211E+03 -0.78593860439E+02  0.76635715870E+03  0.81009930229E+03  0.81220827995E+02 0.  0.
        254    2    1    2    0    0 -0.23703115211E+03  0.78593860439E+02  0.12440491136E+04  0.15538967071E+04  0.89698161473E+03 0.  0.
         23    2    4    4    0    0  0.33504243631E+03  0.18839542687E+02  0.43515123755E+03  0.55700530622E+03  0.91049157693E+02 0.  0.
         23    2    4    4    0    0 -0.57207358842E+03  0.59754317752E+02  0.80889787607E+03  0.99689140084E+03  0.92940422410E+02 0.  0.
          1    1    3    3  502    0  0.22949913154E+03 -0.65659908888E+02  0.64375462604E+03  0.68658655212E+03  0.00000000000E+00 0. -1.
         -2    1    3    3    0  502  0.75320205685E+01 -0.12933951551E+02  0.12260253267E+03  0.12351275016E+03  0.00000000000E+00 0.  1.
         11    1    5    5    0    0  0.18796009655E+03  0.50095635290E+02  0.20989340596E+03  0.28617094967E+03  0.00000000000E+00 0. -1.
        -11    1    5    5    0    0  0.14708233976E+03 -0.31256092603E+02  0.22525783159E+03  0.27083435655E+03  0.00000000000E+00 0.  1.
          2    1    6    6  503    0 -0.41659327096E+03  0.28402039942E+02  0.64859199726E+03  0.77138071546E+03  0.00000000000E+00 0. -1.
         -2    1    6    6    0  503 -0.15548031746E+03  0.31352277810E+02  0.16030587881E+03  0.22551068538E+03  0.00000000000E+00 0.  1.
<mgrwt>
<rscale>  0 0.12436815E+04</rscale>
<asrwt>0</asrwt>
<pdfrwt beam="1">  1        1 0.33649246E+00 0.12436815E+04</pdfrwt>
<pdfrwt beam="2">  1       -2 0.27199212E-01 0.12436815E+04</pdfrwt>
<totfact> 0.23743078E+01</totfact>
</mgrwt>
</event>
<event>
12    4  0.4424320E-008  0.2541900E+04  0.7818608E-02  0.8388209E-01
         -2   -1    0    0    0  501 -0.00000000000E+00  0.00000000000E+00  0.41176047713E+03  0.41176047713E+03  0.00000000000E+00 0.  1.
          1   -1    0    0  501    0  0.00000000000E+00 -0.00000000000E+00 -0.39229444198E+04  0.39229444198E+04  0.00000000000E+00 0. -1.
        -24    2    1    2    0    0 -0.55100887661E+02 -0.81963741666E+03 -0.28100406087E+04  0.29285157398E+04  0.70955007670E+02 0.  0.
        254    2    1    2    0    0  0.55100887661E+02  0.81963741666E+03 -0.70114333392E+03  0.14061891571E+04  0.90051339144E+03 0.  0.
         23    2    4    4    0    0  0.11833526975E+03  0.58992862251E+03  0.52055761586E+02  0.61078415258E+03  0.91260413130E+02 0.  0.
         23    2    4    4    0    0 -0.63234382085E+02  0.22970879415E+03 -0.75319909551E+03  0.79540500450E+03  0.92712062405E+02 0.  0.
          1    1    3    3  502    0 -0.52228529480E+02 -0.68704032198E+03 -0.22593046273E+04  0.23620350595E+04  0.00000000000E+00 0. -1.
         -2    1    3    3    0  502 -0.28723581810E+01 -0.13259709468E+03 -0.55073598137E+03  0.56648068028E+03  0.00000000000E+00 0.  1.
         11    1    5    5    0    0  0.49177376864E+02  0.24772439683E+03 -0.23269210749E+02  0.25362816750E+03  0.00000000000E+00 0. -1.
        -11    1    5    5    0    0  0.69157892882E+02  0.34220422568E+03  0.75324972335E+02  0.35715598508E+03  0.00000000000E+00 0.  1.
          2    1    6    6  503    0 -0.25766826875E+02  0.54317174557E+01 -0.52489113729E+02  0.58724270806E+02  0.00000000000E+00 0. -1.
         -2    1    6    6    0  503 -0.37467555210E+02  0.22427707669E+03 -0.70070998178E+03  0.73668073369E+03  0.00000000000E+00 0.  1.
<mgrwt>
<rscale>  0 0.25418997E+04</rscale>
<asrwt>0</asrwt>
<pdfrwt beam="1">  1        1 0.60352992E+00 0.25418997E+04</pdfrwt>
<pdfrwt beam="2">  1       -2 0.63347765E-01 0.25418997E+04</pdfrwt>
<totfact> 0.20155577E-01</totfact>
</mgrwt>
</event>
<event>
12    4  0.4424320E-008  0.1238277E+04  0.7818608E-02  0.9079997E-01
         -2   -1    0    0    0  501 -0.00000000000E+00  0.00000000000E+00  0.12605730172E+03  0.12605730172E+03  0.00000000000E+00 0.  1.
          1   -1    0    0  501    0  0.00000000000E+00 -0.00000000000E+00 -0.30409393207E+04  0.30409393207E+04  0.00000000000E+00 0. -1.
        -24    2    1    2    0    0  0.25813719553E+03  0.42287336749E+02 -0.10162384283E+04  0.10522797882E+04  0.78289072501E+02 0.  0.
        254    2    1    2    0    0 -0.25813719553E+03 -0.42287336749E+02 -0.18986435907E+04  0.21147168343E+04  0.89373193634E+03 0.  0.
         23    2    4    4    0    0  0.52790381293E+02 -0.32968179179E+03 -0.14532901951E+04  0.14939626290E+04  0.91624437364E+02 0.  0.
         23    2    4    4    0    0 -0.31092757682E+03  0.28739445504E+03 -0.44535339560E+03  0.62075420525E+03  0.87889735128E+02 0.  0.
          3    1    3    3  502    0  0.26329582943E+03  0.40912833222E+02 -0.97713394453E+03  0.10128125687E+04  0.00000000000E+00 0. -1.
         -4    1    3    3    0  502 -0.51586338992E+01  0.13745035268E+01 -0.39104483762E+02  0.39467219486E+02  0.00000000000E+00 0.  1.
         11    1    5    5    0    0  0.70643186905E+02 -0.31580908211E+03 -0.13597506110E+04  0.13977294303E+04  0.00000000000E+00 0.  1.
        -11    1    5    5    0    0 -0.17852805612E+02 -0.13872709685E+02 -0.93539584093E+02  0.96233198713E+02  0.00000000000E+00 0. -1.
          2    1    6    6  503    0 -0.17140967686E+03  0.99881276009E+02 -0.21639534989E+03  0.29357195723E+03  0.00000000000E+00 0. -1.
         -2    1    6    6    0  503 -0.13951789997E+03  0.18751317904E+03 -0.22895804571E+03  0.32718224802E+03  0.00000000000E+00 0.  1.
<mgrwt>
<rscale>  0 0.12382772E+04</rscale>
<asrwt>0</asrwt>
<pdfrwt beam="1">  1        1 0.46783679E+00 0.12382772E+04</pdfrwt>
<pdfrwt beam="2">  1       -2 0.19393432E-01 0.12382772E+04</pdfrwt>
<totfact> 0.11044651E+01</totfact>
</mgrwt>
</event>
<event>
12    4  0.4424320E-008  0.1595187E+04  0.7818608E-02  0.8823510E-01
          1   -1    0    0  501    0  0.00000000000E+00  0.00000000000E+00  0.41153931729E+03  0.41153931729E+03  0.00000000000E+00 0. -1.
         -2   -1    0    0    0  501 -0.00000000000E+00 -0.00000000000E+00 -0.15457942633E+04  0.15457942633E+04  0.00000000000E+00 0.  1.
        -24    2    1    2    0    0  0.36443540212E+03 -0.41930756846E+02 -0.87424103010E+03  0.95154951617E+03  0.81103343482E+02 0.  0.
        254    2    1    2    0    0 -0.36443540212E+03  0.41930756846E+02 -0.26001391592E+03  0.10057840644E+04  0.89967938573E+03 0.  0.
         23    2    4    4    0    0  0.59307726025E+02  0.39721553455E+03 -0.99324936732E+02  0.42358043155E+03  0.90869971302E+02 0.  0.
         23    2    4    4    0    0 -0.42374312815E+03 -0.35528477770E+03 -0.16068897919E+03  0.58220363289E+03  0.85759023976E+02 0.  0.
          1    1    3    3  502    0  0.50231673463E+02 -0.35338311715E+02 -0.14530218493E+03  0.15774898490E+03  0.00000000000E+00 0. -1.
         -2    1    3    3    0  502  0.31420372866E+03 -0.65924451311E+01 -0.72893884517E+03  0.79380053127E+03  0.00000000000E+00 0.  1.
         11    1    5    5    0    0  0.12727934325E+02  0.32181718390E+03 -0.65141763534E+02  0.32859054996E+03  0.00000000000E+00 0.  1.
        -11    1    5    5    0    0  0.46579791700E+02  0.75398350646E+02 -0.34183173197E+02  0.94989881592E+02  0.00000000000E+00 0. -1.
          3    1    6    6  503    0 -0.10604450496E+02 -0.33422081272E+02 -0.26637391989E+01  0.35165116144E+02  0.00000000000E+00 0. -1.
         -3    1    6    6    0  503 -0.41313867765E+03 -0.32186269643E+03 -0.15802523999E+03  0.54703851674E+03  0.00000000000E+00 0.  1.
<mgrwt>
<rscale>  0 0.15951867E+04</rscale>
<asrwt>0</asrwt>
<pdfrwt beam="1">  1        1 0.63313742E-01 0.15951867E+04</pdfrwt>
<pdfrwt beam="2">  1       -2 0.23781450E+00 0.15951867E+04</pdfrwt>
<totfact> 0.37039456E+00</totfact>
</mgrwt>
</event>
<event>
12    4  0.4424320E-008  0.2142507E+04  0.7818608E-02  0.8542746E-01
          1   -1    0    0  501    0  0.00000000000E+00  0.00000000000E+00  0.15172647130E+04  0.15172647130E+04  0.00000000000E+00 0. -1.
         -2   -1    0    0    0  501 -0.00000000000E+00 -0.00000000000E+00 -0.75635063510E+03  0.75635063510E+03  0.00000000000E+00 0.  1.
        -24    2    1    2    0    0 -0.62669604747E+03  0.58143305041E+03  0.53800724710E+02  0.86017062197E+03  0.78655278862E+02 0.  0.
        254    2    1    2    0    0  0.62669604747E+03 -0.58143305041E+03  0.70711335315E+03  0.14134447261E+04  0.87578785758E+03 0.  0.
         23    2    4    4    0    0  0.16231149073E+03 -0.68527891311E+03  0.56920810898E+03  0.91000628645E+03  0.90340252772E+02 0.  0.
         23    2    4    4    0    0  0.46438455674E+03  0.10384586270E+03  0.13790524417E+03  0.50343843964E+03  0.89417148253E+02 0.  0.
          1    1    3    3  502    0 -0.22454192048E+03  0.21301255692E+03  0.57270564581E+02  0.31475917941E+03  0.00000000000E+00 0. -1.
         -2    1    3    3    0  502 -0.40215412699E+03  0.36842049349E+03 -0.34698398707E+01  0.54541144256E+03  0.00000000000E+00 0.  1.
         11    1    5    5    0    0  0.15512408395E+03 -0.60914375785E+03  0.47064850258E+03  0.78525767244E+03  0.00000000000E+00 0.  1.
        -11    1    5    5    0    0  0.71874067807E+01 -0.76135155259E+02  0.98559606399E+02  0.12474861400E+03  0.00000000000E+00 0. -1.
          1    1    6    6  503    0  0.95353384194E+02 -0.11291700296E+02  0.11420417211E+02  0.96696413078E+02  0.00000000000E+00 0. -1.
         -1    1    6    6    0  503  0.36903117255E+03  0.11513756299E+03  0.12648482696E+03  0.40674202656E+03  0.00000000000E+00 0.  1.
<mgrwt>
<rscale>  0 0.21425071E+04</rscale>
<asrwt>0</asrwt>
<pdfrwt beam="1">  1        1 0.23342534E+00 0.21425071E+04</pdfrwt>
<pdfrwt beam="2">  1       -2 0.11636164E+00 0.21425071E+04</pdfrwt>
<totfact> 0.29327704E+00</totfact>
</mgrwt>
</event>
<event>
12    4  0.4424320E-008  0.1119852E+04  0.7818608E-02  0.9186056E-01
          1   -1    0    0  501    0  0.00000000000E+00  0.00000000000E+00  0.60381689913E+03  0.60381689913E+03  0.00000000000E+00 0. -1.
         -2   -1    0    0    0  501 -0.00000000000E+00 -0.00000000000E+00 -0.51922508289E+03  0.51922508289E+03  0.00000000000E+00 0.  1.
        -24    2    1    2    0    0  0.37377564868E+02  0.43361990028E+02  0.15504332060E+03  0.18369724682E+03  0.80180438342E+02 0.  0.
        254    2    1    2    0    0 -0.37377564868E+02 -0.43361990028E+02 -0.70451504353E+02  0.93934473520E+03  0.93494800526E+03 0.  0.
         23    2    4    4    0    0  0.15394962846E+03 -0.16964527136E+03 -0.43447176129E+03  0.49977321860E+03  0.92344747925E+02 0.  0.
         23    2    4    4    0    0 -0.19132719333E+03  0.12628328133E+03  0.36402025694E+03  0.43957151660E+03  0.90326124069E+02 0.  0.
          1    1    3    3  502    0 -0.28180995943E+01  0.84935997495E+01  0.11920883013E+03  0.11954425165E+03  0.00000000000E+00 0. -1.
         -2    1    3    3    0  502  0.40195664462E+02  0.34868390278E+02  0.35834490471E+02  0.64152995171E+02  0.00000000000E+00 0.  1.
         11    1    5    5    0    0  0.10248785132E+03 -0.16617431994E+03 -0.35127131726E+03  0.40188207550E+03  0.00000000000E+00 0. -1.
        -11    1    5    5    0    0  0.51461777147E+02 -0.34709514189E+01 -0.83200444031E+02  0.97891143102E+02  0.00000000000E+00 0.  1.
          4    1    6    6  503    0 -0.13975699210E+03  0.41208543437E+02  0.19463072267E+03  0.24312811252E+03  0.00000000000E+00 0.  1.
         -4    1    6    6    0  503 -0.51570201227E+02  0.85074737891E+02  0.16938953428E+03  0.19644340407E+03  0.00000000000E+00 0. -1.
<mgrwt>
<rscale>  0 0.11198516E+04</rscale>
<asrwt>0</asrwt>
<pdfrwt beam="1">  1        1 0.92894908E-01 0.11198516E+04</pdfrwt>
<pdfrwt beam="2">  1       -2 0.79880782E-01 0.11198516E+04</pdfrwt>
<totfact> 0.41012011E+01</totfact>
</mgrwt>
</event>
<event>
12    4  0.4424320E-008  0.1678575E+04  0.7818608E-02  0.8773679E-01
         -2   -1    0    0    0  501 -0.00000000000E+00  0.00000000000E+00  0.91300573086E+03  0.91300573086E+03  0.00000000000E+00 0.  1.
          1   -1    0    0  501    0  0.00000000000E+00 -0.00000000000E+00 -0.77152175679E+03  0.77152175679E+03  0.00000000000E+00 0. -1.
        -24    2    1    2    0    0  0.22407447664E+03  0.20455901417E+03 -0.46346498673E+03  0.55960147304E+03  0.79374135215E+02 0.  0.
        254    2    1    2    0    0 -0.22407447664E+03 -0.20455901417E+03  0.60494896080E+03  0.11249260146E+04  0.89857750463E+03 0.  0.
         23    2    4    4    0    0 -0.45415274220E+03  0.15931043234E+03  0.42907418927E+03  0.65093369045E+03  0.89305556160E+02 0.  0.
         23    2    4    4    0    0  0.23007826557E+03 -0.36386944651E+03  0.17587477154E+03  0.47399232417E+03  0.91650454019E+02 0.  0.
          1    1    3    3  502    0  0.19929365781E+03  0.16915187756E+03 -0.43612023471E+03  0.50845961378E+03  0.00000000000E+00 0. -1.
         -2    1    3    3    0  502  0.24780818832E+02  0.35407136615E+02 -0.27344752023E+02  0.51141859259E+02  0.00000000000E+00 0.  1.
         11    1    5    5    0    0 -0.46966396909E+02  0.16628964308E+02  0.87264340305E+02  0.10048596908E+03  0.00000000000E+00 0.  1.
        -11    1    5    5    0    0 -0.40718634529E+03  0.14268146803E+03  0.34180984896E+03  0.55044772137E+03  0.00000000000E+00 0. -1.
          2    1    6    6  503    0  0.11076718148E+03 -0.13158686296E+03  0.29125577655E+02  0.17444990762E+03  0.00000000000E+00 0. -1.
         -2    1    6    6    0  503  0.11931108409E+03 -0.23228258355E+03  0.14674919388E+03  0.29954241655E+03  0.00000000000E+00 0.  1.
<mgrwt>
<rscale>  0 0.16785753E+04</rscale>
<asrwt>0</asrwt>
<pdfrwt beam="1">  1        1 0.11869566E+00 0.16785753E+04</pdfrwt>
<pdfrwt beam="2">  1       -2 0.14046242E+00 0.16785753E+04</pdfrwt>
<totfact> 0.69631009E+00</totfact>
</mgrwt>
</event>
<event>
12    4  0.4424320E-008  0.1812791E+04  0.7818608E-02  0.8699527E-01
          1   -1    0    0  501    0  0.00000000000E+00  0.00000000000E+00  0.37529396980E+04  0.37529396980E+04  0.00000000000E+00 0. -1.
         -2   -1    0    0    0  501 -0.00000000000E+00 -0.00000000000E+00 -0.21890925038E+03  0.21890925038E+03  0.00000000000E+00 0.  1.
        -24    2    1    2    0    0 -0.61066409216E+03 -0.19699967063E+03  0.17201536523E+04  0.18376415147E+04  0.79235381079E+02 0.  0.
        254    2    1    2    0    0  0.61066409216E+03  0.19699967063E+03  0.18138767953E+04  0.21342074336E+04  0.92356528595E+03 0.  0.
         23    2    4    4    0    0  0.10725410557E+03 -0.27245362567E+03  0.17284137030E+03  0.35213874016E+03  0.91614036750E+02 0.  0.
         23    2    4    4    0    0  0.50340998659E+03  0.46945329630E+03  0.16410354250E+04  0.17820686935E+04  0.94676026563E+02 0.  0.
          3    1    3    3  502    0 -0.51500205901E+03 -0.14116313155E+03  0.14728417210E+04  0.15666578713E+04  0.00000000000E+00 0. -1.
         -4    1    3    3    0  502 -0.95662033143E+02 -0.55836539077E+02  0.24731193127E+03  0.27098364347E+03  0.00000000000E+00 0.  1.
         11    1    5    5    0    0 -0.13773634485E+02 -0.18898565355E+02  0.26532550934E+02  0.35367287689E+02  0.00000000000E+00 0. -1.
        -11    1    5    5    0    0  0.12102774005E+03 -0.25355506032E+03  0.14630881937E+03  0.31677145247E+03  0.00000000000E+00 0.  1.
          3    1    6    6  503    0  0.61787269780E+02  0.24256423208E+02  0.19256089185E+03  0.20368047978E+03  0.00000000000E+00 0. -1.
         -3    1    6    6    0  503  0.44162271681E+03  0.44519687310E+03  0.14484745332E+04  0.15783882137E+04  0.00000000000E+00 0.  1.
<mgrwt>
<rscale>  0 0.18127915E+04</rscale>
<asrwt>0</asrwt>
<pdfrwt beam="1">  1        1 0.57737529E+00 0.18127915E+04</pdfrwt>
<pdfrwt beam="2">  1       -2 0.33678349E-01 0.18127915E+04</pdfrwt>
<totfact> 0.10743861E+00</totfact>
</mgrwt>
</event>
<event>
12    4  0.4424320E-008  0.1586446E+04  0.7818608E-02  0.8828918E-01
          1   -1    0    0  501    0  0.00000000000E+00  0.00000000000E+00  0.27507631201E+04  0.27507631201E+04  0.00000000000E+00 0. -1.
         -4   -1    0    0    0  501 -0.00000000000E+00 -0.00000000000E+00 -0.22873763991E+03  0.22873763991E+03  0.00000000000E+00 0.  1.
        -24    2    1    2    0    0 -0.17662935902E+03  0.44838651329E+03  0.42114760234E+03  0.64497180287E+03  0.79843144812E+02 0.  0.
        254    2    1    2    0    0  0.17662935902E+03 -0.44838651329E+03  0.21008778778E+04  0.23345289571E+04  0.89671020866E+03 0.  0.
         23    2    4    4    0    0 -0.25504868430E+02 -0.52904353065E+03  0.56168582728E+03  0.77733413467E+03  0.90663293078E+02 0.  0.
         23    2    4    4    0    0  0.20213422745E+03  0.80657017367E+02  0.15391920505E+04  0.15571948224E+04  0.91540953925E+02 0.  0.
          1    1    3    3  502    0 -0.96537326088E+00  0.69684656609E+00  0.16273397505E+02  0.16316893302E+02  0.00000000000E+00 0. -1.
         -2    1    3    3    0  502 -0.17566398576E+03  0.44768966672E+03  0.40487420483E+03  0.62865490957E+03  0.00000000000E+00 0.  1.
         11    1    5    5    0    0 -0.54459312013E+02 -0.29295166217E+03  0.28304279349E+03  0.41097410622E+03  0.00000000000E+00 0.  1.
        -11    1    5    5    0    0  0.28954443583E+02 -0.23609186848E+03  0.27864303380E+03  0.36636002846E+03  0.00000000000E+00 0. -1.
          4    1    6    6  503    0  0.92565257540E+02  0.73385350664E+02  0.99862437626E+03  0.10055865858E+04  0.00000000000E+00 0. -1.
         -4    1    6    6    0  503  0.10956896991E+03  0.72716667031E+01  0.54056767428E+03  0.55160823668E+03  0.00000000000E+00 0.  1.
<mgrwt>
<rscale>  0 0.15864464E+04</rscale>
<asrwt>0</asrwt>
<pdfrwt beam="1">  1        1 0.42319430E+00 0.15864464E+04</pdfrwt>
<pdfrwt beam="2">  1       -4 0.35190408E-01 0.15864464E+04</pdfrwt>
<totfact> 0.34180956E+00</totfact>
</mgrwt>
</event>
<event>
12    4  0.4424320E-008  0.2005523E+04  0.7818608E-02  0.8604043E-01
          1   -1    0    0  501    0  0.00000000000E+00  0.00000000000E+00  0.24389541684E+04  0.24389541684E+04  0.00000000000E+00 0. -1.
         -2   -1    0    0    0  501 -0.00000000000E+00 -0.00000000000E+00 -0.41227949697E+03  0.41227949697E+03  0.00000000000E+00 0.  1.
        -24    2    1    2    0    0 -0.34020459739E+03  0.10356055669E+03 -0.20410694284E+03  0.41789447728E+03  0.80698160057E+02 0.  0.
        254    2    1    2    0    0  0.34020459739E+03 -0.10356055669E+03  0.22307816142E+04  0.24333391881E+04  0.90459329911E+03 0.  0.
         23    2    4    4    0    0  0.59238688202E+03 -0.15648578610E+03  0.10318735733E+04  0.12034554198E+04  0.90176808734E+02 0.  0.
         23    2    4    4    0    0 -0.25218228463E+03  0.52925229408E+02  0.11989080409E+04  0.12298837683E+04  0.94003235818E+02 0.  0.
          3    1    3    3  502    0 -0.70941857291E+01 -0.91268470346E+01 -0.54757748243E+00  0.11572668191E+02  0.00000000000E+00 0. -1.
         -4    1    3    3    0  502 -0.33311041166E+03  0.11268740373E+03 -0.20355936536E+03  0.40632180908E+03  0.00000000000E+00 0.  1.
         11    1    5    5    0    0  0.10707449947E+02 -0.14472766282E+02  0.53004786069E+02  0.55978726267E+02  0.00000000000E+00 0.  1.
        -11    1    5    5    0    0  0.58167943208E+03 -0.14201301982E+03  0.97886878727E+03  0.11474766935E+04  0.00000000000E+00 0. -1.
          4    1    6    6  503    0 -0.15702551141E+03  0.32090097519E+02  0.93362426586E+03  0.94728087461E+03  0.00000000000E+00 0. -1.
         -4    1    6    6    0  503 -0.95156773226E+02  0.20835131889E+02  0.26528377505E+03  0.28260289368E+03  0.00000000000E+00 0.  1.
<mgrwt>
<rscale>  0 0.20055232E+04</rscale>
<asrwt>0</asrwt>
<pdfrwt beam="1">  1        1 0.37522371E+00 0.20055232E+04</pdfrwt>
<pdfrwt beam="2">  1       -2 0.63427617E-01 0.20055232E+04</pdfrwt>
<totfact> 0.27998024E+00</totfact>
</mgrwt>
</event>
<event>
12    4  0.4424320E-008  0.1379170E+04  0.7818608E-02  0.8969036E-01
         -2   -1    0    0    0  501 -0.00000000000E+00  0.00000000000E+00  0.37980909869E+03  0.37980909869E+03  0.00000000000E+00 0.  1.
          1   -1    0    0  501    0  0.00000000000E+00 -0.00000000000E+00 -0.12520178191E+04  0.12520178191E+04  0.00000000000E+00 0. -1.
        -24    2    1    2    0    0 -0.17417193644E+03 -0.23632206254E+03  0.48069518509E+02  0.30774509220E+03  0.78818668326E+02 0.  0.
        254    2    1    2    0    0  0.17417193644E+03  0.23632206254E+03 -0.92027823893E+03  0.13240818256E+04  0.90559188553E+03 0.  0.
         23    2    4    4    0    0  0.39786584669E+03 -0.16596455494E+03 -0.25046257686E+03  0.50598101265E+03  0.86277559648E+02 0.  0.
         23    2    4    4    0    0 -0.22369391025E+03  0.40228661749E+03 -0.66981566207E+03  0.81810081294E+03  0.93607857046E+02 0.  0.
          1    1    3    3  502    0 -0.41535195155E+02 -0.86507256210E+02 -0.16755695966E+02  0.97413711359E+02  0.00000000000E+00 0. -1.
         -2    1    3    3    0  502 -0.13263674128E+03 -0.14981480633E+03  0.64825214475E+02  0.21033138084E+03  0.00000000000E+00 0.  1.
         11    1    5    5    0    0  0.57777383846E+02 -0.49325945335E+02 -0.71685984210E+02  0.10445168883E+03  0.00000000000E+00 0. -1.
        -11    1    5    5    0    0  0.34008846284E+03 -0.11663860961E+03 -0.17877659265E+03  0.40152932382E+03  0.00000000000E+00 0.  1.
          2    1    6    6  503    0 -0.31505944377E+02  0.34489282900E+02 -0.12354434057E+03  0.13208080577E+03  0.00000000000E+00 0. -1.
         -2    1    6    6    0  503 -0.19218796587E+03  0.36779733459E+03 -0.54627132150E+03  0.68602000718E+03  0.00000000000E+00 0.  1.
<mgrwt>
<rscale>  0 0.13791704E+04</rscale>
<asrwt>0</asrwt>
<pdfrwt beam="1">  1        1 0.19261813E+00 0.13791704E+04</pdfrwt>
<pdfrwt beam="2">  1       -2 0.58432169E-01 0.13791704E+04</pdfrwt>
<totfact> 0.22977645E+01</totfact>
</mgrwt>
</event>
<event>
12    4  0.4424320E-008  0.1226192E+04  0.7818608E-02  0.9090235E-01
          1   -1    0    0  501    0  0.00000000000E+00  0.00000000000E+00  0.11950761929E+04  0.11950761929E+04  0.00000000000E+00 0. -1.
         -2   -1    0    0    0  501 -0.00000000000E+00 -0.00000000000E+00 -0.31452925985E+03  0.31452925985E+03  0.00000000000E+00 0.  1.
        -24    2    1    2    0    0 -0.12504121240E+02  0.16369596029E+03  0.41990887158E+03  0.45749953481E+03  0.77650778843E+02 0.  0.
        254    2    1    2    0    0  0.12504121240E+02 -0.16369596029E+03  0.46063806148E+03  0.10521059180E+04  0.93155070633E+03 0.  0.
         23    2    4    4    0    0 -0.34876334694E+03 -0.36407080061E+03  0.17451472014E+03  0.54139289171E+03  0.92018778638E+02 0.  0.
         23    2    4    4    0    0  0.36126746818E+03  0.20037484032E+03  0.28612334134E+03  0.51071302625E+03  0.91087696858E+02 0.  0.
          3    1    3    3  502    0  0.18793414811E+02  0.13831434390E+03  0.29727815537E+03  0.32841795297E+03  0.00000000000E+00 0. -1.
         -4    1    3    3    0  502 -0.31297536051E+02  0.25381616391E+02  0.12263071620E+03  0.12908158184E+03  0.00000000000E+00 0.  1.
         11    1    5    5    0    0 -0.27896876442E+03 -0.26520581111E+03  0.94593855962E+02  0.39636560315E+03  0.00000000000E+00 0. -1.
        -11    1    5    5    0    0 -0.69794582520E+02 -0.98864989495E+02  0.79920864179E+02  0.14502728856E+03  0.00000000000E+00 0.  1.
          1    1    6    6  503    0  0.22314739830E+03  0.78811239082E+02  0.18763795359E+03  0.30201651346E+03  0.00000000000E+00 0. -1.
         -1    1    6    6    0  503  0.13812006988E+03  0.12156360124E+03  0.98485387749E+02  0.20869651279E+03  0.00000000000E+00 0.  1.
<mgrwt>
<rscale>  0 0.12261916E+04</rscale>
<asrwt>0</asrwt>
<pdfrwt beam="1">  1        1 0.18385787E+00 0.12261916E+04</pdfrwt>
<pdfrwt beam="2">  1       -2 0.48389117E-01 0.12261916E+04</pdfrwt>
<totfact> 0.37757576E+01</totfact>
</mgrwt>
</event>
<event>
12    4  0.4424320E-008  0.3480294E+04  0.7818608E-02  0.8118476E-01
         -2   -1    0    0    0  501 -0.00000000000E+00  0.00000000000E+00  0.13828034013E+04  0.13828034013E+04  0.00000000000E+00 0.  1.
          1   -1    0    0  501    0  0.00000000000E+00 -0.00000000000E+00 -0.21898356932E+04  0.21898356932E+04  0.00000000000E+00 0. -1.
        -24    2    1    2    0    0  0.14209885671E+04  0.72841272207E+03 -0.67827740020E+03  0.17365505065E+04  0.75853993313E+02 0.  0.
        254    2    1    2    0    0 -0.14209885671E+04 -0.72841272207E+03 -0.12875489172E+03  0.18360885880E+04  0.89713425921E+03 0.  0.
         23    2    4    4    0    0 -0.10208916163E+04 -0.43925667495E+03 -0.48958290158E+03  0.12179219681E+04  0.92067281353E+02 0.  0.
         23    2    4    4    0    0 -0.40009695087E+03 -0.28915604712E+03  0.36082800986E+03  0.61816661982E+03  0.90798279029E+02 0.  0.
          1    1    3    3  502    0  0.13471042291E+04  0.67610630616E+03 -0.65249747413E+03  0.16424257959E+04  0.00000000000E+00 0. -1.
         -2    1    3    3    0  502  0.73884338055E+02  0.52306415911E+02 -0.25779926070E+02  0.94124710589E+02  0.00000000000E+00 0.  1.
         11    1    5    5    0    0 -0.70695913576E+03 -0.34797427200E+03 -0.35871896665E+03  0.86576937498E+03  0.00000000000E+00 0. -1.
        -11    1    5    5    0    0 -0.31393248050E+03 -0.91282402951E+02 -0.13086393493E+03  0.35215259316E+03  0.00000000000E+00 0.  1.
          1    1    6    6  503    0 -0.25792538888E+03 -0.22387960958E+03  0.28240011061E+03  0.44316747206E+03  0.00000000000E+00 0. -1.
         -1    1    6    6    0  503 -0.14217156199E+03 -0.65276437544E+02  0.78427899245E+02  0.17499914776E+03  0.00000000000E+00 0.  1.
<mgrwt>
<rscale>  0 0.34802944E+04</rscale>
<asrwt>0</asrwt>
<pdfrwt beam="1">  1        1 0.33689780E+00 0.34802944E+04</pdfrwt>
<pdfrwt beam="2">  1       -2 0.21273899E+00 0.34802944E+04</pdfrwt>
<totfact> 0.17494201E-01</totfact>
</mgrwt>
</event>
<event>
12    4  0.4424320E-008  0.1451107E+04  0.7818608E-02  0.8917633E-01
         -4   -1    0    0    0  501 -0.00000000000E+00  0.00000000000E+00  0.50846922865E+03  0.50846922865E+03  0.00000000000E+00 0.  1.
          3   -1    0    0  501    0  0.00000000000E+00 -0.00000000000E+00 -0.10353196420E+04  0.10353196420E+04  0.00000000000E+00 0. -1.
        -24    2    1    2    0    0  0.72589886557E+02  0.18508376755E+03 -0.57221819894E+03  0.61088297905E+03  0.78860980514E+02 0.  0.
        254    2    1    2    0    0 -0.72589886557E+02 -0.18508376755E+03  0.45367785550E+02  0.93290589165E+03  0.91034601887E+03 0.  0.
         23    2    4    4    0    0 -0.11375947470E+03 -0.49401353470E+03  0.22554797542E+03  0.56218699273E+03  0.90508204186E+02 0.  0.
         23    2    4    4    0    0  0.41169588143E+02  0.30892976715E+03 -0.18018018987E+03  0.37071889892E+03  0.88515903522E+02 0.  0.
          3    1    3    3  502    0  0.80943428754E+02  0.18104382325E+03 -0.49716863366E+03  0.53526194979E+03  0.00000000000E+00 0. -1.
         -4    1    3    3    0  502 -0.83535421971E+01  0.40399443009E+01 -0.75049565278E+02  0.75621029255E+02  0.00000000000E+00 0.  1.
         11    1    5    5    0    0 -0.13536413924E+01 -0.17141314503E+03  0.98510783138E+02  0.19770855578E+03  0.00000000000E+00 0. -1.
        -11    1    5    5    0    0 -0.11240583331E+03 -0.32260038968E+03  0.12703719228E+03  0.36447843696E+03  0.00000000000E+00 0.  1.
          1    1    6    6  503    0 -0.21526817981E+02  0.30737808786E+02 -0.32163698766E+02  0.49423883899E+02  0.00000000000E+00 0. -1.
         -1    1    6    6    0  503  0.62696406124E+02  0.27819195836E+03 -0.14801649111E+03  0.32129501502E+03  0.00000000000E+00 0.  1.
<mgrwt>
<rscale>  0 0.14511074E+04</rscale>
<asrwt>0</asrwt>
<pdfrwt beam="1">  1        3 0.15927994E+00 0.14511074E+04</pdfrwt>
<pdfrwt beam="2">  1       -4 0.78226036E-01 0.14511074E+04</pdfrwt>
<totfact> 0.89676489E-01</totfact>
</mgrwt>
</event>
<event>
12    4  0.4424320E-008  0.1394781E+04  0.7818608E-02  0.8957605E-01
          3   -1    0    0  501    0  0.00000000000E+00  0.00000000000E+00  0.48725026968E+03  0.48725026968E+03  0.00000000000E+00 0. -1.
         -4   -1    0    0    0  501 -0.00000000000E+00 -0.00000000000E+00 -0.99815917293E+03  0.99815917293E+03  0.00000000000E+00 0.  1.
        -24    2    1    2    0    0  0.86357360173E+02 -0.67338203437E+02  0.27710097228E+03  0.30836779664E+03  0.79458931936E+02 0.  0.
        254    2    1    2    0    0 -0.86357360173E+02  0.67338203437E+02 -0.78800987553E+03  0.11770416460E+04  0.86745342534E+03 0.  0.
         23    2    4    4    0    0  0.19326911084E+03 -0.32206105695E+03 -0.33703804620E+03  0.51282776443E+03  0.91221695758E+02 0.  0.
         23    2    4    4    0    0 -0.27962647101E+03  0.38939926038E+03 -0.45097182933E+03  0.66421388155E+03  0.89340597211E+02 0.  0.
          1    1    3    3  502    0  0.58616156529E+02 -0.84205688068E+02  0.20249998396E+03  0.22700813909E+03  0.00000000000E+00 0. -1.
         -2    1    3    3    0  502  0.27741203644E+02  0.16867484631E+02  0.74600988323E+02  0.81359657547E+02  0.00000000000E+00 0.  1.
         11    1    5    5    0    0 -0.69976886854E+01 -0.19850877089E+02 -0.60019936569E+01  0.21887185658E+02  0.00000000000E+00 0. -1.
        -11    1    5    5    0    0  0.20026679953E+03 -0.30221017986E+03 -0.33103605254E+03  0.49094057877E+03  0.00000000000E+00 0.  1.
          3    1    6    6  503    0 -0.56210980484E+02  0.96241078711E+02 -0.15810737297E+03  0.19344239697E+03  0.00000000000E+00 0. -1.
         -3    1    6    6    0  503 -0.22341549053E+03  0.29315818167E+03 -0.29286445637E+03  0.47077148458E+03  0.00000000000E+00 0.  1.
<mgrwt>
<rscale>  0 0.13947807E+04</rscale>
<asrwt>0</asrwt>
<pdfrwt beam="1">  1        3 0.74961581E-01 0.13947807E+04</pdfrwt>
<pdfrwt beam="2">  1       -4 0.15356295E+00 0.13947807E+04</pdfrwt>
<totfact> 0.10469393E+00</totfact>
</mgrwt>
</event>
<event>
12    4  0.4424320E-008  0.1351058E+04  0.7818608E-02  0.8990028E-01
          3   -1    0    0  501    0  0.00000000000E+00  0.00000000000E+00  0.65137638400E+03  0.65137638400E+03  0.00000000000E+00 0. -1.
         -4   -1    0    0    0  501 -0.00000000000E+00 -0.00000000000E+00 -0.70057667069E+03  0.70057667069E+03  0.00000000000E+00 0.  1.
        -24    2    1    2    0    0 -0.14308524371E+03 -0.34085996249E+03 -0.61749415135E+02  0.38395856895E+03  0.83380401809E+02 0.  0.
        254    2    1    2    0    0  0.14308524371E+03  0.34085996249E+03  0.12549128449E+02  0.96799448574E+03  0.89453727860E+03 0.  0.
         23    2    4    4    0    0  0.89402557241E+02  0.46485902210E+03  0.34857119196E+03  0.59485267841E+03  0.90890623754E+02 0.  0.
         23    2    4    4    0    0  0.53682686470E+02 -0.12399905960E+03 -0.33602206351E+03  0.37314180733E+03  0.89813048063E+02 0.  0.
          3    1    3    3  502    0  0.64923325725E+01 -0.47408361415E+01  0.57959985431E+01  0.99105755970E+01  0.00000000000E+00 0. -1.
         -4    1    3    3    0  502 -0.14957757628E+03 -0.33611912635E+03 -0.67545413678E+02  0.37404799336E+03  0.00000000000E+00 0.  1.
         11    1    5    5    0    0  0.58475684527E+02  0.15507040663E+03  0.81586184170E+02  0.18472287931E+03  0.00000000000E+00 0. -1.
        -11    1    5    5    0    0  0.30926872714E+02  0.30978861547E+03  0.26698500779E+03  0.41012979910E+03  0.00000000000E+00 0.  1.
          2    1    6    6  503    0  0.19393794570E+02 -0.90783875099E+02 -0.29796127173E+03  0.31208772916E+03  0.00000000000E+00 0. -1.
         -2    1    6    6    0  503  0.34288891900E+02 -0.33215184506E+02 -0.38060791783E+02  0.61054078165E+02  0.00000000000E+00 0.  1.
<mgrwt>
<rscale>  0 0.13510575E+04</rscale>
<asrwt>0</asrwt>
<pdfrwt beam="1">  1        3 0.10021175E+00 0.13510575E+04</pdfrwt>
<pdfrwt beam="2">  1       -4 0.10778103E+00 0.13510575E+04</pdfrwt>
<totfact> 0.13411658E+00</totfact>
</mgrwt>
</event>
<event>
12    4  0.4424320E-008  0.1464016E+04  0.7818608E-02  0.8908741E-01
         -2   -1    0    0    0  501 -0.00000000000E+00  0.00000000000E+00  0.29713580785E+03  0.29713580785E+03  0.00000000000E+00 0.  1.
          1   -1    0    0  501    0  0.00000000000E+00 -0.00000000000E+00 -0.18033360484E+04  0.18033360484E+04  0.00000000000E+00 0. -1.
        -24    2    1    2    0    0  0.15127242379E+03 -0.20219043599E+03 -0.99563512825E+03  0.10303692780E+04  0.81284819534E+02 0.  0.
        254    2    1    2    0    0 -0.15127242379E+03  0.20219043599E+03 -0.51056511227E+03  0.10701025782E+04  0.90591306172E+03 0.  0.
         23    2    4    4    0    0 -0.42597644962E+03 -0.71630496175E+02 -0.50577755728E+03  0.67138867519E+03  0.91460112158E+02 0.  0.
         23    2    4    4    0    0  0.27470402583E+03  0.27382093216E+03 -0.47875549929E+01  0.39871390301E+03  0.92247770030E+02 0.  0.
          1    1    3    3  502    0  0.96841665719E+02 -0.64963427966E+02 -0.48501107111E+03  0.49883293225E+03  0.00000000000E+00 0. -1.
         -4    1    3    3    0  502  0.54430758069E+02 -0.13722700802E+03 -0.51062405713E+03  0.53153634577E+03  0.00000000000E+00 0.  1.
         11    1    5    5    0    0 -0.30945882268E+03 -0.27768696491E+02 -0.40936906626E+03  0.51392499049E+03  0.00000000000E+00 0.  1.
        -11    1    5    5    0    0 -0.11651762694E+03 -0.43861799685E+02 -0.96408491014E+02  0.15746368470E+03  0.00000000000E+00 0. -1.
          3    1    6    6  503    0  0.35573018964E+02  0.12828719236E+02  0.21955163995E+02  0.43726936109E+02  0.00000000000E+00 0.  1.
         -3    1    6    6    0  503  0.23913100687E+03  0.26099221293E+03 -0.26742718988E+02  0.35498696690E+03  0.00000000000E+00 0. -1.
<mgrwt>
<rscale>  0 0.14640160E+04</rscale>
<asrwt>0</asrwt>
<pdfrwt beam="1">  1        1 0.27743631E+00 0.14640160E+04</pdfrwt>
<pdfrwt beam="2">  1       -2 0.45713202E-01 0.14640160E+04</pdfrwt>
<totfact> 0.15664929E+01</totfact>
</mgrwt>
</event>
<event>
12    4  0.4424320E-008  0.1089158E+04  0.7818608E-02  0.9215824E-01
         -4   -1    0    0    0  501 -0.00000000000E+00  0.00000000000E+00  0.42489890350E+03  0.42489890350E+03  0.00000000000E+00 0.  1.
          3   -1    0    0  501    0  0.00000000000E+00 -0.00000000000E+00 -0.69796919348E+03  0.69796919348E+03  0.00000000000E+00 0. -1.
        -24    2    1    2    0    0  0.43385492197E+02  0.20563795637E+03 -0.15966132212E+03  0.27580653327E+03  0.80051458335E+02 0.  0.
        254    2    1    2    0    0 -0.43385492197E+02 -0.20563795637E+03 -0.11340896786E+03  0.84706156371E+03  0.81270070056E+03 0.  0.
         23    2    4    4    0    0  0.37084006169E+03 -0.46496955320E+02 -0.15957861605E+02  0.38495274398E+03  0.90827548392E+02 0.  0.
         23    2    4    4    0    0 -0.41422555388E+03 -0.15914100105E+03 -0.97451106256E+02  0.46210881972E+03  0.84493641478E+02 0.  0.
          1    1    3    3  502    0  0.61871411602E+02  0.14254487429E+03 -0.13413810064E+03  0.20528064400E+03  0.00000000000E+00 0. -1.
         -2    1    3    3    0  502 -0.18485919405E+02  0.63093082076E+02 -0.25523221488E+02  0.70525889269E+02  0.00000000000E+00 0.  1.
         11    1    5    5    0    0  0.16699393445E+03 -0.45944957628E+02 -0.45248805852E+02  0.17901219988E+03  0.00000000000E+00 0.  1.
        -11    1    5    5    0    0  0.20384612723E+03 -0.55199769201E+00  0.29290944247E+02  0.20594054410E+03  0.00000000000E+00 0. -1.
          3    1    6    6  503    0 -0.30388373875E+03 -0.15490269404E+03 -0.79603231078E+02  0.35025254559E+03  0.00000000000E+00 0. -1.
         -3    1    6    6    0  503 -0.11034181514E+03 -0.42383070072E+01 -0.17847875179E+02  0.11185627413E+03  0.00000000000E+00 0.  1.
<mgrwt>
<rscale>  0 0.10891581E+04</rscale>
<asrwt>0</asrwt>
<pdfrwt beam="1">  1        3 0.10737987E+00 0.10891581E+04</pdfrwt>
<pdfrwt beam="2">  1       -4 0.65369063E-01 0.10891581E+04</pdfrwt>
<totfact> 0.36564451E+00</totfact>
</mgrwt>
</event>
<event>
12    4  0.4424320E-008  0.1320480E+04  0.7818608E-02  0.9013480E-01
         -2   -1    0    0    0  501 -0.00000000000E+00  0.00000000000E+00  0.21373671990E+03  0.21373671990E+03  0.00000000000E+00 0.  1.
          1   -1    0    0  501    0  0.00000000000E+00 -0.00000000000E+00 -0.20395045440E+04  0.20395045440E+04  0.00000000000E+00 0. -1.
        -24    2    1    2    0    0 -0.12445507153E+03  0.23879640522E+03 -0.13205887388E+03  0.31046410668E+03  0.80222362155E+02 0.  0.
        254    2    1    2    0    0  0.12445507153E+03 -0.23879640522E+03 -0.16937089503E+04  0.19427771573E+04  0.91280900885E+03 0.  0.
         23    2    4    4    0    0  0.14941886621E+03  0.32120760731E+03 -0.48649330182E+03  0.60874784609E+03  0.91639963094E+02 0.  0.
         23    2    4    4    0    0 -0.24963794685E+02 -0.56000401253E+03 -0.12072156484E+04  0.13340293112E+04  0.89648737485E+02 0.  0.
          1    1    3    3  502    0 -0.56156883238E+02  0.37209984316E+02 -0.41758942859E+02  0.79258991770E+02  0.00000000000E+00 0. -1.
         -2    1    3    3    0  502 -0.68298188289E+02  0.20158642091E+03 -0.90299931016E+02  0.23120511491E+03  0.00000000000E+00 0.  1.
         11    1    5    5    0    0  0.13060281777E+03  0.18736383806E+03 -0.33826818013E+03  0.40815152273E+03  0.00000000000E+00 0. -1.
        -11    1    5    5    0    0  0.18816048441E+02  0.13384376925E+03 -0.14822512169E+03  0.20059632336E+03  0.00000000000E+00 0.  1.
          2    1    6    6  503    0 -0.12650583758E+02 -0.45387441674E+03 -0.88699029340E+03  0.99645060291E+03  0.00000000000E+00 0. -1.
         -2    1    6    6    0  503 -0.12313210927E+02 -0.10612959579E+03 -0.32022535504E+03  0.33757870826E+03  0.00000000000E+00 0.  1.
<mgrwt>
<rscale>  0 0.13204802E+04</rscale>
<asrwt>0</asrwt>
<pdfrwt beam="1">  1        1 0.31376993E+00 0.13204802E+04</pdfrwt>
<pdfrwt beam="2">  1       -2 0.32882572E-01 0.13204802E+04</pdfrwt>
<totfact> 0.20846460E+01</totfact>
</mgrwt>
</event>
<event>
12    4  0.4424320E-008  0.1455769E+04  0.7818608E-02  0.8914410E-01
          1   -1    0    0  501    0  0.00000000000E+00  0.00000000000E+00  0.57615040542E+03  0.57615040542E+03  0.00000000000E+00 0. -1.
         -2   -1    0    0    0  501 -0.00000000000E+00 -0.00000000000E+00 -0.91957967470E+03  0.91957967470E+03  0.00000000000E+00 0.  1.
        -24    2    1    2    0    0  0.31873754033E+03  0.23639070491E+03  0.11625089022E+03  0.42118183101E+03  0.80035494060E+02 0.  0.
        254    2    1    2    0    0 -0.31873754033E+03 -0.23639070491E+03 -0.45968015950E+03  0.10745482491E+04  0.88649529364E+03 0.  0.
         23    2    4    4    0    0 -0.34055702281E+03 -0.19071762238E+03  0.17068949269E+03  0.43587217796E+03  0.92181100707E+02 0.  0.
         23    2    4    4    0    0  0.21819482477E+02 -0.45673082530E+02 -0.63036965220E+03  0.63867607116E+03  0.89325837127E+02 0.  0.
          3    1    3    3  502    0  0.18628188154E+03  0.92444267771E+02  0.43381345193E+02  0.21243545642E+03  0.00000000000E+00 0. -1.
         -4    1    3    3    0  502  0.13245565880E+03  0.14394643714E+03  0.72869545032E+02  0.20874637459E+03  0.00000000000E+00 0.  1.
         11    1    5    5    0    0 -0.18117601548E+03 -0.97767098594E+02  0.13966756168E+03  0.24877737425E+03  0.00000000000E+00 0.  1.
        -11    1    5    5    0    0 -0.15938100733E+03 -0.92950523788E+02  0.31021931012E+02  0.18709480371E+03  0.00000000000E+00 0. -1.
          1    1    6    6  503    0  0.44009999120E+02 -0.61312863896E+02 -0.45471563350E+03  0.46093649742E+03  0.00000000000E+00 0. -1.
         -1    1    6    6    0  503 -0.22190516643E+02  0.15639781366E+02 -0.17565401869E+03  0.17773957374E+03  0.00000000000E+00 0.  1.
<mgrwt>
<rscale>  0 0.14557695E+04</rscale>
<asrwt>0</asrwt>
<pdfrwt beam="1">  1        1 0.88638524E-01 0.14557695E+04</pdfrwt>
<pdfrwt beam="2">  1       -2 0.14147380E+00 0.14557695E+04</pdfrwt>
<totfact> 0.10772125E+01</totfact>
</mgrwt>
</event>
<event>
12    4  0.4424320E-008  0.1781543E+04  0.7818608E-02  0.8716177E-01
          1   -1    0    0  501    0  0.00000000000E+00  0.00000000000E+00  0.16971794000E+04  0.16971794000E+04  0.00000000000E+00 0. -1.
         -2   -1    0    0    0  501 -0.00000000000E+00 -0.00000000000E+00 -0.46752491571E+03  0.46752491571E+03  0.00000000000E+00 0.  1.
        -24    2    1    2    0    0  0.51620439819E+03  0.26496330512E+03  0.82794751413E+03  0.10143626149E+04  0.82230739921E+02 0.  0.
        254    2    1    2    0    0 -0.51620439819E+03 -0.26496330512E+03  0.40170697013E+03  0.11503417008E+04  0.90842996699E+03 0.  0.
         23    2    4    4    0    0  0.10477715647E+03 -0.22836910076E+03 -0.15639855867E+03  0.30950610976E+03  0.90569443644E+02 0.  0.
         23    2    4    4    0    0 -0.62098155466E+03 -0.36594204362E+02  0.55810552881E+03  0.84083559102E+03  0.92549893661E+02 0.  0.
          1    1    3    3  502    0  0.34962286864E+03  0.22113095476E+03  0.59287042244E+03  0.72293179985E+03  0.00000000000E+00 0. -1.
         -2    1    3    3    0  502  0.16658152955E+03  0.43832350360E+02  0.23507709169E+03  0.29143081505E+03  0.00000000000E+00 0.  1.
         11    1    5    5    0    0 -0.24521196666E+01 -0.56230876448E+01  0.98418112214E+01  0.11597122645E+02  0.00000000000E+00 0. -1.
        -11    1    5    5    0    0  0.10722927614E+03 -0.22274601311E+03 -0.16624036989E+03  0.29790898711E+03  0.00000000000E+00 0.  1.
          4    1    6    6  503    0 -0.43319677202E+03 -0.45509165777E+02  0.43818188089E+03  0.61784616872E+03  0.00000000000E+00 0.  1.
         -4    1    6    6    0  503 -0.18778478264E+03  0.89149614156E+01  0.11992364792E+03  0.22298942230E+03  0.00000000000E+00 0. -1.
<mgrwt>
<rscale>  0 0.17815428E+04</rscale>
<asrwt>0</asrwt>
<pdfrwt beam="1">  1        1 0.26110452E+00 0.17815428E+04</pdfrwt>
<pdfrwt beam="2">  1       -2 0.71926911E-01 0.17815428E+04</pdfrwt>
<totfact> 0.69555660E+00</totfact>
</mgrwt>
</event>
<event>
12    4  0.4424320E-008  0.1311471E+04  0.7818608E-02  0.9020518E-01
          1   -1    0    0  501    0  0.00000000000E+00  0.00000000000E+00  0.23618245860E+04  0.23618245860E+04  0.00000000000E+00 0. -1.
         -2   -1    0    0    0  501 -0.00000000000E+00 -0.00000000000E+00 -0.18205794802E+03  0.18205794802E+03  0.00000000000E+00 0.  1.
        -24    2    1    2    0    0  0.30160147716E+03  0.13430502513E+03  0.40576862935E+03  0.52924145915E+03  0.80293528480E+02 0.  0.
        254    2    1    2    0    0 -0.30160147716E+03 -0.13430502513E+03  0.17739980087E+04  0.20146410749E+04  0.89593997298E+03 0.  0.
         23    2    4    4    0    0 -0.14204336753E+03  0.29690829022E+03  0.25474106999E+03  0.42475160122E+03  0.84794215223E+02 0.  0.
         23    2    4    4    0    0 -0.15955810963E+03 -0.43121331535E+03  0.15192569387E+04  0.15898894737E+04  0.90571403766E+02 0.  0.
          1    1    3    3  502    0  0.18119074762E+03  0.56045206144E+02  0.28092398894E+03  0.33895344771E+03  0.00000000000E+00 0. -1.
         -2    1    3    3    0  502  0.12041072955E+03  0.78259818989E+02  0.12484464041E+03  0.19028801144E+03  0.00000000000E+00 0.  1.
         11    1    5    5    0    0 -0.14364444607E+03  0.25008135008E+03  0.24123278252E+03  0.37598891460E+03  0.00000000000E+00 0. -1.
        -11    1    5    5    0    0  0.16010785336E+01  0.46826940139E+02  0.13508287473E+02  0.48762686613E+02  0.00000000000E+00 0.  1.
          3    1    6    6  503    0 -0.55049561608E+02 -0.23966486197E+03  0.69423712786E+03  0.73650179226E+03  0.00000000000E+00 0. -1.
         -3    1    6    6    0  503 -0.10450854802E+03 -0.19154845339E+03  0.82501981080E+03  0.85338768144E+03  0.00000000000E+00 0.  1.
<mgrwt>
<rscale>  0 0.13114708E+04</rscale>
<asrwt>0</asrwt>
<pdfrwt beam="1">  1        1 0.36335761E+00 0.13114708E+04</pdfrwt>
<pdfrwt beam="2">  1       -2 0.28008917E-01 0.13114708E+04</pdfrwt>
<totfact> 0.17005800E+01</totfact>
</mgrwt>
</event>
<event>
12    4  0.4424320E-008  0.2655877E+04  0.7818608E-02  0.8349465E-01
         -2   -1    0    0    0  501 -0.00000000000E+00  0.00000000000E+00  0.15273919205E+04  0.15273919205E+04  0.00000000000E+00 0.  1.
          1   -1    0    0  501    0  0.00000000000E+00 -0.00000000000E+00 -0.11545301970E+04  0.11545301970E+04  0.00000000000E+00 0. -1.
        -24    2    1    2    0    0  0.47863063057E+03 -0.10061205371E+04  0.54144530050E+03  0.12413585913E+04  0.80264083632E+02 0.  0.
        254    2    1    2    0    0 -0.47863063057E+03  0.10061205371E+04 -0.16858357695E+03  0.14405635261E+04  0.89746143916E+03 0.  0.
         23    2    4    4    0    0 -0.22772456393E+03  0.50794201631E+02 -0.35125761390E+03  0.43207313153E+03  0.94163430973E+02 0.  0.
         23    2    4    4    0    0 -0.25090606664E+03  0.95532633545E+03  0.18267403695E+03  0.10084903946E+04  0.89893329911E+02 0.  0.
          3    1    3    3  502    0  0.25825176499E+03 -0.53156315117E+03  0.24291149574E+03  0.63895176075E+03  0.00000000000E+00 0. -1.
         -4    1    3    3    0  502  0.22037886557E+03 -0.47455738592E+03  0.29853380476E+03  0.60240683056E+03  0.00000000000E+00 0.  1.
         11    1    5    5    0    0 -0.17188389194E+03  0.78852122670E+02 -0.26292123720E+03  0.32386618615E+03  0.00000000000E+00 0. -1.
        -11    1    5    5    0    0 -0.55840671991E+02 -0.28057921038E+02 -0.88336376695E+02  0.10820694538E+03  0.00000000000E+00 0.  1.
          2    1    6    6  503    0 -0.10904909227E+03  0.51622190904E+03  0.13481124385E+03  0.54456481283E+03  0.00000000000E+00 0. -1.
         -2    1    6    6    0  503 -0.14185697437E+03  0.43910442641E+03  0.47862793093E+02  0.46392558178E+03  0.00000000000E+00 0.  1.
<mgrwt>
<rscale>  0 0.26558766E+04</rscale>
<asrwt>0</asrwt>
<pdfrwt beam="1">  1        1 0.17762003E+00 0.26558766E+04</pdfrwt>
<pdfrwt beam="2">  1       -2 0.23498337E+00 0.26558766E+04</pdfrwt>
<totfact> 0.70648407E-01</totfact>
</mgrwt>
</event>
<event>
12    4  0.4424320E-008  0.1521379E+04  0.7818608E-02  0.8870359E-01
          1   -1    0    0  501    0  0.00000000000E+00  0.00000000000E+00  0.15336244855E+04  0.15336244855E+04  0.00000000000E+00 0. -1.
         -2   -1    0    0    0  501 -0.00000000000E+00 -0.00000000000E+00 -0.37730778409E+03  0.37730778409E+03  0.00000000000E+00 0.  1.
        -24    2    1    2    0    0  0.15323858094E+03  0.10300368200E+02 -0.20581419627E+03  0.26913694886E+03  0.80542247170E+02 0.  0.
        254    2    1    2    0    0 -0.15323858094E+03 -0.10300368200E+02  0.13621308977E+04  0.16417953207E+04  0.90360562884E+03 0.  0.
         23    2    4    4    0    0 -0.15629963526E+03 -0.42298131326E+03  0.92893709517E+03  0.10366380209E+04  0.91386499293E+02 0.  0.
         23    2    4    4    0    0  0.30610543193E+01  0.41268094506E+03  0.43319380253E+03  0.60515729984E+03  0.90794022557E+02 0.  0.
          3    1    3    3  502    0  0.97701381054E+02 -0.81671026836E+00 -0.64978807961E+02  0.11733913396E+03  0.00000000000E+00 0. -1.
         -4    1    3    3    0  502  0.55537199882E+02  0.11117078469E+02 -0.14083538831E+03  0.15179781489E+03  0.00000000000E+00 0.  1.
         11    1    5    5    0    0 -0.13236294307E+03 -0.32343499626E+03  0.62701423998E+03  0.71782797566E+03  0.00000000000E+00 0. -1.
        -11    1    5    5    0    0 -0.23936692181E+02 -0.99546316996E+02  0.30192285520E+03  0.31881004525E+03  0.00000000000E+00 0.  1.
          3    1    6    6  503    0  0.12564738632E+02  0.46267244433E+02  0.95104678383E+02  0.10650554171E+03  0.00000000000E+00 0. -1.
         -3    1    6    6    0  503 -0.95036843131E+01  0.36641370063E+03  0.33808912415E+03  0.49865175813E+03  0.00000000000E+00 0.  1.
<mgrwt>
<rscale>  0 0.15213789E+04</rscale>
<asrwt>0</asrwt>
<pdfrwt beam="1">  1        1 0.23594223E+00 0.15213789E+04</pdfrwt>
<pdfrwt beam="2">  1       -2 0.58047352E-01 0.15213789E+04</pdfrwt>
<totfact> 0.14590939E+01</totfact>
</mgrwt>
</event>
<event>
12    4  0.4424320E-008  0.1719849E+04  0.7818608E-02  0.8750124E-01
         -2   -1    0    0    0  501 -0.00000000000E+00  0.00000000000E+00  0.52764026864E+03  0.52764026864E+03  0.00000000000E+00 0.  1.
          1   -1    0    0  501    0  0.00000000000E+00 -0.00000000000E+00 -0.14014669350E+04  0.14014669350E+04  0.00000000000E+00 0. -1.
        -24    2    1    2    0    0  0.31615626816E+03 -0.32617132915E+03 -0.88143522553E+03  0.99471338623E+03  0.78639316486E+02 0.  0.
        254    2    1    2    0    0 -0.31615626816E+03  0.32617132915E+03  0.76085591782E+01  0.93439381740E+03  0.81651172311E+03 0.  0.
         23    2    4    4    0    0  0.15945007905E+03 -0.93739496135E+02 -0.17525279263E+03  0.26801622330E+03  0.83112777465E+02 0.  0.
         23    2    4    4    0    0 -0.47560634721E+03  0.41991082528E+03  0.18286135181E+03  0.66637759410E+03  0.89968468043E+02 0.  0.
          3    1    3    3  502    0  0.23225122182E+03 -0.24572425009E+03 -0.57597287479E+03  0.66788156855E+03  0.00000000000E+00 0. -1.
         -4    1    3    3    0  502  0.83905046338E+02 -0.80447079054E+02 -0.30546235073E+03  0.32683181768E+03  0.00000000000E+00 0.  1.
         11    1    5    5    0    0  0.14611753924E+03 -0.74575789751E+02 -0.18068519595E+03  0.24404717521E+03  0.00000000000E+00 0. -1.
        -11    1    5    5    0    0  0.13332539817E+02 -0.19163706385E+02  0.54324033225E+01  0.23969048088E+02  0.00000000000E+00 0.  1.
          2    1    6    6  503    0 -0.76601225937E+02  0.45836003355E+02 -0.12809602239E+01  0.89276692802E+02  0.00000000000E+00 0.  1.
         -2    1    6    6    0  503 -0.39900512127E+03  0.37407482193E+03  0.18414231203E+03  0.57710090130E+03  0.00000000000E+00 0. -1.
<mgrwt>
<rscale>  0 0.17198493E+04</rscale>
<asrwt>0</asrwt>
<pdfrwt beam="1">  1        1 0.21561030E+00 0.17198493E+04</pdfrwt>
<pdfrwt beam="2">  1       -2 0.81175426E-01 0.17198493E+04</pdfrwt>
<totfact> 0.85457207E+00</totfact>
</mgrwt>
</event>
<event>
12    4  0.4424320E-008  0.1556574E+04  0.7818608E-02  0.8847679E-01
          1   -1    0    0  501    0  0.00000000000E+00  0.00000000000E+00  0.72868349538E+03  0.72868349538E+03  0.00000000000E+00 0. -1.
         -2   -1    0    0    0  501 -0.00000000000E+00 -0.00000000000E+00 -0.83126753601E+03  0.83126753601E+03  0.00000000000E+00 0.  1.
        -24    2    1    2    0    0  0.21689979138E+02  0.51446196042E+03 -0.13628626070E+03  0.54046284927E+03  0.91567366834E+02 0.  0.
        254    2    1    2    0    0 -0.21689979138E+02 -0.51446196042E+03  0.33702220066E+02  0.10194881821E+04  0.87924896925E+03 0.  0.
         23    2    4    4    0    0 -0.12213790584E+03 -0.39590228050E+03  0.41775077852E+03  0.59531458410E+03  0.90705332425E+02 0.  0.
         23    2    4    4    0    0  0.10044792670E+03 -0.11855967992E+03 -0.38404855846E+03  0.42417359802E+03  0.91015176352E+02 0.  0.
          3    1    3    3  502    0  0.19323181734E+02  0.34234538397E+03 -0.45619647916E+02  0.34591169329E+03  0.00000000000E+00 0. -1.
         -4    1    3    3    0  502  0.23667974044E+01  0.17211657645E+03 -0.90666612788E+02  0.19455115598E+03  0.00000000000E+00 0.  1.
         11    1    5    5    0    0  0.71686751333E+01 -0.95376504407E+02  0.75564494064E+02  0.12189364323E+03  0.00000000000E+00 0.  1.
        -11    1    5    5    0    0 -0.12930658097E+03 -0.30052577610E+03  0.34218628446E+03  0.47342094087E+03  0.00000000000E+00 0. -1.
          3    1    6    6  503    0  0.70781987505E+02 -0.50768165680E+02 -0.11001011485E+03  0.14032006902E+03  0.00000000000E+00 0. -1.
         -3    1    6    6    0  503  0.29665939198E+02 -0.67791514239E+02 -0.27403844361E+03  0.28385352900E+03  0.00000000000E+00 0.  1.
<mgrwt>
<rscale>  0 0.15565744E+04</rscale>
<asrwt>0</asrwt>
<pdfrwt beam="1">  1        1 0.11210515E+00 0.15565744E+04</pdfrwt>
<pdfrwt beam="2">  1       -2 0.12788731E+00 0.15565744E+04</pdfrwt>
<totfact> 0.97754960E+00</totfact>
</mgrwt>
</event>
<event>
12    4  0.4424320E-008  0.2191875E+04  0.7818608E-02  0.8521817E-01
          1   -1    0    0  501    0  0.00000000000E+00  0.00000000000E+00  0.74948387482E+03  0.74948387482E+03  0.00000000000E+00 0. -1.
         -2   -1    0    0    0  501 -0.00000000000E+00 -0.00000000000E+00 -0.16025416088E+04  0.16025416088E+04  0.00000000000E+00 0.  1.
        -24    2    1    2    0    0  0.72831797609E+03 -0.50527953357E+03 -0.15918907526E+03  0.90431192933E+03  0.81758317640E+02 0.  0.
        254    2    1    2    0    0 -0.72831797609E+03  0.50527953357E+03 -0.69386865871E+03  0.14477135543E+04  0.91031112176E+03 0.  0.
         23    2    4    4    0    0 -0.26111663410E+03  0.70206118359E+03 -0.41822764264E+03  0.86376688857E+03  0.10053394753E+03 0.  0.
         23    2    4    4    0    0 -0.46720134198E+03 -0.19678165002E+03 -0.27564101607E+03  0.58394666573E+03  0.89530033717E+02 0.  0.
          1    1    3    3  502    0  0.60973152065E+03 -0.43807012567E+03 -0.16161390489E+03  0.76798243244E+03  0.00000000000E+00 0. -1.
         -2    1    3    3    0  502  0.11858645544E+03 -0.67209407901E+02  0.24248296252E+01  0.13632949689E+03  0.00000000000E+00 0.  1.
         11    1    5    5    0    0  0.47104102412E+01  0.22505064429E+02 -0.58152968057E+00  0.23000088400E+02  0.00000000000E+00 0.  1.
        -11    1    5    5    0    0 -0.26582704435E+03  0.67955611916E+03 -0.41764611296E+03  0.84076680017E+03  0.00000000000E+00 0. -1.
          4    1    6    6  503    0 -0.14034498614E+03 -0.10501647445E+03 -0.96121501068E+02  0.19991127534E+03  0.00000000000E+00 0. -1.
         -4    1    6    6    0  503 -0.32685635585E+03 -0.91765175568E+02 -0.17951951501E+03  0.38403539039E+03  0.00000000000E+00 0.  1.
<mgrwt>
<rscale>  0 0.21918751E+04</rscale>
<asrwt>0</asrwt>
<pdfrwt beam="1">  1        1 0.11530521E+00 0.21918751E+04</pdfrwt>
<pdfrwt beam="2">  1       -2 0.24654486E+00 0.21918751E+04</pdfrwt>
<totfact> 0.13227522E+00</totfact>
</mgrwt>
</event>
<event>
12    4  0.4424320E-008  0.1818112E+04  0.7818608E-02  0.8696727E-01
         -4   -1    0    0    0  501 -0.00000000000E+00  0.00000000000E+00  0.67199840601E+03  0.67199840601E+03  0.00000000000E+00 0.  1.
          1   -1    0    0  501    0  0.00000000000E+00 -0.00000000000E+00 -0.12297392882E+04  0.12297392882E+04  0.00000000000E+00 0. -1.
        -24    2    1    2    0    0  0.48437422570E+02 -0.42033685046E+03 -0.76778751786E+03  0.88022337313E+03  0.79159726243E+02 0.  0.
        254    2    1    2    0    0 -0.48437422570E+02  0.42033685046E+03  0.21004663569E+03  0.10215143211E+04  0.90572770036E+03 0.  0.
         23    2    4    4    0    0 -0.29522141205E+03 -0.13431421778E+03 -0.72685366565E+02  0.34545961242E+03  0.94144516935E+02 0.  0.
         23    2    4    4    0    0  0.24678398948E+03  0.55465106824E+03  0.28273200225E+03  0.67605470864E+03  0.92587466816E+02 0.  0.
          1    1    3    3  502    0  0.35100264553E+02 -0.97612140568E+02 -0.23977708722E+03  0.26125315331E+03  0.00000000000E+00 0. -1.
         -2    1    3    3    0  502  0.13337158016E+02 -0.32272470989E+03 -0.52801043065E+03  0.61897021982E+03  0.00000000000E+00 0.  1.
         11    1    5    5    0    0 -0.79492552155E+02  0.69681805812E+01 -0.19803314317E+02  0.82217958176E+02  0.00000000000E+00 0.  1.
        -11    1    5    5    0    0 -0.21572885990E+03 -0.14128239836E+03 -0.52882052248E+02  0.26324165424E+03  0.00000000000E+00 0. -1.
          3    1    6    6  503    0  0.22449232106E+03  0.53913919888E+03  0.25504590641E+03  0.63727254166E+03  0.00000000000E+00 0. -1.
         -3    1    6    6    0  503  0.22291668419E+02  0.15511869357E+02  0.27686095846E+02  0.38782166972E+02  0.00000000000E+00 0.  1.
<mgrwt>
<rscale>  0 0.18181120E+04</rscale>
<asrwt>0</asrwt>
<pdfrwt beam="1">  1        1 0.18919066E+00 0.18181120E+04</pdfrwt>
<pdfrwt beam="2">  1       -4 0.10338437E+00 0.18181120E+04</pdfrwt>
<totfact> 0.35603681E+00</totfact>
</mgrwt>
</event>
<event>
12    4  0.4424320E-008  0.1374072E+04  0.7818608E-02  0.8972803E-01
          1   -1    0    0  501    0  0.00000000000E+00  0.00000000000E+00  0.57183081269E+03  0.57183081269E+03  0.00000000000E+00 0. -1.
         -4   -1    0    0    0  501 -0.00000000000E+00 -0.00000000000E+00 -0.82545133503E+03  0.82545133503E+03  0.00000000000E+00 0.  1.
        -24    2    1    2    0    0  0.23282460110E+03  0.68698958507E+02  0.28326414059E+03  0.38163210954E+03  0.80483861199E+02 0.  0.
        254    2    1    2    0    0 -0.23282460110E+03 -0.68698958507E+02 -0.53688466293E+03  0.10156500382E+04  0.82726840685E+03 0.  0.
         23    2    4    4    0    0 -0.34395230540E+03 -0.24473888476E+03 -0.63599283495E+03  0.76893726104E+03  0.92613796030E+02 0.  0.
         23    2    4    4    0    0  0.11112770430E+03  0.17603992625E+03  0.99108172014E+02  0.24671277713E+03  0.87780079419E+02 0.  0.
          1    1    3    3  502    0  0.23558929722E+03  0.59564030662E+02  0.25702832535E+03  0.35371422186E+03  0.00000000000E+00 0. -1.
         -2    1    3    3    0  502 -0.27646961224E+01  0.91349278446E+01  0.26235815240E+02  0.27917887683E+02  0.00000000000E+00 0.  1.
         11    1    5    5    0    0 -0.24962176041E+03 -0.14467526636E+03 -0.48804839553E+03  0.56695078477E+03  0.00000000000E+00 0.  1.
        -11    1    5    5    0    0 -0.94330544988E+02 -0.10006361839E+03 -0.14794443941E+03  0.20198647627E+03  0.00000000000E+00 0. -1.
          4    1    6    6  503    0  0.62877546800E+02  0.37526109691E+02  0.60643955205E+02  0.95076201560E+02  0.00000000000E+00 0.  1.
         -4    1    6    6    0  503  0.48250157503E+02  0.13851381656E+03  0.38464216809E+02  0.15163657557E+03  0.00000000000E+00 0. -1.
<mgrwt>
<rscale>  0 0.13740721E+04</rscale>
<asrwt>0</asrwt>
<pdfrwt beam="1">  1        1 0.87973971E-01 0.13740721E+04</pdfrwt>
<pdfrwt beam="2">  1       -4 0.12699251E+00 0.13740721E+04</pdfrwt>
<totfact> 0.79125856E+00</totfact>
</mgrwt>
</event>
<event>
12    4  0.4424320E-008  0.2299130E+04  0.7818608E-02  0.8478264E-01
          1   -1    0    0  501    0  0.00000000000E+00  0.00000000000E+00  0.31284799968E+04  0.31284799968E+04  0.00000000000E+00 0. -1.
         -2   -1    0    0    0  501 -0.00000000000E+00 -0.00000000000E+00 -0.42240951984E+03  0.42240951984E+03  0.00000000000E+00 0.  1.
        -24    2    1    2    0    0  0.37364311542E+03  0.89709571813E+02 -0.22751291197E+03  0.45460817674E+03  0.85143903333E+02 0.  0.
        254    2    1    2    0    0 -0.37364311542E+03 -0.89709571813E+02  0.29335833889E+04  0.30962813399E+04  0.91290177510E+03 0.  0.
         23    2    4    4    0    0 -0.38065419337E+03 -0.17645354981E+03  0.49827587655E+03  0.65782684265E+03  0.91781455603E+02 0.  0.
         23    2    4    4    0    0  0.70110779508E+01  0.86743977997E+02  0.24353075123E+04  0.24384544972E+04  0.88113462737E+02 0.  0.
          3    1    3    3  502    0  0.23049918800E+02 -0.48397104083E+01  0.41066150257E+01  0.23907861479E+02  0.00000000000E+00 0. -1.
         -4    1    3    3    0  502  0.35059319662E+03  0.94549282221E+02 -0.23161952699E+03  0.43070031526E+03  0.00000000000E+00 0.  1.
         11    1    5    5    0    0 -0.34390517575E+03 -0.16220963238E+03  0.48489843884E+03  0.61620551015E+03  0.00000000000E+00 0. -1.
        -11    1    5    5    0    0 -0.36749017618E+02 -0.14243917432E+02  0.13377437703E+02  0.41621332501E+02  0.00000000000E+00 0.  1.
          3    1    6    6  503    0  0.62358391397E+01  0.16271192193E+02  0.16234960077E+04  0.16235895184E+04  0.00000000000E+00 0. -1.
         -3    1    6    6    0  503  0.77523881106E+00  0.70472785804E+02  0.81181150468E+03  0.81486497880E+03  0.00000000000E+00 0.  1.
<mgrwt>
<rscale>  0 0.22991300E+04</rscale>
<asrwt>0</asrwt>
<pdfrwt beam="1">  1        1 0.48130460E+00 0.22991300E+04</pdfrwt>
<pdfrwt beam="2">  1       -2 0.64986082E-01 0.22991300E+04</pdfrwt>
<totfact> 0.83496799E-01</totfact>
</mgrwt>
</event>
<event>
12    4  0.4424320E-008  0.1450094E+04  0.7818608E-02  0.8918335E-01
          1   -1    0    0  501    0  0.00000000000E+00  0.00000000000E+00  0.10243267350E+04  0.10243267350E+04  0.00000000000E+00 0. -1.
         -2   -1    0    0    0  501 -0.00000000000E+00 -0.00000000000E+00 -0.51320850014E+03  0.51320850014E+03  0.00000000000E+00 0.  1.
        -24    2    1    2    0    0  0.43931189779E+03  0.33185360429E+02  0.13145086752E+03  0.46628551257E+03  0.77760124531E+02 0.  0.
        254    2    1    2    0    0 -0.43931189779E+03 -0.33185360429E+02  0.37966736738E+03  0.10712497226E+04  0.89962906059E+03 0.  0.
         23    2    4    4    0    0  0.71300492651E+02 -0.35038882715E+03  0.26112263314E+03  0.45175041105E+03  0.89651067510E+02 0.  0.
         23    2    4    4    0    0 -0.51061239045E+03  0.31720346672E+03  0.11854473424E+03  0.61949931156E+03  0.91561402520E+02 0.  0.
          1    1    3    3  502    0  0.14257654652E+03 -0.12366862828E+02  0.13547528782E+02  0.14375168330E+03  0.00000000000E+00 0. -1.
         -2    1    3    3    0  502  0.29673535127E+03  0.45552223258E+02  0.11790333873E+03  0.32253382927E+03  0.00000000000E+00 0.  1.
         11    1    5    5    0    0  0.92755542664E+02 -0.28300100310E+03  0.21516297897E+03  0.36740749308E+03  0.00000000000E+00 0.  1.
        -11    1    5    5    0    0 -0.21455050014E+02 -0.67387824047E+02  0.45959654166E+02  0.84342917972E+02  0.00000000000E+00 0. -1.
          4    1    6    6  503    0 -0.44281066128E+02  0.40457258551E+02 -0.13294565819E+02  0.61435723055E+02  0.00000000000E+00 0. -1.
         -4    1    6    6    0  503 -0.46633132432E+03  0.27674620817E+03  0.13183930006E+03  0.55806358850E+03  0.00000000000E+00 0.  1.
<mgrwt>
<rscale>  0 0.14500940E+04</rscale>
<asrwt>0</asrwt>
<pdfrwt beam="1">  1        1 0.15758873E+00 0.14500940E+04</pdfrwt>
<pdfrwt beam="2">  1       -2 0.78955154E-01 0.14500940E+04</pdfrwt>
<totfact> 0.17561247E+01</totfact>
</mgrwt>
</event>
<event>
12    4  0.4424320E-008  0.1567289E+04  0.7818608E-02  0.8840899E-01
          1   -1    0    0  501    0  0.00000000000E+00  0.00000000000E+00  0.10580695472E+04  0.10580695472E+04  0.00000000000E+00 0. -1.
         -2   -1    0    0    0  501 -0.00000000000E+00 -0.00000000000E+00 -0.58039547031E+03  0.58039547031E+03  0.00000000000E+00 0.  1.
        -24    2    1    2    0    0 -0.43527598311E+03  0.29003555604E+03  0.25371830284E+03  0.59130027653E+03  0.10806125384E+03 0.  0.
        254    2    1    2    0    0  0.43527598311E+03 -0.29003555604E+03  0.22395577408E+03  0.10471647410E+04  0.87909726472E+03 0.  0.
         23    2    4    4    0    0  0.31472823077E+03 -0.26836755201E+03  0.54579415923E+03  0.69082627399E+03  0.90965237212E+02 0.  0.
         23    2    4    4    0    0  0.12054775234E+03 -0.21668004039E+02 -0.32183838515E+03  0.35633846703E+03  0.91629110735E+02 0.  0.
          1    1    3    3  502    0 -0.97393744926E+02  0.64560390406E+02  0.10982948152E+03  0.16036240386E+03  0.00000000000E+00 0. -1.
         -2    1    3    3    0  502 -0.33788223819E+03  0.22547516564E+03  0.14388882132E+03  0.43093787267E+03  0.00000000000E+00 0.  1.
         11    1    5    5    0    0  0.36600038793E+02 -0.77983041376E+02  0.12187368596E+03  0.14924514367E+03  0.00000000000E+00 0. -1.
        -11    1    5    5    0    0  0.27812819198E+03 -0.19038451063E+03  0.42392047327E+03  0.54158113032E+03  0.00000000000E+00 0.  1.
          2    1    6    6  503    0  0.38708022570E+01 -0.16290176819E+02 -0.13473063233E+03  0.13576706618E+03  0.00000000000E+00 0. -1.
         -2    1    6    6    0  503  0.11667695008E+03 -0.53778272204E+01 -0.18710775281E+03  0.22057140084E+03  0.00000000000E+00 0.  1.
<mgrwt>
<rscale>  0 0.15672891E+04</rscale>
<asrwt>0</asrwt>
<pdfrwt beam="1">  1        1 0.16277993E+00 0.15672891E+04</pdfrwt>
<pdfrwt beam="2">  1       -2 0.89291611E-01 0.15672891E+04</pdfrwt>
<totfact> 0.12387181E+01</totfact>
</mgrwt>
</event>
<event>
12    4  0.4424320E-008  0.1324361E+04  0.7818608E-02  0.9010467E-01
          1   -1    0    0  501    0  0.00000000000E+00  0.00000000000E+00  0.49938003787E+03  0.49938003787E+03  0.00000000000E+00 0. -1.
         -2   -1    0    0    0  501 -0.00000000000E+00 -0.00000000000E+00 -0.87805417025E+03  0.87805417025E+03  0.00000000000E+00 0.  1.
        -24    2    1    2    0    0 -0.11408906207E+03 -0.24922957390E+03 -0.31324424742E+03  0.42387481140E+03  0.80101202314E+02 0.  0.
        254    2    1    2    0    0  0.11408906207E+03  0.24922957390E+03 -0.65429884968E+02  0.95355939672E+03  0.91096803382E+03 0.  0.
         23    2    4    4    0    0 -0.29896235121E+03 -0.16928225711E+03 -0.78007484352E+01  0.35558389341E+03  0.91345955379E+02 0.  0.
         23    2    4    4    0    0  0.41305141327E+03  0.41851183101E+03 -0.57629136532E+02  0.59797550331E+03  0.92140992362E+02 0.  0.
          3    1    3    3  502    0 -0.70770026131E+01 -0.57142746672E+02 -0.11137440920E+03  0.12537797450E+03  0.00000000000E+00 0. -1.
         -4    1    3    3    0  502 -0.10701205945E+03 -0.19208682723E+03 -0.20186983821E+03  0.29849683691E+03  0.00000000000E+00 0.  1.
         11    1    5    5    0    0 -0.11933759183E+03 -0.58193656286E+02  0.40733554566E+02  0.13887830977E+03  0.00000000000E+00 0. -1.
        -11    1    5    5    0    0 -0.17962475937E+03 -0.11108860083E+03 -0.48534303001E+02  0.21670558364E+03  0.00000000000E+00 0.  1.
          3    1    6    6  503    0  0.12283761449E+03  0.12370896642E+03 -0.59742170435E+02  0.18428812994E+03  0.00000000000E+00 0. -1.
         -3    1    6    6    0  503  0.29021379878E+03  0.29480286459E+03  0.21130339023E+01  0.41368737337E+03  0.00000000000E+00 0.  1.
<mgrwt>
<rscale>  0 0.13243606E+04</rscale>
<asrwt>0</asrwt>
<pdfrwt beam="1">  1        1 0.76827699E-01 0.13243606E+04</pdfrwt>
<pdfrwt beam="2">  1       -2 0.13508526E+00 0.13243606E+04</pdfrwt>
<totfact> 0.14988461E+01</totfact>
</mgrwt>
</event>
<event>
12    4  0.4424320E-008  0.1155134E+04  0.7818608E-02  0.9153060E-01
         -2   -1    0    0    0  501 -0.00000000000E+00  0.00000000000E+00  0.18842742133E+03  0.18842742133E+03  0.00000000000E+00 0.  1.
          1   -1    0    0  501    0  0.00000000000E+00 -0.00000000000E+00 -0.17703560856E+04  0.17703560856E+04  0.00000000000E+00 0. -1.
        -24    2    1    2    0    0  0.11745241858E+03 -0.17768593775E+02 -0.58707084931E+03  0.60443121738E+03  0.81080952663E+02 0.  0.
        254    2    1    2    0    0 -0.11745241858E+03  0.17768593775E+02 -0.99485781501E+03  0.13543522896E+04  0.91127232959E+03 0.  0.
         23    2    4    4    0    0 -0.46757967500E+03 -0.30420514706E+02 -0.82259741074E+03  0.95104749894E+03  0.90932309449E+02 0.  0.
         23    2    4    4    0    0  0.35012725641E+03  0.48189108481E+02 -0.17226040427E+03  0.40330479065E+03  0.89832184765E+02 0.  0.
          1    1    3    3  502    0  0.10947499834E+03 -0.42577762729E+02 -0.46466082397E+03  0.47927791779E+03  0.00000000000E+00 0. -1.
         -2    1    3    3    0  502  0.79774202404E+01  0.24809168954E+02 -0.12241002533E+03  0.12515329960E+03  0.00000000000E+00 0.  1.
         11    1    5    5    0    0 -0.17060540674E+03 -0.41939813855E+02 -0.24507208190E+03  0.30153851847E+03  0.00000000000E+00 0. -1.
        -11    1    5    5    0    0 -0.29697426826E+03  0.11519299148E+02 -0.57752532884E+03  0.64950898047E+03  0.00000000000E+00 0.  1.
          3    1    6    6  503    0  0.15826311610E+03 -0.13736827673E+02 -0.10644603653E+03  0.19122414346E+03  0.00000000000E+00 0. -1.
         -3    1    6    6    0  503  0.19186414032E+03  0.61925936154E+02 -0.65814367740E+02  0.21208064718E+03  0.00000000000E+00 0.  1.
<mgrwt>
<rscale>  0 0.11551340E+04</rscale>
<asrwt>0</asrwt>
<pdfrwt beam="1">  1        1 0.27236247E+00 0.11551340E+04</pdfrwt>
<pdfrwt beam="2">  1       -2 0.28988834E-01 0.11551340E+04</pdfrwt>
<totfact> 0.40686057E+01</totfact>
</mgrwt>
</event>
<event>
12    4  0.4424320E-008  0.1887495E+04  0.7818608E-02  0.8661106E-01
          1   -1    0    0  501    0  0.00000000000E+00  0.00000000000E+00  0.18723036027E+04  0.18723036027E+04  0.00000000000E+00 0. -1.
         -2   -1    0    0    0  501 -0.00000000000E+00 -0.00000000000E+00 -0.47570263248E+03  0.47570263248E+03  0.00000000000E+00 0.  1.
        -24    2    1    2    0    0 -0.42829673616E+03 -0.54961399452E+03  0.56834200354E+03  0.90223722245E+03  0.74200642887E+02 0.  0.
        254    2    1    2    0    0  0.42829673616E+03  0.54961399452E+03  0.82825896668E+03  0.14457690127E+04  0.95849960099E+03 0.  0.
         23    2    4    4    0    0  0.55695597684E+03  0.70529661218E+03  0.45473751140E+03  0.10111210397E+04  0.89085809039E+02 0.  0.
         23    2    4    4    0    0 -0.12865924068E+03 -0.15568261766E+03  0.37352145529E+03  0.43464797303E+03  0.92791730457E+02 0.  0.
          3    1    3    3  502    0 -0.45915371884E+02 -0.49552251024E+02  0.85007701208E+02  0.10858156483E+03  0.00000000000E+00 0. -1.
         -4    1    3    3    0  502 -0.38238136428E+03 -0.50006174349E+03  0.48333430233E+03  0.79365565761E+03  0.00000000000E+00 0.  1.
         11    1    5    5    0    0  0.44553601360E+02  0.98742436563E+02  0.41489705944E+02  0.11600210288E+03  0.00000000000E+00 0.  1.
        -11    1    5    5    0    0  0.51240237548E+03  0.60655417561E+03  0.41324780545E+03  0.89511893683E+03  0.00000000000E+00 0. -1.
          1    1    6    6  503    0 -0.11418063564E+03 -0.12277089945E+03  0.35833181097E+03  0.39561546742E+03  0.00000000000E+00 0. -1.
         -1    1    6    6    0  503 -0.14478605042E+02 -0.32911718213E+02  0.15189644319E+02  0.39032505610E+02  0.00000000000E+00 0.  1.
<mgrwt>
<rscale>  0 0.18874954E+04</rscale>
<asrwt>0</asrwt>
<pdfrwt beam="1">  1        1 0.28804670E+00 0.18874954E+04</pdfrwt>
<pdfrwt beam="2">  1       -2 0.73185021E-01 0.18874954E+04</pdfrwt>
<totfact> 0.50438128E+00</totfact>
</mgrwt>
</event>
<event>
12    4  0.4424320E-008  0.1656840E+04  0.7818608E-02  0.8786371E-01
         -4   -1    0    0    0  501 -0.00000000000E+00  0.00000000000E+00  0.36318709300E+03  0.36318709300E+03  0.00000000000E+00 0.  1.
          1   -1    0    0  501    0  0.00000000000E+00 -0.00000000000E+00 -0.18896028346E+04  0.18896028346E+04  0.00000000000E+00 0. -1.
        -24    2    1    2    0    0  0.31326669715E+03 -0.43474894847E+03 -0.30752287134E+03  0.62304840861E+03  0.80475656790E+02 0.  0.
        254    2    1    2    0    0 -0.31326669715E+03  0.43474894847E+03 -0.12188928703E+04  0.16297415190E+04  0.93979514673E+03 0.  0.
         23    2    4    4    0    0  0.76346097856E+02  0.35276265710E+03 -0.31057555640E+02  0.37379854196E+03  0.92144231006E+02 0.  0.
         23    2    4    4    0    0 -0.38961279500E+03  0.81986291372E+02 -0.11878353146E+04  0.12559429770E+04  0.88995195847E+02 0.  0.
          1    1    3    3  502    0  0.31139885007E+03 -0.42596120835E+03 -0.28701230494E+03  0.60065652251E+03  0.00000000000E+00 0. -1.
         -2    1    3    3    0  502  0.18678470754E+01 -0.87877401232E+01 -0.20510566401E+02  0.22391886104E+02  0.00000000000E+00 0.  1.
         11    1    5    5    0    0  0.14949763037E+02  0.22590809429E+02 -0.26558433594E+02  0.37936664066E+02  0.00000000000E+00 0.  1.
        -11    1    5    5    0    0  0.61396334819E+02  0.33017184767E+03 -0.44991220465E+01  0.33586187789E+03  0.00000000000E+00 0. -1.
          2    1    6    6  503    0 -0.23849510767E+03  0.51834324853E+02 -0.58821824729E+03  0.63684175433E+03  0.00000000000E+00 0. -1.
         -2    1    6    6    0  503 -0.15111768733E+03  0.30151966519E+02 -0.59961706735E+03  0.61910122272E+03  0.00000000000E+00 0.  1.
<mgrwt>
<rscale>  0 0.16568396E+04</rscale>
<asrwt>0</asrwt>
<pdfrwt beam="1">  1        1 0.29070812E+00 0.16568396E+04</pdfrwt>
<pdfrwt beam="2">  1       -4 0.55874938E-01 0.16568396E+04</pdfrwt>
<totfact> 0.50949826E+00</totfact>
</mgrwt>
</event>
<event>
12    4  0.4424320E-008  0.1733426E+04  0.7818608E-02  0.8742527E-01
          1   -1    0    0  501    0  0.00000000000E+00  0.00000000000E+00  0.21710610561E+04  0.21710610561E+04  0.00000000000E+00 0. -1.
         -2   -1    0    0    0  501 -0.00000000000E+00 -0.00000000000E+00 -0.34600184985E+03  0.34600184985E+03  0.00000000000E+00 0.  1.
        -24    2    1    2    0    0 -0.44775165501E+03 -0.22320809823E+03  0.93959253589E+02  0.51526770973E+03  0.79806463870E+02 0.  0.
        254    2    1    2    0    0  0.44775165501E+03  0.22320809823E+03  0.17310999527E+04  0.20017951963E+04  0.87187932758E+03 0.  0.
         23    2    4    4    0    0  0.68336356291E+03  0.28155277709E+03  0.13210492466E+04  0.15166033324E+04  0.93042089684E+02 0.  0.
         23    2    4    4    0    0 -0.23561190790E+03 -0.58344678857E+02  0.41005070610E+03  0.48519186388E+03  0.91391960844E+02 0.  0.
          1    1    3    3  502    0 -0.25520361248E+02 -0.71890903998E+01 -0.12300527943E+02  0.29227980544E+02  0.00000000000E+00 0. -1.
         -2    1    3    3    0  502 -0.42223129377E+03 -0.21601900783E+03  0.10625978153E+03  0.48603972919E+03  0.00000000000E+00 0.  1.
         11    1    5    5    0    0  0.23793597931E+03  0.11298402968E+03  0.55940141834E+03  0.61831130351E+03  0.00000000000E+00 0. -1.
        -11    1    5    5    0    0  0.44542758360E+03  0.16856874741E+03  0.76164782826E+03  0.89829202887E+03  0.00000000000E+00 0.  1.
          3    1    6    6  503    0 -0.16809000798E+03 -0.58033296562E+02  0.21630933061E+03  0.28002114349E+03  0.00000000000E+00 0. -1.
         -3    1    6    6    0  503 -0.67521899913E+02 -0.31138229498E+00  0.19374137549E+03  0.20517072039E+03  0.00000000000E+00 0.  1.
<mgrwt>
<rscale>  0 0.17334257E+04</rscale>
<asrwt>0</asrwt>
<pdfrwt beam="1">  1        1 0.33400938E+00 0.17334257E+04</pdfrwt>
<pdfrwt beam="2">  1       -2 0.53231055E-01 0.17334257E+04</pdfrwt>
<totfact> 0.63238356E+00</totfact>
</mgrwt>
</event>
<event>
12    4  0.4424320E-008  0.1522675E+04  0.7818608E-02  0.8869513E-01
         -2   -1    0    0    0  501 -0.00000000000E+00  0.00000000000E+00  0.12402659818E+04  0.12402659818E+04  0.00000000000E+00 0.  1.
          1   -1    0    0  501    0  0.00000000000E+00 -0.00000000000E+00 -0.46734741669E+03  0.46734741669E+03  0.00000000000E+00 0. -1.
        -24    2    1    2    0    0 -0.32745007942E+03  0.75146233876E+02  0.62556946996E+03  0.71473578299E+03  0.81483536795E+02 0.  0.
        254    2    1    2    0    0  0.32745007942E+03 -0.75146233876E+02  0.14734909515E+03  0.99287761551E+03  0.92261784752E+03 0.  0.
         23    2    4    4    0    0  0.50680614412E+03  0.33911423093E+02  0.39837552092E+03  0.65338128682E+03  0.10100296020E+03 0.  0.
         23    2    4    4    0    0 -0.17935606470E+03 -0.10905765697E+03 -0.25102642576E+03  0.33949632869E+03  0.90450651026E+02 0.  0.
          1    1    3    3  502    0 -0.11831209514E+03  0.38228208863E+02  0.31352874933E+03  0.33728241055E+03  0.00000000000E+00 0. -1.
         -2    1    3    3    0  502 -0.20913798428E+03  0.36918025013E+02  0.31204072063E+03  0.37745337244E+03  0.00000000000E+00 0.  1.
         11    1    5    5    0    0  0.49003096221E+03  0.20388291069E+02  0.39833181006E+03  0.63183404249E+03  0.00000000000E+00 0.  1.
        -11    1    5    5    0    0  0.16775181906E+02  0.13523132024E+02  0.43710855684E-01  0.21547244333E+02  0.00000000000E+00 0. -1.
          2    1    6    6  503    0 -0.18510534729E+03 -0.11669427745E+03 -0.24311805208E+03  0.32709009651E+03  0.00000000000E+00 0.  1.
         -2    1    6    6    0  503  0.57492825850E+01  0.76366204823E+01 -0.79083736810E+01  0.12406232180E+02  0.00000000000E+00 0. -1.
<mgrwt>
<rscale>  0 0.15226754E+04</rscale>
<asrwt>0</asrwt>
<pdfrwt beam="1">  1        1 0.71899603E-01 0.15226754E+04</pdfrwt>
<pdfrwt beam="2">  1       -2 0.19081015E+00 0.15226754E+04</pdfrwt>
<totfact> 0.62794863E+00</totfact>
</mgrwt>
</event>
<event>
12    4  0.4424320E-008  0.1208660E+04  0.7818608E-02  0.9105310E-01
         -2   -1    0    0    0  501 -0.00000000000E+00  0.00000000000E+00  0.56190001162E+03  0.56190001162E+03  0.00000000000E+00 0.  1.
          1   -1    0    0  501    0  0.00000000000E+00 -0.00000000000E+00 -0.64996439414E+03  0.64996439414E+03  0.00000000000E+00 0. -1.
        -24    2    1    2    0    0 -0.22402928061E+03 -0.43865140580E+02  0.10535938498E+03  0.26422720627E+03  0.81253599321E+02 0.  0.
        254    2    1    2    0    0  0.22402928061E+03  0.43865140580E+02 -0.19342376750E+03  0.94763719948E+03  0.89916085262E+03 0.  0.
         23    2    4    4    0    0 -0.26666543026E+03 -0.21163968331E+03 -0.15724841140E+03  0.38596948860E+03  0.91343177047E+02 0.  0.
         23    2    4    4    0    0  0.49069471087E+03  0.25550482389E+03 -0.36175356097E+02  0.56166771089E+03  0.89988592361E+02 0.  0.
          3    1    3    3  502    0 -0.14187896876E+03 -0.12572279436E+02  0.23991434874E+02  0.14444131312E+03  0.00000000000E+00 0. -1.
         -4    1    3    3    0  502 -0.82150311851E+02 -0.31292861144E+02  0.81367950103E+02  0.11978589316E+03  0.00000000000E+00 0.  1.
         11    1    5    5    0    0 -0.56156823887E+02 -0.51932290562E+02  0.36947948725E+01  0.76578085516E+02  0.00000000000E+00 0.  1.
        -11    1    5    5    0    0 -0.21050860637E+03 -0.15970739275E+03 -0.16094320628E+03  0.30939140308E+03  0.00000000000E+00 0. -1.
          3    1    6    6  503    0  0.26188762315E+03  0.99082653379E+02 -0.48753589717E+02  0.28421719137E+03  0.00000000000E+00 0. -1.
         -3    1    6    6    0  503  0.22880708772E+03  0.15642217051E+03  0.12578233620E+02  0.27745051952E+03  0.00000000000E+00 0.  1.
<mgrwt>
<rscale>  0 0.12086604E+04</rscale>
<asrwt>0</asrwt>
<pdfrwt beam="1">  1        1 0.99994522E-01 0.12086604E+04</pdfrwt>
<pdfrwt beam="2">  1       -2 0.86446156E-01 0.12086604E+04</pdfrwt>
<totfact> 0.30586457E+01</totfact>
</mgrwt>
</event>
<event>
12    4  0.4424320E-008  0.1660387E+04  0.7818608E-02  0.8784285E-01
         -2   -1    0    0    0  501 -0.00000000000E+00  0.00000000000E+00  0.18085593496E+03  0.18085593496E+03  0.00000000000E+00 0.  1.
          1   -1    0    0  501    0  0.00000000000E+00 -0.00000000000E+00 -0.38108868612E+04  0.38108868612E+04  0.00000000000E+00 0. -1.
        -24    2    1    2    0    0 -0.13620115184E+03  0.80118296752E+02 -0.26443584605E+04  0.26502704544E+04  0.79574609385E+02 0.  0.
        254    2    1    2    0    0  0.13620115184E+03 -0.80118296752E+02 -0.98567246575E+03  0.13414723418E+04  0.89611837322E+03 0.  0.
         23    2    4    4    0    0  0.48262388757E+03  0.77821580438E+02 -0.40587715639E+03  0.64185918718E+03  0.90911687104E+02 0.  0.
         23    2    4    4    0    0 -0.34642273573E+03 -0.15793987719E+03 -0.57979530936E+03  0.69961315461E+03  0.91335911391E+02 0.  0.
          3    1    3    3  502    0 -0.72248231173E+02  0.69325378138E+02 -0.10990971085E+04  0.11036486166E+04  0.00000000000E+00 0. -1.
         -4    1    3    3    0  502 -0.63952920668E+02  0.10792918614E+02 -0.15452613520E+04  0.15466218378E+04  0.00000000000E+00 0.  1.
         11    1    5    5    0    0  0.28660348596E+03  0.83343284000E+00 -0.23784970040E+03  0.37244426798E+03  0.00000000000E+00 0. -1.
        -11    1    5    5    0    0  0.19602040162E+03  0.76988147598E+02 -0.16802745599E+03  0.26941491920E+03  0.00000000000E+00 0.  1.
          3    1    6    6  503    0 -0.26858808296E+03 -0.15964182614E+03 -0.44090005753E+03  0.54038683523E+03  0.00000000000E+00 0. -1.
         -3    1    6    6    0  503 -0.77834652771E+02  0.17019489487E+01 -0.13889525183E+03  0.15922631938E+03  0.00000000000E+00 0.  1.
<mgrwt>
<rscale>  0 0.16603873E+04</rscale>
<asrwt>0</asrwt>
<pdfrwt beam="1">  1        1 0.58629024E+00 0.16603873E+04</pdfrwt>
<pdfrwt beam="2">  1       -2 0.27823992E-01 0.16603873E+04</pdfrwt>
<totfact> 0.13971308E+00</totfact>
</mgrwt>
</event>
<event>
12    4  0.4424320E-008  0.1508947E+04  0.7818608E-02  0.8878525E-01
          1   -1    0    0  501    0  0.00000000000E+00  0.00000000000E+00  0.46766259898E+03  0.46766259898E+03  0.00000000000E+00 0. -1.
         -2   -1    0    0    0  501 -0.00000000000E+00 -0.00000000000E+00 -0.12171807228E+04  0.12171807228E+04  0.00000000000E+00 0.  1.
        -24    2    1    2    0    0  0.22539508531E+03  0.75982260744E+02 -0.70301547503E+03  0.74640041052E+03  0.79413892175E+02 0.  0.
        254    2    1    2    0    0 -0.22539508531E+03 -0.75982260744E+02 -0.46502648809E+02  0.93844291127E+03  0.90660705542E+03 0.  0.
         23    2    4    4    0    0  0.10116507443E+03 -0.26877878936E+03 -0.33814120936E+03  0.45254407635E+03  0.89332265596E+02 0.  0.
         23    2    4    4    0    0 -0.32656015975E+03  0.19279652861E+03  0.29163856055E+03  0.48589883493E+03  0.85044625961E+02 0.  0.
          1    1    3    3  502    0  0.47273075790E+02  0.40288267831E+02 -0.26551206252E+03  0.27268029551E+03  0.00000000000E+00 0. -1.
         -4    1    3    3    0  502  0.17812200952E+03  0.35693992913E+02 -0.43750341251E+03  0.47372011501E+03  0.00000000000E+00 0.  1.
         11    1    5    5    0    0 -0.74960701070E+00 -0.12225517822E+03 -0.13485137968E+03  0.18202138642E+03  0.00000000000E+00 0.  1.
        -11    1    5    5    0    0  0.10191468145E+03 -0.14652361113E+03 -0.20328982968E+03  0.27052268992E+03  0.00000000000E+00 0. -1.
          2    1    6    6  503    0 -0.24241551857E+03  0.97901324217E+02  0.18622551110E+03  0.32098270033E+03  0.00000000000E+00 0. -1.
         -2    1    6    6    0  503 -0.84144641179E+02  0.94895204396E+02  0.10541304945E+03  0.16491613460E+03  0.00000000000E+00 0.  1.
<mgrwt>
<rscale>  0 0.15089465E+04</rscale>
<asrwt>0</asrwt>
<pdfrwt beam="1">  1        1 0.71948094E-01 0.15089465E+04</pdfrwt>
<pdfrwt beam="2">  1       -2 0.18725857E+00 0.15089465E+04</pdfrwt>
<totfact> 0.66360347E+00</totfact>
</mgrwt>
</event>
<event>
12    4  0.4424320E-008  0.1479169E+04  0.7818608E-02  0.8898425E-01
         -2   -1    0    0    0  501 -0.00000000000E+00  0.00000000000E+00  0.27411757558E+03  0.27411757558E+03  0.00000000000E+00 0.  1.
          1   -1    0    0  501    0  0.00000000000E+00 -0.00000000000E+00 -0.19954405794E+04  0.19954405794E+04  0.00000000000E+00 0. -1.
        -24    2    1    2    0    0 -0.31520393475E+03 -0.32452515378E+03 -0.68656810026E+03  0.82608543925E+03  0.79820428010E+02 0.  0.
        254    2    1    2    0    0  0.31520393475E+03  0.32452515378E+03 -0.10347549036E+04  0.14434727157E+04  0.89901372330E+03 0.  0.
         23    2    4    4    0    0  0.33306858980E+03 -0.21755010985E+03 -0.66977276964E+03  0.78358632313E+03  0.84553101923E+02 0.  0.
         23    2    4    4    0    0 -0.17864655046E+02  0.54207526363E+03 -0.36498213392E+03  0.65988639259E+03  0.89851854231E+02 0.  0.
          3    1    3    3  502    0 -0.59874396007E+02 -0.54911570389E+02 -0.74742044416E+02  0.11039292125E+03  0.00000000000E+00 0. -1.
         -4    1    3    3    0  502 -0.25532953875E+03 -0.26961358339E+03 -0.61182605584E+03  0.71569251800E+03  0.00000000000E+00 0.  1.
         11    1    5    5    0    0  0.29886724084E+03 -0.18305033649E+03 -0.52807132281E+03  0.63378890438E+03  0.00000000000E+00 0.  1.
        -11    1    5    5    0    0  0.34201348957E+02 -0.34499773358E+02 -0.14170144683E+03  0.14979741875E+03  0.00000000000E+00 0. -1.
          3    1    6    6  503    0  0.57343775154E+01  0.39249865755E+03 -0.21874641607E+03  0.44937520382E+03  0.00000000000E+00 0. -1.
         -3    1    6    6    0  503 -0.23599032561E+02  0.14957660609E+03 -0.14623571785E+03  0.21051118878E+03  0.00000000000E+00 0.  1.
<mgrwt>
<rscale>  0 0.14791691E+04</rscale>
<asrwt>0</asrwt>
<pdfrwt beam="1">  1        1 0.30699085E+00 0.14791691E+04</pdfrwt>
<pdfrwt beam="2">  1       -2 0.42171935E-01 0.14791691E+04</pdfrwt>
<totfact> 0.13615055E+01</totfact>
</mgrwt>
</event>
<event>
12    4  0.4424320E-008  0.2441546E+04  0.7818608E-02  0.8424111E-01
         -2   -1    0    0    0  501 -0.00000000000E+00  0.00000000000E+00  0.51093981931E+03  0.51093981931E+03  0.00000000000E+00 0.  1.
          1   -1    0    0  501    0  0.00000000000E+00 -0.00000000000E+00 -0.29167549693E+04  0.29167549693E+04  0.00000000000E+00 0. -1.
        -24    2    1    2    0    0 -0.94280619938E+03  0.31587496959E+03 -0.15371425052E+04  0.18324282497E+04  0.79534160849E+02 0.  0.
        254    2    1    2    0    0  0.94280619938E+03 -0.31587496959E+03 -0.86867264472E+03  0.15952665389E+04  0.89533381512E+03 0.  0.
         23    2    4    4    0    0  0.37675800465E+03 -0.24494288758E+03  0.98045873919E+02  0.46901474076E+03  0.91750866035E+02 0.  0.
         23    2    4    4    0    0  0.56604819473E+03 -0.70932082007E+02 -0.96671851864E+03  0.11262517981E+04  0.91959227612E+02 0.  0.
          1    1    3    3  502    0 -0.70818470320E+03  0.25716276380E+03 -0.12141160650E+04  0.14288933061E+04  0.00000000000E+00 0. -1.
         -2    1    3    3    0  502 -0.23462149618E+03  0.58712205791E+02 -0.32302644019E+03  0.40353494352E+03  0.00000000000E+00 0.  1.
         11    1    5    5    0    0  0.37925145237E+03 -0.24422737019E+03  0.89232148226E+02  0.45982719445E+03  0.00000000000E+00 0.  1.
        -11    1    5    5    0    0 -0.24934477270E+01 -0.71551739381E+00  0.88137256929E+01  0.91875463154E+01  0.00000000000E+00 0. -1.
          2    1    6    6  503    0  0.48309566690E+03 -0.30725284302E+02 -0.77964585926E+03  0.91769991409E+03  0.00000000000E+00 0.  1.
         -2    1    6    6    0  503  0.82952527831E+02 -0.40206797705E+02 -0.18707265938E+03  0.20855188405E+03  0.00000000000E+00 0. -1.
<mgrwt>
<rscale>  0 0.24415456E+04</rscale>
<asrwt>0</asrwt>
<pdfrwt beam="1">  1        1 0.44873154E+00 0.24415456E+04</pdfrwt>
<pdfrwt beam="2">  1       -2 0.78606125E-01 0.24415456E+04</pdfrwt>
<totfact> 0.77565602E-01</totfact>
</mgrwt>
</event>
<event>
12    4  0.4424320E-008  0.2689100E+04  0.7818608E-02  0.8338550E-01
          1   -1    0    0  501    0  0.00000000000E+00  0.00000000000E+00  0.26467664385E+04  0.26467664385E+04  0.00000000000E+00 0. -1.
         -2   -1    0    0    0  501 -0.00000000000E+00 -0.00000000000E+00 -0.68302791193E+03  0.68302791193E+03  0.00000000000E+00 0.  1.
        -24    2    1    2    0    0 -0.10921220766E+04  0.47608810819E+03  0.91425430891E+03  0.15036860401E+04  0.76290556737E+02 0.  0.
        254    2    1    2    0    0  0.10921220766E+04 -0.47608810819E+03  0.10494842177E+04  0.18261083103E+04  0.90214406889E+03 0.  0.
         23    2    4    4    0    0 -0.74493624714E+01  0.17718309472E+03  0.22481957327E+03  0.30165938632E+03  0.94895746853E+02 0.  0.
         23    2    4    4    0    0  0.10995714390E+04 -0.65327120291E+03  0.82466464443E+03  0.15244489240E+04  0.89733673209E+02 0.  0.
          3    1    3    3  502    0 -0.46060604067E+03  0.20412257959E+03  0.33958177094E+03  0.60756870504E+03  0.00000000000E+00 0. -1.
         -4    1    3    3    0  502 -0.63151603589E+03  0.27196552860E+03  0.57467253798E+03  0.89611733508E+03  0.00000000000E+00 0.  1.
         11    1    5    5    0    0 -0.46081979877E+02  0.68935856744E+02  0.68031719274E+02  0.10725677620E+03  0.00000000000E+00 0. -1.
        -11    1    5    5    0    0  0.38632617406E+02  0.10824723798E+03  0.15678785399E+03  0.19440261011E+03  0.00000000000E+00 0.  1.
          3    1    6    6  503    0  0.22614093807E+03 -0.17756582110E+03  0.17994737525E+03  0.33919080553E+03  0.00000000000E+00 0. -1.
         -3    1    6    6    0  503  0.87343050095E+03 -0.47570538181E+03  0.64471726918E+03  0.11852581185E+04  0.00000000000E+00 0.  1.
<mgrwt>
<rscale>  0 0.26891005E+04</rscale>
<asrwt>0</asrwt>
<pdfrwt beam="1">  1        1 0.40719483E+00 0.26891005E+04</pdfrwt>
<pdfrwt beam="2">  1       -2 0.10508122E+00 0.26891005E+04</pdfrwt>
<totfact> 0.60316140E-01</totfact>
</mgrwt>
</event>
<event>
12    4  0.4424320E-008  0.2934542E+04  0.7818608E-02  0.8262674E-01
         -2   -1    0    0    0  501 -0.00000000000E+00  0.00000000000E+00  0.13992325644E+04  0.13992325644E+04  0.00000000000E+00 0.  1.
          1   -1    0    0  501    0  0.00000000000E+00 -0.00000000000E+00 -0.15386179335E+04  0.15386179335E+04  0.00000000000E+00 0. -1.
        -24    2    1    2    0    0 -0.10747030165E+04 -0.11229886289E+03  0.70846482461E+03  0.12945326113E+04  0.79338929563E+02 0.  0.
        254    2    1    2    0    0  0.10747030165E+04  0.11229886289E+03 -0.84785019362E+03  0.16433178866E+04  0.90224504290E+03 0.  0.
         23    2    4    4    0    0  0.11297792186E+04  0.37011797271E+02 -0.94899679858E+03  0.14788228174E+04  0.92471864239E+02 0.  0.
         23    2    4    4    0    0 -0.55076202114E+02  0.75287065619E+02  0.10114660496E+03  0.16449506922E+03  0.90146890198E+02 0.  0.
          1    1    3    3  502    0 -0.52145462673E+03 -0.63749533235E+02  0.29835342132E+03  0.60414708039E+03  0.00000000000E+00 0. -1.
         -2    1    3    3    0  502 -0.55324838974E+03 -0.48549329655E+02  0.41011140329E+03  0.69038553089E+03  0.00000000000E+00 0.  1.
         11    1    5    5    0    0  0.61297405215E+03 -0.28511461864E+01 -0.56610917058E+03  0.83440092921E+03  0.00000000000E+00 0.  1.
        -11    1    5    5    0    0  0.51680516643E+03  0.39862943458E+02 -0.38288762800E+03  0.64442188820E+03  0.00000000000E+00 0. -1.
          4    1    6    6  503    0  0.36994140063E+01 -0.18133413384E+02  0.21605199036E+02  0.28448039833E+02  0.00000000000E+00 0. -1.
         -4    1    6    6    0  503 -0.58775616120E+02  0.93420479003E+02  0.79541405924E+02  0.13604702938E+03  0.00000000000E+00 0.  1.
<mgrwt>
<rscale>  0 0.29345421E+04</rscale>
<asrwt>0</asrwt>
<pdfrwt beam="1">  1        1 0.23671045E+00 0.29345421E+04</pdfrwt>
<pdfrwt beam="2">  1       -2 0.21526655E+00 0.29345421E+04</pdfrwt>
<totfact> 0.48982818E-01</totfact>
</mgrwt>
</event>
<event>
12    4  0.4424320E-008  0.1449663E+04  0.7818608E-02  0.8918634E-01
          1   -1    0    0  501    0  0.00000000000E+00  0.00000000000E+00  0.42064496759E+03  0.42064496759E+03  0.00000000000E+00 0. -1.
         -2   -1    0    0    0  501 -0.00000000000E+00 -0.00000000000E+00 -0.12489881079E+04  0.12489881079E+04  0.00000000000E+00 0.  1.
        -24    2    1    2    0    0  0.18854862975E+03  0.77792427286E+01 -0.70407228309E+03  0.73326708725E+03  0.79697798105E+02 0.  0.
        254    2    1    2    0    0 -0.18854862975E+03 -0.77792427286E+01 -0.12427085726E+03  0.93636598828E+03  0.90869517202E+03 0.  0.
         23    2    4    4    0    0  0.59877010992E+02  0.20800863314E+03 -0.42209740943E+03  0.48349855952E+03  0.93550981281E+02 0.  0.
         23    2    4    4    0    0 -0.24842564074E+03 -0.21578787587E+03  0.29782655217E+03  0.45286742877E+03  0.90047468085E+02 0.  0.
          3    1    3    3  502    0  0.77211474756E+02  0.53687035382E+00 -0.15731961194E+03  0.17524657019E+03  0.00000000000E+00 0. -1.
         -4    1    3    3    0  502  0.11133715499E+03  0.72423723748E+01 -0.54675267115E+03  0.55802051705E+03  0.00000000000E+00 0.  1.
         11    1    5    5    0    0  0.25935634268E+02  0.26768708998E+02 -0.22827237310E+02  0.43707020826E+02  0.00000000000E+00 0. -1.
        -11    1    5    5    0    0  0.33941376724E+02  0.18123992415E+03 -0.39927017212E+03  0.43979153869E+03  0.00000000000E+00 0.  1.
          1    1    6    6  503    0 -0.60062436556E+02 -0.16154100675E+02  0.28813717953E+02  0.68546929880E+02  0.00000000000E+00 0. -1.
         -1    1    6    6    0  503 -0.18836320418E+03 -0.19963377520E+03  0.26901283422E+03  0.38432049889E+03  0.00000000000E+00 0.  1.
<mgrwt>
<rscale>  0 0.14496628E+04</rscale>
<asrwt>0</asrwt>
<pdfrwt beam="1">  1        1 0.64714611E-01 0.14496628E+04</pdfrwt>
<pdfrwt beam="2">  1       -2 0.19215202E+00 0.14496628E+04</pdfrwt>
<totfact> 0.71320358E+00</totfact>
</mgrwt>
</event>
<event>
12    4  0.4424320E-008  0.2021967E+04  0.7818608E-02  0.8596419E-01
         -2   -1    0    0    0  501 -0.00000000000E+00  0.00000000000E+00  0.42464453855E+03  0.42464453855E+03  0.00000000000E+00 0.  1.
          1   -1    0    0  501    0  0.00000000000E+00 -0.00000000000E+00 -0.24069249935E+04  0.24069249935E+04  0.00000000000E+00 0. -1.
        -24    2    1    2    0    0 -0.13663405488E+02 -0.67131117258E+03 -0.14326831967E+04  0.15842122199E+04  0.79384105700E+02 0.  0.
        254    2    1    2    0    0  0.13663405488E+02  0.67131117258E+03 -0.54959725822E+03  0.12473573122E+04  0.89610141111E+03 0.  0.
         23    2    4    4    0    0 -0.31694540271E+03  0.70173394741E+03 -0.38231903226E+03  0.86454833530E+03  0.91602731370E+02 0.  0.
         23    2    4    4    0    0  0.33060880820E+03 -0.30422774825E+02 -0.16727822597E+03  0.38280897691E+03  0.91285150122E+02 0.  0.
          1    1    3    3  502    0 -0.17686899217E+00 -0.34524066826E+03 -0.64465276496E+03  0.73127856366E+03  0.00000000000E+00 0. -1.
         -2    1    3    3    0  502 -0.13486536496E+02 -0.32607050432E+03 -0.78803043178E+03  0.85293365619E+03  0.00000000000E+00 0.  1.
         11    1    5    5    0    0 -0.60537971319E+02  0.90003937706E+02 -0.25732261017E+02  0.11147961263E+03  0.00000000000E+00 0. -1.
        -11    1    5    5    0    0 -0.25640743139E+03  0.61173000970E+03 -0.35658677124E+03  0.75306872267E+03  0.00000000000E+00 0.  1.
          3    1    6    6  503    0  0.33694045270E+02  0.18246606555E+02 -0.42111449643E+02  0.56935064139E+02  0.00000000000E+00 0. -1.
         -3    1    6    6    0  503  0.29691476293E+03 -0.48669381380E+02 -0.12516677632E+03  0.32587391277E+03  0.00000000000E+00 0.  1.
<mgrwt>
<rscale>  0 0.20219669E+04</rscale>
<asrwt>0</asrwt>
<pdfrwt beam="1">  1        1 0.37029615E+00 0.20219669E+04</pdfrwt>
<pdfrwt beam="2">  1       -2 0.65329930E-01 0.20219669E+04</pdfrwt>
<totfact> 0.27607650E+00</totfact>
</mgrwt>
</event>
<event>
12    4  0.4424320E-008  0.1776641E+04  0.7818608E-02  0.8718821E-01
          1   -1    0    0  501    0  0.00000000000E+00  0.00000000000E+00  0.11124268255E+04  0.11124268255E+04  0.00000000000E+00 0. -1.
         -2   -1    0    0    0  501 -0.00000000000E+00 -0.00000000000E+00 -0.70936234379E+03  0.70936234379E+03  0.00000000000E+00 0.  1.
        -24    2    1    2    0    0 -0.13584915740E+03 -0.21612565467E+02 -0.51304842607E+03  0.53715622992E+03  0.79975191793E+02 0.  0.
        254    2    1    2    0    0  0.13584915740E+03  0.21612565467E+02  0.91611290781E+03  0.12846329394E+04  0.88999822057E+03 0.  0.
         23    2    4    4    0    0  0.39802582566E+03  0.25197848334E+03  0.74143608981E+03  0.88328239867E+03  0.92426222235E+02 0.  0.
         23    2    4    4    0    0 -0.26217666826E+03 -0.23036591788E+03  0.17467681800E+03  0.40135054075E+03  0.93622669883E+02 0.  0.
          1    1    3    3  502    0 -0.32197236882E+02  0.11198935363E+00 -0.35164682220E+02  0.47678396366E+02  0.00000000000E+00 0. -1.
         -2    1    3    3    0  502 -0.10365192052E+03 -0.21724554820E+02 -0.47788374385E+03  0.48947783355E+03  0.00000000000E+00 0.  1.
         11    1    5    5    0    0  0.93848664594E+02  0.28142810120E+02  0.20536457996E+03  0.22753944781E+03  0.00000000000E+00 0.  1.
        -11    1    5    5    0    0  0.30417716106E+03  0.22383567322E+03  0.53607150985E+03  0.65574295085E+03  0.00000000000E+00 0. -1.
          3    1    6    6  503    0 -0.15372698316E+03 -0.12331850786E+03  0.47133353202E+02  0.20263512212E+03  0.00000000000E+00 0. -1.
         -3    1    6    6    0  503 -0.10844968510E+03 -0.10704741002E+03  0.12754346480E+03  0.19871541863E+03  0.00000000000E+00 0.  1.
<mgrwt>
<rscale>  0 0.17766414E+04</rscale>
<asrwt>0</asrwt>
<pdfrwt beam="1">  1        1 0.17114259E+00 0.17766414E+04</pdfrwt>
<pdfrwt beam="2">  1       -2 0.10913267E+00 0.17766414E+04</pdfrwt>
<totfact> 0.68905688E+00</totfact>
</mgrwt>
</event>
<event>
12    4  0.4424320E-008  0.2087703E+04  0.7818608E-02  0.8566680E-01
         -2   -1    0    0    0  501 -0.00000000000E+00  0.00000000000E+00  0.83869315908E+03  0.83869315908E+03  0.00000000000E+00 0.  1.
          1   -1    0    0  501    0  0.00000000000E+00 -0.00000000000E+00 -0.12991949186E+04  0.12991949186E+04  0.00000000000E+00 0. -1.
        -24    2    1    2    0    0 -0.23404777068E+03 -0.34772263749E+02  0.64668033320E+03  0.69317149774E+03  0.79396490134E+02 0.  0.
        254    2    1    2    0    0  0.23404777068E+03  0.34772263749E+02 -0.11071820927E+04  0.14447165800E+04  0.89742205269E+03 0.  0.
         23    2    4    4    0    0  0.37741537757E+03 -0.30279425527E+03 -0.36656584653E+03  0.61381196415E+03  0.90927879367E+02 0.  0.
         23    2    4    4    0    0 -0.14336760689E+03  0.33756651902E+03 -0.74061624621E+03  0.83090461581E+03  0.85933875493E+02 0.  0.
          3    1    3    3  502    0 -0.70973501269E+02  0.35211458565E+01  0.10999855654E+03  0.13095540764E+03  0.00000000000E+00 0. -1.
         -4    1    3    3    0  502 -0.16307426941E+03 -0.38293409606E+02  0.53668177666E+03  0.56221609009E+03  0.00000000000E+00 0.  1.
         11    1    5    5    0    0  0.36040347582E+03 -0.27945036569E+03 -0.31355931923E+03  0.55344613012E+03  0.00000000000E+00 0.  1.
        -11    1    5    5    0    0  0.17011901741E+02 -0.23343889579E+02 -0.53006527305E+02  0.60365834032E+02  0.00000000000E+00 0. -1.
          1    1    6    6  503    0 -0.20087825794E+02  0.66857605894E+02 -0.22564766510E+03  0.23619976498E+03  0.00000000000E+00 0.  1.
         -1    1    6    6    0  503 -0.12327978109E+03  0.27070891313E+03 -0.51496858111E+03  0.59470485083E+03  0.00000000000E+00 0. -1.
<mgrwt>
<rscale>  0 0.20877029E+04</rscale>
<asrwt>0</asrwt>
<pdfrwt beam="1">  1        1 0.19987614E+00 0.20877029E+04</pdfrwt>
<pdfrwt beam="2">  1       -2 0.12902972E+00 0.20877029E+04</pdfrwt>
<totfact> 0.32387562E+00</totfact>
</mgrwt>
</event>
<event>
12    4  0.4424320E-008  0.1786720E+04  0.7818608E-02  0.8713394E-01
          1   -1    0    0  501    0  0.00000000000E+00  0.00000000000E+00  0.18719181427E+04  0.18719181427E+04  0.00000000000E+00 0. -1.
         -2   -1    0    0    0  501 -0.00000000000E+00 -0.00000000000E+00 -0.42634967303E+03  0.42634967303E+03  0.00000000000E+00 0.  1.
        -24    2    1    2    0    0 -0.90175896826E+02  0.33186720000E+03 -0.18578676194E+03  0.39910513839E+03  0.80626669129E+02 0.  0.
        254    2    1    2    0    0  0.90175896826E+02 -0.33186720000E+03  0.16313552316E+04  0.18991626773E+04  0.90952265089E+03 0.  0.
         23    2    4    4    0    0 -0.31679753824E+03 -0.32624987372E+03  0.12554645951E+04  0.13381946579E+04  0.88169906573E+02 0.  0.
         23    2    4    4    0    0  0.40697343507E+03 -0.56173262801E+01  0.37589063642E+03  0.56096801940E+03  0.87934163079E+02 0.  0.
          1    1    3    3  502    0 -0.21545766279E+02  0.22602366748E+03 -0.12194412723E+03  0.25772327887E+03  0.00000000000E+00 0. -1.
         -2    1    3    3    0  502 -0.68630130547E+02  0.10584353252E+03 -0.63842634707E+02  0.14138185952E+03  0.00000000000E+00 0.  1.
         11    1    5    5    0    0 -0.15541380694E+03 -0.18597679360E+03  0.54990969836E+03  0.60095049338E+03  0.00000000000E+00 0. -1.
        -11    1    5    5    0    0 -0.16138373130E+03 -0.14027308012E+03  0.70555489679E+03  0.73724416452E+03  0.00000000000E+00 0.  1.
          4    1    6    6  503    0  0.33474910736E+03  0.22341153023E+02  0.33177521773E+03  0.47183777625E+03  0.00000000000E+00 0. -1.
         -4    1    6    6    0  503  0.72224327707E+02 -0.27958479303E+02  0.44115418687E+02  0.89130243148E+02  0.00000000000E+00 0.  1.
<mgrwt>
<rscale>  0 0.17867196E+04</rscale>
<asrwt>0</asrwt>
<pdfrwt beam="1">  1        1 0.28798740E+00 0.17867196E+04</pdfrwt>
<pdfrwt beam="2">  1       -2 0.65592258E-01 0.17867196E+04</pdfrwt>
<totfact> 0.64643393E+00</totfact>
</mgrwt>
</event>
<event>
12    4  0.4424320E-008  0.2981112E+04  0.7818608E-02  0.8249145E-01
         -2   -1    0    0    0  501 -0.00000000000E+00  0.00000000000E+00  0.25647376188E+04  0.25647376188E+04  0.00000000000E+00 0.  1.
          1   -1    0    0  501    0  0.00000000000E+00 -0.00000000000E+00 -0.86627102595E+03  0.86627102595E+03  0.00000000000E+00 0. -1.
        -24    2    1    2    0    0 -0.27382434167E+01 -0.61328604716E+03  0.21695006917E+04  0.22556119406E+04  0.70176218235E+02 0.  0.
        254    2    1    2    0    0  0.27382434167E+01  0.61328604716E+03 -0.47103409878E+03  0.11753967042E+04  0.88518756007E+03 0.  0.
         23    2    4    4    0    0 -0.93884750510E+02  0.36646696657E+03 -0.70836982877E+03  0.80825720592E+03  0.91539677980E+02 0.  0.
         23    2    4    4    0    0  0.96622993927E+02  0.24681908059E+03  0.23733572999E+03  0.36713949832E+03  0.90595259245E+02 0.  0.
          3    1    3    3  502    0 -0.25694790866E+02 -0.15871145678E+03  0.50277406057E+03  0.52785538244E+03  0.00000000000E+00 0. -1.
         -4    1    3    3    0  502  0.22956547450E+02 -0.45457459038E+03  0.16667266311E+04  0.17277565581E+04  0.00000000000E+00 0.  1.
         11    1    5    5    0    0 -0.90500116432E+02  0.37087966078E+03 -0.70507427189E+03  0.80179281784E+03  0.00000000000E+00 0. -1.
        -11    1    5    5    0    0 -0.33846340783E+01 -0.44126942159E+01 -0.32955568777E+01  0.64643880779E+01  0.00000000000E+00 0.  1.
          2    1    6    6  503    0  0.18794769202E+02  0.10279292772E+03  0.42894770400E+02  0.11295835810E+03  0.00000000000E+00 0.  1.
         -2    1    6    6    0  503  0.77828224724E+02  0.14402615287E+03  0.19444095959E+03  0.25418114021E+03  0.00000000000E+00 0. -1.
<mgrwt>
<rscale>  0 0.29811125E+04</rscale>
<asrwt>0</asrwt>
<pdfrwt beam="1">  1        1 0.13327247E+00 0.29811125E+04</pdfrwt>
<pdfrwt beam="2">  1       -2 0.39457501E+00 0.29811125E+04</pdfrwt>
<totfact> 0.11680271E-01</totfact>
</mgrwt>
</event>
<event>
12    4  0.4424320E-008  0.2712882E+04  0.7818608E-02  0.8330837E-01
         -2   -1    0    0    0  501 -0.00000000000E+00  0.00000000000E+00  0.70381389328E+03  0.70381389328E+03  0.00000000000E+00 0.  1.
          1   -1    0    0  501    0  0.00000000000E+00 -0.00000000000E+00 -0.26142304497E+04  0.26142304497E+04  0.00000000000E+00 0. -1.
        -24    2    1    2    0    0  0.57209703267E+03 -0.14906000561E+03 -0.21430172453E+04  0.22244979648E+04  0.79714375139E+02 0.  0.
        254    2    1    2    0    0 -0.57209703267E+03  0.14906000561E+03  0.23260068895E+03  0.10935463781E+04  0.89007117723E+03 0.  0.
         23    2    4    4    0    0 -0.64770519042E+03  0.18905659151E+02 -0.15139568448E+03  0.67151309580E+03  0.90165109182E+02 0.  0.
         23    2    4    4    0    0  0.75608157745E+02  0.13015434646E+03  0.38399637343E+03  0.42203328232E+03  0.89454620686E+02 0.  0.
          1    1    3    3  502    0  0.37946428813E+03 -0.60735041159E+02 -0.14167037040E+04  0.14679002950E+04  0.00000000000E+00 0. -1.
         -2    1    3    3    0  502  0.19263274454E+03 -0.88324964454E+02 -0.72631354131E+03  0.75659766977E+03  0.00000000000E+00 0.  1.
         11    1    5    5    0    0 -0.76821599782E+02  0.19493274969E+02 -0.43882016811E+02  0.90593473062E+02  0.00000000000E+00 0.  1.
        -11    1    5    5    0    0 -0.57088359064E+03 -0.58761581831E+00 -0.10751366767E+03  0.58091962274E+03  0.00000000000E+00 0. -1.
          2    1    6    6  503    0  0.57360139332E+02  0.12765263653E+03  0.24772265898E+03  0.28452046845E+03  0.00000000000E+00 0. -1.
         -2    1    6    6    0  503  0.18248018412E+02  0.25017099316E+01  0.13627371445E+03  0.13751281387E+03  0.00000000000E+00 0.  1.
<mgrwt>
<rscale>  0 0.27128816E+04</rscale>
<asrwt>0</asrwt>
<pdfrwt beam="1">  1        1 0.40218930E+00 0.27128816E+04</pdfrwt>
<pdfrwt beam="2">  1       -2 0.10827906E+00 0.27128816E+04</pdfrwt>
<totfact> 0.59022417E-01</totfact>
</mgrwt>
</event>
<event>
12    4  0.4424320E-008  0.1142291E+04  0.7818608E-02  0.9164925E-01
          1   -1    0    0  501    0  0.00000000000E+00  0.00000000000E+00  0.78459362415E+03  0.78459362415E+03  0.00000000000E+00 0. -1.
         -2   -1    0    0    0  501 -0.00000000000E+00 -0.00000000000E+00 -0.41576605862E+03  0.41576605862E+03  0.00000000000E+00 0.  1.
        -24    2    1    2    0    0 -0.20083620010E+03 -0.46289301652E+02  0.73437063025E+02  0.23290568442E+03  0.79838442430E+02 0.  0.
        254    2    1    2    0    0  0.20083620010E+03  0.46289301652E+02  0.29539050250E+03  0.96745399836E+03  0.89790523512E+03 0.  0.
         23    2    4    4    0    0  0.20859571302E+03  0.17786787179E+03  0.57532119496E+03  0.64451691434E+03  0.96220705602E+02 0.  0.
         23    2    4    4    0    0 -0.77595129211E+01 -0.13157857013E+03 -0.27993069246E+03  0.32293708402E+03  0.92488039730E+02 0.  0.
          1    1    3    3  502    0 -0.14245579244E+01 -0.11191300675E+02 -0.88580839514E+01  0.14343647631E+02  0.00000000000E+00 0. -1.
         -2    1    3    3    0  502 -0.19941164218E+03 -0.35098000977E+02  0.82295146977E+02  0.21856203679E+03  0.00000000000E+00 0.  1.
         11    1    5    5    0    0  0.14009379029E+03  0.59037915080E+02  0.27139430545E+03  0.31107332661E+03  0.00000000000E+00 0.  1.
        -11    1    5    5    0    0  0.68501922728E+02  0.11882995671E+03  0.30392688951E+03  0.33344358773E+03  0.00000000000E+00 0. -1.
          1    1    6    6  503    0  0.14717724014E+02  0.85978520980E+01 -0.16695511808E+02  0.23859475589E+02  0.00000000000E+00 0. -1.
         -1    1    6    6    0  503 -0.22477236935E+02 -0.14017642223E+03 -0.26323518066E+03  0.29907760843E+03  0.00000000000E+00 0.  1.
<mgrwt>
<rscale>  0 0.11422914E+04</rscale>
<asrwt>0</asrwt>
<pdfrwt beam="1">  1        1 0.12070671E+00 0.11422914E+04</pdfrwt>
<pdfrwt beam="2">  1       -2 0.63964009E-01 0.11422914E+04</pdfrwt>
<totfact> 0.44883506E+01</totfact>
</mgrwt>
</event>
<event>
12    4  0.4424320E-008  0.1415145E+04  0.7818608E-02  0.8942928E-01
          1   -1    0    0  501    0  0.00000000000E+00  0.00000000000E+00  0.93936532089E+03  0.93936532089E+03  0.00000000000E+00 0. -1.
         -2   -1    0    0    0  501 -0.00000000000E+00 -0.00000000000E+00 -0.53297547548E+03  0.53297547548E+03  0.00000000000E+00 0.  1.
        -24    2    1    2    0    0 -0.22913153977E+03 -0.20215343739E+03  0.40682135428E+03  0.51559660708E+03  0.83480369986E+02 0.  0.
        254    2    1    2    0    0  0.22913153977E+03  0.20215343739E+03 -0.43150886662E+00  0.95674418929E+03  0.90663773513E+03 0.  0.
         23    2    4    4    0    0  0.58036404993E+02 -0.24640127811E+03 -0.28408055347E+03  0.39121956318E+03  0.90934985550E+02 0.  0.
         23    2    4    4    0    0  0.17109513478E+03  0.44855471550E+03  0.28364904461E+03  0.56552462610E+03  0.94267938749E+02 0.  0.
          1    1    3    3  502    0 -0.20894783183E+03 -0.16558419405E+03  0.30245893113E+03  0.40318572243E+03  0.00000000000E+00 0. -1.
         -2    1    3    3    0  502 -0.20183707938E+02 -0.36569243343E+02  0.10436242314E+03  0.11241088466E+03  0.00000000000E+00 0.  1.
         11    1    5    5    0    0  0.58870259197E+02 -0.25429700038E+03 -0.27487973285E+03  0.37906666874E+03  0.00000000000E+00 0. -1.
        -11    1    5    5    0    0 -0.83385420426E+00  0.78957222744E+01 -0.92008206265E+01  0.12152894440E+02  0.00000000000E+00 0.  1.
          2    1    6    6  503    0  0.73964440851E+02  0.23745220290E+03  0.95066109175E+02  0.26625523898E+03  0.00000000000E+00 0. -1.
         -2    1    6    6    0  503  0.97130693929E+02  0.21110251260E+03  0.18858293543E+03  0.29926938712E+03  0.00000000000E+00 0.  1.
<mgrwt>
<rscale>  0 0.14151448E+04</rscale>
<asrwt>0</asrwt>
<pdfrwt beam="1">  1        1 0.14451774E+00 0.14151448E+04</pdfrwt>
<pdfrwt beam="2">  1       -2 0.81996227E-01 0.14151448E+04</pdfrwt>
<totfact> 0.18868370E+01</totfact>
</mgrwt>
</event>
<event>
12    4  0.4424320E-008  0.1806111E+04  0.7818608E-02  0.8703056E-01
          1   -1    0    0  501    0  0.00000000000E+00  0.00000000000E+00  0.12294190395E+04  0.12294190395E+04  0.00000000000E+00 0. -1.
         -2   -1    0    0    0  501 -0.00000000000E+00 -0.00000000000E+00 -0.66332906825E+03  0.66332906825E+03  0.00000000000E+00 0.  1.
        -24    2    1    2    0    0  0.58495842007E+03  0.15647969817E+03 -0.93780480038E+02  0.61796438434E+03  0.80143326148E+02 0.  0.
        254    2    1    2    0    0 -0.58495842007E+03 -0.15647969817E+03  0.65987045125E+03  0.12747837234E+04  0.90718370783E+03 0.  0.
         23    2    4    4    0    0 -0.60630940973E+03  0.10899711929E+03  0.75570870866E+02  0.62625246457E+03  0.83604548429E+02 0.  0.
         23    2    4    4    0    0  0.21350989657E+02 -0.26547681746E+03  0.58429958038E+03  0.64853125879E+03  0.90845960965E+02 0.  0.
          3    1    3    3  502    0  0.15740051791E+03  0.78719379069E+02 -0.19074778134E+02  0.17701839125E+03  0.00000000000E+00 0. -1.
         -4    1    3    3    0  502  0.42755790216E+03  0.77760319102E+02 -0.74705701905E+02  0.44094599310E+03  0.00000000000E+00 0.  1.
         11    1    5    5    0    0 -0.34728400741E+03  0.10180120729E+03  0.58181050765E+02  0.36654427056E+03  0.00000000000E+00 0. -1.
        -11    1    5    5    0    0 -0.25902540232E+03  0.71959119995E+01  0.17389820101E+02  0.25970819401E+03  0.00000000000E+00 0.  1.
          2    1    6    6  503    0 -0.26635836856E+02 -0.26625103041E+02  0.72068165530E+02  0.81315339265E+02  0.00000000000E+00 0.  1.
         -2    1    6    6    0  503  0.47986826514E+02 -0.23885171442E+03  0.51223141485E+03  0.56721591952E+03  0.00000000000E+00 0. -1.
<mgrwt>
<rscale>  0 0.18061112E+04</rscale>
<asrwt>0</asrwt>
<pdfrwt beam="1">  1        1 0.18914139E+00 0.18061112E+04</pdfrwt>
<pdfrwt beam="2">  1       -2 0.10205063E+00 0.18061112E+04</pdfrwt>
<totfact> 0.66219783E+00</totfact>
</mgrwt>
</event>
<event>
12    4  0.4424320E-008  0.2559119E+04  0.7818608E-02  0.8382222E-01
         -2   -1    0    0    0  501 -0.00000000000E+00  0.00000000000E+00  0.79743337348E+03  0.79743337348E+03  0.00000000000E+00 0.  1.
          1   -1    0    0  501    0  0.00000000000E+00 -0.00000000000E+00 -0.20531775411E+04  0.20531775411E+04  0.00000000000E+00 0. -1.
        -24    2    1    2    0    0 -0.59170965946E+03  0.53146995576E+03 -0.14185525231E+04  0.16282661760E+04  0.79867666638E+02 0.  0.
        254    2    1    2    0    0  0.59170965946E+03 -0.53146995576E+03  0.16280835548E+03  0.12223447386E+04  0.91380493778E+03 0.  0.
         23    2    4    4    0    0  0.41248106046E+03  0.15523841845E+03  0.22631993387E+03  0.50367177069E+03  0.90691500818E+02 0.  0.
         23    2    4    4    0    0  0.17922859900E+03 -0.68670837421E+03 -0.63511578398E+02  0.71867296787E+03  0.93626023333E+02 0.  0.
          3    1    3    3  502    0 -0.37105632582E+03  0.36632164802E+03 -0.98575237734E+03  0.11151601213E+04  0.00000000000E+00 0. -1.
         -4    1    3    3    0  502 -0.22065333365E+03  0.16514830774E+03 -0.43280014577E+03  0.51310605471E+03  0.00000000000E+00 0.  1.
         11    1    5    5    0    0  0.35910007594E+03  0.16294456576E+03  0.21269319272E+03  0.44804262105E+03  0.00000000000E+00 0.  1.
        -11    1    5    5    0    0  0.53380984526E+02 -0.77061473129E+01  0.13626741157E+02  0.55629149642E+02  0.00000000000E+00 0. -1.
          2    1    6    6  503    0  0.57775258002E+02 -0.13889815661E+03  0.18615300833E+02  0.15158234650E+03  0.00000000000E+00 0. -1.
         -2    1    6    6    0  503  0.12145334100E+03 -0.54781021761E+03 -0.82126879230E+02  0.56709062137E+03  0.00000000000E+00 0.  1.
<mgrwt>
<rscale>  0 0.25591188E+04</rscale>
<asrwt>0</asrwt>
<pdfrwt beam="1">  1        1 0.31587347E+00 0.25591188E+04</pdfrwt>
<pdfrwt beam="2">  1       -2 0.12268206E+00 0.25591188E+04</pdfrwt>
<totfact> 0.10703767E+00</totfact>
</mgrwt>
</event>
<event>
12    4  0.4424320E-008  0.1268067E+04  0.7818608E-02  0.9055279E-01
         -2   -1    0    0    0  501 -0.00000000000E+00  0.00000000000E+00  0.38581123523E+03  0.38581123523E+03  0.00000000000E+00 0.  1.
          1   -1    0    0  501    0  0.00000000000E+00 -0.00000000000E+00 -0.10419558212E+04  0.10419558212E+04  0.00000000000E+00 0. -1.
        -24    2    1    2    0    0  0.19203472445E+03 -0.15015127230E+03 -0.31841329562E+03  0.40865260878E+03  0.78658679551E+02 0.  0.
        254    2    1    2    0    0 -0.19203472445E+03  0.15015127230E+03 -0.33773129035E+03  0.10191144476E+04  0.93011240877E+03 0.  0.
         23    2    4    4    0    0 -0.13573829350E+03  0.53668983577E+03 -0.18499732599E+03  0.58992537893E+03  0.85598352437E+02 0.  0.
         23    2    4    4    0    0 -0.56296430953E+02 -0.38653856347E+03 -0.15273396435E+03  0.42918906872E+03  0.91072738263E+02 0.  0.
          1    1    3    3  502    0  0.15473363751E+03 -0.11728443741E+03 -0.29628366068E+03  0.35423459095E+03  0.00000000000E+00 0. -1.
         -2    1    3    3    0  502  0.37301086941E+02 -0.32866834892E+02 -0.22129634938E+02  0.54418017837E+02  0.00000000000E+00 0.  1.
         11    1    5    5    0    0  0.78670079766E+01  0.63107616855E+01 -0.72276725562E+01  0.12407851471E+02  0.00000000000E+00 0.  1.
        -11    1    5    5    0    0 -0.14360530148E+03  0.53037907408E+03 -0.17776965344E+03  0.57751752746E+03  0.00000000000E+00 0. -1.
          4    1    6    6  503    0 -0.21903956787E+01 -0.21633686030E+03 -0.12071455002E+03  0.24774672056E+03  0.00000000000E+00 0. -1.
         -4    1    6    6    0  503 -0.54106035274E+02 -0.17020170316E+03 -0.32019414334E+02  0.18144234816E+03  0.00000000000E+00 0.  1.
<mgrwt>
<rscale>  0 0.12680667E+04</rscale>
<asrwt>0</asrwt>
<pdfrwt beam="1">  1        1 0.16030089E+00 0.12680667E+04</pdfrwt>
<pdfrwt beam="2">  1       -2 0.59355575E-01 0.12680667E+04</pdfrwt>
<totfact> 0.32119131E+01</totfact>
</mgrwt>
</event>
<event>
12    4  0.4424320E-008  0.2443023E+04  0.7818608E-02  0.8423570E-01
         -4   -1    0    0    0  501 -0.00000000000E+00  0.00000000000E+00  0.24214895801E+04  0.24214895801E+04  0.00000000000E+00 0.  1.
          3   -1    0    0  501    0  0.00000000000E+00 -0.00000000000E+00 -0.61618677450E+03  0.61618677450E+03  0.00000000000E+00 0. -1.
        -24    2    1    2    0    0  0.22343826397E+03  0.10113681410E+04  0.99511811077E+03  0.14384508537E+04  0.78042485274E+02 0.  0.
        254    2    1    2    0    0 -0.22343826397E+03 -0.10113681410E+04  0.81018469484E+03  0.15992255009E+04  0.91012789681E+03 0.  0.
         23    2    4    4    0    0  0.32070161404E+03 -0.20017598998E+03  0.31378200449E+03  0.49961818025E+03  0.90770190519E+02 0.  0.
         23    2    4    4    0    0 -0.54413987801E+03 -0.81119215107E+03  0.49640269035E+03  0.10996073207E+04  0.92734653280E+02 0.  0.
          1    1    3    3  502    0  0.97115136453E+02  0.44975247509E+03  0.49599158890E+03  0.67654733377E+03  0.00000000000E+00 0. -1.
         -2    1    3    3    0  502  0.12632312752E+03  0.56161566595E+03  0.49912652187E+03  0.76190351989E+03  0.00000000000E+00 0.  1.
         11    1    5    5    0    0  0.22772889848E+03 -0.90609626671E+02  0.19696160126E+03  0.31442714263E+03  0.00000000000E+00 0. -1.
        -11    1    5    5    0    0  0.92972715553E+02 -0.10956636331E+03  0.11682040323E+03  0.18519103762E+03  0.00000000000E+00 0.  1.
          1    1    6    6  503    0 -0.43555282657E+03 -0.59071999934E+03  0.34523887080E+03  0.81107722213E+03  0.00000000000E+00 0. -1.
         -1    1    6    6    0  503 -0.10858705144E+03 -0.22047215173E+03  0.15116381955E+03  0.28853009855E+03  0.00000000000E+00 0.  1.
<mgrwt>
<rscale>  0 0.24430226E+04</rscale>
<asrwt>0</asrwt>
<pdfrwt beam="1">  1        3 0.94797967E-01 0.24430226E+04</pdfrwt>
<pdfrwt beam="2">  1       -4 0.37253685E+00 0.24430226E+04</pdfrwt>
<totfact> 0.21237579E-02</totfact>
</mgrwt>
</event>
<event>
12    4  0.4424320E-008  0.1258983E+04  0.7818608E-02  0.9062740E-01
         -2   -1    0    0    0  501 -0.00000000000E+00  0.00000000000E+00  0.13409714669E+04  0.13409714669E+04  0.00000000000E+00 0.  1.
          1   -1    0    0  501    0  0.00000000000E+00 -0.00000000000E+00 -0.29550178314E+03  0.29550178314E+03  0.00000000000E+00 0. -1.
        -24    2    1    2    0    0  0.21103931359E+03 -0.20481759965E+03  0.25153627487E+03  0.39487159329E+03  0.78519020633E+02 0.  0.
        254    2    1    2    0    0 -0.21103931359E+03  0.20481759965E+03  0.79393340888E+03  0.12416016567E+04  0.90816109545E+03 0.  0.
         23    2    4    4    0    0 -0.15802502989E+03 -0.16876570973E+03  0.81599601527E+03  0.85295915753E+03  0.90752700396E+02 0.  0.
         23    2    4    4    0    0 -0.53014283702E+02  0.37358330938E+03 -0.22062606388E+02  0.38864249922E+03  0.90450153523E+02 0.  0.
          3    1    3    3  502    0  0.10566098852E+03 -0.94370442209E+02  0.17170363132E+03  0.22260314882E+03  0.00000000000E+00 0. -1.
         -2    1    3    3    0  502  0.10537832507E+03 -0.11044715744E+03  0.79832643555E+02  0.17226844447E+03  0.00000000000E+00 0.  1.
         11    1    5    5    0    0 -0.11231378959E+03 -0.13567798977E+03  0.46091687734E+03  0.49342402865E+03  0.00000000000E+00 0.  1.
        -11    1    5    5    0    0 -0.45711240306E+02 -0.33087719961E+02  0.35507913793E+03  0.35953512888E+03  0.00000000000E+00 0. -1.
          1    1    6    6  503    0 -0.37758200124E+02  0.47917208286E+02  0.65983826350E+01  0.61361870734E+02  0.00000000000E+00 0. -1.
         -1    1    6    6    0  503 -0.15256083578E+02  0.32566610109E+03 -0.28660989022E+02  0.32728062848E+03  0.00000000000E+00 0.  1.
<mgrwt>
<rscale>  0 0.12589829E+04</rscale>
<asrwt>0</asrwt>
<pdfrwt beam="1">  1        1 0.45461814E-01 0.12589829E+04</pdfrwt>
<pdfrwt beam="2">  1       -2 0.20630330E+00 0.12589829E+04</pdfrwt>
<totfact> 0.93006302E+00</totfact>
</mgrwt>
</event>
<event>
12    4  0.4424320E-008  0.1102770E+04  0.7818608E-02  0.9202496E-01
         -2   -1    0    0    0  501 -0.00000000000E+00  0.00000000000E+00  0.35989678576E+03  0.35989678576E+03  0.00000000000E+00 0.  1.
          1   -1    0    0  501    0  0.00000000000E+00 -0.00000000000E+00 -0.84475758235E+03  0.84475758235E+03  0.00000000000E+00 0. -1.
        -24    2    1    2    0    0 -0.15245068240E+03 -0.25758759999E+02 -0.15636285355E+03  0.23313287378E+03  0.77439464006E+02 0.  0.
        254    2    1    2    0    0  0.15245068240E+03  0.25758759999E+02 -0.32849794303E+03  0.97152149433E+03  0.90113172794E+03 0.  0.
         23    2    4    4    0    0  0.56241331540E+02  0.42116738303E+03  0.85571396922E+01  0.43489071757E+03  0.92258656409E+02 0.  0.
         23    2    4    4    0    0  0.96209350859E+02 -0.39540862303E+03 -0.33705508272E+03  0.53663077676E+03  0.93606855615E+02 0.  0.
          3    1    3    3  502    0 -0.15355121593E+03 -0.37959741264E+02 -0.15379340996E+03  0.22061579911E+03  0.00000000000E+00 0. -1.
         -4    1    3    3    0  502  0.11005335294E+01  0.12200981265E+02 -0.25694435879E+01  0.12517074667E+02  0.00000000000E+00 0.  1.
         11    1    5    5    0    0 -0.23465567968E+02  0.15925896343E+03 -0.30730357130E+00  0.16097870899E+03  0.00000000000E+00 0. -1.
        -11    1    5    5    0    0  0.79706899508E+02  0.26190841961E+03  0.88644432635E+01  0.27391200858E+03  0.00000000000E+00 0.  1.
          3    1    6    6  503    0  0.35574117828E+02 -0.29763056852E+02 -0.29156961399E+02  0.54785817603E+02  0.00000000000E+00 0. -1.
         -3    1    6    6    0  503  0.60635233030E+02 -0.36564556618E+03 -0.30789812132E+03  0.48184495916E+03  0.00000000000E+00 0.  1.
<mgrwt>
<rscale>  0 0.11027702E+04</rscale>
<asrwt>0</asrwt>
<pdfrwt beam="1">  1        1 0.12996271E+00 0.11027702E+04</pdfrwt>
<pdfrwt beam="2">  1       -2 0.55368736E-01 0.11027702E+04</pdfrwt>
<totfact> 0.54165625E+01</totfact>
</mgrwt>
</event>
<event>
12    4  0.4424320E-008  0.1654629E+04  0.7818608E-02  0.8787673E-01
          1   -1    0    0  501    0  0.00000000000E+00  0.00000000000E+00  0.11300058894E+04  0.11300058894E+04  0.00000000000E+00 0. -1.
         -2   -1    0    0    0  501 -0.00000000000E+00 -0.00000000000E+00 -0.60570400417E+03  0.60570400417E+03  0.00000000000E+00 0.  1.
        -24    2    1    2    0    0 -0.25568149234E+03 -0.52076471162E+03  0.16726455138E+03  0.60891893355E+03  0.78967886471E+02 0.  0.
        254    2    1    2    0    0  0.25568149234E+03  0.52076471162E+03  0.35703733385E+03  0.11267909600E+04  0.89755963559E+03 0.  0.
         23    2    4    4    0    0  0.40115237601E+03  0.13148188860E+03 -0.15624392923E+03  0.45987208793E+03  0.94124683380E+02 0.  0.
         23    2    4    4    0    0 -0.14547088367E+03  0.38928282303E+03  0.51328126308E+03  0.66691887210E+03  0.92845207905E+02 0.  0.
          1    1    3    3  502    0 -0.65300918151E+02 -0.84664630630E+02  0.53979760563E+02  0.11977530689E+03  0.00000000000E+00 0. -1.
         -2    1    3    3    0  502 -0.19038057419E+03 -0.43610008099E+03  0.11328479082E+03  0.48914362666E+03  0.00000000000E+00 0.  1.
         11    1    5    5    0    0  0.22808423950E+03  0.26507148353E+02 -0.72214432104E+02  0.24070723592E+03  0.00000000000E+00 0. -1.
        -11    1    5    5    0    0  0.17306813651E+03  0.10497474024E+03 -0.84029497126E+02  0.21916485200E+03  0.00000000000E+00 0.  1.
          1    1    6    6  503    0 -0.14857156644E+03  0.38927186741E+03  0.51569909470E+03  0.66298691796E+03  0.00000000000E+00 0. -1.
         -1    1    6    6    0  503  0.31006827717E+01  0.10955614388E-01 -0.24178316113E+01  0.39319541423E+01  0.00000000000E+00 0.  1.
<mgrwt>
<rscale>  0 0.16546288E+04</rscale>
<asrwt>0</asrwt>
<pdfrwt beam="1">  1        1 0.17384706E+00 0.16546288E+04</pdfrwt>
<pdfrwt beam="2">  1       -2 0.93185231E-01 0.16546288E+04</pdfrwt>
<totfact> 0.98313647E+00</totfact>
</mgrwt>
</event>
<event>
12    4  0.4424320E-008  0.1332892E+04  0.7818608E-02  0.9003880E-01
         -2   -1    0    0    0  501 -0.00000000000E+00  0.00000000000E+00  0.65397898339E+03  0.65397898339E+03  0.00000000000E+00 0.  1.
          1   -1    0    0  501    0  0.00000000000E+00 -0.00000000000E+00 -0.67915088770E+03  0.67915088770E+03  0.00000000000E+00 0. -1.
        -24    2    1    2    0    0  0.21571535512E+02 -0.35331356358E+03  0.47235539427E+02  0.36563457487E+03  0.78496119620E+02 0.  0.
        254    2    1    2    0    0 -0.21571535512E+02  0.35331356358E+03 -0.72407443728E+02  0.96749529622E+03  0.89750125624E+03 0.  0.
         23    2    4    4    0    0 -0.16441525098E+03  0.44798196530E+03  0.28343724854E+03  0.56243597943E+03  0.90979894026E+02 0.  0.
         23    2    4    4    0    0  0.14284371547E+03 -0.94668401711E+02 -0.35584469226E+03  0.40505931679E+03  0.89895337881E+02 0.  0.
          1    1    3    3  502    0  0.36175656863E+02 -0.31087980260E+03  0.60641892947E+02  0.31879832025E+03  0.00000000000E+00 0. -1.
         -2    1    3    3    0  502 -0.14604121352E+02 -0.42433760981E+02 -0.13406353519E+02  0.46836254613E+02  0.00000000000E+00 0.  1.
         11    1    5    5    0    0 -0.91992012110E+02  0.36057229747E+03  0.21104632439E+03  0.42780306571E+03  0.00000000000E+00 0. -1.
        -11    1    5    5    0    0 -0.72423238874E+02  0.87409667830E+02  0.72390924143E+02  0.13463291372E+03  0.00000000000E+00 0.  1.
          4    1    6    6  503    0  0.14588496862E+03 -0.61496612766E+02 -0.31326828415E+03  0.35100039218E+03  0.00000000000E+00 0. -1.
         -4    1    6    6    0  503 -0.30412531522E+01 -0.33171788946E+02 -0.42576408111E+02  0.54058924612E+02  0.00000000000E+00 0.  1.
<mgrwt>
<rscale>  0 0.13328922E+04</rscale>
<asrwt>0</asrwt>
<pdfrwt beam="1">  1        1 0.10448475E+00 0.13328922E+04</pdfrwt>
<pdfrwt beam="2">  1       -2 0.10061215E+00 0.13328922E+04</pdfrwt>
<totfact> 0.19926463E+01</totfact>
</mgrwt>
</event>
<event>
12    4  0.4424320E-008  0.1861965E+04  0.7818608E-02  0.8674024E-01
          1   -1    0    0  501    0  0.00000000000E+00  0.00000000000E+00  0.47585832332E+03  0.47585832332E+03  0.00000000000E+00 0. -1.
         -2   -1    0    0    0  501 -0.00000000000E+00 -0.00000000000E+00 -0.18213991688E+04  0.18213991688E+04  0.00000000000E+00 0.  1.
        -24    2    1    2    0    0  0.58595183658E+03  0.18977126170E+03 -0.66185185069E+02  0.62430768890E+03  0.77633273428E+02 0.  0.
        254    2    1    2    0    0 -0.58595183658E+03 -0.18977126170E+03 -0.12793556604E+04  0.16729498032E+04  0.88467929314E+03 0.  0.
         23    2    4    4    0    0 -0.60305995251E+03 -0.37259768921E+02 -0.30546517689E+03  0.68273879405E+03  0.88055039055E+02 0.  0.
         23    2    4    4    0    0  0.17108115935E+02 -0.15251149278E+03 -0.97389048350E+03  0.99021100915E+03  0.92210225762E+02 0.  0.
          1    1    3    3  502    0  0.51724499614E+03  0.19273357559E+03 -0.56836636082E+02  0.55490451466E+03  0.00000000000E+00 0. -1.
         -2    1    3    3    0  502  0.68706840436E+02 -0.29623138868E+01 -0.93485489867E+01  0.69403174239E+02  0.00000000000E+00 0.  1.
         11    1    5    5    0    0 -0.24974610557E+03  0.22386450306E+02 -0.10210523128E+03  0.27073926324E+03  0.00000000000E+00 0.  1.
        -11    1    5    5    0    0 -0.35331384694E+03 -0.59646219227E+02 -0.20335994561E+03  0.41199953081E+03  0.00000000000E+00 0. -1.
          3    1    6    6  503    0  0.49301501537E+02 -0.88457325257E+02 -0.69085018778E+03  0.69823299721E+03  0.00000000000E+00 0. -1.
         -3    1    6    6    0  503 -0.32193385601E+02 -0.64054167522E+02 -0.28304029572E+03  0.29197801194E+03  0.00000000000E+00 0.  1.
<mgrwt>
<rscale>  0 0.18619645E+04</rscale>
<asrwt>0</asrwt>
<pdfrwt beam="1">  1        1 0.73208972E-01 0.18619645E+04</pdfrwt>
<pdfrwt beam="2">  1       -2 0.28021526E+00 0.18619645E+04</pdfrwt>
<totfact> 0.16374980E+00</totfact>
</mgrwt>
</event>
<event>
12    4  0.4424320E-008  0.2284444E+04  0.7818608E-02  0.8484080E-01
         -2   -1    0    0    0  501 -0.00000000000E+00  0.00000000000E+00  0.12206355673E+04  0.12206355673E+04  0.00000000000E+00 0.  1.
          1   -1    0    0  501    0  0.00000000000E+00 -0.00000000000E+00 -0.10688454013E+04  0.10688454013E+04  0.00000000000E+00 0. -1.
        -24    2    1    2    0    0 -0.65905847421E+02  0.59473940967E+03 -0.68730606911E+03  0.91466915657E+03  0.78558813657E+02 0.  0.
        254    2    1    2    0    0  0.65905847421E+02 -0.59473940967E+03  0.83909623513E+03  0.13748118120E+04  0.90992663466E+03 0.  0.
         23    2    4    4    0    0 -0.13451901304E+03 -0.66391889145E+03  0.90593152960E+03  0.11349274901E+04  0.92004413750E+02 0.  0.
         23    2    4    4    0    0  0.20042486046E+03  0.69179481780E+02 -0.66835294479E+02  0.23988432190E+03  0.90119952919E+02 0.  0.
          1    1    3    3  502    0 -0.72032728188E+02  0.58905158645E+03 -0.68431278139E+03  0.90578941714E+03  0.00000000000E+00 0. -1.
         -2    1    3    3    0  502  0.61268807676E+01  0.56878232253E+01 -0.29932877179E+01  0.88797394301E+01  0.00000000000E+00 0.  1.
         11    1    5    5    0    0 -0.37469452602E+02 -0.35509056702E+03  0.52665457674E+03  0.63628477419E+03  0.00000000000E+00 0. -1.
        -11    1    5    5    0    0 -0.97049560438E+02 -0.30882832443E+03  0.37927695287E+03  0.49864271591E+03  0.00000000000E+00 0.  1.
          3    1    6    6  503    0 -0.54724604843E+01 -0.85026488789E+01 -0.50994247700E+01  0.11324618965E+02  0.00000000000E+00 0. -1.
         -3    1    6    6    0  503  0.20589732095E+03  0.77682130659E+02 -0.61735869709E+02  0.22855970293E+03  0.00000000000E+00 0.  1.
<mgrwt>
<rscale>  0 0.22844437E+04</rscale>
<asrwt>0</asrwt>
<pdfrwt beam="1">  1        1 0.16443775E+00 0.22844437E+04</pdfrwt>
<pdfrwt beam="2">  1       -2 0.18779009E+00 0.22844437E+04</pdfrwt>
<totfact> 0.17044244E+00</totfact>
</mgrwt>
</event>
<event>
12    4  0.4424320E-008  0.1639012E+04  0.7818608E-02  0.8796933E-01
          1   -1    0    0  501    0  0.00000000000E+00  0.00000000000E+00  0.28698574273E+04  0.28698574273E+04  0.00000000000E+00 0. -1.
         -2   -1    0    0    0  501 -0.00000000000E+00 -0.00000000000E+00 -0.23401525097E+03  0.23401525097E+03  0.00000000000E+00 0.  1.
        -24    2    1    2    0    0  0.45735549247E+03 -0.30180676216E+03  0.11823592541E+04  0.13057641374E+04  0.82372376417E+02 0.  0.
        254    2    1    2    0    0 -0.45735549247E+03  0.30180676216E+03  0.14534829222E+04  0.17981085409E+04  0.90571538113E+03 0.  0.
         23    2    4    4    0    0 -0.70337984593E+03  0.30790079480E+03  0.91138939145E+03  0.11952382911E+04  0.91748801658E+02 0.  0.
         23    2    4    4    0    0  0.24602435346E+03 -0.60940326408E+01  0.54209353075E+03  0.60287024980E+03  0.94984326510E+02 0.  0.
          3    1    3    3  502    0  0.11477766702E+02 -0.12101722340E+02  0.81821963053E+02  0.83504637296E+02  0.00000000000E+00 0. -1.
         -4    1    3    3    0  502  0.44587772577E+03 -0.28970503982E+03  0.11005372911E+04  0.12222595001E+04  0.00000000000E+00 0.  1.
         11    1    5    5    0    0 -0.68801543964E+03  0.28835102883E+03  0.89638172315E+03  0.11661954187E+04  0.00000000000E+00 0.  1.
        -11    1    5    5    0    0 -0.15364406296E+02  0.19549765969E+02  0.15007668295E+02  0.29042872412E+02  0.00000000000E+00 0. -1.
          2    1    6    6  503    0  0.14742266519E+03  0.32110712513E+02  0.38493439926E+03  0.41344773769E+03  0.00000000000E+00 0.  1.
         -2    1    6    6    0  503  0.98601688271E+02 -0.38204745154E+02  0.15715913149E+03  0.18942251211E+03  0.00000000000E+00 0. -1.
<mgrwt>
<rscale>  0 0.16390124E+04</rscale>
<asrwt>0</asrwt>
<pdfrwt beam="1">  1        1 0.44151650E+00 0.16390124E+04</pdfrwt>
<pdfrwt beam="2">  1       -2 0.36002348E-01 0.16390124E+04</pdfrwt>
<totfact> 0.45438836E+00</totfact>
</mgrwt>
</event>
<event>
12    4  0.4424320E-008  0.1548936E+04  0.7818608E-02  0.8852547E-01
         -2   -1    0    0    0  501 -0.00000000000E+00  0.00000000000E+00  0.62761959268E+03  0.62761959268E+03  0.00000000000E+00 0.  1.
          1   -1    0    0  501    0  0.00000000000E+00 -0.00000000000E+00 -0.95567612082E+03  0.95567612082E+03  0.00000000000E+00 0. -1.
        -24    2    1    2    0    0 -0.63130387080E+02  0.50400950974E+03 -0.15076466610E+03  0.53585066364E+03  0.79968228050E+02 0.  0.
        254    2    1    2    0    0  0.63130387080E+02 -0.50400950974E+03 -0.17729186204E+03  0.10474450499E+04  0.89872003230E+03 0.  0.
         23    2    4    4    0    0 -0.65978712935E+02  0.12693905343E+03 -0.33746630814E+03  0.37745543523E+03  0.90124262038E+02 0.  0.
         23    2    4    4    0    0  0.12910910002E+03 -0.63094856317E+03  0.16017444610E+03  0.66998961464E+03  0.92005333887E+02 0.  0.
          3    1    3    3  502    0 -0.21700540433E+01  0.24457178775E+02  0.98498862712E+01  0.26455301694E+02  0.00000000000E+00 0. -1.
         -4    1    3    3    0  502 -0.60960333037E+02  0.47955233096E+03 -0.16061455237E+03  0.50939536194E+03  0.00000000000E+00 0.  1.
         11    1    5    5    0    0 -0.18463865097E+02  0.28929694951E+01 -0.12843714665E+03  0.12978976934E+03  0.00000000000E+00 0. -1.
        -11    1    5    5    0    0 -0.47514847839E+02  0.12404608394E+03 -0.20902916149E+03  0.24766566588E+03  0.00000000000E+00 0.  1.
          1    1    6    6  503    0  0.16320493315E+02 -0.19173951903E+03  0.11488660068E+02  0.19277549370E+03  0.00000000000E+00 0. -1.
         -1    1    6    6    0  503  0.11278860670E+03 -0.43920904414E+03  0.14868578603E+03  0.47721412093E+03  0.00000000000E+00 0.  1.
<mgrwt>
<rscale>  0 0.15489365E+04</rscale>
<asrwt>0</asrwt>
<pdfrwt beam="1">  1        1 0.14702710E+00 0.15489365E+04</pdfrwt>
<pdfrwt beam="2">  1       -2 0.96556860E-01 0.15489365E+04</pdfrwt>
<totfact> 0.12428814E+01</totfact>
</mgrwt>
</event>
<event>
12    4  0.4424320E-008  0.1213216E+04  0.7818608E-02  0.9101366E-01
         -4   -1    0    0    0  501 -0.00000000000E+00  0.00000000000E+00  0.46710432690E+03  0.46710432690E+03  0.00000000000E+00 0.  1.
          3   -1    0    0  501    0  0.00000000000E+00 -0.00000000000E+00 -0.78777586299E+03  0.78777586299E+03  0.00000000000E+00 0. -1.
        -24    2    1    2    0    0 -0.84818675557E+02 -0.15379133522E+03 -0.27642688539E+03  0.33728427525E+03  0.80640417006E+02 0.  0.
        254    2    1    2    0    0  0.84818675557E+02  0.15379133522E+03 -0.44244650696E+02  0.91759591463E+03  0.89954360146E+03 0.  0.
         23    2    4    4    0    0  0.28885317274E+03 -0.14762795800E+03 -0.30953844243E+03  0.45744383189E+03  0.90612596327E+02 0.  0.
         23    2    4    4    0    0 -0.20403449718E+03  0.30141929322E+03  0.26529379173E+03  0.46015208274E+03  0.94209749789E+02 0.  0.
          3    1    3    3  502    0 -0.63238492723E+02 -0.15832718885E+03 -0.25327495528E+03  0.30531100318E+03  0.00000000000E+00 0. -1.
         -4    1    3    3    0  502 -0.21580182834E+02  0.45358536275E+01 -0.23151930106E+02  0.31973272071E+02  0.00000000000E+00 0.  1.
         11    1    5    5    0    0  0.26996874646E+03 -0.15349492750E+03 -0.26328234504E+03  0.40713807245E+03  0.00000000000E+00 0.  1.
        -11    1    5    5    0    0  0.18884426277E+02  0.58669694998E+01 -0.46256097392E+02  0.50305759440E+02  0.00000000000E+00 0. -1.
          2    1    6    6  503    0  0.24805255124E+01  0.49345624132E+01  0.26463484048E+02  0.27033662367E+02  0.00000000000E+00 0. -1.
         -2    1    6    6    0  503 -0.20651502269E+03  0.29648473081E+03  0.23883030768E+03  0.43311842037E+03  0.00000000000E+00 0.  1.
<mgrwt>
<rscale>  0 0.12132164E+04</rscale>
<asrwt>0</asrwt>
<pdfrwt beam="1">  1        3 0.12119629E+00 0.12132164E+04</pdfrwt>
<pdfrwt beam="2">  1       -4 0.71862205E-01 0.12132164E+04</pdfrwt>
<totfact> 0.22032824E+00</totfact>
</mgrwt>
</event>
<event>
12    4  0.4424320E-008  0.3144999E+04  0.7818608E-02  0.8203496E-01
         -2   -1    0    0    0  501 -0.00000000000E+00  0.00000000000E+00  0.18984203812E+04  0.18984203812E+04  0.00000000000E+00 0.  1.
          1   -1    0    0  501    0  0.00000000000E+00 -0.00000000000E+00 -0.13025329480E+04  0.13025329480E+04  0.00000000000E+00 0. -1.
        -24    2    1    2    0    0  0.57402006692E+03  0.76205713719E+03  0.13523760364E+04  0.16570801879E+04  0.82241643811E+02 0.  0.
        254    2    1    2    0    0 -0.57402006692E+03 -0.76205713719E+03 -0.75648860309E+03  0.15438731412E+04  0.94923082126E+03 0.  0.
         23    2    4    4    0    0 -0.81045225470E+03 -0.72254082744E+03 -0.63417433017E+03  0.12607816716E+04  0.92169615349E+02 0.  0.
         23    2    4    4    0    0  0.23643218777E+03 -0.39516309757E+02 -0.12231427291E+03  0.28309146961E+03  0.87853745819E+02 0.  0.
          1    1    3    3  502    0  0.89942095689E+02  0.16383319827E+03  0.23300993365E+03  0.29870474823E+03  0.00000000000E+00 0. -1.
         -2    1    3    3    0  502  0.48407797124E+03  0.59822393892E+03  0.11193661027E+04  0.13583754397E+04  0.00000000000E+00 0.  1.
         11    1    5    5    0    0 -0.38449871085E+03 -0.30527074745E+03 -0.32853443276E+03  0.59073205551E+03  0.00000000000E+00 0. -1.
        -11    1    5    5    0    0 -0.42595354385E+03 -0.41727007998E+03 -0.30563989742E+03  0.67004961612E+03  0.00000000000E+00 0.  1.
          1    1    6    6  503    0  0.71917910805E+02 -0.40202816659E+02 -0.80437532568E+01  0.82783780587E+02  0.00000000000E+00 0. -1.
         -1    1    6    6    0  503  0.16451427697E+03  0.68650690197E+00 -0.11427051966E+03  0.20030768902E+03  0.00000000000E+00 0.  1.
<mgrwt>
<rscale>  0 0.31449993E+04</rscale>
<asrwt>0</asrwt>
<pdfrwt beam="1">  1        1 0.20038968E+00 0.31449993E+04</pdfrwt>
<pdfrwt beam="2">  1       -2 0.29206467E+00 0.31449993E+04</pdfrwt>
<totfact> 0.23626470E-01</totfact>
</mgrwt>
</event>
<event>
12    4  0.4424320E-008  0.2806093E+04  0.7818608E-02  0.8301379E-01
         -2   -1    0    0    0  501 -0.00000000000E+00  0.00000000000E+00  0.96510815987E+03  0.96510815987E+03  0.00000000000E+00 0.  1.
          1   -1    0    0  501    0  0.00000000000E+00 -0.00000000000E+00 -0.20397086993E+04  0.20397086993E+04  0.00000000000E+00 0. -1.
        -24    2    1    2    0    0  0.94796456957E+03  0.21321893534E+03  0.37229725162E+03  0.10443334872E+04  0.89039594406E+02 0.  0.
        254    2    1    2    0    0 -0.94796456957E+03 -0.21321893534E+03 -0.14468977911E+04  0.19604833720E+04  0.89770969391E+03 0.  0.
         23    2    4    4    0    0 -0.10946487141E+04 -0.18351734446E+03 -0.10736879619E+04  0.15469048064E+04  0.90411379899E+02 0.  0.
         23    2    4    4    0    0  0.14668414452E+03 -0.29701590884E+02 -0.37320982915E+03  0.41357856557E+03  0.96763787501E+02 0.  0.
          1    1    3    3  502    0  0.92971820443E+03  0.21746441052E+03  0.37416304177E+03  0.10255070411E+04  0.00000000000E+00 0. -1.
         -2    1    3    3    0  502  0.18246365149E+02 -0.42454751747E+01 -0.18657901529E+01  0.18826446119E+02  0.00000000000E+00 0.  1.
         11    1    5    5    0    0 -0.21459427174E+03 -0.13885711294E+02 -0.16978020696E+03  0.27398692143E+03  0.00000000000E+00 0. -1.
        -11    1    5    5    0    0 -0.88005444236E+03 -0.16963163317E+03 -0.90390775498E+03  0.12729178850E+04  0.00000000000E+00 0.  1.
          3    1    6    6  503    0  0.41316109815E+01  0.14991098612E+02 -0.51922663705E+01  0.16393989050E+02  0.00000000000E+00 0. -1.
         -3    1    6    6    0  503  0.14255253354E+03 -0.44692689497E+02 -0.36801756278E+03  0.39718457652E+03  0.00000000000E+00 0.  1.
<mgrwt>
<rscale>  0 0.28060930E+04</rscale>
<asrwt>0</asrwt>
<pdfrwt beam="1">  1        1 0.31380134E+00 0.28060930E+04</pdfrwt>
<pdfrwt beam="2">  1       -2 0.14847818E+00 0.28060930E+04</pdfrwt>
<totfact> 0.65572683E-01</totfact>
</mgrwt>
</event>
<event>
12    4  0.4424320E-008  0.1752550E+04  0.7818608E-02  0.8731948E-01
          1   -1    0    0  501    0  0.00000000000E+00  0.00000000000E+00  0.18512041267E+04  0.18512041267E+04  0.00000000000E+00 0. -1.
         -2   -1    0    0    0  501 -0.00000000000E+00 -0.00000000000E+00 -0.41478823144E+03  0.41478823144E+03  0.00000000000E+00 0.  1.
        -24    2    1    2    0    0 -0.39377417072E+03  0.38142503582E+03  0.14017055777E+03  0.57180802104E+03  0.82301106798E+02 0.  0.
        254    2    1    2    0    0  0.39377417072E+03 -0.38142503582E+03  0.12962453375E+04  0.16941843371E+04  0.94311475317E+03 0.  0.
         23    2    4    4    0    0  0.13286562652E+03 -0.47502644122E+03  0.16573683308E+03  0.52644288835E+03  0.79812419379E+02 0.  0.
         23    2    4    4    0    0  0.26090854420E+03  0.93601405398E+02  0.11305085045E+04  0.11677414488E+04  0.93467219025E+02 0.  0.
          3    1    3    3  502    0 -0.42707404186E+02  0.47154812468E+02 -0.98382394693E+01  0.64376157598E+02  0.00000000000E+00 0. -1.
         -4    1    3    3    0  502 -0.35106676654E+03  0.33427022336E+03  0.15000879724E+03  0.50743186344E+03  0.00000000000E+00 0.  1.
         11    1    5    5    0    0  0.29918987844E+02 -0.23828633865E+03  0.99295405966E+02  0.25987516747E+03  0.00000000000E+00 0.  1.
        -11    1    5    5    0    0  0.10294663867E+03 -0.23674010258E+03  0.66441427109E+02  0.26656772089E+03  0.00000000000E+00 0. -1.
          1    1    6    6  503    0  0.17064830679E+03  0.33035643397E+02  0.83441725301E+03  0.85232878074E+03  0.00000000000E+00 0. -1.
         -1    1    6    6    0  503  0.90260237415E+02  0.60565762001E+02  0.29609125144E+03  0.31541266805E+03  0.00000000000E+00 0.  1.
<mgrwt>
<rscale>  0 0.17525498E+04</rscale>
<asrwt>0</asrwt>
<pdfrwt beam="1">  1        1 0.28480063E+00 0.17525498E+04</pdfrwt>
<pdfrwt beam="2">  1       -2 0.63813575E-01 0.17525498E+04</pdfrwt>
<totfact> 0.71041217E+00</totfact>
</mgrwt>
</event>
<event>
12    4  0.4424320E-008  0.2041999E+04  0.7818608E-02  0.8587233E-01
          1   -1    0    0  501    0  0.00000000000E+00  0.00000000000E+00  0.20023581097E+04  0.20023581097E+04  0.00000000000E+00 0. -1.
         -2   -1    0    0    0  501 -0.00000000000E+00 -0.00000000000E+00 -0.52060606652E+03  0.52060606652E+03  0.00000000000E+00 0.  1.
        -24    2    1    2    0    0  0.42138087985E+03  0.11409262461E+03 -0.25862708762E+03  0.51368946088E+03  0.80061968974E+02 0.  0.
        254    2    1    2    0    0 -0.42138087985E+03 -0.11409262461E+03  0.17403791308E+04  0.20092747153E+04  0.90426013393E+03 0.  0.
         23    2    4    4    0    0 -0.38011697139E+03  0.19010510343E+02  0.17925745491E+04  0.18348017327E+04  0.91233615916E+02 0.  0.
         23    2    4    4    0    0 -0.41263908466E+02 -0.13310313496E+03 -0.52195418352E+02  0.17447298261E+03  0.91089545435E+02 0.  0.
          3    1    3    3  502    0  0.21680685786E+02 -0.85783366010E+01 -0.26845397597E+01  0.23470124599E+02  0.00000000000E+00 0. -1.
         -4    1    3    3    0  502  0.39970019407E+03  0.12267096121E+03 -0.25594254786E+03  0.49021933628E+03  0.00000000000E+00 0.  1.
         11    1    5    5    0    0 -0.81898282635E+02 -0.70015148840E+01  0.58142128198E+03  0.58720273931E+03  0.00000000000E+00 0. -1.
        -11    1    5    5    0    0 -0.29821868875E+03  0.26012025227E+02  0.12111532671E+04  0.12475989934E+04  0.00000000000E+00 0.  1.
          2    1    6    6  503    0 -0.57363658100E+02 -0.47019004806E+02 -0.44645741688E+02  0.86571463742E+02  0.00000000000E+00 0. -1.
         -2    1    6    6    0  503  0.16099749634E+02 -0.86084130151E+02 -0.75496766647E+01  0.87901518871E+02  0.00000000000E+00 0.  1.
<mgrwt>
<rscale>  0 0.20419988E+04</rscale>
<asrwt>0</asrwt>
<pdfrwt beam="1">  1        1 0.30805509E+00 0.20419988E+04</pdfrwt>
<pdfrwt beam="2">  1       -2 0.80093242E-01 0.20419988E+04</pdfrwt>
<totfact> 0.33228041E+00</totfact>
</mgrwt>
</event>
<event>
12    4  0.4424320E-008  0.1788987E+04  0.7818608E-02  0.8712178E-01
          1   -1    0    0  501    0  0.00000000000E+00  0.00000000000E+00  0.39698615572E+03  0.39698615572E+03  0.00000000000E+00 0. -1.
         -2   -1    0    0    0  501 -0.00000000000E+00 -0.00000000000E+00 -0.20154816324E+04  0.20154816324E+04  0.00000000000E+00 0.  1.
        -24    2    1    2    0    0 -0.15312822337E+03  0.56498674743E+03 -0.10635434375E+04  0.12163109895E+04  0.75030008130E+02 0.  0.
        254    2    1    2    0    0  0.15312822337E+03 -0.56498674743E+03 -0.55495203921E+03  0.11961567987E+04  0.88326725493E+03 0.  0.
         23    2    4    4    0    0  0.45102668707E+03 -0.36605988130E+03 -0.79514580240E+02  0.59375407716E+03  0.93789266653E+02 0.  0.
         23    2    4    4    0    0 -0.29789846369E+03 -0.19892686613E+03 -0.47543745897E+03  0.60240272151E+03  0.92373528382E+02 0.  0.
          3    1    3    3  502    0 -0.14740493939E+02  0.37558800769E+02 -0.11921931981E+03  0.12586179680E+03  0.00000000000E+00 0. -1.
         -4    1    3    3    0  502 -0.13838772943E+03  0.52742794666E+03 -0.94432411766E+03  0.10904491927E+04  0.00000000000E+00 0.  1.
         11    1    5    5    0    0  0.55454535365E+02 -0.20922288382E+02 -0.30057410354E+02  0.66455967082E+02  0.00000000000E+00 0.  1.
        -11    1    5    5    0    0  0.39557215170E+03 -0.34513759291E+03 -0.49457169887E+02  0.52729811008E+03  0.00000000000E+00 0. -1.
          4    1    6    6  503    0 -0.30486616683E+03 -0.19394745705E+03 -0.46565914325E+03  0.58940430391E+03  0.00000000000E+00 0. -1.
         -4    1    6    6    0  503  0.69677031329E+01 -0.49794090839E+01 -0.97783157211E+01  0.12998417600E+02  0.00000000000E+00 0.  1.
<mgrwt>
<rscale>  0 0.17889866E+04</rscale>
<asrwt>0</asrwt>
<pdfrwt beam="1">  1        1 0.61074793E-01 0.17889866E+04</pdfrwt>
<pdfrwt beam="2">  1       -2 0.31007410E+00 0.17889866E+04</pdfrwt>
<totfact> 0.13830331E+00</totfact>
</mgrwt>
</event>
<event>
12    4  0.4424320E-008  0.1137701E+04  0.7818608E-02  0.9169206E-01
          1   -1    0    0  501    0  0.00000000000E+00  0.00000000000E+00  0.17541985749E+03  0.17541985749E+03  0.00000000000E+00 0. -1.
         -2   -1    0    0    0  501 -0.00000000000E+00 -0.00000000000E+00 -0.18446637294E+04  0.18446637294E+04  0.00000000000E+00 0.  1.
        -24    2    1    2    0    0  0.17056636733E+03 -0.10422324917E+03 -0.34230988928E+03  0.40366498747E+03  0.76249527740E+02 0.  0.
        254    2    1    2    0    0 -0.17056636733E+03  0.10422324917E+03 -0.13269339826E+04  0.16164185994E+04  0.90116586872E+03 0.  0.
         23    2    4    4    0    0  0.16751174911E+03 -0.32002822441E+03 -0.55684230715E+03  0.67009030416E+03  0.92029398425E+02 0.  0.
         23    2    4    4    0    0 -0.33807811644E+03  0.42425147359E+03 -0.77009167543E+03  0.94632829522E+03  0.90608653621E+02 0.  0.
          3    1    3    3  502    0  0.12418444576E+03 -0.10914548906E+03 -0.28793790271E+03  0.33202823701E+03  0.00000000000E+00 0. -1.
         -4    1    3    3    0  502  0.46381921569E+02  0.49222398922E+01 -0.54371986573E+02  0.71636750470E+02  0.00000000000E+00 0.  1.
         11    1    5    5    0    0  0.39161740809E+02 -0.75473594543E+02 -0.69047110844E+02  0.10953268431E+03  0.00000000000E+00 0.  1.
        -11    1    5    5    0    0  0.12835000830E+03 -0.24455462987E+03 -0.48779519631E+03  0.56055761984E+03  0.00000000000E+00 0. -1.
          3    1    6    6  503    0 -0.31321385306E+03  0.35049345756E+03 -0.62956093088E+03  0.78568158133E+03  0.00000000000E+00 0. -1.
         -3    1    6    6    0  503 -0.24864263377E+02  0.73758016021E+02 -0.14053074455E+03  0.16064671389E+03  0.00000000000E+00 0.  1.
<mgrwt>
<rscale>  0 0.11377006E+04</rscale>
<asrwt>0</asrwt>
<pdfrwt beam="1">  1        1 0.26987670E-01 0.11377006E+04</pdfrwt>
<pdfrwt beam="2">  1       -2 0.28379443E+00 0.11377006E+04</pdfrwt>
<totfact> 0.61543038E+00</totfact>
</mgrwt>
</event>
<event>
12    4  0.4424320E-008  0.2603988E+04  0.7818608E-02  0.8366848E-01
         -2   -1    0    0    0  501 -0.00000000000E+00  0.00000000000E+00  0.10052882486E+04  0.10052882486E+04  0.00000000000E+00 0.  1.
          1   -1    0    0  501    0  0.00000000000E+00 -0.00000000000E+00 -0.16862715252E+04  0.16862715252E+04  0.00000000000E+00 0. -1.
        -24    2    1    2    0    0 -0.58175913293E+03 -0.99065015395E+03 -0.36923076725E+03  0.12093789157E+04  0.80215870509E+02 0.  0.
        254    2    1    2    0    0  0.58175913293E+03  0.99065015395E+03 -0.31175250939E+03  0.14821808581E+04  0.88308496350E+03 0.  0.
         23    2    4    4    0    0  0.63119363285E+03  0.33450304878E+03  0.56755865252E+02  0.72226325942E+03  0.90251292938E+02 0.  0.
         23    2    4    4    0    0 -0.49434499919E+02  0.65614710517E+03 -0.36850837465E+03  0.75991759869E+03  0.93292771429E+02 0.  0.
          3    1    3    3  502    0 -0.47950844856E+03 -0.79279163673E+03 -0.26635811331E+03  0.96405060865E+03  0.00000000000E+00 0. -1.
         -4    1    3    3    0  502 -0.10225068438E+03 -0.19785851722E+03 -0.10287265394E+03  0.24532830701E+03  0.00000000000E+00 0.  1.
         11    1    5    5    0    0  0.20917220387E+03  0.11812991322E+03  0.61543318809E+02  0.24798239324E+03  0.00000000000E+00 0.  1.
        -11    1    5    5    0    0  0.42202142899E+03  0.21637313555E+03 -0.47874535571E+01  0.47428086618E+03  0.00000000000E+00 0. -1.
          3    1    6    6  503    0 -0.48556951137E+02  0.15959353861E+03 -0.73055046862E+02  0.18211236900E+03  0.00000000000E+00 0. -1.
         -3    1    6    6    0  503 -0.87754878227E+00  0.49655356656E+03 -0.29545332778E+03  0.57780522969E+03  0.00000000000E+00 0.  1.
<mgrwt>
<rscale>  0 0.26039884E+04</rscale>
<asrwt>0</asrwt>
<pdfrwt beam="1">  1        1 0.25942639E+00 0.26039884E+04</pdfrwt>
<pdfrwt beam="2">  1       -2 0.15465973E+00 0.26039884E+04</pdfrwt>
<totfact> 0.10401757E+00</totfact>
</mgrwt>
</event>
<event>
12    4  0.4424320E-008  0.1309851E+04  0.7818608E-02  0.9021790E-01
          1   -1    0    0  501    0  0.00000000000E+00  0.00000000000E+00  0.27175383703E+04  0.27175383703E+04  0.00000000000E+00 0. -1.
         -2   -1    0    0    0  501 -0.00000000000E+00 -0.00000000000E+00 -0.15783663317E+03  0.15783663317E+03  0.00000000000E+00 0.  1.
        -24    2    1    2    0    0  0.27413713465E+03  0.24344583876E+01  0.23476558494E+03  0.37009228962E+03  0.81831092967E+02 0.  0.
        254    2    1    2    0    0 -0.27413713465E+03 -0.24344583876E+01  0.23249361522E+04  0.25052827138E+04  0.89216381307E+03 0.  0.
         23    2    4    4    0    0 -0.34108939957E+01  0.30801642189E+03  0.18161940571E+04  0.18444121913E+04  0.91704568456E+02 0.  0.
         23    2    4    4    0    0 -0.27072624066E+03 -0.31045088028E+03  0.50874209504E+03  0.66087052253E+03  0.90878390406E+02 0.  0.
          1    1    3    3  502    0  0.58367846927E+02  0.33365040374E+02  0.43302909218E+02  0.79969828190E+02  0.00000000000E+00 0. -1.
         -2    1    3    3    0  502  0.21576928773E+03 -0.30930581987E+02  0.19146267572E+03  0.29012246143E+03  0.00000000000E+00 0.  1.
         11    1    5    5    0    0  0.31491909861E+02  0.14763358437E+03  0.10531928042E+04  0.10639560604E+04  0.00000000000E+00 0.  1.
        -11    1    5    5    0    0 -0.34902803857E+02  0.16038283752E+03  0.76300125288E+03  0.78045613086E+03  0.00000000000E+00 0. -1.
          3    1    6    6  503    0 -0.12194743930E+03 -0.16536033841E+03  0.31914460680E+03  0.37956356453E+03  0.00000000000E+00 0. -1.
         -3    1    6    6    0  503 -0.14877880136E+03 -0.14509054186E+03  0.18959748824E+03  0.28130695800E+03  0.00000000000E+00 0.  1.
<mgrwt>
<rscale>  0 0.13098505E+04</rscale>
<asrwt>0</asrwt>
<pdfrwt beam="1">  1        1 0.41808279E+00 0.13098505E+04</pdfrwt>
<pdfrwt beam="2">  1       -2 0.24282561E-01 0.13098505E+04</pdfrwt>
<totfact> 0.12516269E+01</totfact>
</mgrwt>
</event>
<event>
12    4  0.4424320E-008  0.1489419E+04  0.7818608E-02  0.8891520E-01
         -2   -1    0    0    0  501 -0.00000000000E+00  0.00000000000E+00  0.29260439878E+03  0.29260439878E+03  0.00000000000E+00 0.  1.
          1   -1    0    0  501    0  0.00000000000E+00 -0.00000000000E+00 -0.18953648628E+04  0.18953648628E+04  0.00000000000E+00 0. -1.
        -24    2    1    2    0    0  0.91681659151E+02  0.16323821383E+03 -0.11623254996E+04  0.11799776701E+04  0.79337845400E+02 0.  0.
        254    2    1    2    0    0 -0.91681659151E+02 -0.16323821383E+03 -0.44043496442E+03  0.10079915915E+04  0.88713688325E+03 0.  0.
         23    2    4    4    0    0 -0.14647912918E+03  0.83260454533E+02 -0.64360326504E+03  0.67120054088E+03  0.88862617192E+02 0.  0.
         23    2    4    4    0    0  0.54797470033E+02 -0.24649866837E+03  0.20316830063E+03  0.33679105064E+03  0.91577820366E+02 0.  0.
          1    1    3    3  502    0  0.90503526982E+02  0.16710259592E+03 -0.10174137174E+04  0.10350095837E+04  0.00000000000E+00 0. -1.
         -2    1    3    3    0  502  0.11781321691E+01 -0.38643820886E+01 -0.14491178221E+03  0.14496808638E+03  0.00000000000E+00 0.  1.
         11    1    5    5    0    0 -0.46122193759E+02  0.70238104794E+02 -0.37159942388E+03  0.38098133806E+03  0.00000000000E+00 0. -1.
        -11    1    5    5    0    0 -0.10035693542E+03  0.13022349739E+02 -0.27200384116E+03  0.29021920282E+03  0.00000000000E+00 0.  1.
          1    1    6    6  503    0 -0.18167443899E+02 -0.71461541528E+02  0.88461419631E+02  0.11516175884E+03  0.00000000000E+00 0. -1.
         -1    1    6    6    0  503  0.72964913932E+02 -0.17503712684E+03  0.11470688100E+03  0.22162929180E+03  0.00000000000E+00 0.  1.
<mgrwt>
<rscale>  0 0.14894188E+04</rscale>
<asrwt>0</asrwt>
<pdfrwt beam="1">  1        1 0.29159459E+00 0.14894188E+04</pdfrwt>
<pdfrwt beam="2">  1       -2 0.45016061E-01 0.14894188E+04</pdfrwt>
<totfact> 0.13963986E+01</totfact>
</mgrwt>
</event>
<event>
12    4  0.4424320E-008  0.1949621E+04  0.7818608E-02  0.8630543E-01
          1   -1    0    0  501    0  0.00000000000E+00  0.00000000000E+00  0.96904327893E+03  0.96904327893E+03  0.00000000000E+00 0. -1.
         -2   -1    0    0    0  501 -0.00000000000E+00 -0.00000000000E+00 -0.98061239818E+03  0.98061239818E+03  0.00000000000E+00 0.  1.
        -24    2    1    2    0    0  0.41891937848E+03  0.12665885761E+03 -0.63565805600E+03  0.77570812551E+03  0.78268895079E+02 0.  0.
        254    2    1    2    0    0 -0.41891937848E+03 -0.12665885761E+03  0.62408893676E+03  0.11739475516E+04  0.89282133770E+03 0.  0.
         23    2    4    4    0    0  0.22969932027E+03 -0.10160110572E+03  0.39979889990E+03  0.48095010502E+03  0.91593016902E+02 0.  0.
         23    2    4    4    0    0 -0.64861869875E+03 -0.25057751888E+02  0.22429003686E+03  0.69299744658E+03  0.92764934256E+02 0.  0.
          3    1    3    3  502    0  0.89481351187E+02  0.20194194910E+02 -0.19340940854E+03  0.21406054525E+03  0.00000000000E+00 0. -1.
         -4    1    3    3    0  502  0.32943802730E+03  0.10646466270E+03 -0.44224864746E+03  0.56164758026E+03  0.00000000000E+00 0.  1.
         11    1    5    5    0    0  0.14531594026E+03 -0.91726404397E+02  0.19906839868E+03  0.26298038541E+03  0.00000000000E+00 0. -1.
        -11    1    5    5    0    0  0.84383380008E+02 -0.98747013207E+01  0.20073050122E+03  0.21796971961E+03  0.00000000000E+00 0.  1.
          1    1    6    6  503    0 -0.58265898594E+03 -0.36851920861E+01  0.22228952751E+03  0.62363267119E+03  0.00000000000E+00 0. -1.
         -1    1    6    6    0  503 -0.65959712817E+02 -0.21372559802E+02  0.20005093526E+01  0.69364775391E+02  0.00000000000E+00 0.  1.
<mgrwt>
<rscale>  0 0.19496214E+04</rscale>
<asrwt>0</asrwt>
<pdfrwt beam="1">  1        1 0.14908358E+00 0.19496214E+04</pdfrwt>
<pdfrwt beam="2">  1       -2 0.15086345E+00 0.19496214E+04</pdfrwt>
<totfact> 0.38565185E+00</totfact>
</mgrwt>
</event>
<event>
12    4  0.4424320E-008  0.1717509E+04  0.7818608E-02  0.8751441E-01
          1   -1    0    0  501    0  0.00000000000E+00  0.00000000000E+00  0.27352351057E+04  0.27352351057E+04  0.00000000000E+00 0. -1.
         -2   -1    0    0    0  501 -0.00000000000E+00 -0.00000000000E+00 -0.26961446280E+03  0.26961446280E+03  0.00000000000E+00 0.  1.
        -24    2    1    2    0    0  0.21834111362E+03 -0.54705812677E+03  0.55947066020E+03  0.81629078644E+03  0.79861082119E+02 0.  0.
        254    2    1    2    0    0 -0.21834111362E+03  0.54705812677E+03  0.19061499827E+04  0.21885587820E+04  0.89968680665E+03 0.  0.
         23    2    4    4    0    0 -0.43356880668E+02 -0.17188709442E+03  0.97800633637E+03  0.99809217148E+03  0.90920825188E+02 0.  0.
         23    2    4    4    0    0 -0.17498423295E+03  0.71894522118E+03  0.92814364629E+03  0.11904666106E+04  0.90875793586E+02 0.  0.
          1    1    3    3  502    0  0.71963456519E+02 -0.11037771961E+03  0.15399329023E+03  0.20267193564E+03  0.00000000000E+00 0. -1.
         -2    1    3    3    0  502  0.14637765710E+03 -0.43668040716E+03  0.40547736997E+03  0.61361885080E+03  0.00000000000E+00 0.  1.
         11    1    5    5    0    0 -0.11985858794E+02  0.86300935372E+01  0.48474548239E+02  0.50674659865E+02  0.00000000000E+00 0.  1.
        -11    1    5    5    0    0 -0.31371021874E+02 -0.18051718795E+03  0.92953178813E+03  0.94741751161E+03  0.00000000000E+00 0. -1.
          2    1    6    6  503    0 -0.10843608313E+03  0.57647731976E+03  0.69827063101E+03  0.91195743237E+03  0.00000000000E+00 0. -1.
         -2    1    6    6    0  503 -0.66548149827E+02  0.14246790142E+03  0.22987301528E+03  0.27850917819E+03  0.00000000000E+00 0.  1.
<mgrwt>
<rscale>  0 0.17175086E+04</rscale>
<asrwt>0</asrwt>
<pdfrwt beam="1">  1        1 0.42080538E+00 0.17175086E+04</pdfrwt>
<pdfrwt beam="2">  1       -2 0.41479150E-01 0.17175086E+04</pdfrwt>
<totfact> 0.42685469E+00</totfact>
</mgrwt>
</event>
<event>
12    4  0.4424320E-008  0.1520715E+04  0.7818608E-02  0.8870794E-01
         -2   -1    0    0    0  501 -0.00000000000E+00  0.00000000000E+00  0.84083494509E+03  0.84083494509E+03  0.00000000000E+00 0.  1.
          1   -1    0    0  501    0  0.00000000000E+00 -0.00000000000E+00 -0.68758221833E+03  0.68758221833E+03  0.00000000000E+00 0. -1.
        -24    2    1    2    0    0  0.11592412796E+03 -0.46250116869E+03  0.13526285862E+03  0.50201689197E+03  0.79869796677E+02 0.  0.
        254    2    1    2    0    0 -0.11592412796E+03  0.46250116869E+03  0.17989868136E+02  0.10264002714E+04  0.90875087201E+03 0.  0.
         23    2    4    4    0    0 -0.52431927887E+02  0.52205635464E+03  0.37263221755E+03  0.64997035257E+03  0.91185224620E+02 0.  0.
         23    2    4    4    0    0 -0.63492200070E+02 -0.59555185954E+02 -0.35464234941E+03  0.37642991887E+03  0.91379473521E+02 0.  0.
          1    1    3    3  502    0  0.37171767019E+02 -0.12930084208E+03  0.76078622273E+02  0.15455874221E+03  0.00000000000E+00 0. -1.
         -2    1    3    3    0  502  0.78752360938E+02 -0.33320032660E+03  0.59184236349E+02  0.34745814976E+03  0.00000000000E+00 0.  1.
         11    1    5    5    0    0  0.54054633988E+00  0.29379698732E+03  0.24849306322E+03  0.38479314497E+03  0.00000000000E+00 0.  1.
        -11    1    5    5    0    0 -0.52972474227E+02  0.22825936732E+03  0.12413915433E+03  0.26517720760E+03  0.00000000000E+00 0. -1.
          4    1    6    6  503    0 -0.32542000884E+02 -0.61942001627E+01 -0.26172776512E+02  0.42218054995E+02  0.00000000000E+00 0. -1.
         -4    1    6    6    0  503 -0.30950199186E+02 -0.53360985791E+02 -0.32846957290E+03  0.33421186388E+03  0.00000000000E+00 0.  1.
<mgrwt>
<rscale>  0 0.15207145E+04</rscale>
<asrwt>0</asrwt>
<pdfrwt beam="1">  1        1 0.10578188E+00 0.15207145E+04</pdfrwt>
<pdfrwt beam="2">  1       -2 0.12935922E+00 0.15207145E+04</pdfrwt>
<totfact> 0.10406222E+01</totfact>
</mgrwt>
</event>
<event>
12    4  0.4424320E-008  0.1746802E+04  0.7818608E-02  0.8735112E-01
         -2   -1    0    0    0  501 -0.00000000000E+00  0.00000000000E+00  0.18595884508E+04  0.18595884508E+04  0.00000000000E+00 0.  1.
          1   -1    0    0  501    0  0.00000000000E+00 -0.00000000000E+00 -0.41021415620E+03  0.41021415620E+03  0.00000000000E+00 0. -1.
        -24    2    1    2    0    0 -0.54703136950E+03 -0.30346852881E+03  0.67761264044E+03  0.92578480898E+03  0.81130480412E+02 0.  0.
        254    2    1    2    0    0  0.54703136950E+03  0.30346852881E+03  0.77176165413E+03  0.13440177980E+04  0.90522446019E+03 0.  0.
         23    2    4    4    0    0  0.28110445648E+02  0.47261559260E+03  0.13448318170E+03  0.50003706881E+03  0.88292969722E+02 0.  0.
         23    2    4    4    0    0  0.51892092385E+03 -0.16914706379E+03  0.63727847243E+03  0.84398072918E+03  0.91049247098E+02 0.  0.
          3    1    3    3  502    0 -0.31515201800E+03 -0.20130015161E+03  0.35566387695E+03  0.51608074839E+03  0.00000000000E+00 0. -1.
         -4    1    3    3    0  502 -0.23187935150E+03 -0.10216837720E+03  0.32194876349E+03  0.40970406059E+03  0.00000000000E+00 0.  1.
         11    1    5    5    0    0  0.33470824625E+02  0.61745051522E+02  0.27565561049E+02  0.75449371399E+02  0.00000000000E+00 0. -1.
        -11    1    5    5    0    0 -0.53603789774E+01  0.41087054107E+03  0.10691762065E+03  0.42458769741E+03  0.00000000000E+00 0.  1.
          1    1    6    6  503    0  0.14196065099E+02  0.92517653794E+01  0.29855860712E+02  0.34329227282E+02  0.00000000000E+00 0. -1.
         -1    1    6    6    0  503  0.50472485875E+03 -0.17839882917E+03  0.60742261172E+03  0.80965150190E+03  0.00000000000E+00 0.  1.
<mgrwt>
<rscale>  0 0.17468022E+04</rscale>
<asrwt>0</asrwt>
<pdfrwt beam="1">  1        1 0.63109871E-01 0.17468022E+04</pdfrwt>
<pdfrwt beam="2">  1       -2 0.28609053E+00 0.17468022E+04</pdfrwt>
<totfact> 0.18614794E+00</totfact>
</mgrwt>
</event>
<event>
12    4  0.4424320E-008  0.2010867E+04  0.7818608E-02  0.8601557E-01
          3   -1    0    0  501    0  0.00000000000E+00  0.00000000000E+00  0.54630872874E+03  0.54630872874E+03  0.00000000000E+00 0. -1.
         -4   -1    0    0    0  501 -0.00000000000E+00 -0.00000000000E+00 -0.18504122724E+04  0.18504122724E+04  0.00000000000E+00 0.  1.
        -24    2    1    2    0    0  0.38424078941E+03 -0.34350366654E+03  0.20755460715E+03  0.56121485784E+03  0.79040802977E+02 0.  0.
        254    2    1    2    0    0 -0.38424078941E+03  0.34350366654E+03 -0.15116581508E+04  0.18355061433E+04  0.90461963498E+03 0.  0.
         23    2    4    4    0    0  0.22008776334E+03 -0.11884100652E+03 -0.49417026651E+03  0.56113900764E+03  0.90060675040E+02 0.  0.
         23    2    4    4    0    0 -0.60432855275E+03  0.46234467307E+03 -0.10174878843E+04  0.12743671356E+04  0.98764393168E+02 0.  0.
          1    1    3    3  502    0  0.37849040034E+03 -0.34795055672E+03  0.20535483987E+03  0.55362007129E+03  0.00000000000E+00 0. -1.
         -2    1    3    3    0  502  0.57503890733E+01  0.44468901782E+01  0.21997672859E+01  0.75947865581E+01  0.00000000000E+00 0.  1.
         11    1    5    5    0    0  0.72070809292E+02 -0.65799022529E+02 -0.27185368123E+03  0.28883929254E+03  0.00000000000E+00 0. -1.
        -11    1    5    5    0    0  0.14801695405E+03 -0.53041983994E+02 -0.22231658528E+03  0.27229971509E+03  0.00000000000E+00 0.  1.
          2    1    6    6  503    0 -0.46000300332E+03  0.36108182442E+03 -0.70904026070E+03  0.91908701345E+03  0.00000000000E+00 0. -1.
         -2    1    6    6    0  503 -0.14432554943E+03  0.10126284865E+03 -0.30844762358E+03  0.35528012220E+03  0.00000000000E+00 0.  1.
<mgrwt>
<rscale>  0 0.20108669E+04</rscale>
<asrwt>0</asrwt>
<pdfrwt beam="1">  1        3 0.84047497E-01 0.20108669E+04</pdfrwt>
<pdfrwt beam="2">  1       -4 0.28467881E+00 0.20108669E+04</pdfrwt>
<totfact> 0.10633991E-01</totfact>
</mgrwt>
</event>
<event>
12    4  0.4424320E-008  0.2299722E+04  0.7818608E-02  0.8478031E-01
         -2   -1    0    0    0  501 -0.00000000000E+00  0.00000000000E+00  0.16085563701E+04  0.16085563701E+04  0.00000000000E+00 0.  1.
          1   -1    0    0  501    0  0.00000000000E+00 -0.00000000000E+00 -0.82196709710E+03  0.82196709710E+03  0.00000000000E+00 0. -1.
        -24    2    1    2    0    0 -0.68311283816E+03 -0.38910038919E+03  0.93378758754E+03  0.12237405473E+04  0.86829752205E+02 0.  0.
        254    2    1    2    0    0  0.68311283816E+03  0.38910038919E+03 -0.14719831458E+03  0.12067829199E+04  0.90366775387E+03 0.  0.
         23    2    4    4    0    0  0.48405772329E+03 -0.15185778400E+03 -0.30984792073E+03  0.60124379463E+03  0.90087183119E+02 0.  0.
         23    2    4    4    0    0  0.19905511487E+03  0.54095817318E+03  0.16264960615E+03  0.60553912525E+03  0.89241548303E+02 0.  0.
          3    1    3    3  502    0 -0.14793466822E+03 -0.10366389103E+03  0.16647799769E+03  0.24565380534E+03  0.00000000000E+00 0. -1.
         -2    1    3    3    0  502 -0.53517816995E+03 -0.28543649816E+03  0.76730958986E+03  0.97808674194E+03  0.00000000000E+00 0.  1.
         11    1    5    5    0    0  0.41836575849E+03 -0.15678991726E+03 -0.24856974717E+03  0.51127282858E+03  0.00000000000E+00 0. -1.
        -11    1    5    5    0    0  0.65691964807E+02  0.49321332651E+01 -0.61278173560E+02  0.89970966059E+02  0.00000000000E+00 0.  1.
          1    1    6    6  503    0  0.18578767376E+03  0.48080176737E+03  0.11619148990E+03  0.52838230624E+03  0.00000000000E+00 0. -1.
         -1    1    6    6    0  503  0.13267441107E+02  0.60156405817E+02  0.46458116254E+02  0.77156819013E+02  0.00000000000E+00 0.  1.
<mgrwt>
<rscale>  0 0.22997221E+04</rscale>
<asrwt>0</asrwt>
<pdfrwt beam="1">  1        1 0.12645648E+00 0.22997221E+04</pdfrwt>
<pdfrwt beam="2">  1       -2 0.24747021E+00 0.22997221E+04</pdfrwt>
<totfact> 0.11166397E+00</totfact>
</mgrwt>
</event>
<event>
12    4  0.4424320E-008  0.1389174E+04  0.7818608E-02  0.8961692E-01
          1   -1    0    0  501    0  0.00000000000E+00  0.00000000000E+00  0.87604862415E+03  0.87604862415E+03  0.00000000000E+00 0. -1.
         -2   -1    0    0    0  501 -0.00000000000E+00 -0.00000000000E+00 -0.55071275310E+03  0.55071275310E+03  0.00000000000E+00 0.  1.
        -24    2    1    2    0    0  0.23040744852E+03  0.29132480231E+03 -0.51174261518E+01  0.37991195160E+03  0.79681680095E+02 0.  0.
        254    2    1    2    0    0 -0.23040744852E+03 -0.29132480231E+03  0.33045329720E+03  0.10468494257E+04  0.92126901912E+03 0.  0.
         23    2    4    4    0    0 -0.29655966242E+03 -0.30976791435E+03 -0.21571311818E+03  0.48896578003E+03  0.93013926640E+02 0.  0.
         23    2    4    4    0    0  0.66152213901E+02  0.18443112038E+02  0.54616641538E+03  0.55788364562E+03  0.90665015192E+02 0.  0.
          3    1    3    3  502    0  0.23402881872E+03  0.28975117897E+03  0.12021011492E+01  0.37246030494E+03  0.00000000000E+00 0. -1.
         -4    1    3    3    0  502 -0.36213702084E+01  0.15736233402E+01 -0.63195273009E+01  0.74516466576E+01  0.00000000000E+00 0.  1.
         11    1    5    5    0    0 -0.32284168392E+01  0.25746230475E+01 -0.15445149537E+02  0.15987620315E+02  0.00000000000E+00 0. -1.
        -11    1    5    5    0    0 -0.29333124558E+03 -0.31234253740E+03 -0.20026796864E+03  0.47297815971E+03  0.00000000000E+00 0.  1.
          1    1    6    6  503    0  0.32236951114E+02 -0.13086247914E+02  0.58799035419E+02  0.68321281221E+02  0.00000000000E+00 0. -1.
         -1    1    6    6    0  503  0.33915262788E+02  0.31529359952E+02  0.48736737996E+03  0.48956236440E+03  0.00000000000E+00 0.  1.
<mgrwt>
<rscale>  0 0.13891741E+04</rscale>
<asrwt>0</asrwt>
<pdfrwt beam="1">  1        1 0.13477671E+00 0.13891741E+04</pdfrwt>
<pdfrwt beam="2">  1       -2 0.84725039E-01 0.13891741E+04</pdfrwt>
<totfact> 0.19772403E+01</totfact>
</mgrwt>
</event>
<event>
12    4  0.4424320E-008  0.1466206E+04  0.7818608E-02  0.8907242E-01
         -2   -1    0    0    0  501 -0.00000000000E+00  0.00000000000E+00  0.40924338560E+03  0.40924338560E+03  0.00000000000E+00 0.  1.
          1   -1    0    0  501    0  0.00000000000E+00 -0.00000000000E+00 -0.13132534227E+04  0.13132534227E+04  0.00000000000E+00 0. -1.
        -24    2    1    2    0    0 -0.42241924498E+03 -0.16727966343E+03 -0.16304446318E+03  0.48928328507E+03  0.79963315066E+02 0.  0.
        254    2    1    2    0    0  0.42241924498E+03  0.16727966343E+03 -0.74096557388E+03  0.12332135232E+04  0.87485147755E+03 0.  0.
         23    2    4    4    0    0 -0.16219030816E+03  0.26073696892E+03 -0.58103481425E+02  0.32505059429E+03  0.89400286742E+02 0.  0.
         23    2    4    4    0    0  0.58460955314E+03 -0.93457305492E+02 -0.68286209246E+03  0.90816292890E+03  0.89200171195E+02 0.  0.
          1    1    3    3  502    0 -0.70415225362E+01 -0.18991299903E+02 -0.78317139898E+01  0.21716082880E+02  0.00000000000E+00 0. -1.
         -4    1    3    3    0  502 -0.41537772244E+03 -0.14828836352E+03 -0.15521274919E+03  0.46756720219E+03  0.00000000000E+00 0.  1.
         11    1    5    5    0    0 -0.80325057010E+01  0.61317778419E+02 -0.37108374325E+02  0.72120888396E+02  0.00000000000E+00 0. -1.
        -11    1    5    5    0    0 -0.15415780246E+03  0.19941919050E+03 -0.20995107100E+02  0.25292970589E+03  0.00000000000E+00 0.  1.
          3    1    6    6  503    0  0.40126871031E+03 -0.10398725535E+03 -0.49089637005E+03  0.64250227492E+03  0.00000000000E+00 0. -1.
         -3    1    6    6    0  503  0.18334084283E+03  0.10529949859E+02 -0.19196572241E+03  0.26566065398E+03  0.00000000000E+00 0.  1.
<mgrwt>
<rscale>  0 0.14662064E+04</rscale>
<asrwt>0</asrwt>
<pdfrwt beam="1">  1        1 0.20203899E+00 0.14662064E+04</pdfrwt>
<pdfrwt beam="2">  1       -2 0.62960521E-01 0.14662064E+04</pdfrwt>
<totfact> 0.17604130E+01</totfact>
</mgrwt>
</event>
<event>
12    4  0.4424320E-008  0.1495351E+04  0.7818608E-02  0.8887550E-01
          1   -1    0    0  501    0  0.00000000000E+00  0.00000000000E+00  0.85930299694E+03  0.85930299694E+03  0.00000000000E+00 0. -1.
         -2   -1    0    0    0  501 -0.00000000000E+00 -0.00000000000E+00 -0.65054908139E+03  0.65054908139E+03  0.00000000000E+00 0.  1.
        -24    2    1    2    0    0 -0.41584232223E+02 -0.61991188676E+02 -0.42762993891E+03  0.44154503157E+03  0.80761961373E+02 0.  0.
        254    2    1    2    0    0  0.41584232223E+02  0.61991188676E+02  0.63638385446E+03  0.10683070468E+04  0.85482359590E+03 0.  0.
         23    2    4    4    0    0  0.24231305902E+03 -0.15759610083E+03 -0.57014775245E+02  0.30842118558E+03  0.91218383860E+02 0.  0.
         23    2    4    4    0    0 -0.20072882679E+03  0.21958728950E+03  0.69339862971E+03  0.75988586118E+03  0.90078980521E+02 0.  0.
          1    1    3    3  502    0 -0.55096787577E+01 -0.10339353599E+02 -0.27694081892E+01  0.12038621789E+02  0.00000000000E+00 0. -1.
         -2    1    3    3    0  502 -0.36074553465E+02 -0.51651835077E+02 -0.42486053072E+03  0.42950640978E+03  0.00000000000E+00 0.  1.
         11    1    5    5    0    0  0.21928942124E+03 -0.10762541576E+03 -0.65120363194E+02  0.25280771762E+03  0.00000000000E+00 0. -1.
        -11    1    5    5    0    0  0.23023637773E+02 -0.49970685070E+02  0.81055879489E+01  0.55613467961E+02  0.00000000000E+00 0.  1.
          3    1    6    6  503    0 -0.19054713747E+03  0.19107081542E+03  0.54164627969E+03  0.60514209935E+03  0.00000000000E+00 0. -1.
         -3    1    6    6    0  503 -0.10181689326E+02  0.28516474087E+02  0.15175235001E+03  0.15474376183E+03  0.00000000000E+00 0.  1.
<mgrwt>
<rscale>  0 0.14953512E+04</rscale>
<asrwt>0</asrwt>
<pdfrwt beam="1">  1        1 0.13220046E+00 0.14953512E+04</pdfrwt>
<pdfrwt beam="2">  1       -2 0.10008447E+00 0.14953512E+04</pdfrwt>
<totfact> 0.13749679E+01</totfact>
</mgrwt>
</event>
<event>
12    4  0.4424320E-008  0.2519625E+04  0.7818608E-02  0.8396027E-01
          1   -1    0    0  501    0  0.00000000000E+00  0.00000000000E+00  0.18582553491E+04  0.18582553491E+04  0.00000000000E+00 0. -1.
         -2   -1    0    0    0  501 -0.00000000000E+00 -0.00000000000E+00 -0.85409541026E+03  0.85409541026E+03  0.00000000000E+00 0.  1.
        -24    2    1    2    0    0  0.85169312322E+03  0.10443263160E+02 -0.31132837960E+03  0.91021648501E+03  0.77964426144E+02 0.  0.
        254    2    1    2    0    0 -0.85169312322E+03 -0.10443263160E+02  0.13154883184E+04  0.18021342743E+04  0.88976861538E+03 0.  0.
         23    2    4    4    0    0  0.12712338379E+00 -0.28683803754E+03  0.52060716486E+03  0.60177031678E+03  0.93912821882E+02 0.  0.
         23    2    4    4    0    0 -0.85182024661E+03  0.27639477438E+03  0.79488115353E+03  0.12003639575E+04  0.83939135468E+02 0.  0.
          3    1    3    3  502    0  0.33966723695E+03 -0.19876558294E+02 -0.92755994341E+02  0.35266497404E+03  0.00000000000E+00 0. -1.
         -4    1    3    3    0  502  0.51202588627E+03  0.30319821454E+02 -0.21857238526E+03  0.55755151097E+03  0.00000000000E+00 0.  1.
         11    1    5    5    0    0  0.23723693097E+02 -0.10808171423E+03  0.12457055830E+03  0.16662021054E+03  0.00000000000E+00 0. -1.
        -11    1    5    5    0    0 -0.23596569714E+02 -0.17875632331E+03  0.39603660656E+03  0.43515010624E+03  0.00000000000E+00 0.  1.
          2    1    6    6  503    0 -0.58600034030E+03  0.18376632352E+03  0.59520165933E+03  0.85523767209E+03  0.00000000000E+00 0. -1.
         -2    1    6    6    0  503 -0.26581990631E+03  0.92628450855E+02  0.19967949420E+03  0.34512628544E+03  0.00000000000E+00 0.  1.
<mgrwt>
<rscale>  0 0.25196249E+04</rscale>
<asrwt>0</asrwt>
<pdfrwt beam="1">  1        1 0.28588544E+00 0.25196249E+04</pdfrwt>
<pdfrwt beam="2">  1       -2 0.13139929E+00 0.25196249E+04</pdfrwt>
<totfact> 0.12249076E+00</totfact>
</mgrwt>
</event>
<event>
12    4  0.4424320E-008  0.2321112E+04  0.7818608E-02  0.8469643E-01
         -2   -1    0    0    0  501 -0.00000000000E+00  0.00000000000E+00  0.47532159003E+03  0.47532159003E+03  0.00000000000E+00 0.  1.
          1   -1    0    0  501    0  0.00000000000E+00 -0.00000000000E+00 -0.28336392272E+04  0.28336392272E+04  0.00000000000E+00 0. -1.
        -24    2    1    2    0    0  0.48183518483E+03 -0.35574978062E+03  0.10909002973E+03  0.61406048207E+03  0.80290655133E+02 0.  0.
        254    2    1    2    0    0 -0.48183518483E+03  0.35574978062E+03 -0.24674076669E+04  0.26949003351E+04  0.90314127909E+03 0.  0.
         23    2    4    4    0    0 -0.41243353181E+03  0.64491748068E+03 -0.16965242959E+04  0.18636027812E+04  0.93811856999E+02 0.  0.
         23    2    4    4    0    0 -0.69401653021E+02 -0.28916770006E+03 -0.77088337098E+03  0.83129755392E+03  0.91432506850E+02 0.  0.
          1    1    3    3  502    0  0.42955909428E+02 -0.12672869285E+02  0.23129921265E+02  0.50406398685E+02  0.00000000000E+00 0. -1.
         -2    1    3    3    0  502  0.43887927541E+03 -0.34307691133E+03  0.85960108462E+02  0.56365408339E+03  0.00000000000E+00 0.  1.
         11    1    5    5    0    0 -0.44610064500E+02  0.13725365963E+03 -0.32194859883E+03  0.35281656031E+03  0.00000000000E+00 0.  1.
        -11    1    5    5    0    0 -0.36782346731E+03  0.50766382104E+03 -0.13745756971E+04  0.15107862209E+04  0.00000000000E+00 0. -1.
          1    1    6    6  503    0 -0.86462964799E+02 -0.19584813778E+03 -0.57734406483E+03  0.61575848070E+03  0.00000000000E+00 0.  1.
         -1    1    6    6    0  503  0.17061311778E+02 -0.93319562283E+02 -0.19353930615E+03  0.21553907323E+03  0.00000000000E+00 0. -1.
<mgrwt>
<rscale>  0 0.23211117E+04</rscale>
<asrwt>0</asrwt>
<pdfrwt beam="1">  1        1 0.43594449E+00 0.23211117E+04</pdfrwt>
<pdfrwt beam="2">  1       -2 0.73126400E-01 0.23211117E+04</pdfrwt>
<totfact> 0.10562787E+00</totfact>
</mgrwt>
</event>
<event>
12    4  0.4424320E-008  0.1508320E+04  0.7818608E-02  0.8878939E-01
         -2   -1    0    0    0  501 -0.00000000000E+00  0.00000000000E+00  0.84341114584E+03  0.84341114584E+03  0.00000000000E+00 0.  1.
          1   -1    0    0  501    0  0.00000000000E+00 -0.00000000000E+00 -0.67435344944E+03  0.67435344944E+03  0.00000000000E+00 0. -1.
        -24    2    1    2    0    0 -0.12363490765E+03  0.20126059320E+03 -0.36895087609E+03  0.44530297522E+03  0.79865975320E+02 0.  0.
        254    2    1    2    0    0  0.12363490765E+03 -0.20126059320E+03  0.53800857249E+03  0.10724616201E+04  0.89717851382E+03 0.  0.
         23    2    4    4    0    0  0.35849115802E+03 -0.92922320678E+02  0.66741584897E+03  0.76886104195E+03  0.92481989110E+02 0.  0.
         23    2    4    4    0    0 -0.23485625037E+03 -0.10833827252E+03 -0.12940727648E+03  0.30360057811E+03  0.92371143730E+02 0.  0.
          3    1    3    3  502    0 -0.11422661152E+03  0.18098329470E+03 -0.36423567311E+03  0.42245745029E+03  0.00000000000E+00 0. -1.
         -4    1    3    3    0  502 -0.94082961230E+01  0.20277298500E+02 -0.47152029792E+01  0.22845524935E+02  0.00000000000E+00 0.  1.
         11    1    5    5    0    0  0.18753468631E+03 -0.33966672374E+02  0.43062622993E+03  0.47091606822E+03  0.00000000000E+00 0.  1.
        -11    1    5    5    0    0  0.17095647171E+03 -0.58955648303E+02  0.23678961904E+03  0.29794497373E+03  0.00000000000E+00 0. -1.
          2    1    6    6  503    0 -0.71766328584E+01 -0.13760122026E+02  0.11788842118E+02  0.19489017826E+02  0.00000000000E+00 0. -1.
         -2    1    6    6    0  503 -0.22767961751E+03 -0.94578150495E+02 -0.14119611860E+03  0.28411156029E+03  0.00000000000E+00 0.  1.
<mgrwt>
<rscale>  0 0.15083199E+04</rscale>
<asrwt>0</asrwt>
<pdfrwt beam="1">  1        1 0.10374668E+00 0.15083199E+04</pdfrwt>
<pdfrwt beam="2">  1       -2 0.12975556E+00 0.15083199E+04</pdfrwt>
<totfact> 0.10642798E+01</totfact>
</mgrwt>
</event>
<event>
12    4  0.4424320E-008  0.2853954E+04  0.7818608E-02  0.8286711E-01
          1   -1    0    0  501    0  0.00000000000E+00  0.00000000000E+00  0.12883567628E+04  0.12883567628E+04  0.00000000000E+00 0. -1.
         -2   -1    0    0    0  501 -0.00000000000E+00 -0.00000000000E+00 -0.15805117529E+04  0.15805117529E+04  0.00000000000E+00 0.  1.
        -24    2    1    2    0    0 -0.86338764913E+03 -0.68741126469E+03 -0.77568303097E+03  0.13512802874E+04  0.79383695700E+02 0.  0.
        254    2    1    2    0    0  0.86338764913E+03  0.68741126469E+03  0.48352804088E+03  0.15175882282E+04  0.92266038428E+03 0.  0.
         23    2    4    4    0    0  0.88275074499E+03  0.17281565124E+03  0.40142985957E+03  0.98887570384E+03  0.87264531124E+02 0.  0.
         23    2    4    4    0    0 -0.19363095857E+02  0.51459561344E+03  0.82098181304E+02  0.52871252441E+03  0.87253923913E+02 0.  0.
          3    1    3    3  502    0 -0.86195090769E+03 -0.68207157890E+03 -0.76478070204E+03  0.13390558346E+04  0.00000000000E+00 0. -1.
         -4    1    3    3    0  502 -0.14367414447E+01 -0.53396857891E+01 -0.10902328928E+02  0.12224452804E+02  0.00000000000E+00 0.  1.
         11    1    5    5    0    0  0.17171150000E+03  0.35781096892E+02  0.11727626613E+03  0.21099490213E+03  0.00000000000E+00 0. -1.
        -11    1    5    5    0    0  0.71103924499E+03  0.13703455435E+03  0.28415359344E+03  0.77788080171E+03  0.00000000000E+00 0.  1.
          3    1    6    6  503    0 -0.13036519582E+02  0.50913749889E+03  0.70121091340E+02  0.51410885138E+03  0.00000000000E+00 0. -1.
         -3    1    6    6    0  503 -0.63265762749E+01  0.54581145509E+01  0.11977089965E+02  0.14603673025E+02  0.00000000000E+00 0.  1.
<mgrwt>
<rscale>  0 0.28539538E+04</rscale>
<asrwt>0</asrwt>
<pdfrwt beam="1">  1        1 0.19820873E+00 0.28539538E+04</pdfrwt>
<pdfrwt beam="2">  1       -2 0.24315565E+00 0.28539538E+04</pdfrwt>
<totfact> 0.49399083E-01</totfact>
</mgrwt>
</event>
<event>
12    4  0.4424320E-008  0.1544569E+04  0.7818608E-02  0.8855344E-01
          1   -1    0    0  501    0  0.00000000000E+00  0.00000000000E+00  0.29469571652E+04  0.29469571652E+04  0.00000000000E+00 0. -1.
         -2   -1    0    0    0  501 -0.00000000000E+00 -0.00000000000E+00 -0.20238623679E+03  0.20238623679E+03  0.00000000000E+00 0.  1.
        -24    2    1    2    0    0 -0.33749534243E+03  0.29709621132E+03  0.13589750505E+04  0.14334995508E+04  0.77061723925E+02 0.  0.
        254    2    1    2    0    0  0.33749534243E+03 -0.29709621132E+03  0.13855958779E+04  0.17158438512E+04  0.90668347279E+03 0.  0.
         23    2    4    4    0    0  0.19313894320E+03  0.21645901116E+03  0.98412877418E+02  0.31977985429E+03  0.91743696641E+02 0.  0.
         23    2    4    4    0    0  0.14435639923E+03 -0.51355522247E+03  0.12871830004E+04  0.13960639969E+04  0.87045219116E+02 0.  0.
          3    1    3    3  502    0 -0.32610617823E+03  0.25916870631E+03  0.12461120578E+04  0.13138907559E+04  0.00000000000E+00 0. -1.
         -4    1    3    3    0  502 -0.11389164203E+02  0.37927505008E+02  0.11286299273E+03  0.11960879493E+03  0.00000000000E+00 0.  1.
         11    1    5    5    0    0  0.12297577614E+03  0.91292573717E+02  0.15209119810E+02  0.15391131491E+03  0.00000000000E+00 0.  1.
        -11    1    5    5    0    0  0.70163167064E+02  0.12516643744E+03  0.83203757609E+02  0.16586853938E+03  0.00000000000E+00 0. -1.
          1    1    6    6  503    0 -0.71702659388E+00 -0.12468366274E+03  0.26680180476E+03  0.29449912208E+03  0.00000000000E+00 0. -1.
         -1    1    6    6    0  503  0.14507342582E+03 -0.38887155973E+03  0.10203811957E+04  0.11015648748E+04  0.00000000000E+00 0.  1.
<mgrwt>
<rscale>  0 0.15445693E+04</rscale>
<asrwt>0</asrwt>
<pdfrwt beam="1">  1        1 0.45337800E+00 0.15445693E+04</pdfrwt>
<pdfrwt beam="2">  1       -2 0.31136346E-01 0.15445693E+04</pdfrwt>
<totfact> 0.53166940E+00</totfact>
</mgrwt>
</event>
<event>
12    4  0.4424320E-008  0.2026637E+04  0.7818608E-02  0.8594267E-01
          1   -1    0    0  501    0  0.00000000000E+00  0.00000000000E+00  0.25851691190E+04  0.25851691190E+04  0.00000000000E+00 0. -1.
         -2   -1    0    0    0  501 -0.00000000000E+00 -0.00000000000E+00 -0.39719426549E+03  0.39719426549E+03  0.00000000000E+00 0.  1.
        -24    2    1    2    0    0  0.73643503046E+03 -0.14735623909E+03  0.42715534306E+03  0.86772238424E+03  0.80187491038E+02 0.  0.
        254    2    1    2    0    0 -0.73643503046E+03  0.14735623909E+03  0.17608195105E+04  0.21146410003E+04  0.89842684526E+03 0.  0.
         23    2    4    4    0    0 -0.43971239153E+03 -0.23514699699E+03  0.14404994048E+04  0.15270674139E+04  0.90858428643E+02 0.  0.
         23    2    4    4    0    0 -0.29672263893E+03  0.38250323608E+03  0.32032010572E+03  0.58757358637E+03  0.91020323006E+02 0.  0.
          3    1    3    3  502    0  0.13790662550E+03 -0.60007922673E+02  0.81678174025E+02  0.17114471144E+03  0.00000000000E+00 0. -1.
         -4    1    3    3    0  502  0.59852840497E+03 -0.87348316413E+02  0.34547716903E+03  0.69657767281E+03  0.00000000000E+00 0.  1.
         11    1    5    5    0    0 -0.42024604463E+03 -0.24294056252E+03  0.13927526190E+04  0.14749192224E+04  0.00000000000E+00 0. -1.
        -11    1    5    5    0    0 -0.19466346896E+02  0.77935655214E+01  0.47746785788E+02  0.52148191513E+02  0.00000000000E+00 0.  1.
          2    1    6    6  503    0 -0.27690829780E+03  0.38243255435E+03  0.30126526204E+03  0.56008358495E+03  0.00000000000E+00 0. -1.
         -2    1    6    6    0  503 -0.19814341131E+02  0.70681733602E-01  0.19054843678E+02  0.27490001418E+02  0.00000000000E+00 0.  1.
<mgrwt>
<rscale>  0 0.20266370E+04</rscale>
<asrwt>0</asrwt>
<pdfrwt beam="1">  1        1 0.39771832E+00 0.20266370E+04</pdfrwt>
<pdfrwt beam="2">  1       -2 0.61106812E-01 0.20266370E+04</pdfrwt>
<totfact> 0.23953758E+00</totfact>
</mgrwt>
</event>
<event>
12    4  0.4424320E-008  0.1439827E+04  0.7818608E-02  0.8925484E-01
          1   -1    0    0  501    0  0.00000000000E+00  0.00000000000E+00  0.52057210342E+03  0.52057210342E+03  0.00000000000E+00 0. -1.
         -2   -1    0    0    0  501 -0.00000000000E+00 -0.00000000000E+00 -0.99558779829E+03  0.99558779829E+03  0.00000000000E+00 0.  1.
        -24    2    1    2    0    0  0.36852473774E+03 -0.21787787889E+03 -0.23766214400E+03  0.49616028368E+03  0.80065473041E+02 0.  0.
        254    2    1    2    0    0 -0.36852473774E+03  0.21787787889E+03 -0.23735355087E+03  0.10199996180E+04  0.89486382216E+03 0.  0.
         23    2    4    4    0    0 -0.56234343068E+01 -0.28587603005E+03 -0.25145055699E+03  0.39171438702E+03  0.91956787795E+02 0.  0.
         23    2    4    4    0    0 -0.36290130344E+03  0.50375390894E+03  0.14097006116E+02  0.62828523100E+03  0.95279846272E+02 0.  0.
          1    1    3    3  502    0  0.11975901960E+03 -0.56090056385E+02 -0.11429214266E+03  0.17478847523E+03  0.00000000000E+00 0. -1.
         -2    1    3    3    0  502  0.24876571814E+03 -0.16178782251E+03 -0.12337000134E+03  0.32137180845E+03  0.00000000000E+00 0.  1.
         11    1    5    5    0    0  0.19010298927E+02 -0.23814000915E+03 -0.23602269518E+03  0.33582550240E+03  0.00000000000E+00 0. -1.
        -11    1    5    5    0    0 -0.24633733233E+02 -0.47736020895E+02 -0.15427861806E+02  0.55888884618E+02  0.00000000000E+00 0.  1.
          3    1    6    6  503    0 -0.35193919204E+03  0.49854624412E+03  0.76163668850E+00  0.61025415403E+03  0.00000000000E+00 0. -1.
         -3    1    6    6    0  503 -0.10962111396E+02  0.52076648264E+01  0.13335369427E+02  0.18031076978E+02  0.00000000000E+00 0.  1.
<mgrwt>
<rscale>  0 0.14398267E+04</rscale>
<asrwt>0</asrwt>
<pdfrwt beam="1">  1        1 0.80088016E-01 0.14398267E+04</pdfrwt>
<pdfrwt beam="2">  1       -2 0.15316735E+00 0.14398267E+04</pdfrwt>
<totfact> 0.10088815E+01</totfact>
</mgrwt>
</event>
<event>
12    4  0.4424320E-008  0.1561330E+04  0.7818608E-02  0.8844663E-01
          1   -1    0    0  501    0  0.00000000000E+00  0.00000000000E+00  0.12352767224E+04  0.12352767224E+04  0.00000000000E+00 0. -1.
         -2   -1    0    0    0  501 -0.00000000000E+00 -0.00000000000E+00 -0.49336131104E+03  0.49336131104E+03  0.00000000000E+00 0.  1.
        -24    2    1    2    0    0  0.79765188424E+02 -0.12299005229E+03 -0.35370988461E+03  0.39087567255E+03  0.78638862397E+02 0.  0.
        254    2    1    2    0    0 -0.79765188424E+02  0.12299005229E+03  0.10956252960E+04  0.13377623609E+04  0.75347482161E+03 0.  0.
         23    2    4    4    0    0  0.17087919144E+03  0.35900603444E+03  0.61002710833E+03  0.73547103028E+03  0.10343854527E+03 0.  0.
         23    2    4    4    0    0 -0.25064437986E+03 -0.23601598215E+03  0.48559818768E+03  0.60229133065E+03  0.91777437882E+02 0.  0.
          1    1    3    3  502    0  0.96497633469E+01 -0.13011650660E+02 -0.13692115654E+03  0.13787611865E+03  0.00000000000E+00 0. -1.
         -2    1    3    3    0  502  0.70115425077E+02 -0.10997840163E+03 -0.21678872807E+03  0.25299955390E+03  0.00000000000E+00 0.  1.
         11    1    5    5    0    0  0.20578788071E+02  0.46633035005E+02  0.15677671764E+03  0.16485468045E+03  0.00000000000E+00 0.  1.
        -11    1    5    5    0    0  0.15030040337E+03  0.31237299944E+03  0.45325039069E+03  0.57061634983E+03  0.00000000000E+00 0. -1.
          4    1    6    6  503    0 -0.22699605261E+03 -0.19661998698E+03  0.36154237746E+03  0.46999948711E+03  0.00000000000E+00 0. -1.
         -4    1    6    6    0  503 -0.23648327253E+02 -0.39395995171E+02  0.12405581022E+03  0.13229184354E+03  0.00000000000E+00 0.  1.
<mgrwt>
<rscale>  0 0.15613299E+04</rscale>
<asrwt>0</asrwt>
<pdfrwt beam="1">  1        1 0.19004257E+00 0.15613299E+04</pdfrwt>
<pdfrwt beam="2">  1       -2 0.75901741E-01 0.15613299E+04</pdfrwt>
<totfact> 0.13221857E+01</totfact>
</mgrwt>
</event>
<event>
12    4  0.4424320E-008  0.2127591E+04  0.7818608E-02  0.8549186E-01
          1   -1    0    0  501    0  0.00000000000E+00  0.00000000000E+00  0.26134988989E+04  0.26134988989E+04  0.00000000000E+00 0. -1.
         -2   -1    0    0    0  501 -0.00000000000E+00 -0.00000000000E+00 -0.43300605613E+03  0.43300605613E+03  0.00000000000E+00 0.  1.
        -24    2    1    2    0    0  0.52032116120E+03  0.13064040995E+03  0.18695648822E+04  0.19466064308E+04  0.78757349895E+02 0.  0.
        254    2    1    2    0    0 -0.52032116120E+03 -0.13064040995E+03  0.31092796063E+03  0.10998985243E+04  0.90845998234E+03 0.  0.
         23    2    4    4    0    0 -0.58299795799E+03 -0.35981267918E+03  0.43550387826E+03  0.81694979864E+03  0.91605471459E+02 0.  0.
         23    2    4    4    0    0  0.62676796787E+02  0.22917226923E+03 -0.12457591763E+03  0.28294872564E+03  0.89958391759E+02 0.  0.
          1    1    3    3  502    0  0.50431521424E+03  0.11174327635E+03  0.17574483913E+04  0.18317874448E+04  0.00000000000E+00 0. -1.
         -2    1    3    3    0  502  0.16005946966E+02  0.18897133599E+02  0.11211649092E+03  0.11481898595E+03  0.00000000000E+00 0.  1.
         11    1    5    5    0    0 -0.31441344114E+03 -0.23392539917E+03  0.28322664488E+03  0.48352273651E+03  0.00000000000E+00 0. -1.
        -11    1    5    5    0    0 -0.26858451685E+03 -0.12588728001E+03  0.15227723338E+03  0.33342706214E+03  0.00000000000E+00 0.  1.
          1    1    6    6  503    0 -0.16126855477E+02  0.84442305055E+02 -0.21646181465E+02  0.88651765479E+02  0.00000000000E+00 0. -1.
         -1    1    6    6    0  503  0.78803652264E+02  0.14472996418E+03 -0.10292973617E+03  0.19429696016E+03  0.00000000000E+00 0.  1.
<mgrwt>
<rscale>  0 0.21275910E+04</rscale>
<asrwt>0</asrwt>
<pdfrwt beam="1">  1        1 0.40207674E+00 0.21275910E+04</pdfrwt>
<pdfrwt beam="2">  1       -2 0.66616318E-01 0.21275910E+04</pdfrwt>
<totfact> 0.18851022E+00</totfact>
</mgrwt>
</event>
<event>
12    4  0.4424320E-008  0.1966776E+04  0.7818608E-02  0.8622313E-01
          1   -1    0    0  501    0  0.00000000000E+00  0.00000000000E+00  0.15929738681E+04  0.15929738681E+04  0.00000000000E+00 0. -1.
         -2   -1    0    0    0  501 -0.00000000000E+00 -0.00000000000E+00 -0.60707339768E+03  0.60707339768E+03  0.00000000000E+00 0.  1.
        -24    2    1    2    0    0 -0.14494269713E+03  0.21802322906E+02  0.12477739651E+04  0.12584928706E+04  0.73353328462E+02 0.  0.
        254    2    1    2    0    0  0.14494269713E+03 -0.21802322906E+02 -0.26187349462E+03  0.94155439518E+03  0.89244788372E+03 0.  0.
         23    2    4    4    0    0 -0.34005969240E+03 -0.11193369881E+03  0.15530077127E+02  0.36826700556E+03  0.84909697692E+02 0.  0.
         23    2    4    4    0    0  0.48500238953E+03  0.90131375909E+02 -0.27740357174E+03  0.57328738962E+03  0.91404084723E+02 0.  0.
          1    1    3    3  502    0 -0.10780371859E+03 -0.49521119790E+01  0.10480282597E+04  0.10535698355E+04  0.00000000000E+00 0. -1.
         -4    1    3    3    0  502 -0.37138978540E+02  0.26754434885E+02  0.19974570534E+03  0.20492303510E+03  0.00000000000E+00 0.  1.
         11    1    5    5    0    0 -0.30514426114E+03 -0.71872705119E+02  0.22955412847E+01  0.31350275175E+03  0.00000000000E+00 0.  1.
        -11    1    5    5    0    0 -0.34915431264E+02 -0.40060993695E+02  0.13234535842E+02  0.54764253808E+02  0.00000000000E+00 0. -1.
          3    1    6    6  503    0  0.72578759825E+02  0.48171191907E+02 -0.45434367713E+02  0.98246739778E+02  0.00000000000E+00 0. -1.
         -3    1    6    6    0  503  0.41242362971E+03  0.41960184002E+02 -0.23196920403E+03  0.47504064984E+03  0.00000000000E+00 0.  1.
<mgrwt>
<rscale>  0 0.19667761E+04</rscale>
<asrwt>0</asrwt>
<pdfrwt beam="1">  1        1 0.24507290E+00 0.19667761E+04</pdfrwt>
<pdfrwt beam="2">  1       -2 0.93395908E-01 0.19667761E+04</pdfrwt>
<totfact> 0.44686738E+00</totfact>
</mgrwt>
</event>
<event>
12    4  0.4424320E-008  0.1509702E+04  0.7818608E-02  0.8878027E-01
          1   -1    0    0  501    0  0.00000000000E+00  0.00000000000E+00  0.19651226042E+04  0.19651226042E+04  0.00000000000E+00 0. -1.
         -2   -1    0    0    0  501 -0.00000000000E+00 -0.00000000000E+00 -0.28995649899E+03  0.28995649899E+03  0.00000000000E+00 0.  1.
        -24    2    1    2    0    0 -0.34264313693E+03  0.31055767442E+03  0.35876389782E+03  0.59084482786E+03  0.80843600899E+02 0.  0.
        254    2    1    2    0    0  0.34264313693E+03 -0.31055767442E+03  0.13164022073E+04  0.16642342753E+04  0.90714417989E+03 0.  0.
         23    2    4    4    0    0  0.28366729174E+03 -0.59016348083E+03  0.11339409959E+04  0.13128984657E+04  0.95499385297E+02 0.  0.
         23    2    4    4    0    0  0.58975845188E+02  0.27960580642E+03  0.18246121147E+03  0.35133580959E+03  0.92126001275E+02 0.  0.
          3    1    3    3  502    0 -0.11794504694E+03  0.15195524101E+03  0.17514821660E+03  0.26015058552E+03  0.00000000000E+00 0. -1.
         -4    1    3    3    0  502 -0.22469808999E+03  0.15860243341E+03  0.18361568122E+03  0.33069424234E+03  0.00000000000E+00 0.  1.
         11    1    5    5    0    0  0.89009914410E+02 -0.20766406151E+03  0.30650777865E+03  0.38078096811E+03  0.00000000000E+00 0. -1.
        -11    1    5    5    0    0  0.19465737733E+03 -0.38249941933E+03  0.82743321723E+03  0.93211749759E+03  0.00000000000E+00 0.  1.
          1    1    6    6  503    0 -0.98136446971E+01  0.44096983788E+02  0.65412358412E+02  0.79496089429E+02  0.00000000000E+00 0. -1.
         -1    1    6    6    0  503  0.68789489885E+02  0.23550882263E+03  0.11704885306E+03  0.27183972016E+03  0.00000000000E+00 0.  1.
<mgrwt>
<rscale>  0 0.15097021E+04</rscale>
<asrwt>0</asrwt>
<pdfrwt beam="1">  1        1 0.30232655E+00 0.15097021E+04</pdfrwt>
<pdfrwt beam="2">  1       -2 0.44608693E-01 0.15097021E+04</pdfrwt>
<totfact> 0.12732837E+01</totfact>
</mgrwt>
</event>
<event>
12    4  0.4424320E-008  0.1812506E+04  0.7818608E-02  0.8699677E-01
         -2   -1    0    0    0  501 -0.00000000000E+00  0.00000000000E+00  0.51191246257E+03  0.51191246257E+03  0.00000000000E+00 0.  1.
          1   -1    0    0  501    0  0.00000000000E+00 -0.00000000000E+00 -0.16043646189E+04  0.16043646189E+04  0.00000000000E+00 0. -1.
        -24    2    1    2    0    0 -0.64130432761E+03  0.49329654787E+02 -0.15196990786E+03  0.66584754480E+03  0.80953348124E+02 0.  0.
        254    2    1    2    0    0  0.64130432761E+03 -0.49329654787E+02 -0.94048224844E+03  0.14504295366E+04  0.89751564091E+03 0.  0.
         23    2    4    4    0    0  0.35714109610E+03  0.33793447488E+03 -0.79641333855E+03  0.94031804016E+03  0.90412051141E+02 0.  0.
         23    2    4    4    0    0  0.28416323151E+03 -0.38726412967E+03 -0.14406890989E+03  0.51011149648E+03  0.93464644520E+02 0.  0.
          3    1    3    3  502    0 -0.19385929460E+03  0.44929530805E+02 -0.23988168002E+02  0.20043832230E+03  0.00000000000E+00 0. -1.
         -4    1    3    3    0  502 -0.44744503300E+03  0.44001239818E+01 -0.12798173986E+03  0.46540922250E+03  0.00000000000E+00 0.  1.
         11    1    5    5    0    0  0.29473002705E+03  0.30321573081E+03 -0.62483523880E+03  0.75446977667E+03  0.00000000000E+00 0. -1.
        -11    1    5    5    0    0  0.62411069049E+02  0.34718744073E+02 -0.17157809975E+03  0.18584826349E+03  0.00000000000E+00 0.  1.
          4    1    6    6  503    0  0.47459841909E+02 -0.78432852594E+02 -0.66737243155E+02  0.11339315934E+03  0.00000000000E+00 0. -1.
         -4    1    6    6    0  503  0.23670338960E+03 -0.30883127708E+03 -0.77331666737E+02  0.39671833715E+03  0.00000000000E+00 0.  1.
<mgrwt>
<rscale>  0 0.18125057E+04</rscale>
<asrwt>0</asrwt>
<pdfrwt beam="1">  1        1 0.24682532E+00 0.18125057E+04</pdfrwt>
<pdfrwt beam="2">  1       -2 0.78755766E-01 0.18125057E+04</pdfrwt>
<totfact> 0.65646802E+00</totfact>
</mgrwt>
</event>
<event>
12    4  0.4424320E-008  0.1456022E+04  0.7818608E-02  0.8914236E-01
         -2   -1    0    0    0  501 -0.00000000000E+00  0.00000000000E+00  0.83018871104E+03  0.83018871104E+03  0.00000000000E+00 0.  1.
          1   -1    0    0  501    0  0.00000000000E+00 -0.00000000000E+00 -0.63840940000E+03  0.63840940000E+03  0.00000000000E+00 0. -1.
        -24    2    1    2    0    0  0.18675961229E+03  0.40848332525E+03  0.85303865910E+02  0.46343527242E+03  0.75879657355E+02 0.  0.
        254    2    1    2    0    0 -0.18675961229E+03 -0.40848332525E+03  0.10647544513E+03  0.10051628386E+04  0.89290398809E+03 0.  0.
         23    2    4    4    0    0  0.21437734793E+03  0.16986536074E+03  0.70970463244E+02  0.29484184900E+03  0.84160686679E+02 0.  0.
         23    2    4    4    0    0 -0.40113696022E+03 -0.57834868598E+03  0.35504981883E+02  0.71032098963E+03  0.88866422962E+02 0.  0.
          1    1    3    3  502    0  0.13925890499E+03  0.22785263886E+03  0.30418996302E+02  0.26876603764E+03  0.00000000000E+00 0. -1.
         -4    1    3    3    0  502  0.47500707304E+02  0.18063068639E+03  0.54884869607E+02  0.19466923478E+03  0.00000000000E+00 0.  1.
         11    1    5    5    0    0  0.21290382178E+03  0.17698288895E+03  0.62773413837E+02  0.28388638889E+03  0.00000000000E+00 0. -1.
        -11    1    5    5    0    0  0.14735261473E+01 -0.71175282145E+01  0.81970494063E+01  0.10955460107E+02  0.00000000000E+00 0.  1.
          2    1    6    6  503    0 -0.40577630510E+03 -0.57280017613E+03  0.33276800924E+02  0.70275301282E+03  0.00000000000E+00 0. -1.
         -2    1    6    6    0  503  0.46393448775E+01 -0.55485098585E+01  0.22281809588E+01  0.75679768054E+01  0.00000000000E+00 0.  1.
<mgrwt>
<rscale>  0 0.14560224E+04</rscale>
<asrwt>0</asrwt>
<pdfrwt beam="1">  1        1 0.98216830E-01 0.14560224E+04</pdfrwt>
<pdfrwt beam="2">  1       -2 0.12772134E+00 0.14560224E+04</pdfrwt>
<totfact> 0.12066512E+01</totfact>
</mgrwt>
</event>
<event>
12    4  0.4424320E-008  0.2638816E+04  0.7818608E-02  0.8355135E-01
         -2   -1    0    0    0  501 -0.00000000000E+00  0.00000000000E+00  0.73566282181E+03  0.73566282181E+03  0.00000000000E+00 0.  1.
          1   -1    0    0  501    0  0.00000000000E+00 -0.00000000000E+00 -0.23663516983E+04  0.23663516983E+04  0.00000000000E+00 0. -1.
        -24    2    1    2    0    0  0.39765588714E+03  0.60567608801E+03  0.35141123089E+03  0.80924082849E+03  0.80044594665E+02 0.  0.
        254    2    1    2    0    0 -0.39765588714E+03 -0.60567608801E+03 -0.19821001073E+04  0.22927736916E+04  0.89616775057E+03 0.  0.
         23    2    4    4    0    0 -0.49868415663E+03 -0.56727407122E+03 -0.80704321294E+03  0.11091961920E+04  0.92258793344E+02 0.  0.
         23    2    4    4    0    0  0.10102826948E+03 -0.38402016790E+02 -0.11750568944E+04  0.11835774995E+04  0.91736395326E+02 0.  0.
          1    1    3    3  502    0  0.17923930751E+02  0.72828878930E+01  0.32110011368E+01  0.19611687279E+02  0.00000000000E+00 0. -1.
         -2    1    3    3    0  502  0.37973195639E+03  0.59839320011E+03  0.34820022975E+03  0.78962914121E+03  0.00000000000E+00 0.  1.
         11    1    5    5    0    0 -0.39900120992E+03 -0.42036089799E+03 -0.56861898701E+03  0.81193152572E+03  0.00000000000E+00 0.  1.
        -11    1    5    5    0    0 -0.99682946702E+02 -0.14691317323E+03 -0.23842422594E+03  0.29726466632E+03  0.00000000000E+00 0. -1.
          3    1    6    6  503    0 -0.43589740061E+01 -0.70126332489E+01 -0.85029619385E+01  0.11852343279E+02  0.00000000000E+00 0. -1.
         -3    1    6    6    0  503  0.10538724349E+03 -0.31389383541E+02 -0.11665539325E+04  0.11717251563E+04  0.00000000000E+00 0.  1.
<mgrwt>
<rscale>  0 0.26388156E+04</rscale>
<asrwt>0</asrwt>
<pdfrwt beam="1">  1        1 0.36405411E+00 0.26388156E+04</pdfrwt>
<pdfrwt beam="2">  1       -2 0.11317890E+00 0.26388156E+04</pdfrwt>
<totfact> 0.79271598E-01</totfact>
</mgrwt>
</event>
<event>
12    4  0.4424320E-008  0.1354287E+04  0.7818608E-02  0.8987589E-01
         -2   -1    0    0    0  501 -0.00000000000E+00  0.00000000000E+00  0.11412681741E+03  0.11412681741E+03  0.00000000000E+00 0.  1.
          1   -1    0    0  501    0  0.00000000000E+00 -0.00000000000E+00 -0.40176661214E+04  0.40176661214E+04  0.00000000000E+00 0. -1.
        -24    2    1    2    0    0  0.33946334352E+03 -0.10799467657E+03 -0.78530584409E+03  0.86611601828E+03  0.80953545955E+02 0.  0.
        254    2    1    2    0    0 -0.33946334352E+03  0.10799467657E+03 -0.31182334599E+04  0.32656769206E+04  0.90242319734E+03 0.  0.
         23    2    4    4    0    0 -0.41328611978E+03 -0.28384870413E+03 -0.11937243090E+04  0.12980662339E+04  0.92858591620E+02 0.  0.
         23    2    4    4    0    0  0.73822776265E+02  0.39184338070E+03 -0.19245091509E+04  0.19676106867E+04  0.93623207439E+02 0.  0.
          3    1    3    3  502    0  0.18296817017E+03 -0.67028064101E+02 -0.52084584285E+03  0.55610296231E+03  0.00000000000E+00 0. -1.
         -4    1    3    3    0  502  0.15649517335E+03 -0.40966612465E+02 -0.26446000123E+03  0.31001305597E+03  0.00000000000E+00 0.  1.
         11    1    5    5    0    0 -0.11830215050E+02  0.23257855393E+01 -0.96138230830E+01  0.15420404041E+02  0.00000000000E+00 0.  1.
        -11    1    5    5    0    0 -0.40145590473E+03 -0.28617448967E+03 -0.11841104859E+04  0.12826458298E+04  0.00000000000E+00 0. -1.
          4    1    6    6  503    0  0.17279314015E+02  0.25340584432E+02 -0.70581507385E+02  0.76957579854E+02  0.00000000000E+00 0.  1.
         -4    1    6    6    0  503  0.56543462250E+02  0.36650279627E+03 -0.18539276436E+04  0.18906531068E+04  0.00000000000E+00 0. -1.
<mgrwt>
<rscale>  0 0.13542872E+04</rscale>
<asrwt>0</asrwt>
<pdfrwt beam="1">  1        1 0.61810232E+00 0.13542872E+04</pdfrwt>
<pdfrwt beam="2">  1       -2 0.17557976E-01 0.13542872E+04</pdfrwt>
<totfact> 0.21895299E+00</totfact>
</mgrwt>
</event>
<event>
12    4  0.4424320E-008  0.1543862E+04  0.7818608E-02  0.8855798E-01
          1   -1    0    0  501    0  0.00000000000E+00  0.00000000000E+00  0.81373430274E+03  0.81373430274E+03  0.00000000000E+00 0. -1.
         -2   -1    0    0    0  501 -0.00000000000E+00 -0.00000000000E+00 -0.73227494801E+03  0.73227494801E+03  0.00000000000E+00 0.  1.
        -24    2    1    2    0    0  0.14192055367E+03 -0.16949192604E+03 -0.42174869463E+03  0.48315086940E+03  0.81815919198E+02 0.  0.
        254    2    1    2    0    0 -0.14192055367E+03  0.16949192604E+03  0.50320804937E+03  0.10628583813E+04  0.90971459333E+03 0.  0.
         23    2    4    4    0    0  0.22516988357E+03 -0.18066732286E+03  0.45366600891E+03  0.54525370648E+03  0.90258510814E+02 0.  0.
         23    2    4    4    0    0 -0.36709043724E+03  0.35015924890E+03  0.49542040451E+02  0.51760467486E+03  0.89962753203E+02 0.  0.
          1    1    3    3  502    0  0.89719770084E+01  0.74279128414E+01 -0.42374596120E+02  0.43946292869E+02  0.00000000000E+00 0. -1.
         -2    1    3    3    0  502  0.13294857666E+03 -0.17691983888E+03 -0.37937409851E+03  0.43920457653E+03  0.00000000000E+00 0.  1.
         11    1    5    5    0    0  0.22169217297E+03 -0.17882761046E+03  0.39783692934E+03  0.48928617001E+03  0.00000000000E+00 0.  1.
        -11    1    5    5    0    0  0.34777106004E+01 -0.18397124056E+01  0.55829079579E+02  0.55967536478E+02  0.00000000000E+00 0. -1.
          1    1    6    6  503    0 -0.16787930091E+03  0.20327752495E+03 -0.69632989473E+01  0.26373035350E+03  0.00000000000E+00 0. -1.
         -1    1    6    6    0  503 -0.19921113633E+03  0.14688172396E+03  0.56505339399E+02  0.25387432137E+03  0.00000000000E+00 0.  1.
<mgrwt>
<rscale>  0 0.15438617E+04</rscale>
<asrwt>0</asrwt>
<pdfrwt beam="1">  1        1 0.12518989E+00 0.15438617E+04</pdfrwt>
<pdfrwt beam="2">  1       -2 0.11265768E+00 0.15438617E+04</pdfrwt>
<totfact> 0.11261042E+01</totfact>
</mgrwt>
</event>
<event>
12    4  0.4424320E-008  0.1227715E+04  0.7818608E-02  0.9088937E-01
          1   -1    0    0  501    0  0.00000000000E+00  0.00000000000E+00  0.22231390326E+04  0.22231390326E+04  0.00000000000E+00 0. -1.
         -2   -1    0    0    0  501 -0.00000000000E+00 -0.00000000000E+00 -0.16949966607E+03  0.16949966607E+03  0.00000000000E+00 0.  1.
        -24    2    1    2    0    0 -0.59286561655E+02  0.18035952007E+03  0.80700722844E+03  0.83297130726E+03  0.80846020851E+02 0.  0.
        254    2    1    2    0    0  0.59286561655E+02 -0.18035952007E+03  0.12466321380E+04  0.15596673914E+04  0.91783780223E+03 0.  0.
         23    2    4    4    0    0  0.46373040618E+03  0.12221916870E+02  0.73284282092E+03  0.87207629401E+03  0.90902131693E+02 0.  0.
         23    2    4    4    0    0 -0.40444384452E+03 -0.19258143694E+03  0.51378931713E+03  0.68759109735E+03  0.90219851100E+02 0.  0.
          1    1    3    3  502    0 -0.54034546170E+02  0.98285015355E+02  0.59680882212E+03  0.60725649159E+03  0.00000000000E+00 0. -1.
         -2    1    3    3    0  502 -0.52520154852E+01  0.82074504712E+02  0.21019840633E+03  0.22571481567E+03  0.00000000000E+00 0.  1.
         11    1    5    5    0    0  0.41961776104E+03  0.26236415102E+02  0.69506210450E+03  0.81232920910E+03  0.00000000000E+00 0. -1.
        -11    1    5    5    0    0  0.44112645143E+02 -0.14014498232E+02  0.37780716418E+02  0.59747084910E+02  0.00000000000E+00 0.  1.
          4    1    6    6  503    0 -0.34907827052E+03 -0.17886947914E+03  0.48481695675E+03  0.62361639737E+03  0.00000000000E+00 0. -1.
         -4    1    6    6    0  503 -0.55365574005E+02 -0.13711957800E+02  0.28972360377E+02  0.63974699979E+02  0.00000000000E+00 0.  1.
<mgrwt>
<rscale>  0 0.12277155E+04</rscale>
<asrwt>0</asrwt>
<pdfrwt beam="1">  1        1 0.34202137E+00 0.12277155E+04</pdfrwt>
<pdfrwt beam="2">  1       -2 0.26076873E-01 0.12277155E+04</pdfrwt>
<totfact> 0.24280607E+01</totfact>
</mgrwt>
</event>
<event>
12    4  0.4424320E-008  0.1755490E+04  0.7818608E-02  0.8730334E-01
         -2   -1    0    0    0  501 -0.00000000000E+00  0.00000000000E+00  0.46285950337E+03  0.46285950337E+03  0.00000000000E+00 0.  1.
          1   -1    0    0  501    0  0.00000000000E+00 -0.00000000000E+00 -0.16645144564E+04  0.16645144564E+04  0.00000000000E+00 0. -1.
        -24    2    1    2    0    0  0.58907274576E+03 -0.88740360082E+01 -0.12995516982E+03  0.60855314079E+03  0.79769233979E+02 0.  0.
        254    2    1    2    0    0 -0.58907274576E+03  0.88740360082E+01 -0.10716997832E+04  0.15188208190E+04  0.90066131622E+03 0.  0.
         23    2    4    4    0    0  0.89732728530E+02  0.19026287749E+02 -0.75277510451E+03  0.76357122606E+03  0.89200320093E+02 0.  0.
         23    2    4    4    0    0 -0.67880547429E+03 -0.10152251740E+02 -0.31892467871E+03  0.75524959294E+03  0.88368867779E+02 0.  0.
          1    1    3    3  502    0  0.61166260803E+02  0.55778009943E+01 -0.38774287361E+02  0.72635175258E+02  0.00000000000E+00 0. -1.
         -2    1    3    3    0  502  0.52790648496E+03 -0.14451837002E+02 -0.91180882458E+02  0.53591796553E+03  0.00000000000E+00 0.  1.
         11    1    5    5    0    0  0.14683493506E+02  0.18998976141E+02 -0.38568342749E+02  0.45432181748E+02  0.00000000000E+00 0. -1.
        -11    1    5    5    0    0  0.75049235024E+02  0.27311607997E-01 -0.71420676176E+03  0.71813904431E+03  0.00000000000E+00 0.  1.
          4    1    6    6  503    0 -0.36946798525E+03 -0.16950783984E+02 -0.12654260013E+03  0.39090529652E+03  0.00000000000E+00 0.  1.
         -4    1    6    6    0  503 -0.30933748904E+03  0.67985322438E+01 -0.19238207859E+03  0.36434429641E+03  0.00000000000E+00 0. -1.
<mgrwt>
<rscale>  0 0.17554901E+04</rscale>
<asrwt>0</asrwt>
<pdfrwt beam="1">  1        1 0.25607915E+00 0.17554901E+04</pdfrwt>
<pdfrwt beam="2">  1       -2 0.71209154E-01 0.17554901E+04</pdfrwt>
<totfact> 0.75017856E+00</totfact>
</mgrwt>
</event>
<event>
12    4  0.4424320E-008  0.1645087E+04  0.7818608E-02  0.8793318E-01
         -2   -1    0    0    0  501 -0.00000000000E+00  0.00000000000E+00  0.50125432468E+03  0.50125432468E+03  0.00000000000E+00 0.  1.
          1   -1    0    0  501    0  0.00000000000E+00 -0.00000000000E+00 -0.13497702767E+04  0.13497702767E+04  0.00000000000E+00 0. -1.
        -24    2    1    2    0    0 -0.22542793212E+02  0.96772703987E+01  0.34691070601E+03  0.35713245763E+03  0.81207926102E+02 0.  0.
        254    2    1    2    0    0  0.22542793212E+02 -0.96772703987E+01 -0.11954266580E+04  0.14938921437E+04  0.89558194228E+03 0.  0.
         23    2    4    4    0    0  0.21794300621E+03 -0.37872952631E+03 -0.43850273017E+03  0.62583196784E+03  0.91901031223E+02 0.  0.
         23    2    4    4    0    0 -0.19540021300E+03  0.36905225591E+03 -0.75692392786E+03  0.86806017591E+03  0.78827822542E+02 0.  0.
          1    1    3    3  502    0  0.21835666422E+02 -0.85560877842E+01  0.39015596724E+02  0.45521640502E+02  0.00000000000E+00 0. -1.
         -2    1    3    3    0  502 -0.44378459634E+02  0.18233358183E+02  0.30789510928E+03  0.31161081713E+03  0.00000000000E+00 0.  1.
         11    1    5    5    0    0  0.12614465322E+03 -0.13121655927E+03 -0.19383084914E+03  0.26589595153E+03  0.00000000000E+00 0. -1.
        -11    1    5    5    0    0  0.91798352993E+02 -0.24751296703E+03 -0.24467188103E+03  0.35993601630E+03  0.00000000000E+00 0.  1.
          1    1    6    6  503    0 -0.58349221533E+02  0.50550019586E+02 -0.11569057833E+03  0.13908359374E+03  0.00000000000E+00 0. -1.
         -1    1    6    6    0  503 -0.13705099147E+03  0.31850223632E+03 -0.64123334953E+03  0.72897658217E+03  0.00000000000E+00 0.  1.
<mgrwt>
<rscale>  0 0.16450875E+04</rscale>
<asrwt>0</asrwt>
<pdfrwt beam="1">  1        1 0.20765696E+00 0.16450875E+04</pdfrwt>
<pdfrwt beam="2">  1       -2 0.77116050E-01 0.16450875E+04</pdfrwt>
<totfact> 0.10493905E+01</totfact>
</mgrwt>
</event>
<event>
12    4  0.4424320E-008  0.1308546E+04  0.7818608E-02  0.9022816E-01
          1   -1    0    0  501    0  0.00000000000E+00  0.00000000000E+00  0.84311046875E+03  0.84311046875E+03  0.00000000000E+00 0. -1.
         -2   -1    0    0    0  501 -0.00000000000E+00 -0.00000000000E+00 -0.50773054667E+03  0.50773054667E+03  0.00000000000E+00 0.  1.
        -24    2    1    2    0    0  0.61476725426E+01  0.15047548223E+03 -0.21887352763E+03  0.27699468669E+03  0.78356689115E+02 0.  0.
        254    2    1    2    0    0 -0.61476725426E+01 -0.15047548223E+03  0.55425344971E+03  0.10738463287E+04  0.90734138370E+03 0.  0.
         23    2    4    4    0    0  0.76449138250E+02 -0.26066855875E+03  0.75852855431E+03  0.81077984764E+03  0.90586010929E+02 0.  0.
         23    2    4    4    0    0 -0.82596810792E+02  0.11019307652E+03 -0.20427510461E+03  0.26306648108E+03  0.92254581678E+02 0.  0.
          1    1    3    3  502    0 -0.24358332481E+01 -0.65451799276E+01 -0.32029169547E+02  0.32781707792E+02  0.00000000000E+00 0. -1.
         -2    1    3    3    0  502  0.85835057907E+01  0.15702066216E+03 -0.18684435808E+03  0.24421297890E+03  0.00000000000E+00 0.  1.
         11    1    5    5    0    0  0.73520139623E+02 -0.22655825399E+03  0.72392155967E+03  0.76209991335E+03  0.00000000000E+00 0.  1.
        -11    1    5    5    0    0  0.29289986266E+01 -0.34110304767E+02  0.34606994644E+02  0.48679934291E+02  0.00000000000E+00 0. -1.
          4    1    6    6  503    0  0.37884389122E+01 -0.13594766162E+02 -0.11382275920E+02  0.18130806422E+02  0.00000000000E+00 0. -1.
         -4    1    6    6    0  503 -0.86385249704E+02  0.12378784268E+03 -0.19289282869E+03  0.24493567466E+03  0.00000000000E+00 0.  1.
<mgrwt>
<rscale>  0 0.13085457E+04</rscale>
<asrwt>0</asrwt>
<pdfrwt beam="1">  1        1 0.12970930E+00 0.13085457E+04</pdfrwt>
<pdfrwt beam="2">  1       -2 0.78112392E-01 0.13085457E+04</pdfrwt>
<totfact> 0.25475024E+01</totfact>
</mgrwt>
</event>
<event>
12    4  0.4424320E-008  0.1277605E+04  0.7818608E-02  0.9047515E-01
          1   -1    0    0  501    0  0.00000000000E+00  0.00000000000E+00  0.23072144415E+04  0.23072144415E+04  0.00000000000E+00 0. -1.
         -2   -1    0    0    0  501 -0.00000000000E+00 -0.00000000000E+00 -0.17686645886E+03  0.17686645886E+03  0.00000000000E+00 0.  1.
        -24    2    1    2    0    0  0.12454107228E+03 -0.21869089386E+03  0.90596507569E+03  0.94379982261E+03  0.81542633281E+02 0.  0.
        254    2    1    2    0    0 -0.12454107228E+03  0.21869089386E+03  0.12243829069E+04  0.15402810777E+04  0.90000894988E+03 0.  0.
         23    2    4    4    0    0  0.18195370595E+03  0.47635086338E+03  0.59841186938E+03  0.79160419242E+03  0.92320831319E+02 0.  0.
         23    2    4    4    0    0 -0.30649477823E+03 -0.25765996952E+03  0.62597103754E+03  0.74867688529E+03  0.91376308465E+02 0.  0.
          3    1    3    3  502    0  0.13538702608E+03 -0.19985338289E+03  0.85426716866E+03  0.88771809541E+03  0.00000000000E+00 0. -1.
         -4    1    3    3    0  502 -0.10845953796E+02 -0.18837510974E+02  0.51697907038E+02  0.56081727198E+02  0.00000000000E+00 0.  1.
         11    1    5    5    0    0  0.28631658650E+02  0.54375610277E+02  0.12421692744E+03  0.13858688225E+03  0.00000000000E+00 0. -1.
        -11    1    5    5    0    0  0.15332204730E+03  0.42197525310E+03  0.47419494193E+03  0.65301731017E+03  0.00000000000E+00 0.  1.
          4    1    6    6  503    0 -0.95327946034E+02 -0.31025404467E+02  0.17221970594E+03  0.19927272802E+03  0.00000000000E+00 0. -1.
         -4    1    6    6    0  503 -0.21116683220E+03 -0.22663456505E+03  0.45375133160E+03  0.54940415727E+03  0.00000000000E+00 0.  1.
<mgrwt>
<rscale>  0 0.12776053E+04</rscale>
<asrwt>0</asrwt>
<pdfrwt beam="1">  1        1 0.35495605E+00 0.12776053E+04</pdfrwt>
<pdfrwt beam="2">  1       -2 0.27210226E-01 0.12776053E+04</pdfrwt>
<totfact> 0.19603078E+01</totfact>
</mgrwt>
</event>
<event>
12    4  0.4424320E-008  0.2203881E+04  0.7818608E-02  0.8516814E-01
         -2   -1    0    0    0  501 -0.00000000000E+00  0.00000000000E+00  0.59702683916E+03  0.59702683916E+03  0.00000000000E+00 0.  1.
          1   -1    0    0  501    0  0.00000000000E+00 -0.00000000000E+00 -0.20338671156E+04  0.20338671156E+04  0.00000000000E+00 0. -1.
        -24    2    1    2    0    0 -0.29839310920E+03 -0.61878310171E+03 -0.13423950214E+04  0.15100712026E+04  0.79747532556E+02 0.  0.
        254    2    1    2    0    0  0.29839310920E+03  0.61878310171E+03 -0.94445255099E+02  0.11208227522E+04  0.88056388809E+03 0.  0.
         23    2    4    4    0    0 -0.19971444618E+03  0.52060169957E+03 -0.19070828526E+03  0.59613993867E+03  0.90006593081E+02 0.  0.
         23    2    4    4    0    0  0.49810755539E+03  0.98181402140E+02  0.96263030163E+02  0.52468281351E+03  0.90965704292E+02 0.  0.
          3    1    3    3  502    0 -0.21226757433E+03 -0.51189474538E+03 -0.10885180442E+04  0.12214603089E+04  0.00000000000E+00 0. -1.
         -4    1    3    3    0  502 -0.86125534872E+02 -0.10688835633E+03 -0.25387697715E+03  0.28861089377E+03  0.00000000000E+00 0.  1.
         11    1    5    5    0    0 -0.97291616226E+02  0.28780000188E+03 -0.14912343813E+03  0.33842620978E+03  0.00000000000E+00 0. -1.
        -11    1    5    5    0    0 -0.10242282996E+03  0.23280169769E+03 -0.41584847134E+02  0.25771372889E+03  0.00000000000E+00 0.  1.
          4    1    6    6  503    0  0.38458887642E+03  0.65003916684E+02  0.35328230475E+02  0.39164039235E+03  0.00000000000E+00 0.  1.
         -4    1    6    6    0  503  0.11351867896E+03  0.33177485456E+02  0.60934799688E+02  0.13304242116E+03  0.00000000000E+00 0. -1.
<mgrwt>
<rscale>  0 0.22038814E+04</rscale>
<asrwt>0</asrwt>
<pdfrwt beam="1">  1        1 0.31290263E+00 0.22038814E+04</pdfrwt>
<pdfrwt beam="2">  1       -2 0.91850284E-01 0.22038814E+04</pdfrwt>
<totfact> 0.22812169E+00</totfact>
</mgrwt>
</event>
<event>
12    4  0.4424320E-008  0.1366337E+04  0.7818608E-02  0.8978552E-01
         -2   -1    0    0    0  501 -0.00000000000E+00  0.00000000000E+00  0.36869744601E+03  0.36869744601E+03  0.00000000000E+00 0.  1.
          1   -1    0    0  501    0  0.00000000000E+00 -0.00000000000E+00 -0.12658599840E+04  0.12658599840E+04  0.00000000000E+00 0. -1.
        -24    2    1    2    0    0 -0.31341258952E+03  0.17686176454E+03 -0.35670962052E+03  0.51394854768E+03  0.85987332054E+02 0.  0.
        254    2    1    2    0    0  0.31341258952E+03 -0.17686176454E+03 -0.54045291750E+03  0.11206088824E+04  0.91332763899E+03 0.  0.
         23    2    4    4    0    0  0.21636094216E+01  0.34793340448E+03 -0.16737665319E+03  0.39959750816E+03  0.10296062032E+03 0.  0.
         23    2    4    4    0    0  0.31124898010E+03 -0.52479516902E+03 -0.37307626431E+03  0.72101137419E+03  0.91572952778E+02 0.  0.
          1    1    3    3  502    0 -0.66952317212E+02  0.76588497477E+02 -0.12465372176E+03  0.16089425433E+03  0.00000000000E+00 0. -1.
         -2    1    3    3    0  502 -0.24646027231E+03  0.10027326706E+03 -0.23205589875E+03  0.35305429336E+03  0.00000000000E+00 0.  1.
         11    1    5    5    0    0 -0.41447834514E+02  0.13119752681E+03 -0.35207516821E+02  0.14202212246E+03  0.00000000000E+00 0. -1.
        -11    1    5    5    0    0  0.43611443936E+02  0.21673587767E+03 -0.13216913637E+03  0.25757538570E+03  0.00000000000E+00 0.  1.
          1    1    6    6  503    0  0.19939263059E+02 -0.20779572707E+02 -0.43140225455E+02  0.51869489158E+02  0.00000000000E+00 0. -1.
         -1    1    6    6    0  503  0.29130971704E+03 -0.50401559631E+03 -0.32993603885E+03  0.66914188503E+03  0.00000000000E+00 0.  1.
<mgrwt>
<rscale>  0 0.13663372E+04</rscale>
<asrwt>0</asrwt>
<pdfrwt beam="1">  1        1 0.19474769E+00 0.13663372E+04</pdfrwt>
<pdfrwt beam="2">  1       -2 0.56722684E-01 0.13663372E+04</pdfrwt>
<totfact> 0.23923527E+01</totfact>
</mgrwt>
</event>
<event>
12    4  0.4424320E-008  0.2727987E+04  0.7818608E-02  0.8325981E-01
         -2   -1    0    0    0  501 -0.00000000000E+00  0.00000000000E+00  0.62949056282E+03  0.62949056282E+03  0.00000000000E+00 0.  1.
          1   -1    0    0  501    0  0.00000000000E+00 -0.00000000000E+00 -0.29555302400E+04  0.29555302400E+04  0.00000000000E+00 0. -1.
        -24    2    1    2    0    0  0.24772762328E+03 -0.44207820697E+03  0.41324293214E+03  0.65867795958E+03  0.79276838052E+02 0.  0.
        254    2    1    2    0    0 -0.24772762328E+03  0.44207820697E+03 -0.27392826093E+04  0.29263428433E+04  0.89610886958E+03 0.  0.
         23    2    4    4    0    0  0.27604394635E+03  0.28029779294E+02 -0.42174771264E+03  0.51282956419E+03  0.90205875318E+02 0.  0.
         23    2    4    4    0    0 -0.52377156964E+03  0.41404842768E+03 -0.23175348967E+04  0.24135132791E+04  0.91135027759E+02 0.  0.
          1    1    3    3  502    0  0.15109506239E+02 -0.87820678241E+02  0.70662265189E+02  0.11372741282E+03  0.00000000000E+00 0. -1.
         -4    1    3    3    0  502  0.23261811705E+03 -0.35425752873E+03  0.34258066695E+03  0.54495054675E+03  0.00000000000E+00 0.  1.
         11    1    5    5    0    0  0.67090247786E+02  0.42791098026E+02 -0.86642843241E+02  0.11763996644E+03  0.00000000000E+00 0.  1.
        -11    1    5    5    0    0  0.20895369857E+03 -0.14761318732E+02 -0.33510486940E+03  0.39518959775E+03  0.00000000000E+00 0. -1.
          3    1    6    6  503    0 -0.29693098175E+03  0.24574435164E+03 -0.11759850217E+04  0.12375375006E+04  0.00000000000E+00 0. -1.
         -3    1    6    6    0  503 -0.22684058789E+03  0.16830407603E+03 -0.11415498750E+04  0.11759757784E+04  0.00000000000E+00 0.  1.
<mgrwt>
<rscale>  0 0.27279871E+04</rscale>
<asrwt>0</asrwt>
<pdfrwt beam="1">  1        1 0.45469696E+00 0.27279871E+04</pdfrwt>
<pdfrwt beam="2">  1       -2 0.96844702E-01 0.27279871E+04</pdfrwt>
<totfact> 0.43945889E-01</totfact>
</mgrwt>
</event>
